Membrane in water
40347
    1TMC1    C1    1   0.996   0.545  10.978 -0.0650 -0.7605  1.1484
    1TMC1    C2    2   1.117   0.516  10.912 -0.0640 -0.3130  0.9040
    1TMC1    C3    3   1.191   0.613  10.853 -0.0822  0.7934  0.5450
    1TMC1    C4    4   0.972   0.672  11.014  0.3572 -0.0280  0.2237
    1TMC1    C5    5   1.067   0.768  10.984  0.4682  0.5407  0.4118
    1TMC1    C6    6   1.180   0.737  10.913 -0.0229 -0.3735 -0.0113
    1TMC1     C    7   0.938   0.437  11.053 -0.0455  0.0962  0.0589
    1TMC1     O    8   0.915   0.452  11.170  0.7751 -0.2091 -0.8296
    1TMC1     H    9   1.127   0.412  10.882  1.1500  0.3671 -1.0504
    1TMC1    H1   10   0.882   0.697  11.070  0.9273 -1.9950  2.0081
    1TMC1    H2   11   1.250   0.814  10.882 -2.0975  1.7610  0.6172
    1TMC1    C7   12   1.019   0.905  10.966 -0.1667 -0.0567 -0.2831
    1TMC1    C8   13   1.307   0.592  10.771  0.0279 -0.7927  0.2624
    1TMC1    O1   14   1.036   0.966  10.865  0.4747  0.6428  0.1801
    1TMC1    O2   15   1.414   0.644  10.805  0.0325 -0.0101 -0.1609
    1TMC1    O3   16   0.910   0.927  11.051  0.0062 -0.2806  0.3712
    1TMC1    H3   17   0.918   0.876  11.134  0.1879 -0.8646 -0.0052
    1TMC1    O5   18   1.292   0.480  10.698 -0.0988  0.2278 -0.0074
    1TMC1    H5   19   1.195   0.467  10.687 -0.1330 -1.3621  2.2425
    2MPD2     C   20   0.759   4.686  11.067  0.0035  0.0220  0.7204
    2MPD2    C1   21   0.789   0.038  11.171  0.0357  0.2774  0.2407
    2MPD2    C2   22   0.852   0.159  11.137  0.2756 -0.2689  0.0757
    2MPD2    C3   23   0.878   0.193  11.005 -0.6013  0.3675 -0.1155
    2MPD2    C4   24   0.846   0.101  10.907  0.2174 -0.2699 -0.3312
    2MPD2    C5   25   0.789   4.716  10.941  0.1179 -0.3450  0.4823
    2MPD2     H   26   0.872   0.231  11.215 -0.3125 -0.5833  0.5129
    2MPD2    H1   27   0.853   0.111  10.799  1.3855 -2.8452 -0.4741
    2MPD2    H2   28   0.714   4.588  11.080 -0.8243  0.3200  0.1275
    2MPD2    H3   29   0.765   4.640  10.868 -0.0418 -1.4831  1.7081
    2MPD2     N   30   0.915   0.327  10.972 -0.0514 -0.9385  0.7626
    2MPD2    H5   31   0.924   0.340  10.872  0.8953  0.2496  1.0123
    2MPD2    N1   32   0.768   0.009  11.308 -0.3621  0.5063  0.2974
    2MPD2    H7   33   0.808   0.073  11.377  0.0475 -0.5693  1.0556
    3TMC1    C1   34   0.153   0.059  10.642 -0.6552 -0.0643 -0.4168
    3TMC1    C2   35   0.263   0.110  10.706  0.9124 -0.1496  0.1445
    3TMC1    C3   36   0.386   0.088  10.643 -0.8897  0.3870 -0.1235
    3TMC1    C4   37   0.160   4.714  10.529 -0.8461  0.0921  0.1250
    3TMC1    C5   38   0.280   4.702  10.461  0.2013 -0.7314 -0.1724
    3TMC1    C6   39   0.398   0.012  10.525  0.1877 -0.3962  0.9821
    3TMC1     C   40   0.017   0.117  10.672  0.0601 -0.8742  0.9275
    3TMC1     O   41   4.655   0.057  10.636  0.2332  0.3438 -0.4354
    3TMC1     H   42   0.250   0.162  10.800  0.8942 -0.0534  0.0887
    3TMC1    H1   43   0.068   4.681  10.484 -0.6958  1.4230 -1.1554
    3TMC1    H2   44   0.494   4.736  10.477 -0.6825 -2.3668 -0.2599
    3TMC1    C7   45   0.275   4.656  10.328 -0.1669 -0.4207  0.0066
    3TMC1    C8   46   0.510   0.132  10.695  0.0503 -0.3522 -0.0516
    3TMC1    O1   47   0.347   4.568  10.290  0.2956 -0.8249 -0.1203
    3TMC1    O2   48   0.611   0.092  10.643 -0.1560  0.0734  0.5052
    3TMC1    O3   49   0.250   0.031  10.264  0.1411  0.3060 -0.1106
    3TMC1    H3   50   0.218   0.092  10.334  1.2466 -0.5572  1.1348
    3TMC1    O5   51   0.500   0.254  10.754 -0.4463  0.0735  0.0186
    3TMC1    H5   52   0.405   0.275  10.765 -0.3921  0.3864 -0.1068
    4MPD2     C   53   4.455   0.499  10.807  0.7401 -0.4076  0.9001
    4MPD2    C1   54   4.583   0.547  10.798 -0.0592 -0.4515  0.0959
    4MPD2    C2   55   4.683   0.456  10.776 -0.6477 -0.5318  0.3109
    4MPD2    C3   56   4.656   0.323  10.752  1.0034  0.3621  0.6725
    4MPD2    C4   57   4.530   0.273  10.770  0.3225 -0.4580 -0.1360
    4MPD2    C5   58   4.428   0.364  10.795 -0.1105 -0.4213  0.4239
    4MPD2     H   59   0.049   0.487  10.762 -1.2311  0.2726 -2.1936
    4MPD2    H1   60   4.506   0.168  10.755 -1.1629 -0.1577  0.1819
    4MPD2    H2   61   4.370   0.564  10.828 -0.6834 -1.2773 -2.1495
    4MPD2    H3   62   4.323   0.335  10.797 -0.8586  2.2355 -0.0354
    4MPD2     N   63   0.030   0.243  10.730  0.3217  0.1775 -0.8367
    4MPD2    H5   64   0.124   0.281  10.730  0.6426 -0.6196  0.3930
    4MPD2    N1   65   4.619   0.681  10.806  0.1141  0.8002  0.0388
    4MPD2    H7   66   4.717   0.702  10.791  0.2687 -0.7267 -1.0920
    5TCq1    O1   67   4.155   2.687  11.538  0.1444  0.0332  0.3055
    5TCq1    C1   68   4.187   2.733  11.406  0.0320  0.1276  0.0470
    5TCq1    O2   69   4.137   2.694  11.299  0.0409  0.5644  0.3049
    5TCq1    C2   70   4.320   2.808  11.409  0.2055 -0.0294 -0.4925
    5TCq1    C3   71   4.357   2.855  11.533  0.1051  0.6863 -0.4075
    5TCq1    C4   72   4.480   2.912  11.543  0.0141  0.1367  0.2117
    5TCq1    C5   73   4.562   2.929  11.431  0.1821 -0.0383  0.4915
    5TCq1    C6   74   4.514   2.887  11.307 -0.1832  0.2315 -0.4011
    5TCq1    C7   75   4.383   2.840  11.297  1.1823 -0.5391 -0.1030
    5TCq1    C8   76   4.617   2.858  11.207 -0.0729  1.1973  0.1539
    5TCq1    O4   77   4.598   2.758  11.136 -0.6888 -0.9349 -0.5108
    5TCq1    C9   78   4.530   2.948  11.670  0.0766  0.0056 -0.3460
    5TCq1    O5   79   4.457   2.923  11.772  0.5836  0.2473  0.5143
    5TCq1    O6   80   4.636   3.014  11.669  0.0641  0.4277  0.9066
    5TCq1    H1   81   4.206   2.728  11.611 -0.0369 -1.8571  1.4672
    5TCq1    H2   82   4.288   2.856  11.617 -0.5918 -0.5279 -0.9688
    5TCq1    H3   83   4.664   2.964  11.443  0.9933 -1.7821 -1.5419
    5TCq1    H4   84   4.346   2.806  11.200 -2.1037  0.0635  0.9386
    6MPD2     C   85   0.187   3.068  11.217 -0.6409  0.0391  0.1132
    6MPD2    C1   86   0.120   2.950  11.192  0.0105 -0.9762  0.6411
    6MPD2    C2   87   0.191   2.836  11.147  0.3445  0.2048  0.3410
    6MPD2    C3   88   0.325   2.848  11.115  0.1330  0.3588  0.4092
    6MPD2    C4   89   0.389   2.966  11.140 -0.4081 -0.2661 -0.0040
    6MPD2    C5   90   0.315   3.069  11.187  0.3344  0.7999 -0.4966
    6MPD2     H   91   0.134   2.744  11.140  1.0506 -0.2241  0.1951
    6MPD2    H1   92   0.494   2.982  11.118 -0.1217 -2.1483  0.0074
    6MPD2    H2   93   0.139   3.153  11.265 -1.6985 -0.9285  0.7740
    6MPD2    H3   94   0.370   3.161  11.201  0.5995 -0.1511  4.5378
    6MPD2     N   95   0.388   2.733  11.062  0.5194 -0.3670  0.3833
    6MPD2    H5   96   0.335   2.647  11.064  0.2240 -0.2523 -1.9484
    6MPD2    N1   97   4.721   2.950  11.223  0.3544 -0.2440 -0.1928
    6MPD2    H7   98   4.691   3.036  11.267  0.2611 -0.2021 -0.3389
    7TCq1    O1   99   2.348   1.715  12.679 -0.3203 -0.7082  0.4522
    7TCq1    C1  100   2.350   1.668  12.802 -0.8355 -0.5292  0.2169
    7TCq1    O2  101   2.333   1.554  12.834 -0.2358 -0.3914  0.7526
    7TCq1    C2  102   2.403   1.775  12.887  0.2515 -0.5701  0.3251
    7TCq1    C3  103   2.384   1.903  12.848  0.5458 -0.3196  1.2794
    7TCq1    C4  104   2.446   1.997  12.922  0.5804 -0.0930 -0.4960
    7TCq1    C5  105   2.508   1.969  13.040  0.2959 -0.9186  0.1410
    7TCq1    C6  106   2.511   1.838  13.084  0.3346 -0.7285 -0.4031
    7TCq1    C7  107   2.465   1.736  12.995  0.4816  0.2753 -0.0389
    7TCq1    C8  108   2.585   1.797  13.203 -0.3694 -0.1117  0.0061
    7TCq1    O4  109   2.617   1.676  13.212 -0.2315 -0.8303  0.6461
    7TCq1    C9  110   2.419   2.140  12.888 -0.3326 -1.3562  0.0710
    7TCq1    O5  111   2.386   2.171  12.771 -0.0359  0.2139  0.5919
    7TCq1    O6  112   2.408   2.218  12.986 -0.4152 -0.1388 -0.4404
    7TCq1    H1  113   2.382   1.806  12.665  1.4501 -1.2919  0.9410
    7TCq1    H2  114   2.308   1.930  12.775  1.5659  0.1215  0.3889
    7TCq1    H3  115   2.538   2.049  13.107 -0.5137  0.5263 -1.2327
    7TCq1    H4  116   2.476   1.629  13.008  4.2498  0.6805 -0.0778
    8MPD2     C  117   2.853   1.910  13.615 -0.2375 -0.4252  0.0421
    8MPD2    C1  118   2.850   1.796  13.542 -0.6284  0.4328 -0.3048
    8MPD2    C2  119   2.778   1.800  13.426 -0.1985  0.0232 -0.0313
    8MPD2    C3  120   2.698   1.912  13.393 -0.6115  0.6089 -0.5577
    8MPD2    C4  121   2.687   2.020  13.476  0.2561  0.3188  0.3466
    8MPD2    C5  122   2.776   2.022  13.582  0.2259  0.0084 -0.6710
    8MPD2     H  123   2.778   1.710  13.365 -1.6926 -2.4464  3.5979
    8MPD2    H1  124   2.625   2.105  13.451 -0.8508 -0.3703  0.6910
    8MPD2    H2  125   2.908   1.916  13.708 -0.1320 -0.8837  0.0106
    8MPD2    H3  126   2.785   2.106  13.649  1.9716  1.0111 -2.1655
    8MPD2     N  127   2.620   1.910  13.275 -0.2537  0.2162  0.2263
    8MPD2    H5  128   2.575   1.999  13.254 -1.0363 -0.5325 -1.2418
    8MPD2    N1  129   2.943   1.696  13.575  0.4705  0.1552  0.6702
    8MPD2    H7  130   3.009   1.718  13.650  0.7955 -3.0094  1.3288
    9TMC1    C1  131   1.290   0.852  11.595  0.4306  0.0001 -0.0604
    9TMC1    C2  132   1.314   0.865  11.466 -0.6536  0.2487 -0.4182
    9TMC1    C3  133   1.333   0.749  11.394  0.0947  0.1770  0.0236
    9TMC1    C4  134   1.280   0.737  11.664  0.7583  0.2315 -0.3223
    9TMC1    C5  135   1.300   0.620  11.586 -0.1349  0.8649 -0.4865
    9TMC1    C6  136   1.321   0.625  11.453 -0.9849  0.4040  0.0224
    9TMC1     C  137   1.210   0.966  11.655  0.8743  0.3304 -0.0310
    9TMC1     O  138   1.229   1.085  11.629  0.6697  0.5152 -0.1280
    9TMC1     H  139   1.319   0.965  11.424  2.5860  0.5019  0.6287
    9TMC1    H1  140   1.271   0.731  11.772  1.6509  0.9141 -0.2121
    9TMC1    H2  141   1.344   0.532  11.403 -1.3667  0.9333 -1.1486
    9TMC1    C7  142   1.327   0.500  11.659 -0.7199  0.4138  0.1825
    9TMC1    C8  143   1.361   0.743  11.256  0.7303  0.1005  0.2857
    9TMC1    O1  144   1.361   0.502  11.775  0.0252 -0.1111 -0.0444
    9TMC1    O2  145   1.391   0.640  11.206 -0.2167  0.3079  0.2214
    9TMC1    O3  146   1.259   0.403  11.600  0.4833 -0.3029  0.2592
    9TMC1    H3  147   1.219   0.428  11.514 -0.2526  0.1646  0.7416
    9TMC1    O5  148   1.296   0.838  11.186  0.2349 -0.5489  0.3086
    9TMC1    H5  149   1.246   0.903  11.241  0.2893 -0.1224 -0.1511
   10MPD2     C  150   1.051   1.132  11.836  0.1253 -0.0765 -0.0857
   10MPD2    C1  151   1.046   0.996  11.832  0.1953  0.2046 -0.0396
   10MPD2    C2  152   0.968   0.918  11.912 -0.1752  0.1070  0.1856
   10MPD2    C3  153   0.901   0.978  12.014  0.0256  0.2770  0.9275
   10MPD2    C4  154   0.916   1.112  12.036  0.5265 -0.5063 -0.5800
   10MPD2    C5  155   0.991   1.186  11.950 -0.0058 -0.2046  0.2303
   10MPD2     H  156   0.967   0.812  11.893  0.0058  0.1438 -0.0308
   10MPD2    H1  157   0.868   1.162  12.119  0.7309  2.0396 -2.0145
   10MPD2    H2  158   1.108   1.195  11.769 -0.2966  0.6946  0.2756
   10MPD2    H3  159   0.995   1.292  11.970  1.7697  0.7098 -4.8224
   10MPD2     N  160   0.826   0.903  12.106  0.4998 -0.1844  0.3826
   10MPD2    H5  161   0.793   0.949  12.190  0.0275  1.1875 -0.5547
   10MPD2    N1  162   1.115   0.916  11.739 -0.3806  0.0151 -0.4302
   10MPD2    H7  163   1.104   0.815  11.742  0.8727 -0.1602 -1.6942
   11TCq1    O1  164   1.698   0.381  14.038 -0.5160  0.1876 -0.1716
   11TCq1    C1  165   1.596   0.469  14.030 -0.6104  0.1848  0.1144
   11TCq1    O2  166   1.602   0.590  14.022 -0.6558  0.1976 -0.0168
   11TCq1    C2  167   1.476   0.408  14.066 -0.6439 -0.0327 -0.5510
   11TCq1    C3  168   1.382   0.493  14.117  0.7987  1.1560 -0.4627
   11TCq1    C4  169   1.251   0.454  14.133  0.4260 -0.3817 -0.2175
   11TCq1    C5  170   1.214   0.340  14.081 -0.0848 -0.2922 -0.3681
   11TCq1    C6  171   1.302   0.251  14.029  0.4840 -0.3030 -0.1092
   11TCq1    C7  172   1.442   0.287  14.020 -0.3857  0.1194 -0.9716
   11TCq1    C8  173   1.245   0.176  13.920  0.3238  0.0723  0.0999
   11TCq1    O4  174   1.138   0.212  13.882 -0.5464  0.5031  0.0309
   11TCq1    C9  175   1.156   0.538  14.207 -0.0239  0.2552  0.0563
   11TCq1    O5  176   1.204   0.625  14.285  0.3275  0.2877  0.2788
   11TCq1    O6  177   1.033   0.505  14.200 -0.3409 -0.9333  0.2239
   11TCq1    H1  178   1.668   0.293  14.067 -0.0691 -0.1818 -0.8154
   11TCq1    H2  179   1.412   0.588  14.158  1.3885  1.1412 -0.8639
   11TCq1    H3  180   1.110   0.311  14.084 -0.1996  0.1259 -0.3781
   11TCq1    H4  181   1.505   0.224  13.959 -0.4206 -1.1155  0.2848
   12MPD2     C  182   1.175   4.726  13.701 -0.0926 -0.3211  0.2903
   12MPD2    C1  183   1.299   4.725  13.771 -0.2867  0.1257  0.7721
   12MPD2    C2  184   1.392   4.621  13.749  0.3098 -0.0024  0.2694
   12MPD2    C3  185   1.371   4.526  13.652 -0.3650 -0.5220 -0.8777
   12MPD2    C4  186   1.249   4.533  13.579 -0.1605 -0.0094  0.1817
   12MPD2    C5  187   1.159   4.635  13.601 -0.4451  0.0739 -0.5658
   12MPD2     H  188   1.480   4.612  13.811 -1.0507  2.6233  2.6170
   12MPD2    H1  189   1.229   4.456  13.505 -1.0760 -1.5350  2.0360
   12MPD2    H2  190   1.096   0.059  13.724  0.8667  0.5464  0.9906
   12MPD2    H3  191   1.074   4.653  13.536 -1.5445 -0.5915  0.6878
   12MPD2     N  192   1.449   4.412  13.619  0.5950 -0.4868  0.0688
   12MPD2    H5  193   1.416   4.348  13.548  2.9007  2.9615 -4.1431
   12MPD2    N1  194   1.333   0.081  13.871 -0.0914 -0.1559 -0.4192
   12MPD2    H7  195   1.413   0.067  13.932 -0.9856 -1.9791  0.3485
   13TCq1    O1  196   0.781   1.185  10.665  0.5076 -0.3534 -0.1036
   13TCq1    C1  197   0.665   1.110  10.662 -0.8609  0.3649 -0.5495
   13TCq1    O2  198   0.552   1.139  10.702  0.3049 -0.0667  0.1635
   13TCq1    C2  199   0.716   0.975  10.688 -0.2092  0.4103 -0.0920
   13TCq1    C3  200   0.724   0.901  10.574 -0.6645 -0.1266 -0.4177
   13TCq1    C4  201   0.703   0.765  10.583 -0.2227 -0.2437  0.0919
   13TCq1    C5  202   0.665   0.709  10.699  0.4548 -0.7986 -0.7743
   13TCq1    C6  203   0.644   0.792  10.801  0.5668 -0.4358 -1.0297
   13TCq1    C7  204   0.677   0.926  10.806 -0.5837  0.1634 -0.5936
   13TCq1    C8  205   0.599   0.748  10.932 -0.0587  0.4333 -0.8431
   13TCq1    O4  206   0.550   0.832  11.007 -0.0582 -0.4184 -0.7543
   13TCq1    C9  207   0.726   0.684  10.469 -0.1022 -0.9731 -0.2082
   13TCq1    O5  208   0.711   0.560  10.491  0.2469 -0.0332 -0.1559
   13TCq1    O6  209   0.742   0.738  10.355  0.3183  0.3042  0.4322
   13TCq1    H1  210   0.865   1.137  10.647  2.1766  2.9176 -1.0283
   13TCq1    H2  211   0.751   0.946  10.479 -0.8650  1.4841  0.2750
   13TCq1    H3  212   0.644   0.603  10.706 -1.7228 -0.2664  0.6511
   13TCq1    H4  213   0.667   0.989  10.895  0.1663  0.4943 -0.7405
   14MPD2     C  214   0.594   0.406  11.055 -0.9064 -0.0552  0.2036
   14MPD2    C1  215   0.566   0.540  11.061  0.3701 -0.5595 -0.1043
   14MPD2    C2  216   0.498   0.591  11.171  0.5165  0.0932 -0.1264
   14MPD2    C3  217   0.466   0.505  11.272 -0.3286  0.8440  0.7128
   14MPD2    C4  218   0.487   0.368  11.263  0.0830 -0.8169 -0.5289
   14MPD2    C5  219   0.564   0.325  11.159  0.0419 -0.2382  0.1529
   14MPD2     H  220   0.478   0.697  11.179  1.6242  0.2592  0.4525
   14MPD2    H1  221   0.461   0.296  11.339 -2.4079 -0.2712 -0.8810
   14MPD2    H2  222   0.645   0.364  10.970  1.6817  0.4909  1.4689
   14MPD2    H3  223   0.602   0.224  11.155  0.6656 -0.0011  0.0713
   14MPD2     N  224   0.386   0.558  11.379 -0.6961 -0.0784 -0.2315
   14MPD2    H5  225   0.362   0.657  11.374  3.1946  0.9278  0.4346
   14MPD2    N1  226   0.608   0.616  10.950 -0.1537 -0.1454  0.6844
   14MPD2    H7  227   0.646   0.561  10.873 -1.4442 -0.1579  0.0572
   15TCq1    O1  228   3.593   0.421   1.556 -0.1501 -0.0389  0.6349
   15TCq1    C1  229   3.567   0.335   1.451  0.4544  0.2231 -0.2480
   15TCq1    O2  230   3.660   0.280   1.394  0.0646  0.2970  0.0019
   15TCq1    C2  231   3.440   0.268   1.472 -0.3292 -0.4481  1.2022
   15TCq1    C3  232   3.337   0.343   1.519  0.3948 -0.1067  0.7805
   15TCq1    C4  233   3.213   0.289   1.522  0.0979 -0.1886  0.3067
   15TCq1    C5  234   3.195   0.155   1.495 -0.0026 -0.1555 -0.1058
   15TCq1    C6  235   3.300   0.084   1.443  0.5983  0.0214 -1.0567
   15TCq1    C7  236   3.430   0.133   1.440 -0.5335 -0.6819 -0.1574
   15TCq1    C8  237   3.282   4.689   1.386 -0.1422  0.2578 -0.3806
   15TCq1    O4  238   3.375   4.614   1.401 -0.5867 -0.2534  0.1916
   15TCq1    C9  239   3.096   0.365   1.553  0.0112 -0.1143 -0.8152
   15TCq1    O5  240   2.988   0.325   1.499 -0.1766  0.4896  0.2215
   15TCq1    O6  241   3.110   0.475   1.616 -0.8580  0.0087 -0.6299
   15TCq1    H1  242   3.518   0.452   1.611 -0.8003 -0.3602 -0.0657
   15TCq1    H2  243   3.348   0.451   1.528 -0.1420  0.2508 -2.9025
   15TCq1    H3  244   3.091   0.124   1.495 -0.1685  0.3928  0.8357
   15TCq1    H4  245   3.518   0.072   1.418  0.2284  0.0997  0.7018
   16MPD2     C  246   3.039   4.605   1.146  0.8922  0.2463  0.6140
   16MPD2    C1  247   3.146   4.576   1.226  0.2133  0.2865 -0.3025
   16MPD2    C2  248   3.217   4.453   1.212  0.2610  0.5010 -0.2939
   16MPD2    C3  249   3.201   4.371   1.110  0.0532 -0.1825 -1.1843
   16MPD2    C4  250   3.110   4.401   1.017  0.5411 -0.4095  0.4179
   16MPD2    C5  251   3.024   4.506   1.047 -0.0081  0.3968  0.0306
   16MPD2     H  252   3.303   4.432   1.275 -1.4775  2.3753  2.6997
   16MPD2    H1  253   3.098   4.342   0.926  0.2349 -1.5230  1.1796
   16MPD2    H2  254   2.970   4.689   1.144  1.7367  0.9012 -1.2162
   16MPD2    H3  255   2.955   4.527   0.966 -1.3315  0.6552  1.2277
   16MPD2     N  256   3.299   4.265   1.085  0.8382  0.4079  0.1368
   16MPD2    H5  257   3.381   4.261   1.145 -2.1278  2.7076  4.4018
   16MPD2    N1  258   3.171   4.682   1.313 -0.1822 -0.2814 -0.5051
   16MPD2    H7  259   3.098   0.016   1.320 -0.1866 -0.5652  2.2156
   17TMC1    C1  260   0.053   3.826  10.037 -0.7240  0.5330  0.5093
   17TMC1    C2  261   0.139   3.856   9.932  0.2193 -0.6190 -0.5481
   17TMC1    C3  262   0.097   3.850   9.805  0.1012  0.1657 -0.5373
   17TMC1    C4  263   4.661   3.798  10.012  0.5770 -0.2889  0.0826
   17TMC1    C5  264   4.614   3.803   9.883 -0.1991 -0.0245  0.7793
   17TMC1    C6  265   4.701   3.828   9.776 -0.2681  0.9425 -0.6367
   17TMC1     C  266   0.105   3.789  10.164 -0.6287  0.7693 -0.5887
   17TMC1     O  267   0.031   3.720  10.231  0.0955  0.6102  0.0208
   17TMC1     H  268   0.246   3.865   9.945 -0.0539  0.2873  1.0758
   17TMC1    H1  269   4.594   3.791  10.097 -1.9468 -1.3847 -1.9743
   17TMC1    H2  270   4.667   3.821   9.674  0.7079 -0.3383 -0.8798
   17TMC1    C7  271   4.479   3.756   9.851  0.2503  0.1036  0.5362
   17TMC1    C8  272   0.193   3.875   9.694 -0.2130 -0.4069 -0.1281
   17TMC1    O1  273   4.426   3.657   9.898 -0.0703 -0.2366 -0.1411
   17TMC1    O2  274   0.290   3.953   9.712  0.2265 -0.1258  0.3036
   17TMC1    O3  275   4.429   3.843   9.758 -0.2810 -0.0635 -0.0443
   17TMC1    H3  276   4.490   3.916   9.732  0.1410 -0.9215 -1.4453
   17TMC1    O5  277   0.136   3.839   9.575 -0.0523  0.3377 -0.1917
   17TMC1    H5  278   0.061   3.776   9.583  1.4544 -1.4327 -0.0941
   18MPD2     C  279   0.279   3.692  10.386  0.7218  0.5553 -0.2639
   18MPD2    C1  280   0.302   3.807  10.308 -0.2345  0.3882  0.6080
   18MPD2    C2  281   0.411   3.879  10.344 -0.5891  0.1142 -0.1751
   18MPD2    C3  282   0.503   3.843  10.437 -0.0244 -0.2580 -0.3157
   18MPD2    C4  283   0.472   3.734  10.522  1.0161  0.4403 -0.6108
   18MPD2    C5  284   0.362   3.661  10.494  0.0728 -0.2315  0.0281
   18MPD2     H  285   0.427   3.964  10.280  1.8364 -1.0009 -1.0427
   18MPD2    H1  286   0.542   3.701  10.598 -0.2051 -0.3848  0.1560
   18MPD2    H2  287   0.198   3.625  10.360 -0.5633  2.6401 -1.6345
   18MPD2    H3  288   0.344   3.573  10.554 -1.2487 -0.5123 -0.7825
   18MPD2     N  289   0.620   3.919  10.469 -0.2567 -0.1686 -1.0270
   18MPD2    H5  290   0.662   3.899  10.560  0.1574  1.2129 -0.9195
   18MPD2    N1  291   0.229   3.846  10.191 -0.3886 -0.2232  0.2608
   18MPD2    H7  292   0.265   3.923  10.136  2.6559 -0.8326  1.3932
   19TMC2    C1  293   2.458   0.325  13.942 -0.2411  0.4558 -0.1222
   19TMC2    C2  294   2.344   0.388  13.905  0.0786 -0.2287 -0.9954
   19TMC2    C3  295   2.236   0.320  13.877  0.1588  0.0927 -0.4009
   19TMC2    C4  296   2.468   0.190  13.952  0.5093 -0.3632  0.3220
   19TMC2    C5  297   2.358   0.121  13.911  0.8419 -0.0152  0.5798
   19TMC2    C6  298   2.239   0.185  13.874  0.0715 -0.0149  0.2043
   19TMC2     C  299   2.566   0.420  13.980  0.0983  0.1868  0.6132
   19TMC2     O  300   2.594   0.516  13.906 -0.2530  0.2302 -0.6870
   19TMC2     H  301   2.334   0.496  13.905  2.2554 -0.0310 -3.1137
   19TMC2    H1  302   2.563   0.143  13.974 -0.0053 -0.0679  3.1893
   19TMC2    H2  303   2.156   0.129  13.835 -1.4266  1.1144  1.7726
   19TMC2    C7  304   2.367   4.714  13.917  0.3003 -0.5206 -0.1344
   19TMC2    C8  305   2.110   0.393  13.858 -1.0994 -0.6394  0.1373
   19TMC2    O1  306   2.465   4.673  13.974  0.5260  0.1623  0.2620
   19TMC2    O2  307   2.102   0.511  13.838  0.3374 -0.3271  0.2353
   19TMC2    O5  308   2.005   0.312  13.895  0.2739 -0.1072  0.9237
   19TMC2    H5  309   2.034   0.235  13.950 -1.8062  0.1869  2.4186
   20MPD2     C  310   2.771   0.573  14.141  0.0281  0.1768  0.2912
   20MPD2    C1  311   2.734   0.445  14.164 -0.1288 -0.5035 -0.5667
   20MPD2    C2  312   2.806   0.387  14.269 -0.2378  0.3787 -0.5062
   20MPD2    C3  313   2.909   0.449  14.337  0.4164 -0.3503 -0.3594
   20MPD2    C4  314   2.931   0.581  14.312  0.1013 -0.6712 -0.0879
   20MPD2    C5  315   2.864   0.636  14.209 -0.2136 -0.3398  0.0684
   20MPD2     H  316   2.784   0.285  14.296  1.3268  0.0237 -0.5858
   20MPD2    H1  317   3.014   0.624  14.367 -0.2187  1.8112 -1.5134
   20MPD2    H2  318   2.723   0.627  14.060  0.9401 -2.6546 -2.1200
   20MPD2    H3  319   2.878   0.737  14.172  1.1701 -1.0935 -1.4620
   20MPD2     N  320   2.984   0.383  14.439  0.2752 -0.0609  0.1543
   20MPD2    H5  321   3.050   0.445  14.486 -0.5209  1.3190 -0.5441
   20MPD2    N1  322   2.636   0.373  14.092 -0.1611 -0.5004  0.1127
   20MPD2    H7  323   2.599   0.286  14.128  0.5666 -0.5989  0.6307
   21TMC2    C1  324   4.430   0.240  14.449 -0.7106 -0.8949 -0.0640
   21TMC2    C2  325   4.509   0.134  14.425 -1.5258  0.3103  0.1396
   21TMC2    C3  326   4.542   0.053  14.536 -0.7538 -0.3591 -0.0841
   21TMC2    C4  327   4.382   0.281  14.570 -0.0196 -1.3727 -0.1974
   21TMC2    C5  328   4.429   0.205  14.679 -0.6062  0.4064 -0.8423
   21TMC2    C6  329   4.503   0.087  14.664 -0.4904 -0.5200 -0.3313
   21TMC2     C  330   4.380   0.308  14.329 -0.1550 -0.2855 -0.6585
   21TMC2     O  331   4.319   0.239  14.248  0.7720 -0.8155  0.0312
   21TMC2     H  332   4.527   0.090  14.328  1.5761 -0.1174  0.9110
   21TMC2    H1  333   4.301   0.354  14.572  1.5620  0.4227 -0.9820
   21TMC2    H2  334   4.523   0.028  14.753  0.1018  2.0577  1.2562
   21TMC2    C7  335   4.434   0.268  14.814 -0.0872 -0.7327  0.3377
   21TMC2    C8  336   4.593   4.655  14.502 -0.1139  0.1337 -0.1360
   21TMC2    O1  337   4.485   0.207  14.906  0.2296  0.0534  0.0053
   21TMC2    O2  338   4.559   4.598  14.403 -0.1528  0.1490  0.1342
   21TMC2    O5  339   4.626   4.601  14.622  0.3093  0.0173 -0.0919
   21TMC2    H5  340   4.664   4.674  14.675 -0.6230 -1.0356  2.0548
   22MPD2     C  341   4.597   0.708  14.580  0.1809  0.0384 -1.3168
   22MPD2    C1  342   4.648   0.580  14.555 -0.1594  0.0336  0.6249
   22MPD2    C2  343   4.589   0.493  14.467 -0.6364 -0.2251 -0.8423
   22MPD2    C3  344   4.469   0.533  14.408 -0.0624  0.2810 -1.0924
   22MPD2    C4  345   4.430   0.663  14.417  0.8111 -0.0136  0.0301
   22MPD2    C5  346   4.489   0.748  14.505  0.8713  0.2907  0.0766
   22MPD2     H  347   4.636   0.396  14.459  1.8836  0.8364  0.9867
   22MPD2    H1  348   4.340   0.696  14.367  1.9866  0.1187 -2.0054
   22MPD2    H2  349   4.644   0.780  14.646 -0.0430 -1.2906  0.2840
   22MPD2    H3  350   4.448   0.846  14.524  0.6642  0.2890 -0.3557
   22MPD2     N  351   4.395   0.446  14.325  0.1347  0.4944 -0.7407
   22MPD2    H5  352   4.331   0.498  14.266 -0.3694  0.5660 -0.1288
   22MPD2    N1  353   0.030   0.529  14.620 -0.3033 -0.0810  1.3203
   22MPD2    H7  354   0.071   0.448  14.574 -0.9394 -0.0051  0.6294
   23TMC2    C1  355   1.403   1.786  13.990 -0.1455 -0.4350  0.0714
   23TMC2    C2  356   1.351   1.907  13.975  0.4357 -0.3158 -0.5803
   23TMC2    C3  357   1.213   1.915  13.992  0.1443 -0.9930 -0.3930
   23TMC2    C4  358   1.323   1.671  13.998 -0.5531 -0.4796 -0.1705
   23TMC2    C5  359   1.185   1.689  14.014  0.3407  0.3869 -0.3036
   23TMC2    C6  360   1.129   1.812  14.015  0.0094  0.7838 -0.2305
   23TMC2     C  361   1.527   1.773  14.066 -0.3994  0.1938  0.2824
   23TMC2     O  362   1.562   1.855  14.148  0.6039  0.0569 -0.1245
   23TMC2     H  363   1.420   1.991  13.975  0.5982 -0.4491 -0.8412
   23TMC2    H1  364   1.374   1.577  14.010 -0.1120  0.1721  3.0228
   23TMC2    H2  365   1.023   1.833  14.006 -0.2533 -0.2739  0.3662
   23TMC2    C7  366   1.112   1.564  14.037 -0.2124  0.1074  0.4979
   23TMC2    C8  367   1.149   2.042  14.002  0.5649 -0.1570  0.1371
   23TMC2    O1  368   1.179   1.465  14.054 -0.6512  0.0213  0.3452
   23TMC2    O2  369   1.056   2.063  14.077 -0.4010 -0.8748 -0.1568
   23TMC2    O5  370   1.193   2.113  13.898 -0.2866 -0.3237  0.3969
   23TMC2    H5  371   1.271   2.073  13.853 -0.9887 -1.2201 -0.0155
   24MPD2     C  372   1.955   1.555  14.211 -0.1059 -0.2591  0.0958
   24MPD2    C1  373   1.847   1.597  14.283 -0.2667 -0.0140  0.3129
   24MPD2    C2  374   1.737   1.645  14.218 -0.8796 -0.5231 -0.4228
   24MPD2    C3  375   1.723   1.626  14.082 -0.3887 -0.5106  0.3014
   24MPD2    C4  376   1.822   1.561  14.006 -0.3718  0.2460 -0.2160
   24MPD2    C5  377   1.942   1.539  14.071 -0.4113 -0.3048  0.5833
   24MPD2     H  378   1.654   1.683  14.276 -1.4529 -1.8556 -0.3662
   24MPD2    H1  379   1.819   1.534  13.901  0.9779  1.0988 -0.4729
   24MPD2    H2  380   2.050   1.530  14.256 -0.0787  0.0055  0.1842
   24MPD2    H3  381   2.033   1.502  14.024  1.2970  3.0373  1.2714
   24MPD2     N  382   1.602   1.667  14.021 -0.4035  1.0544 -0.2644
   24MPD2    H5  383   1.588   1.631  13.927  0.7244  0.6203 -0.2698
   24MPD2    N1  384   1.847   1.604  14.427  0.2745 -0.1332  0.7965
   24MPD2    H7  385   1.772   1.645  14.482 -1.3240  0.1735 -1.6457
   25TMC2    C1  386   0.103   4.188  11.548  0.0245 -0.5747 -0.1600
   25TMC2    C2  387   0.195   4.285  11.564  0.8164  0.3056  0.5565
   25TMC2    C3  388   0.160   4.391  11.651  0.2188  0.1310 -0.4469
   25TMC2    C4  389   4.731   4.183  11.627 -0.1939  0.0279  0.4984
   25TMC2    C5  390   4.695   4.287  11.706  0.0249 -0.4092 -1.2238
   25TMC2    C6  391   0.038   4.396  11.717 -0.4033  0.1329  0.2865
   25TMC2     C  392   0.160   4.070  11.488 -0.0100 -0.0575 -0.4401
   25TMC2     O  393   0.281   4.057  11.478 -0.1249 -0.1900 -0.5207
   25TMC2     H  394   0.292   4.286  11.517  0.5770 -1.3353  0.0150
   25TMC2    H1  395   4.673   4.092  11.627 -0.0123 -0.0872  0.2205
   25TMC2    H2  396   0.024   4.460  11.803  0.2528 -0.8161  1.0999
   25TMC2    C7  397   4.596   4.255  11.809 -0.2779 -0.5065 -0.6950
   25TMC2    C8  398   0.249   4.500  11.687 -0.0901 -0.5346  0.7769
   25TMC2    O1  399   4.573   4.134  11.832 -0.3487  0.5518  0.4587
   25TMC2    O2  400   0.276   4.542  11.795 -0.1625  0.3347  0.1246
   25TMC2    O5  401   0.328   4.518  11.583 -0.0068 -0.1271  0.0759
   25TMC2    H5  402   0.307   4.470  11.500 -3.1749  0.9252  0.2680
   26MPD2     C  403   0.083   3.765  11.083  0.8375 -0.0287  0.0062
   26MPD2    C1  404   4.703   3.785  11.140 -0.5673 -0.0970  1.2050
   26MPD2    C2  405   4.696   3.874  11.246 -0.2183  0.2466  0.2704
   26MPD2    C3  406   0.076   3.924  11.300  0.6104  0.4292  0.8473
   26MPD2    C4  407   0.197   3.897  11.238  0.0317  0.2864 -0.4310
   26MPD2    C5  408   0.197   3.821  11.129  0.3156 -0.3643 -0.2876
   26MPD2     H  409   4.607   3.880  11.307 -1.0794 -2.1302 -0.7605
   26MPD2    H1  410   0.289   3.937  11.279 -0.3068  1.1401 -0.5080
   26MPD2    H2  411   0.092   3.701  10.996 -2.9980  0.6261 -0.8751
   26MPD2    H3  412   0.293   3.805  11.081 -0.2449  0.4047 -1.6830
   26MPD2     N  413   0.060   4.004  11.417  0.4304  0.9370  0.4236
   26MPD2    H5  414   4.703   4.030  11.446  0.0199 -3.2550  2.7605
   26MPD2    N1  415   4.592   3.705  11.101  0.8353  0.0758  0.7255
   26MPD2    H7  416   4.586   3.675  11.004  1.2084  0.5621  0.5522
   27TMC2    C1  417   4.093   1.330  12.360  0.3029 -0.8683  0.2291
   27TMC2    C2  418   4.048   1.347  12.231  0.1974 -0.0851 -0.9561
   27TMC2    C3  419   3.997   1.475  12.197 -0.9543  0.1878 -0.2331
   27TMC2    C4  420   4.098   1.436  12.446  0.1867 -0.5348  0.4448
   27TMC2    C5  421   4.044   1.558  12.414 -0.3410 -0.4527 -0.0071
   27TMC2    C6  422   3.993   1.578  12.287 -0.3389 -0.6322 -0.5486
   27TMC2     C  423   4.063   1.206  12.432  0.1893  0.5885 -0.0477
   27TMC2     O  424   4.078   1.098  12.378 -0.3699  0.2008  0.3317
   27TMC2     H  425   4.046   1.266  12.160  0.0917  0.3475 -1.4468
   27TMC2    H1  426   4.136   1.422  12.547  0.1949  0.8530  0.6257
   27TMC2    H2  427   3.937   1.665  12.253 -2.2746 -1.3988  0.6410
   27TMC2    C7  428   3.975   1.618  12.528 -0.2756 -0.1503  0.5919
   27TMC2    C8  429   3.920   1.491  12.077  0.0778 -0.2563 -0.9849
   27TMC2    O1  430   3.984   1.557  12.632  0.5614 -0.2179  0.6749
   27TMC2    O2  431   3.883   1.599  12.032  0.8001  0.0767  0.5160
   27TMC2    O5  432   3.849   1.376  12.069 -0.2566  0.2170 -0.6775
   27TMC2    H5  433   3.863   1.305  12.135  1.6483  0.4516 -0.8190
   28MPD2     C  434   3.794   0.998  12.810  0.3142 -0.6364 -0.1621
   28MPD2    C1  435   3.772   1.134  12.805  0.3371 -0.6040  0.3484
   28MPD2    C2  436   3.856   1.212  12.721  0.0857 -0.3385 -0.1201
   28MPD2    C3  437   3.941   1.155  12.632  0.0130 -0.7352 -0.2916
   28MPD2    C4  438   3.962   1.020  12.631  0.3952 -1.0966 -0.1455
   28MPD2    C5  439   3.893   0.947  12.722 -0.3824  0.3555 -0.1978
   28MPD2     H  440   3.853   1.321  12.720  0.1006 -0.3583 -1.2854
   28MPD2    H1  441   4.039   0.967  12.576  2.4564  0.4953  1.1934
   28MPD2    H2  442   3.731   0.935  12.873 -1.1337  0.6097 -0.3576
   28MPD2    H3  443   3.920   0.843  12.736 -1.3329  0.3273  1.4152
   28MPD2     N  444   4.000   1.241  12.543 -0.3192 -0.1714  0.6838
   28MPD2    H5  445   3.985   1.341  12.547  1.2743  0.0524  0.6722
   28MPD2    N1  446   3.661   1.189  12.878  0.3705  0.0940  0.3293
   28MPD2    H7  447   3.594   1.121  12.912  1.8262 -2.3595 -1.7247
   29TMC2    C1  448   3.448   3.458  14.504  0.1491 -0.2694 -0.9181
   29TMC2    C2  449   3.541   3.439  14.600 -0.1638 -0.0048  0.6393
   29TMC2    C3  450   3.565   3.540  14.684 -0.7972  0.3507  0.2433
   29TMC2    C4  451   3.386   3.579  14.484  0.1765 -0.2154  0.7974
   29TMC2    C5  452   3.405   3.674  14.580  0.0173  0.5872 -0.2538
   29TMC2    C6  453   3.503   3.660  14.670 -0.1179 -0.0050 -0.6853
   29TMC2     C  454   3.438   3.342  14.418 -0.5430  0.2158  0.3799
   29TMC2     O  455   3.466   3.239  14.478 -0.6350  0.0342 -0.0207
   29TMC2     H  456   3.590   3.343  14.614 -0.0304 -0.4004 -2.4817
   29TMC2    H1  457   3.317   3.592  14.402  2.0361 -0.7693 -0.8497
   29TMC2    H2  458   3.515   3.733  14.749 -0.8336  1.1614 -1.6470
   29TMC2    C7  459   3.346   3.799  14.561  0.3379 -0.7599 -0.2263
   29TMC2    C8  460   3.668   3.524  14.785 -0.5764 -0.1260 -0.1108
   29TMC2    O1  461   3.230   3.801  14.528 -0.3619  0.1399  0.0740
   29TMC2    O2  462   3.679   3.597  14.882 -0.4977 -0.3402  0.4065
   29TMC2    O5  463   3.772   3.484  14.710 -0.4336  0.0702 -0.2791
   29TMC2    H5  464   3.737   3.435  14.632  0.5793  1.7374 -1.7801
   30MPD2     C  465   3.354   3.099  13.975  1.1909 -0.4329  0.3452
   30MPD2    C1  466   3.401   3.052  14.092 -0.1184 -0.4068 -0.8098
   30MPD2    C2  467   3.401   3.139  14.203  0.0791 -0.0112 -0.1853
   30MPD2    C3  468   3.363   3.276  14.194  0.3109 -0.5742 -0.2648
   30MPD2    C4  469   3.316   3.318  14.069 -0.0260 -0.2315  0.2495
   30MPD2    C5  470   3.301   3.228  13.970 -0.9604 -0.9082 -0.3445
   30MPD2     H  471   3.440   3.100  14.296 -0.0321 -0.9907 -0.5541
   30MPD2    H1  472   3.290   3.423  14.060  0.0623 -0.3250 -1.0855
   30MPD2    H2  473   3.344   3.048  13.880  0.1202  1.0537 -0.3460
   30MPD2    H3  474   3.258   3.270  13.880 -2.7820 -1.2870  0.3647
   30MPD2     N  475   3.372   3.366  14.298  0.2511 -0.0518 -0.5502
   30MPD2    H5  476   3.347   3.462  14.275 -0.4097  0.0243  0.4784
   30MPD2    N1  477   3.456   2.922  14.097 -0.7385  0.5149 -0.1075
   30MPD2    H7  478   3.514   2.895  14.176  0.5969  3.1797 -0.1574
   31TMC2    C1  479   1.075   2.573  15.328 -0.3730 -0.2834  0.3228
   31TMC2    C2  480   0.938   2.574  15.330  0.0322 -0.3280  1.1662
   31TMC2    C3  481   0.882   2.551  15.450 -0.0725  0.5077  0.1025
   31TMC2    C4  482   1.152   2.568  15.442  0.0943  0.4220  0.4141
   31TMC2    C5  483   1.086   2.550  15.557 -0.2387  0.4997  0.4610
   31TMC2    C6  484   0.958   2.538  15.568 -0.3056  0.2363  0.0753
   31TMC2     C  485   1.144   2.586  15.202  0.7578  0.8559 -0.6193
   31TMC2     O  486   1.084   2.631  15.108 -0.0737  0.0974  0.6689
   31TMC2     H  487   0.890   2.594  15.235  0.6655  0.2264  0.9651
   31TMC2    H1  488   1.259   2.585  15.448  0.2340 -0.4678  0.4275
   31TMC2    H2  489   0.908   2.511  15.660  1.9783 -1.2258  0.8738
   31TMC2    C7  490   1.158   2.499  15.675  0.4369 -0.6332  0.1160
   31TMC2    C8  491   0.746   2.520  15.470  0.0149 -0.5111 -0.5366
   31TMC2    O1  492   1.104   2.408  15.741 -0.1097  0.1820 -0.0545
   31TMC2    O2  493   0.706   2.464  15.572 -0.0392  0.2635  0.1508
   31TMC2    O5  494   0.673   2.559  15.363  0.2152 -0.1974  0.1375
   31TMC2    H5  495   0.721   2.632  15.317  0.4328 -1.0812 -1.0348
   32MPD2     C  496   1.515   2.425  14.885 -0.6668 -0.4624 -0.4273
   32MPD2    C1  497   1.408   2.500  14.858 -0.2443  0.5158  0.1432
   32MPD2    C2  498   1.316   2.525  14.961 -0.1711  1.0455  0.0768
   32MPD2    C3  499   1.323   2.473  15.086 -0.3511 -0.1193 -0.1146
   32MPD2    C4  500   1.438   2.402  15.109  0.0663 -0.6736 -0.2450
   32MPD2    C5  501   1.532   2.380  15.010 -0.5952 -0.2223  0.2829
   32MPD2     H  502   1.232   2.587  14.931 -0.7977  0.6526  1.0200
   32MPD2    H1  503   1.463   2.372  15.210  0.9396  2.2767  0.3942
   32MPD2    H2  504   1.589   2.413  14.806 -1.3133  0.2319 -1.1373
   32MPD2    H3  505   1.626   2.331  15.031  0.1627  0.8083 -0.7095
   32MPD2     N  506   1.248   2.502  15.199  0.8962  0.1311 -0.0868
   32MPD2    H5  507   1.280   2.457  15.284  0.0633 -3.1210 -1.5117
   32MPD2    N1  508   1.406   2.559  14.731  0.0478  0.1666  0.8038
   32MPD2    H7  509   1.493   2.569  14.680 -0.4511  1.6881  0.2550
   33TMC2    C1  510   1.517   4.473   9.903  0.3663 -0.6198 -0.7167
   33TMC2    C2  511   1.546   4.369   9.819  0.6128  0.4834  0.1179
   33TMC2    C3  512   1.603   4.395   9.698  0.7814 -0.0463  0.7106
   33TMC2    C4  513   1.557   4.600   9.867 -0.2928  0.0405 -0.1329
   33TMC2    C5  514   1.624   4.612   9.747 -0.2493  0.0019 -0.2461
   33TMC2    C6  515   1.656   4.514   9.666  0.5972 -0.0045 -0.2355
   33TMC2     C  516   1.436   4.449  10.022 -0.1941 -0.7976 -1.0542
   33TMC2     O  517   1.377   4.342  10.019  0.4187  0.2562  0.3500
   33TMC2     H  518   1.501   4.271   9.836  0.2253  0.5853 -0.3085
   33TMC2    H1  519   1.536   4.686   9.930  0.5581  1.8188 -2.2611
   33TMC2    H2  520   1.703   4.521   9.568  0.3092  0.0704 -0.3657
   33TMC2    C7  521   1.691   0.007   9.735  0.1399  0.5622  0.7752
   33TMC2    C8  522   1.625   4.287   9.599 -0.2973  0.4942  0.0019
   33TMC2    O1  523   1.696   0.083   9.828 -0.0018  0.5310 -0.0600
   33TMC2    O2  524   1.729   4.282   9.533 -0.1349 -1.0336  0.3577
   33TMC2    O5  525   1.528   4.198   9.609 -0.1217 -0.4759  0.6882
   33TMC2    H5  526   1.445   4.233   9.648 -0.1047  0.4795 -0.1394
   34MPD2     C  527   1.183   4.636  10.418  0.2558 -0.1929 -0.2425
   34MPD2    C1  528   1.173   4.513  10.355  0.0753  0.8434  0.5010
   34MPD2    C2  529   1.256   4.478  10.255  0.8712 -0.2373 -0.0860
   34MPD2    C3  530   1.339   4.581  10.205  0.3180  0.0052  0.7653
   34MPD2    C4  531   1.350   4.700  10.265 -0.2763 -0.2659 -0.1328
   34MPD2    C5  532   1.277   4.729  10.380  0.6511  0.3666  0.4398
   34MPD2     H  533   1.257   4.376  10.216  1.6884 -1.3467  2.8274
   34MPD2    H1  534   1.420   0.036  10.227 -0.2911 -0.5174 -0.6454
   34MPD2    H2  535   1.125   4.658  10.507  1.1086 -0.7142  0.4409
   34MPD2    H3  536   1.285   0.086  10.433  0.1245  0.3013  0.6408
   34MPD2     N  537   1.421   4.563  10.090  0.3864 -0.3388 -0.0251
   34MPD2    H5  538   1.476   4.648  10.079  1.5932 -1.3426 -1.5435
   34MPD2    N1  539   1.084   4.428  10.412  0.0655  0.2589 -0.8661
   34MPD2    H7  540   1.047   4.459  10.501  0.9331  0.3867 -0.5508
   35TMC2    C1  541   2.124   1.503  11.560  0.5559  0.0402  0.1350
   35TMC2    C2  542   2.049   1.554  11.460 -0.7326 -0.9777 -0.4270
   35TMC2    C3  543   1.921   1.507  11.444  0.4239 -0.9513  0.3992
   35TMC2    C4  544   2.073   1.409  11.645 -0.6964  0.0305  0.5524
   35TMC2    C5  545   1.940   1.375  11.630  0.2019 -0.3095 -0.4456
   35TMC2    C6  546   1.854   1.425  11.530  0.4336 -0.8290 -0.6779
   35TMC2     C  547   2.270   1.519  11.544  0.1460 -0.4727  0.2524
   35TMC2     O  548   2.313   1.555  11.434  0.2793 -0.8788  0.1198
   35TMC2     H  549   2.098   1.629  11.399 -2.0120  0.5199  0.3678
   35TMC2    H1  550   2.135   1.357  11.717  0.2101 -1.4622 -1.2886
   35TMC2    H2  551   1.752   1.392  11.514 -0.4602  1.6853 -0.0644
   35TMC2    C7  552   1.892   1.270  11.712  0.0252  0.5157  0.8599
   35TMC2    C8  553   1.837   1.572  11.347 -0.3715 -0.7917  0.5509
   35TMC2    O1  554   1.968   1.191  11.762 -0.1078 -0.6732 -0.3358
   35TMC2    O2  555   1.714   1.566  11.346  0.5004  0.0003 -0.2897
   35TMC2    O5  556   1.905   1.563  11.231  0.6217 -0.0360 -0.7047
   35TMC2    H5  557   1.996   1.528  11.242 -0.7255 -2.8868  1.4887
   36MPD2     C  558   2.746   1.575  11.717 -0.4532  0.1803  0.3149
   36MPD2    C1  559   2.680   1.490  11.801 -0.0060  0.3106 -0.0414
   36MPD2    C2  560   2.541   1.474  11.784 -0.0887  0.6926  0.3460
   36MPD2    C3  561   2.479   1.520  11.671  0.8434 -0.3602  0.5172
   36MPD2    C4  562   2.551   1.602  11.585 -0.4725 -0.1645  0.0765
   36MPD2    C5  563   2.682   1.623  11.609 -0.2909 -0.5152  0.0179
   36MPD2     H  564   2.486   1.405  11.848 -0.0399 -0.2293 -0.6065
   36MPD2    H1  565   2.505   1.639  11.494  1.3046  0.0088 -0.7516
   36MPD2    H2  566   2.852   1.591  11.737 -0.8541  1.6217  1.2661
   36MPD2    H3  567   2.746   1.682  11.545  2.1325 -4.3651 -1.1391
   36MPD2     N  568   2.336   1.498  11.659 -0.4417  0.0068  0.1015
   36MPD2    H5  569   2.290   1.447  11.733  1.0149 -1.7660 -0.1946
   36MPD2    N1  570   2.748   1.432  11.916 -0.2114 -0.2847 -0.1989
   36MPD2    H7  571   2.845   1.461  11.922  0.2950 -1.6260 -2.2855
   37TMC2    C1  572   4.555   2.146  11.639 -0.0521 -0.7269 -1.1410
   37TMC2    C2  573   4.494   2.117  11.520 -0.0668 -0.6425  0.0097
   37TMC2    C3  574   4.560   2.164  11.407  0.4325 -0.0330 -0.3941
   37TMC2    C4  575   4.665   2.234  11.650 -0.0994 -0.1157 -0.3807
   37TMC2    C5  576   4.728   2.261  11.528 -0.3744 -0.7195 -0.0212
   37TMC2    C6  577   4.679   2.227  11.404  0.5331 -0.2945 -0.5199
   37TMC2     C  578   4.472   2.104  11.750 -0.0362  1.2387 -0.2799
   37TMC2     O  579   4.355   2.081  11.734 -0.2715  0.4923 -0.1049
   37TMC2     H  580   4.396   2.071  11.517 -1.0086  1.4970 -2.1393
   37TMC2    H1  581   4.714   2.264  11.742  1.5036 -0.7134 -1.0423
   37TMC2    H2  582   4.725   2.253  11.309 -0.7507 -0.4767 -1.1948
   37TMC2    C7  583   0.140   2.272  11.539  0.2609  0.1083  0.7309
   37TMC2    C8  584   4.507   2.122  11.281  0.1318  0.5092  0.1350
   37TMC2    O1  585   0.194   2.319  11.638  0.1876 -0.2187  0.5438
   37TMC2    O2  586   4.542   2.190  11.181  0.1271 -0.4414  0.5277
   37TMC2    O5  587   4.491   1.991  11.285  0.7453  0.3982 -0.1174
   37TMC2    H5  588   4.497   1.952  11.374 -1.2402  1.7104  0.5692
   38MPD2     C  589   4.378   1.980  12.240  0.2207  0.3799  0.1913
   38MPD2    C1  590   4.513   1.973  12.220 -0.3800  0.2670 -0.0924
   38MPD2    C2  591   4.569   2.025  12.104 -0.8720 -1.1401 -0.2063
   38MPD2    C3  592   4.487   2.076  12.001 -0.7310 -0.6928 -0.2569
   38MPD2    C4  593   4.350   2.066  12.023 -0.0538 -0.7261 -0.1261
   38MPD2    C5  594   4.299   2.026  12.143 -0.6359  0.3433 -0.6097
   38MPD2     H  595   4.674   2.008  12.082 -0.6396 -0.0538  0.0862
   38MPD2    H1  596   4.277   2.075  11.944  0.6950  0.0903 -0.7342
   38MPD2    H2  597   4.328   1.953  12.332 -1.3541  0.1564 -0.7285
   38MPD2    H3  598   4.193   2.014  12.162 -0.3495 -0.2615  0.5832
   38MPD2     N  599   4.542   2.101  11.870  0.3752  1.1536  0.5286
   38MPD2    H5  600   4.643   2.100  11.855  0.1528 -0.4821 -0.9121
   38MPD2    N1  601   4.604   1.932  12.315  0.3693 -0.0346  0.3344
   38MPD2    H7  602   4.703   1.929  12.292 -0.2465  0.2005 -2.3468
   39TMC2    C1  603   3.758   3.947   1.485  0.9046 -0.4041  0.2071
   39TMC2    C2  604   3.870   3.906   1.553  0.4983  0.3939  0.2676
   39TMC2    C3  605   3.935   3.996   1.633 -0.3652 -0.2531  0.5855
   39TMC2    C4  606   3.717   4.075   1.493  0.2925  0.1217  0.0770
   39TMC2    C5  607   3.783   4.160   1.575 -0.3504 -0.4435  0.9991
   39TMC2    C6  608   3.901   4.129   1.641  1.0417  0.3472  0.5458
   39TMC2     C  609   3.682   3.851   1.411  0.4872  0.1120  0.1997
   39TMC2     O  610   3.566   3.891   1.401  0.3062  0.9164  0.3056
   39TMC2     H  611   3.895   3.801   1.560 -0.7124  0.1153  0.4455
   39TMC2    H1  612   3.622   4.107   1.451  0.4283  0.6738  0.1796
   39TMC2    H2  613   3.953   4.206   1.697  2.4350 -1.7355  2.0958
   39TMC2    C7  614   3.698   4.255   1.639  0.6584  0.2499  0.0678
   39TMC2    C8  615   4.043   3.939   1.707 -0.3188 -0.6234 -0.2626
   39TMC2    O1  616   3.588   4.226   1.682  0.1669  0.3273  0.7194
   39TMC2    O2  617   4.112   3.857   1.649  0.8015  0.0816  0.9033
   39TMC2    O5  618   4.079   4.011   1.813  0.2485  0.5497  0.1554
   39TMC2    H5  619   4.018   4.085   1.834  1.4695  1.9024 -0.9974
   40MPD2     C  620   3.777   3.546   1.214  0.0017 -0.4126  0.4926
   40MPD2    C1  621   3.702   3.647   1.268 -0.0447  0.9404 -0.2887
   40MPD2    C2  622   3.559   3.642   1.253  1.0086 -0.5238  0.0356
   40MPD2    C3  623   3.507   3.547   1.164 -0.0831 -0.3669  0.2090
   40MPD2    C4  624   3.586   3.443   1.120 -0.5481 -0.2626 -0.3608
   40MPD2    C5  625   3.717   3.448   1.134  0.3228 -1.2207  0.5460
   40MPD2     H  626   3.495   3.720   1.292 -0.1046 -1.6783  0.5417
   40MPD2    H1  627   3.543   3.366   1.057  0.3725 -0.8890 -0.2124
   40MPD2    H2  628   3.885   3.542   1.228 -0.2304 -0.6137  2.1871
   40MPD2    H3  629   3.781   3.376   1.085 -0.6214 -0.4795 -1.8204
   40MPD2     N  630   3.372   3.539   1.134  0.5932 -0.4077 -1.1944
   40MPD2    H5  631   3.347   3.471   1.063 -0.6766  0.3543 -1.4761
   40MPD2    N1  632   3.753   3.747   1.351  0.7197 -0.1126  0.0311
   40MPD2    H7  633   3.854   3.751   1.360  0.7384 -1.7210  0.4894
   41TMC2    C1  634   2.144   1.901  14.053 -0.2890  0.2026 -0.3254
   41TMC2    C2  635   2.010   1.876  14.031  0.1065 -0.5609 -0.1082
   41TMC2    C3  636   1.954   1.939  13.924 -0.7568 -0.1917  0.2742
   41TMC2    C4  637   2.230   1.973  13.968 -0.4051 -0.3557  0.4653
   41TMC2    C5  638   2.169   2.019  13.857 -0.2950 -0.5736  0.3556
   41TMC2    C6  639   2.033   2.003  13.835 -0.5164 -0.3293 -0.5030
   41TMC2     C  640   2.211   1.833  14.161  0.0544 -0.3140  0.2445
   41TMC2     O  641   2.332   1.815  14.139 -0.6715 -0.2334 -0.0948
   41TMC2     H  642   1.946   1.821  14.100  0.7578 -1.4610 -0.2265
   41TMC2    H1  643   2.337   1.982  13.983 -0.2599 -0.2910 -0.5972
   41TMC2    H2  644   1.982   2.056  13.755 -0.1874 -1.1954 -1.2804
   41TMC2    C7  645   2.239   2.110  13.773  0.0314 -0.1732 -0.4233
   41TMC2    C8  646   1.819   1.991  13.941  0.2841  0.1803  0.1327
   41TMC2    O1  647   2.322   2.183  13.829  0.2359  0.1461 -0.2075
   41TMC2    O2  648   1.752   2.023  13.843  0.1377  0.2347 -0.0877
   41TMC2    O5  649   1.786   2.019  14.071  0.0533  0.7540  0.0419
   41TMC2    H5  650   1.849   2.016  14.146  0.3463 -2.9879 -0.4007
   42MPD2     C  651   2.296   1.649  14.365  0.1611 -0.6992 -0.3157
   42MPD2    C1  652   2.189   1.742  14.385 -0.3904  0.0480 -0.8664
   42MPD2    C2  653   2.133   1.758  14.518 -0.2105  0.0778  0.8412
   42MPD2    C3  654   2.186   1.688  14.619  0.8127  0.6207  0.2251
   42MPD2    C4  655   2.298   1.605  14.597  0.6354  0.1810 -0.4148
   42MPD2    C5  656   2.344   1.580  14.470 -0.6561  0.6119  0.2597
   42MPD2     H  657   2.047   1.823  14.532 -0.4129 -0.2921  1.2920
   42MPD2    H1  658   2.338   1.537  14.672  0.9187 -0.5008 -1.1921
   42MPD2    H2  659   2.343   1.627  14.270  0.1362 -1.2031 -0.2110
   42MPD2    H3  660   2.417   1.500  14.459  0.4588  1.7978 -1.1264
   42MPD2     N  661   2.142   1.692  14.752  0.3824  0.2427  0.2352
   42MPD2    H5  662   2.187   1.630  14.819 -0.1391  0.0759  0.4295
   42MPD2    N1  663   2.142   1.825  14.277  0.0176  0.6166 -0.3404
   42MPD2    H7  664   2.050   1.866  14.289 -1.1188 -1.3702 -2.2412
   43TMC2    C1  665   3.677   4.594   0.603  0.7552 -0.3963  0.0056
   43TMC2    C2  666   3.616   4.710   0.555  0.0688  0.0892 -0.6969
   43TMC2    C3  667   3.633   0.095   0.615  0.1864 -0.0908 -0.7175
   43TMC2    C4  668   3.752   4.598   0.711 -0.2055  0.5202  0.7899
   43TMC2    C5  669   3.769   4.716   0.776  0.5576  0.5306  0.2691
   43TMC2    C6  670   3.708   0.099   0.735  0.1756 -0.5066  0.0173
   43TMC2     C  671   3.708   4.480   0.517  0.0299 -0.7121  0.1507
   43TMC2     O  672   3.809   4.414   0.538  0.5225  0.1106 -0.6216
   43TMC2     H  673   3.572   4.706   0.455  0.5086 -0.0178 -0.8862
   43TMC2    H1  674   3.809   4.512   0.744  0.1744  0.2950 -0.4643
   43TMC2    H2  675   3.731   0.196   0.778  0.2013 -0.3524 -0.3406
   43TMC2    C7  676   3.851   4.714   0.893 -0.1297  0.0563 -0.0483
   43TMC2    C8  677   3.630   0.204   0.517  0.0670 -0.8594  0.0596
   43TMC2    O1  678   3.913   4.612   0.910  0.0874 -0.0906  0.3343
   43TMC2    O2  679   3.528   0.235   0.458  0.3048 -0.0941 -0.2880
   43TMC2    O5  680   3.739   0.279   0.544 -0.3808  0.2397  0.1955
   43TMC2    H5  681   3.809   0.226   0.588 -0.2360  0.4735  0.2450
   44MPD2     C  682   3.686   4.298   0.030 -0.2282  0.5113 -0.4860
   44MPD2    C1  683   3.777   4.285   0.131  0.1979 -0.4594  0.3414
   44MPD2    C2  684   3.754   4.349   0.257  0.2623  0.4794  0.5892
   44MPD2    C3  685   3.634   4.405   0.285  0.5521  0.0910 -0.0318
   44MPD2    C4  686   3.530   4.389   0.189 -0.0562 -0.3994  0.7171
   44MPD2    C5  687   3.565   4.354   0.060  0.5252 -0.7216  0.5301
   44MPD2     H  688   3.836   4.350   0.328  1.9487 -1.6181 -1.2955
   44MPD2    H1  689   3.431   4.427   0.209  0.1087  0.3717  0.0786
   44MPD2    H2  690   3.697   4.252  17.678  2.5114  1.3262 -0.5663
   44MPD2    H3  691   3.484   4.337  17.736  0.5921  0.0307  0.2694
   44MPD2     N  692   3.608   4.465   0.416 -0.5351  0.0382  0.6331
   44MPD2    H5  693   3.515   4.504   0.432 -0.4623  0.9732 -1.3138
   44MPD2    N1  694   3.905   4.236   0.106  0.5032 -0.2886 -0.9165
   44MPD2    H7  695   3.968   4.225   0.185  0.6522 -0.2350 -1.0276
   45TMC2    C1  696   4.122   1.721   9.755 -0.3037 -0.0256  0.3230
   45TMC2    C2  697   4.245   1.708   9.692  0.3814 -0.2266  0.4115
   45TMC2    C3  698   4.329   1.816   9.694 -0.6964 -0.5134 -0.2150
   45TMC2    C4  699   4.082   1.843   9.818 -0.0663 -0.2737  0.2387
   45TMC2    C5  700   4.166   1.952   9.809 -0.5815  0.1784  0.3480
   45TMC2    C6  701   4.296   1.932   9.760  0.1036 -0.9496 -0.0754
   45TMC2     C  702   4.032   1.609   9.769 -1.5400 -0.0271  0.5181
   45TMC2     O  703   4.088   1.501   9.759  0.0087  0.0797 -0.2854
   45TMC2     H  704   4.279   1.619   9.639 -0.9383 -1.0115  0.8874
   45TMC2    H1  705   3.992   1.853   9.877  0.2920 -0.9180  0.8948
   45TMC2    H2  706   4.368   2.013   9.759 -0.5148 -0.3840  1.1901
   45TMC2    C7  707   4.135   2.079   9.864  0.6221 -0.0717  0.7972
   45TMC2    C8  708   4.473   1.804   9.667 -0.2012  0.2466  0.2164
   45TMC2    O1  709   4.234   2.152   9.875  0.4891  0.4087  0.5884
   45TMC2    O2  710   4.535   1.695   9.679  0.1304  0.0182  0.0652
   45TMC2    O5  711   4.479   1.894   9.563 -0.2518 -0.3207 -0.2072
   45TMC2    H5  712   4.429   1.977   9.579  0.1920  0.1007 -1.0157
   46MPD2     C  713   3.816   1.424   9.857  0.0348 -0.2357  0.1187
   46MPD2    C1  714   3.793   1.550   9.807 -0.7038  0.2450  0.1921
   46MPD2    C2  715   3.660   1.596   9.807  1.2245 -0.3846  0.0564
   46MPD2    C3  716   3.547   1.517   9.839  0.2859  0.4669  0.5067
   46MPD2    C4  717   3.575   1.389   9.885  0.2696  0.6074 -0.3519
   46MPD2    C5  718   3.708   1.345   9.895  0.1670  0.2453 -0.2034
   46MPD2     H  719   3.644   1.697   9.771 -2.0467 -1.2523 -0.8578
   46MPD2    H1  720   3.494   1.321   9.909  1.3491 -0.0561  1.3463
   46MPD2    H2  721   3.913   1.379   9.875 -0.2769 -0.9263  0.0833
   46MPD2    H3  722   3.729   1.257   9.955 -0.1321  1.5623  1.8116
   46MPD2     N  723   3.418   1.570   9.824  0.2625  0.4857 -0.5727
   46MPD2    H5  724   3.420   1.657   9.772  2.0034  1.0148  0.3603
   46MPD2    N1  725   3.898   1.641   9.785 -0.3670  0.4058 -0.2981
   46MPD2    H7  726   3.874   1.738   9.767  1.1682  0.5946 -1.3632
   47TMC2    C1  727   1.265   1.815   9.632  0.4399 -0.0886  0.8256
   47TMC2    C2  728   1.277   1.707   9.715  0.0747  0.1811 -0.0322
   47TMC2    C3  729   1.186   1.692   9.818 -0.1225 -0.1041 -0.4279
   47TMC2    C4  730   1.164   1.901   9.643  0.5343  0.3673 -0.3956
   47TMC2    C5  731   1.071   1.882   9.744  0.5342  0.1787 -1.2026
   47TMC2    C6  732   1.090   1.783   9.840  0.2061  0.0979  0.5047
   47TMC2     C  733   1.364   1.839   9.531  0.4725 -0.8440 -0.4267
   47TMC2     O  734   1.329   1.912   9.442  0.4044  0.3212  0.1678
   47TMC2     H  735   1.336   1.617   9.705  0.3608  0.3220  0.4152
   47TMC2    H1  736   1.165   1.981   9.570 -1.0696  1.0227  0.2897
   47TMC2    H2  737   1.027   1.765   9.926  1.3734 -1.3654  1.0473
   47TMC2    C7  738   0.967   1.974   9.754 -0.3311 -0.5678 -0.0125
   47TMC2    C8  739   1.175   1.558   9.885  0.1156 -0.4117 -0.2929
   47TMC2    O1  740   0.964   2.070   9.677 -0.6244 -0.5607 -0.6145
   47TMC2    O2  741   1.086   1.532   9.962 -0.1321  0.1839  0.5153
   47TMC2    O5  742   1.301   1.523   9.914  0.4600  0.2141 -0.2036
   47TMC2    H5  743   1.362   1.584   9.866  0.6936  0.1494  0.0089
   48MPD2     C  744   1.607   1.861   9.362 -0.1968 -0.2833 -0.7487
   48MPD2    C1  745   1.607   1.807   9.490  0.0756 -0.8026  0.2781
   48MPD2    C2  746   1.719   1.775   9.558 -0.4312  0.2292 -0.0144
   48MPD2    C3  747   1.838   1.792   9.495 -0.2227  0.3174 -0.3909
   48MPD2    C4  748   1.843   1.843   9.371 -0.6412  0.2404 -0.5392
   48MPD2    C5  749   1.733   1.878   9.300 -0.3546 -0.6746 -0.2669
   48MPD2     H  750   1.714   1.744   9.661 -0.5037  0.7521  0.1382
   48MPD2    H1  751   1.938   1.875   9.329  0.2245 -1.7172 -0.0648
   48MPD2    H2  752   1.522   1.883   9.299 -0.0413 -0.7321 -1.1088
   48MPD2    H3  753   1.735   1.920   9.200  0.2850 -0.9435 -0.3703
   48MPD2     N  754   1.955   1.761   9.578 -0.2288 -0.4493  0.1104
   48MPD2    H5  755   1.926   1.717   9.665 -1.1073 -0.4950 -0.2007
   48MPD2    N1  756   1.483   1.785   9.561  0.9985 -0.3004 -0.8078
   48MPD2    H7  757   1.482   1.734   9.649  0.0484  0.1505 -0.5584
   49TMC2    C1  758   4.019   3.805  10.439 -0.1063  0.1620  0.3112
   49TMC2    C2  759   3.902   3.804  10.364  0.0672  0.3016  0.3249
   49TMC2    C3  760   3.792   3.753  10.418 -0.3688  0.3181 -0.8030
   49TMC2    C4  761   4.030   3.747  10.564 -0.8005 -0.2200 -0.3463
   49TMC2    C5  762   3.909   3.713  10.622  0.0247 -0.0731  0.2247
   49TMC2    C6  763   3.791   3.709  10.544  0.2878 -0.0095  0.2489
   49TMC2     C  764   4.151   3.840  10.375  0.1971  0.6472  0.4986
   49TMC2     O  765   4.139   3.852  10.253  0.2411  0.1630  0.7403
   49TMC2     H  766   3.909   3.850  10.266 -4.0008 -2.0129 -1.0541
   49TMC2    H1  767   4.123   3.755  10.619 -0.1514  2.4599 -1.8494
   49TMC2    H2  768   3.697   3.687  10.592 -0.5695 -0.5668 -1.7085
   49TMC2    C7  769   3.906   3.681  10.758  0.3297 -0.9548 -0.4358
   49TMC2    C8  770   3.671   3.755  10.342 -0.0956 -0.4939 -0.8963
   49TMC2    O1  771   3.807   3.616  10.787 -0.1178 -0.0005 -0.0804
   49TMC2    O2  772   3.565   3.743  10.394  0.1303  0.1628  0.0116
   49TMC2    O5  773   3.700   3.686  10.230 -0.1730 -0.2731 -0.2918
   49TMC2    H5  774   3.797   3.679  10.221 -0.3240 -2.4411 -0.3412
   50MPD2     C  775   4.425   3.926  10.307 -0.0876  0.5692  0.1346
   50MPD2    C1  776   4.385   3.904  10.432 -0.0970 -0.0146  0.2291
   50MPD2    C2  777   4.467   3.913  10.539  0.3023  0.1613 -0.2651
   50MPD2    C3  778   4.588   3.971  10.519  0.3000  0.4957  1.3041
   50MPD2    C4  779   4.635   3.992  10.397 -0.3345  0.5546  0.3271
   50MPD2    C5  780   4.558   3.952  10.287 -0.2796 -0.0126  0.8194
   50MPD2     H  781   4.436   3.889  10.640 -0.9298 -2.1987 -1.2037
   50MPD2    H1  782   0.003   4.016  10.387  0.1667 -1.9677 -0.3791
   50MPD2    H2  783   4.368   3.911  10.215  0.2052 -0.8986  0.1845
   50MPD2    H3  784   4.587   3.980  10.186 -3.7214 -2.2955 -0.8112
   50MPD2     N  785   4.672   4.014  10.621 -0.2828  0.5213  0.2662
   50MPD2    H5  786   0.028   4.042  10.589 -0.7437  1.2681 -0.4176
   50MPD2    N1  787   4.252   3.873  10.465  0.7830 -0.4370  0.3061
   50MPD2    H7  788   4.216   3.872  10.560  3.7688  1.8735  1.4763
   51TMC2    C1  789   0.445   4.513   0.831  0.4999 -0.5491  0.0127
   51TMC2    C2  790   0.348   4.578   0.905  0.3529  0.2451  0.0421
   51TMC2    C3  791   0.377   4.714   0.917 -0.6008 -0.2666 -0.1012
   51TMC2    C4  792   0.552   4.579   0.781 -0.1977 -1.0325 -0.2455
   51TMC2    C5  793   0.584   4.708   0.807  0.7424 -0.0558  0.0409
   51TMC2    C6  794   0.496   0.045   0.878 -0.1815  0.2998  0.6746
   51TMC2     C  795   0.467   4.375   0.873 -0.2129 -0.6529  0.4600
   51TMC2     O  796   0.382   4.301   0.919  0.3816  0.7156 -0.4141
   51TMC2     H  797   0.261   4.525   0.941 -0.4407  0.9836 -0.8070
   51TMC2    H1  798   0.612   4.525   0.707 -2.3832 -2.1286 -1.2283
   51TMC2    H2  799   0.503   0.153   0.883  0.6722  0.3470 -1.2295
   51TMC2    C7  800   0.713   4.702   0.864  0.0838  0.4663  0.3894
   51TMC2    C8  801   0.265   0.054   0.973  0.0059 -0.0000  0.4631
   51TMC2    O1  802   0.775   4.598   0.837 -0.5481 -0.1334 -0.1634
   51TMC2    O2  803   0.146   0.019   0.973  0.0789 -0.2914  0.0236
   51TMC2    O5  804   0.330   0.142   1.062  0.3655  0.1266  0.4592
   51TMC2    H5  805   0.427   0.155   1.053  0.1816  1.3550  0.2506
   52MPD2     C  806   0.842   4.030   0.945  0.3766  0.4268  0.0153
   52MPD2    C1  807   0.706   4.017   0.949 -0.1014  0.2257  0.0765
   52MPD2    C2  808   0.623   4.125   0.923 -0.4520  1.0168  0.2850
   52MPD2    C3  809   0.678   4.243   0.893 -0.7099 -0.3897  0.5924
   52MPD2    C4  810   0.816   4.260   0.891  0.1053 -0.0667 -0.7011
   52MPD2    C5  811   0.894   4.152   0.905 -0.8539  0.8270 -0.2360
   52MPD2     H  812   0.515   4.112   0.930 -0.2541 -0.7883  0.0090
   52MPD2    H1  813   0.850   4.358   0.860  0.9732 -0.0230  0.3903
   52MPD2    H2  814   0.914   3.954   0.972 -0.0946  0.1740  0.5472
   52MPD2    H3  815   1.001   4.160   0.895 -1.0030 -0.0996 -2.5973
   52MPD2     N  816   0.602   4.357   0.871 -0.2550  0.1541 -0.7886
   52MPD2    H5  817   0.658   4.440   0.855  0.6686 -0.4649 -0.7514
   52MPD2    N1  818   0.635   3.904   0.986 -0.1863  0.1730  0.5221
   52MPD2    H7  819   0.534   3.909   0.990 -0.1763 -0.1073  1.0940
   53TMC2    C1  820   0.705   1.874  11.833 -1.0405  0.0857  0.1204
   53TMC2    C2  821   0.751   1.748  11.838 -0.7767  0.1351 -0.2136
   53TMC2    C3  822   0.754   1.695  11.970  0.1204  0.0780  0.0323
   53TMC2    C4  823   0.642   1.938  11.939  0.7334  0.5051  0.0143
   53TMC2    C5  824   0.653   1.881  12.068 -0.5516 -0.6588  0.6318
   53TMC2    C6  825   0.714   1.759  12.087  1.1478  0.1606  1.0551
   53TMC2     C  826   0.675   1.922  11.697  0.5437  0.5555  0.5544
   53TMC2     O  827   0.749   1.873  11.613  0.1319 -0.1780 -0.1278
   53TMC2     H  828   0.770   1.682  11.754 -1.8877  1.7854 -1.7565
   53TMC2    H1  829   0.605   2.039  11.931 -0.6614 -0.2071 -2.6303
   53TMC2    H2  830   0.712   1.699  12.177  0.9550 -1.9504 -0.3661
   53TMC2    C7  831   0.583   1.948  12.175  0.2475  0.4645  0.0504
   53TMC2    C8  832   0.848   1.587  11.997 -0.3024 -0.2710 -0.1748
   53TMC2    O1  833   0.523   2.048  12.138 -0.1457  0.0835 -0.1781
   53TMC2    O2  834   0.854   1.521  12.099 -0.1022 -0.3813  0.5507
   53TMC2    O5  835   0.942   1.576  11.898 -0.1218  0.0010 -0.4631
   53TMC2    H5  836   0.929   1.642  11.827  1.3998  0.5944 -0.1865
   54MPD2     C  837   0.587   2.038  11.448  0.4329  0.4894  0.2993
   54MPD2    C1  838   0.517   2.062  11.567  0.4751 -0.6404  0.4997
   54MPD2    C2  839   0.391   2.118  11.565 -0.4455  0.3707 -0.2612
   54MPD2    C3  840   0.328   2.148  11.444  0.1695  0.0642  0.2739
   54MPD2    C4  841   0.389   2.124  11.327  0.6049  0.1879  0.3872
   54MPD2    C5  842   0.520   2.078  11.328 -0.0273  0.3075  0.1219
   54MPD2     H  843   0.328   2.132  11.651  1.9200  0.5623  1.4321
   54MPD2    H1  844   0.341   2.130  11.231  2.7388 -1.7161 -0.7824
   54MPD2    H2  845   0.686   1.993  11.442 -0.1853 -0.7778 -0.3706
   54MPD2    H3  846   0.567   2.056  11.233 -0.8555  1.7438 -0.6035
   54MPD2     N  847   0.201   2.205  11.431  0.3826 -0.2647  0.0348
   54MPD2    H5  848   0.146   2.191  11.348 -1.2105  0.0175  1.0392
   54MPD2    N1  849   0.568   2.011  11.685 -0.3699  0.0558  0.3400
   54MPD2    H7  850   0.509   2.021  11.767  0.3776 -0.4247  0.9332
   55TMC2    C1  851   1.999   0.439   0.282 -1.0836  0.4252  0.2343
   55TMC2    C2  852   2.106   0.524   0.241  0.2288  0.2991  0.1798
   55TMC2    C3  853   2.216   0.463   0.189 -0.2071  0.4548 -0.1646
   55TMC2    C4  854   2.002   0.303   0.277  0.3985  0.2574  0.9291
   55TMC2    C5  855   2.116   0.251   0.230 -0.2153  0.6684 -0.2122
   55TMC2    C6  856   2.224   0.327   0.183  0.2622 -0.1896  0.3585
   55TMC2     C  857   1.869   0.497   0.305 -0.2970 -0.1694  0.3591
   55TMC2     O  858   1.788   0.430   0.371 -0.0994  0.4626 -0.0248
   55TMC2     H  859   2.101   0.632   0.246 -0.3276  0.1975  1.7280
   55TMC2    H1  860   1.914   0.241   0.285 -1.0825  2.2120 -0.1432
   55TMC2    H2  861   2.317   0.277   0.161  1.6897  2.0122  1.3059
   55TMC2    C7  862   2.155   0.121   0.273  0.0820 -0.6838  0.0850
   55TMC2    C8  863   2.324   0.537   0.138  0.3802  0.0686 -0.1428
   55TMC2    O1  864   2.258   0.077   0.231  0.4791  1.0219 -0.2155
   55TMC2    O2  865   2.379   0.634   0.184  0.0388 -0.5543 -0.3903
   55TMC2    O5  866   2.288   0.517   0.009 -0.6594  0.4952 -0.3539
   55TMC2    H5  867   2.213   0.455   0.000  0.4808 -0.8631 -0.4815
   56MPD2     C  868   1.740   0.836   0.207 -0.2509  0.6665 -0.9368
   56MPD2    C1  869   1.732   0.705   0.259  0.8980  0.2218 -0.4426
   56MPD2    C2  870   1.617   0.663   0.315 -0.2360  0.7763 -0.3829
   56MPD2    C3  871   1.507   0.743   0.324 -0.0159  0.5016 -0.1669
   56MPD2    C4  872   1.512   0.869   0.266 -0.4580 -0.0145 -0.3083
   56MPD2    C5  873   1.623   0.908   0.204 -1.0035 -0.0653  0.8161
   56MPD2     H  874   1.605   0.560   0.347  0.9026  1.1866  1.3829
   56MPD2    H1  875   1.418   0.922   0.262 -1.3925 -1.6433  0.2163
   56MPD2    H2  876   1.833   0.875   0.168 -0.4742  3.0387  0.8604
   56MPD2    H3  877   1.625   1.011   0.170  1.4854 -1.0444 -2.0106
   56MPD2     N  878   1.394   0.680   0.390  0.1424  0.4352  0.7159
   56MPD2    H5  879   1.408   0.588   0.430  0.8480  1.7829  3.5801
   56MPD2    N1  880   1.852   0.627   0.255 -0.4246  0.0893 -0.2393
   56MPD2    H7  881   1.927   0.662   0.198  1.1301  1.1921  2.4754
   57TMC2    C1  882   0.573   0.204  14.165 -0.3027  0.4565 -0.3958
   57TMC2    C2  883   0.686   0.138  14.199  0.1380  0.0447 -0.1135
   57TMC2    C3  884   0.762   0.071  14.106 -0.4247  0.2205  0.2461
   57TMC2    C4  885   0.529   0.219  14.038 -0.6147  0.3200 -0.1229
   57TMC2    C5  886   0.609   0.157  13.942  0.0788 -0.6729  0.1655
   57TMC2    C6  887   0.720   0.085  13.977 -0.6012 -0.0472  0.1149
   57TMC2     C  888   0.485   0.263  14.258  0.1184  0.3076  0.7622
   57TMC2     O  889   0.365   0.253  14.246  0.2576 -0.1768 -0.7635
   57TMC2     H  890   0.704   0.113  14.303 -2.7427  2.1014  0.8917
   57TMC2    H1  891   0.441   0.277  14.013 -1.0746 -0.4539 -0.3079
   57TMC2    H2  892   0.783   0.045  13.898 -1.0224 -2.7548  1.1586
   57TMC2    C7  893   0.544   0.142  13.811  0.5121  0.4948  0.2587
   57TMC2    C8  894   0.892   0.012  14.127  0.2212 -0.6956 -0.4384
   57TMC2    O1  895   0.426   0.153  13.815  0.0841  0.3682 -0.6775
   57TMC2    O2  896   0.923   4.655  14.054 -0.0435  0.0343  0.0406
   57TMC2    O5  897   0.958   0.063  14.232  0.6663  0.0771 -0.3344
   57TMC2    H5  898   0.924   0.146  14.271  1.0968  0.2130 -0.2462
   58MPD2     C  899   0.411   0.695  14.524  0.0990 -0.4971 -0.4282
   58MPD2    C1  900   0.329   0.630  14.431  0.5168 -1.0346  0.1259
   58MPD2    C2  901   0.379   0.510  14.377  0.7610 -0.0372  0.1194
   58MPD2    C3  902   0.501   0.456  14.407  0.2946 -0.6257  0.2300
   58MPD2    C4  903   0.578   0.520  14.501 -0.4870  0.2175  0.4508
   58MPD2    C5  904   0.525   0.638  14.565  0.4563 -0.2244  0.2625
   58MPD2     H  905   0.326   0.468  14.292 -2.4636 -1.3003  2.7502
   58MPD2    H1  906   0.681   0.493  14.518 -1.7665 -3.4249  2.4153
   58MPD2    H2  907   0.386   0.792  14.565  0.2504 -0.2037 -1.0244
   58MPD2    H3  908   0.591   0.707  14.618  0.2999  0.4408 -0.4032
   58MPD2     N  909   0.558   0.352  14.336 -0.5220  0.3753  0.3535
   58MPD2    H5  910   0.656   0.332  14.357 -0.5716 -1.6711 -1.3471
   58MPD2    N1  911   0.217   0.685  14.375  0.1901 -0.2115  0.0693
   58MPD2    H7  912   0.161   0.636  14.306  2.1230  1.7175 -2.8582
   59TMC2    C1  913   3.188   0.817  13.188  0.0356  1.0676  0.3725
   59TMC2    C2  914   3.293   0.857  13.112 -0.2809  0.7288 -0.1397
   59TMC2    C3  915   3.252   0.898  12.988  1.0789  0.4416  0.0523
   59TMC2    C4  916   3.053   0.832  13.150  0.2661  0.3714  0.3648
   59TMC2    C5  917   3.026   0.904  13.045 -0.8683  0.2800  0.0954
   59TMC2    C6  918   3.123   0.934  12.955 -0.0722  0.6912  0.5853
   59TMC2     C  919   3.213   0.778  13.324  0.0037  0.1301 -0.2308
   59TMC2     O  920   3.163   0.675  13.371  0.1960 -0.1444  0.7250
   59TMC2     H  921   3.397   0.856  13.142  0.4454 -1.2225 -2.6494
   59TMC2    H1  922   2.974   0.803  13.219 -1.1721  2.2975 -0.4773
   59TMC2    H2  923   3.098   0.977  12.859 -0.7391 -0.0425  0.4334
   59TMC2    C7  924   2.888   0.959  13.038  0.1992  0.0048 -0.3436
   59TMC2    C8  925   3.357   0.941  12.896  0.1258  0.2403 -0.4066
   59TMC2    O1  926   2.801   0.924  13.119 -0.2031  0.2711  0.4459
   59TMC2    O2  927   3.471   0.957  12.930 -0.0394  0.1515 -0.0888
   59TMC2    O5  928   3.316   0.938  12.766  0.2547  0.2064 -0.0767
   59TMC2    H5  929   3.220   0.928  12.749  0.1341  0.5026  0.4376
   60MPD2     C  930   3.263   0.791  13.612 -0.1909  0.3111  0.2879
   60MPD2    C1  931   3.318   0.879  13.522 -0.0526  0.0774 -0.1121
   60MPD2    C2  932   3.372   0.996  13.576  1.1174 -0.0643 -0.5364
   60MPD2    C3  933   3.386   1.019  13.709 -0.3264 -0.3749 -0.3110
   60MPD2    C4  934   3.340   0.922  13.794  0.1514 -0.1257 -0.7219
   60MPD2    C5  935   3.271   0.816  13.743 -0.0818 -0.2703 -0.5036
   60MPD2     H  936   3.405   1.072  13.506 -1.0493  0.6307 -0.8060
   60MPD2    H1  937   3.350   0.940  13.901  0.1031 -0.7458 -0.6133
   60MPD2    H2  938   3.219   0.696  13.585 -1.6607  1.0907 -0.0721
   60MPD2    H3  939   3.225   0.744  13.811 -0.5969  0.0430 -0.5197
   60MPD2     N  940   3.463   1.125  13.761  0.6648 -0.1085  0.2035
   60MPD2    H5  941   3.496   1.115  13.856 -1.8694 -0.2175  1.0480
   60MPD2    N1  942   3.300   0.871  13.383  0.7061 -0.3979 -0.4658
   60MPD2    H7  943   3.328   0.951  13.326  0.6214  0.7862  1.1523
   61TMC2    C1  944   2.291   2.207  15.255 -0.2074  0.0867 -0.3117
   61TMC2    C2  945   2.306   2.134  15.368 -0.2484 -0.6359  0.0813
   61TMC2    C3  946   2.329   2.199  15.485 -0.1483  0.7218  0.2699
   61TMC2    C4  947   2.316   2.345  15.244  0.0585  0.2017 -0.0603
   61TMC2    C5  948   2.349   2.412  15.359 -0.4914  0.5253 -0.1999
   61TMC2    C6  949   2.358   2.337  15.476 -0.1386 -0.0788 -0.3968
   61TMC2     C  950   2.267   2.131  15.136 -0.5156 -0.6833  0.0054
   61TMC2     O  951   2.254   2.008  15.137 -0.0011 -0.3708 -0.2684
   61TMC2     H  952   2.286   2.028  15.365  2.3085 -1.0763 -0.8737
   61TMC2    H1  953   2.333   2.399  15.152  0.4856 -1.1602 -0.7860
   61TMC2    H2  954   2.389   2.381  15.571 -4.0460  0.1257  0.7885
   61TMC2    C7  955   2.392   2.554  15.366 -0.1862 -0.1480  0.1231
   61TMC2    C8  956   2.375   2.125  15.604 -0.1634 -0.0939  0.1305
   61TMC2    O1  957   2.389   2.605  15.256  0.1020  0.1202  0.1296
   61TMC2    O2  958   2.444   2.185  15.678  0.5251 -0.5229 -0.4963
   61TMC2    O5  959   2.380   1.996  15.580  0.0848 -0.3360  0.1894
   61TMC2    H5  960   2.293   1.959  15.553 -0.2097 -0.3299  1.1266
   62MPD2     C  961   2.261   2.051  14.846 -0.2506  0.3734  0.0226
   62MPD2    C1  962   2.226   2.173  14.895 -0.4746 -0.2389  0.1072
   62MPD2    C2  963   2.165   2.263  14.807  0.7255 -0.0280  0.4891
   62MPD2    C3  964   2.150   2.243  14.671 -0.1780 -0.1214 -0.1238
   62MPD2    C4  965   2.222   2.135  14.618  0.1091  0.4998 -0.0569
   62MPD2    C5  966   2.264   2.033  14.705 -0.7078  1.0945 -0.4818
   62MPD2     H  967   2.134   2.361  14.841 -0.4480 -0.3668  0.3963
   62MPD2    H1  968   2.230   2.106  14.514  0.7600 -1.4715  0.5457
   62MPD2    H2  969   2.315   1.976  14.902  0.0737  1.5455  1.2799
   62MPD2    H3  970   2.310   1.939  14.676  0.8475  1.4176  0.9572
   62MPD2     N  971   2.107   2.348  14.587  0.0669 -0.0141 -0.1298
   62MPD2    H5  972   2.153   2.367  14.498  2.0986 -2.0525  0.4940
   62MPD2    N1  973   2.244   2.215  15.031 -0.3214  0.2343 -0.4073
   62MPD2    H7  974   2.227   2.313  15.050 -1.3054  0.0762 -0.4683
   63TMC2    C1  975   2.009   2.389   9.903  0.3033 -0.0197 -0.1745
   63TMC2    C2  976   2.121   2.385   9.992 -0.5719 -0.2691  0.2019
   63TMC2    C3  977   2.230   2.467   9.959  0.7977 -0.2780  0.3522
   63TMC2    C4  978   2.016   2.462   9.792  0.0005 -0.4191  0.5508
   63TMC2    C5  979   2.138   2.525   9.763  0.0790 -0.1282 -0.2628
   63TMC2    C6  980   2.246   2.533   9.843  0.6558 -0.3934 -0.7912
   63TMC2     C  981   1.893   2.312   9.932 -0.5160  0.0882 -0.4876
   63TMC2     O  982   1.795   2.339   9.865 -0.1140 -0.3773  0.1985
   63TMC2     H  983   2.138   2.326  10.081 -1.1027  1.3887  1.4091
   63TMC2    H1  984   1.933   2.484   9.726 -0.4923 -1.4115  0.8499
   63TMC2    H2  985   2.342   2.576   9.816  0.1809  0.2487 -1.4398
   63TMC2    C7  986   2.149   2.588   9.629 -0.8414 -0.0405 -1.0466
   63TMC2    C8  987   2.357   2.454  10.042  0.3443 -0.3149  0.3776
   63TMC2    O1  988   2.220   2.683   9.622  0.2958 -0.2309  0.1672
   63TMC2    O2  989   2.339   2.404  10.155  0.4397  0.0553 -0.1729
   63TMC2    O5  990   2.463   2.421   9.966 -0.0299  0.1453 -0.2212
   63TMC2    H5  991   2.458   2.457   9.875  1.8701  0.7305 -0.0956
   64MPD2     C  992   1.594   2.039  10.252  0.2397 -0.0254  0.5328
   64MPD2    C1  993   1.731   2.003  10.274 -0.2499 -0.5930 -0.3981
   64MPD2    C2  994   1.835   2.064  10.208 -0.2623  0.0885 -0.1801
   64MPD2    C3  995   1.797   2.164  10.115 -0.2236 -0.4814 -0.3468
   64MPD2    C4  996   1.667   2.194  10.082 -0.0991  0.1115 -0.5386
   64MPD2    C5  997   1.565   2.139  10.159  0.3183  0.8278 -0.4347
   64MPD2     H  998   1.939   2.052  10.238 -0.3256  0.7910  0.3314
   64MPD2    H1  999   1.648   2.274  10.012 -1.6381  1.4808  1.4436
   64MPD2    H2 1000   1.513   2.010  10.319  0.0440  0.5698  0.5511
   64MPD2    H3 1001   1.461   2.165  10.141  0.0459 -0.2694 -0.4815
   64MPD2     N 1002   1.901   2.217  10.039 -0.5810  0.0135 -0.0679
   64MPD2    H5 1003   1.990   2.179  10.071 -1.3057 -1.3486  0.3226
   64MPD2    N1 1004   1.761   1.925  10.389 -0.1410  0.5590  0.0751
   64MPD2    H7 1005   1.861   1.917  10.408 -0.2726  0.6224  0.7759
   65TMC2    C1 1006   3.182   2.466  15.516 -0.6731 -0.2807  0.3220
   65TMC2    C2 1007   3.175   2.464  15.379 -0.4279  0.0402 -0.8827
   65TMC2    C3 1008   3.241   2.571  15.317  0.0125 -0.1130  0.1667
   65TMC2    C4 1009   3.249   2.562  15.592 -0.3896 -0.2711  0.4245
   65TMC2    C5 1010   3.309   2.657  15.520  0.1206 -0.1340 -0.3695
   65TMC2    C6 1011   3.307   2.670  15.383 -0.7666  0.1003  0.2542
   65TMC2     C 1012   3.115   2.357  15.584  0.1410 -0.0256 -0.0739
   65TMC2     O 1013   3.152   2.335  15.702 -0.3621  0.0499 -0.2128
   65TMC2     H 1014   3.129   2.385  15.320  0.2850 -0.9738 -0.0805
   65TMC2    H1 1015   3.269   2.542  15.697 -0.3873 -1.3695  0.2160
   65TMC2    H2 1016   3.357   2.751  15.330  0.4580  0.0254  1.3032
   65TMC2    C7 1017   3.361   2.775  15.595 -0.2437  0.0025  0.1475
   65TMC2    C8 1018   3.213   2.603  15.179  0.0084  0.1624  0.4179
   65TMC2    O1 1019   3.412   2.858  15.524 -0.6119  0.3699 -0.0333
   65TMC2    O2 1020   3.223   2.715  15.131 -0.2237  0.3548  0.3640
   65TMC2    O5 1021   3.135   2.507  15.125  0.8229 -0.1552 -0.3849
   65TMC2    H5 1022   3.149   2.412  15.144  1.6054  0.4014  1.8277
   66MPD2     C 1023   2.890   2.195  15.696 -0.1925 -0.7860  0.4667
   66MPD2    C1 1024   2.916   2.204  15.560 -0.4958 -0.3473 -0.4322
   66MPD2    C2 1025   2.828   2.152  15.471 -0.4251 -0.3412  0.2889
   66MPD2    C3 1026   2.725   2.070  15.510 -0.2985  0.3296  0.9082
   66MPD2    C4 1027   2.712   2.042  15.645 -0.1365 -0.6855 -0.7864
   66MPD2    C5 1028   2.788   2.109  15.741  0.8734  0.2527 -0.2280
   66MPD2     H 1029   2.864   2.152  15.369  1.2647  1.5300  0.8928
   66MPD2    H1 1030   2.637   1.973  15.680 -1.5995  0.5039 -1.5558
   66MPD2    H2 1031   2.952   2.241  15.772 -0.2005 -0.1280  0.0704
   66MPD2    H3 1032   2.769   2.102  15.847 -1.1794 -1.6628 -0.7379
   66MPD2     N 1033   2.652   1.988  15.417 -0.2590  0.2501  1.0267
   66MPD2    H5 1034   2.588   1.919  15.453 -2.4210  1.3467 -0.7462
   66MPD2    N1 1035   3.013   2.301  15.513  0.3329  0.1830 -0.1265
   66MPD2    H7 1036   2.996   2.326  15.416  0.2305 -2.6706 -0.8207
   67TMC2    C1 1037   3.481   0.928  14.599 -0.2636 -0.1284 -0.1616
   67TMC2    C2 1038   3.469   1.068  14.598  0.3630 -0.5393  0.0577
   67TMC2    C3 1039   3.520   1.141  14.699  0.2048  0.5006 -0.0517
   67TMC2    C4 1040   3.554   0.861  14.692  0.3194 -0.0543  0.9485
   67TMC2    C5 1041   3.614   0.944  14.779  0.2379 -0.0016  0.0646
   67TMC2    C6 1042   3.601   1.079  14.788 -0.2424  0.1312  0.3951
   67TMC2     C 1043   3.410   0.848  14.498  0.5280  0.3770 -0.1509
   67TMC2     O 1044   3.457   0.740  14.471 -0.3098  0.8071 -0.1431
   67TMC2     H 1045   3.425   1.127  14.519 -0.6773  0.2793  1.2439
   67TMC2    H1 1046   3.567   0.754  14.704 -2.1587 -0.1573  2.6017
   67TMC2    H2 1047   3.659   1.129  14.865 -0.8482 -0.7536  1.4251
   67TMC2    C7 1048   3.700   0.876  14.875 -0.1490  0.4066 -0.0754
   67TMC2    C8 1049   3.542   1.287  14.677  0.2990  0.2025  0.3823
   67TMC2    O1 1050   3.747   0.768  14.845 -0.4115 -0.0421 -0.4235
   67TMC2    O2 1051   3.557   1.354  14.774 -0.8532  0.1737 -0.0647
   67TMC2    O5 1052   3.610   1.295  14.557 -0.1531 -0.1733  0.2637
   67TMC2    H5 1053   3.601   1.225  14.489 -0.6915 -0.2156  0.3792
   68MPD2     C 1054   3.268   0.788  14.235  0.3927  0.1065 -0.0542
   68MPD2    C1 1055   3.221   0.874  14.333 -0.1519 -0.5888  0.1038
   68MPD2    C2 1056   3.116   0.957  14.304  0.8439 -0.0762 -0.3393
   68MPD2    C3 1057   3.060   0.960  14.176  0.4087 -0.2968  0.4043
   68MPD2    C4 1058   3.114   0.874  14.082 -0.0439  0.0356 -0.6086
   68MPD2    C5 1059   3.212   0.791  14.109 -0.1050  0.4681 -0.8055
   68MPD2     H 1060   3.084   1.021  14.385  2.3165 -0.4421  0.5337
   68MPD2    H1 1061   3.087   0.879  13.977  3.3694 -1.7653 -1.5663
   68MPD2    H2 1062   3.358   0.728  14.242  1.1494  1.1943 -0.4345
   68MPD2    H3 1063   3.257   0.731  14.031  0.6052  0.9057 -0.7263
   68MPD2     N 1064   2.957   1.050  14.140  0.5392 -0.2609 -0.1774
   68MPD2    H5 1065   2.928   1.045  14.043  0.8113  2.3595 -0.3995
   68MPD2    N1 1066   3.287   0.903  14.457  0.2154  0.2194  0.3730
   68MPD2    H7 1067   3.260   0.987  14.508 -0.0312  1.0636 -1.1613
   69TMC2    C1 1068   0.647   2.438  12.211  0.5592 -0.1147 -0.4054
   69TMC2    C2 1069   0.607   2.548  12.137 -0.2104 -0.0574 -0.0464
   69TMC2    C3 1070   0.623   2.540  12.003  0.4155 -0.5229 -0.4746
   69TMC2    C4 1071   0.700   2.325  12.157  0.4358 -0.1872  0.3098
   69TMC2    C5 1072   0.730   2.331  12.024 -0.4940  0.5787 -0.2592
   69TMC2    C6 1073   0.687   2.433  11.941  0.6304  0.4265  0.1194
   69TMC2     C 1074   0.600   2.422  12.347 -0.2133  0.2004 -0.2208
   69TMC2     O 1075   0.651   2.342  12.420  0.6473 -0.2676 -0.3995
   69TMC2     H 1076   0.569   2.639  12.182 -0.7296 -0.2178 -0.1622
   69TMC2    H1 1077   0.715   2.241  12.224  0.7140  1.4894  2.3644
   69TMC2    H2 1078   0.719   2.448  11.839  1.6881 -0.4237  0.3304
   69TMC2    C7 1079   0.819   2.233  11.960  0.6151  0.2588  0.1276
   69TMC2    C8 1080   0.604   2.671  11.935  0.3990 -0.5811 -0.4673
   69TMC2    O1 1081   0.819   2.235  11.837 -0.0159  0.3936  0.2979
   69TMC2    O2 1082   0.599   2.774  12.002 -0.3172 -0.0816 -0.1863
   69TMC2    O5 1083   0.593   2.661  11.803 -0.0361  0.2273  0.4769
   69TMC2    H5 1084   0.585   2.574  11.759  0.5778  0.8553 -0.8983
   70MPD2     C 1085   0.337   2.622  12.524 -0.0945  0.4938 -1.0023
   70MPD2    C1 1086   0.420   2.512  12.494 -0.1681  0.4634 -0.5444
   70MPD2    C2 1087   0.423   2.407  12.579  0.0495  0.3799  0.6594
   70MPD2    C3 1088   0.349   2.410  12.700 -0.2383  0.3425 -0.3674
   70MPD2    C4 1089   0.273   2.521  12.729 -0.2529 -0.4982 -0.8599
   70MPD2    C5 1090   0.262   2.614  12.639 -0.1309  0.0860  0.2558
   70MPD2     H 1091   0.493   2.325  12.564  1.0293  0.8906  2.4374
   70MPD2    H1 1092   0.221   2.526  12.824  0.5882 -0.1335 -0.4126
   70MPD2    H2 1093   0.327   2.709  12.461  1.0284  0.8019 -0.7507
   70MPD2    H3 1094   0.192   2.694  12.662  0.5659  1.0971 -1.2044
   70MPD2     N 1095   0.366   2.323  12.804 -0.4331  0.3389  0.3407
   70MPD2    H5 1096   0.292   2.336  12.874 -0.5024  0.7027  0.2022
   70MPD2    N1 1097   0.495   2.511  12.377 -0.2010 -0.0397 -0.5275
   70MPD2    H7 1098   0.476   2.578  12.303  0.6111 -0.8509 -1.4672
   71TMC2    C1 1099   2.614   3.636   1.265 -0.5841 -0.3797  0.5642
   71TMC2    C2 1100   2.674   3.678   1.381  0.1212 -0.0864  0.1908
   71TMC2    C3 1101   2.596   3.756   1.464  0.0346  0.0688  0.7619
   71TMC2    C4 1102   2.485   3.662   1.226  0.0908 -0.3555  0.4925
   71TMC2    C5 1103   2.413   3.733   1.327  0.7895 -0.4338  0.2647
   71TMC2    C6 1104   2.469   3.789   1.445 -0.3148  0.1073 -0.0768
   71TMC2     C 1105   2.691   3.539   1.173  0.0939 -0.0317 -0.4413
   71TMC2     O 1106   2.809   3.515   1.198  0.6635  0.2103  0.5062
   71TMC2     H 1107   2.775   3.650   1.408  0.7998  0.7567 -1.4554
   71TMC2    H1 1108   2.446   3.644   1.127 -1.8182  1.8693  0.8325
   71TMC2    H2 1109   2.414   3.851   1.515  0.6940  0.3659  0.4976
   71TMC2    C7 1110   2.271   3.748   1.321 -0.0495  0.2544 -0.2441
   71TMC2    C8 1111   2.667   3.794   1.586  0.2158 -0.0531 -0.5131
   71TMC2    O1 1112   2.213   3.824   1.398  0.6421 -0.1833  0.1864
   71TMC2    O2 1113   2.769   3.734   1.622 -0.2152 -0.0643  0.8444
   71TMC2    O5 1114   2.636   3.912   1.630 -0.7134 -0.4862 -0.6950
   71TMC2    H5 1115   2.564   3.961   1.587  0.1319  1.0382 -0.3647
   72MPD2     C 1116   2.683   3.195   0.798 -0.2065  0.0380  0.0957
   72MPD2    C1 1117   2.797   3.245   0.854  0.7434  0.1206 -0.2656
   72MPD2    C2 1118   2.776   3.332   0.961 -0.0895  0.3542  0.2706
   72MPD2    C3 1119   2.649   3.381   0.993  0.3452 -0.8644 -0.2128
   72MPD2    C4 1120   2.543   3.337   0.918 -0.3872  0.2439  0.1162
   72MPD2    C5 1121   2.561   3.239   0.825 -0.4774  0.0180 -0.2246
   72MPD2     H 1122   2.862   3.371   1.015  0.2903 -0.0204 -0.0549
   72MPD2    H1 1123   2.442   3.375   0.930 -0.0338  1.0867  0.4492
   72MPD2    H2 1124   2.687   3.128   0.714 -0.4279  0.8700 -0.5777
   72MPD2    H3 1125   2.469   3.197   0.786 -1.5919 -0.5399  3.0135
   72MPD2     N 1126   2.610   3.475   1.086 -0.1343 -0.9404 -0.1882
   72MPD2    H5 1127   2.514   3.504   1.075 -0.1403 -0.5114  0.9752
   72MPD2    N1 1128   2.928   3.193   0.824 -0.0535  0.7015  1.0494
   72MPD2    H7 1129   3.006   3.221   0.882 -0.4911  2.3668  0.8466
   73TMC2    C1 1130   2.712   4.344  14.095  0.4301  0.6543  0.4348
   73TMC2    C2 1131   2.606   4.304  14.168  0.2191  0.1021  0.3084
   73TMC2    C3 1132   2.640   4.225  14.276 -0.3302  0.7367  0.0298
   73TMC2    C4 1133   2.837   4.289  14.111 -0.0837 -0.2416 -0.1562
   73TMC2    C5 1134   2.868   4.217  14.220  0.4206  0.4283 -0.0386
   73TMC2    C6 1135   2.763   4.179  14.303 -0.1650  0.1299  0.1794
   73TMC2     C 1136   2.736   4.479  14.069 -0.4773  0.1743  0.4521
   73TMC2     O 1137   2.795   4.535  14.158  0.1062  0.4644  0.8644
   73TMC2     H 1138   2.509   4.351  14.156 -0.7279 -1.7223  0.8393
   73TMC2    H1 1139   2.909   4.312  14.033  1.0707 -3.0420  0.0571
   73TMC2    H2 1140   2.780   4.165  14.409  0.5948  0.5434  0.1178
   73TMC2    C7 1141   2.989   4.264  14.289 -0.3800  0.0914  0.0630
   73TMC2    C8 1142   2.530   4.169  14.353 -0.8687  0.2158  0.3125
   73TMC2    O1 1143   3.058   4.180  14.348  0.8500  0.0237  0.3900
   73TMC2    O2 1144   2.427   4.234  14.373  0.2373  0.2254  0.4870
   73TMC2    O5 1145   2.562   4.048  14.404  0.2805  0.6868 -0.1724
   73TMC2    H5 1146   2.632   4.010  14.348  1.6275  1.0990  1.2395
   74MPD2     C 1147   2.808   0.131  13.740 -0.2747 -0.0566  0.2395
   74MPD2    C1 1148   2.835   0.124  13.875 -0.2814 -0.7891 -0.1852
   74MPD2    C2 1149   2.814   0.007  13.939  0.0614  0.0629  0.0963
   74MPD2    C3 1150   2.748   4.639  13.879  0.1371 -0.3251  0.4717
   74MPD2    C4 1151   2.727   4.642  13.743  0.1402 -0.1683  0.5055
   74MPD2    C5 1152   2.754   0.021  13.680  0.5536 -0.4165 -0.4980
   74MPD2     H 1153   2.836   0.004  14.045  0.2831  0.0818  0.0512
   74MPD2    H1 1154   2.688   4.556  13.691  1.0173 -0.4190  0.2795
   74MPD2    H2 1155   2.838   0.218  13.683  2.3376 -0.4656  0.9713
   74MPD2    H3 1156   2.755   0.016  13.572 -0.3563  0.4982 -0.5493
   74MPD2     N 1157   2.710   4.520  13.946 -0.1174 -0.2133  0.0157
   74MPD2    H5 1158   2.662   4.461  13.878  1.3140 -0.6190 -0.6528
   74MPD2    N1 1159   2.900   0.232  13.929 -0.2297 -0.1118  0.0011
   74MPD2    H7 1160   2.883   0.318  13.878  1.1770  0.2968  0.2379
   75TMC2    C1 1161   2.793   1.216  14.158  0.1466  0.2211 -0.0175
   75TMC2    C2 1162   2.668   1.207  14.220 -0.5414 -0.0437  0.4071
   75TMC2    C3 1163   2.581   1.308  14.187 -0.2925  0.1358 -0.1565
   75TMC2    C4 1164   2.833   1.329  14.088 -0.2771  0.6237 -1.0872
   75TMC2    C5 1165   2.750   1.429  14.073  0.1158  0.6079  0.1588
   75TMC2    C6 1166   2.622   1.427  14.124 -0.2577 -0.4224 -0.0860
   75TMC2     C 1167   2.891   1.139  14.225  0.4663 -0.5376 -0.2829
   75TMC2     O 1168   2.911   1.167  14.344  0.2698  0.0441 -0.4792
   75TMC2     H 1169   2.630   1.117  14.267 -0.0552  0.1299  1.1260
   75TMC2    H1 1170   2.934   1.333  14.050 -0.2999 -2.4139 -1.5074
   75TMC2    H2 1171   2.554   1.512  14.115 -0.1792 -0.6509 -3.1125
   75TMC2    C7 1172   2.766   1.501  13.948  0.2804 -0.1123 -0.0444
   75TMC2    C8 1173   2.450   1.307  14.258  0.1308 -0.5753  0.3941
   75TMC2    O1 1174   2.797   1.431  13.849 -0.1660 -0.8110 -0.2877
   75TMC2    O2 1175   2.417   1.251  14.365 -0.3955 -0.5292 -0.4052
   75TMC2    O5 1176   2.363   1.361  14.170 -0.2172 -0.0057  0.1670
   75TMC2    H5 1177   2.395   1.393  14.083 -1.4303  2.9409  0.8234
   76TMC2    C1 1178   1.761   1.362  12.157  0.4304 -0.1984  0.2324
   76TMC2    C2 1179   1.692   1.247  12.156 -0.1477  0.1507  0.3776
   76TMC2    C3 1180   1.743   1.146  12.231  0.7843  0.0457  0.2875
   76TMC2    C4 1181   1.864   1.377  12.241  0.3264 -0.5252  0.0951
   76TMC2    C5 1182   1.909   1.280  12.326 -0.2770  0.2096 -0.1868
   76TMC2    C6 1183   1.848   1.159  12.312  0.2819  0.6884 -0.5442
   76TMC2     C 1184   1.729   1.450  12.049  0.3227  1.3044  0.1417
   76TMC2     O 1185   1.613   1.472  12.012 -0.2523 -0.5066 -0.2423
   76TMC2     H 1186   1.617   1.236  12.079  2.5416 -2.1290 -1.9075
   76TMC2    H1 1187   1.905   1.478  12.240  0.1256 -0.4437 -1.9403
   76TMC2    H2 1188   1.871   1.082  12.385 -2.4062 -0.6823 -1.1497
   76TMC2    C7 1189   1.936   1.311  12.467 -0.3705 -0.5646 -0.3208
   76TMC2    C8 1190   1.669   1.035  12.270 -0.3674 -0.4160  0.4090
   76TMC2    O1 1191   1.942   1.218  12.547  0.0674  0.5509 -0.5294
   76TMC2    O2 1192   1.730   0.933  12.283 -0.1359 -0.2847 -0.3782
   76TMC2    O5 1193   1.574   1.085  12.354  0.0431 -0.7812 -0.3763
   76TMC2    H5 1194   1.536   1.170  12.324 -0.7919 -1.0513 -0.0922
   77MPD2     C 1195   1.874   1.802  11.715  0.1495  0.6569  0.6495
   77MPD2    C1 1196   1.753   1.740  11.728  0.1599 -0.1291 -0.1213
   77MPD2    C2 1197   1.748   1.633  11.816  0.6263 -0.5864  0.3738
   77MPD2    C3 1198   1.855   1.602  11.897  0.2786 -0.7413  0.2247
   77MPD2    C4 1199   1.976   1.670  11.883  0.7043  0.0804 -0.5771
   77MPD2    C5 1200   1.985   1.764  11.789  0.1588 -0.1542 -0.3209
   77MPD2     H 1201   1.657   1.575  11.817  1.1522 -1.4514 -1.1793
   77MPD2    H1 1202   2.064   1.643  11.939  0.5543 -2.1009 -1.3919
   77MPD2    H2 1203   1.896   1.885  11.648  0.6708  0.6118  0.7624
   77MPD2    H3 1204   2.076   1.819  11.769  0.7243 -1.1114 -0.3633
   77MPD2     N 1205   1.847   1.504  12.002 -0.0370 -1.0584 -0.4516
   77MPD2    H5 1206   1.933   1.472  12.045  0.0008 -0.1977  0.1025
   77MPD2    N1 1207   1.640   1.783  11.662 -0.4705  0.5211  0.2821
   77MPD2    H7 1208   1.550   1.745  11.689 -0.0537 -0.8691 -0.2915
   78TMC2    C1 1209   2.652   3.079   1.173 -0.2082 -0.1007 -0.5040
   78TMC2    C2 1210   2.574   3.023   1.075 -0.5194  0.8016  0.2352
   78TMC2    C3 1211   2.634   2.927   0.997 -0.6960 -0.2175  0.1978
   78TMC2    C4 1212   2.791   3.058   1.188  0.6100 -0.2748 -0.5476
   78TMC2    C5 1213   2.846   2.975   1.098 -0.2498 -0.1747  0.3788
   78TMC2    C6 1214   2.769   2.901   1.012  0.0116  0.1401  0.2094
   78TMC2     C 1215   2.580   3.165   1.266  0.5635 -0.1899 -0.2157
   78TMC2     O 1216   2.456   3.155   1.255  0.7777  0.1247 -0.3429
   78TMC2     H 1217   2.471   3.050   1.054 -0.1782  1.4551 -0.6198
   78TMC2    H1 1218   2.834   3.066   1.286  0.9071  0.2831 -0.7270
   78TMC2    H2 1219   2.822   2.826   0.955  0.6050 -0.4462  1.5347
   78TMC2    C7 1220   2.983   2.942   1.110 -0.4443 -0.7691 -0.4328
   78TMC2    C8 1221   2.552   2.830   0.929  0.4503 -0.2887  0.0663
   78TMC2    O1 1222   3.015   2.832   1.070 -0.4014  0.0730 -0.0311
   78TMC2    O2 1223   2.582   2.783   0.821  0.1744  0.3479  0.0535
   78TMC2    O5 1224   2.428   2.822   0.982 -0.2610 -0.3043  0.4121
   78TMC2    H5 1225   2.430   2.850   1.076 -0.6610 -2.8687  1.1691
   79MPD1     C 1226   2.522   3.473   1.668  0.1178  0.2438 -0.3169
   79MPD1    C1 1227   2.432   3.434   1.580  0.4397  0.1037  0.6306
   79MPD1    C2 1228   2.476   3.344   1.485  0.4950  0.4647 -0.9076
   79MPD1    C3 1229   2.610   3.313   1.465  0.0349  0.3801  0.8742
   79MPD1    C4 1230   2.699   3.372   1.548 -0.1245 -0.0919  0.4282
   79MPD1    C5 1231   2.648   3.434   1.659  0.1082  0.0774 -0.7183
   79MPD1     H 1232   2.407   3.298   1.415  0.6391  0.2271 -0.8917
   79MPD1    H1 1233   2.803   3.344   1.544 -0.0395  0.2837 -0.1593
   79MPD1    H2 1234   2.492   3.535   1.752 -2.8104 -0.2429 -1.0101
   79MPD1    H3 1235   2.719   3.455   1.738 -0.2831  2.0469 -0.8799
   79MPD1     N 1236   2.661   3.240   1.352  0.4299 -0.2084 -0.0125
   79MPD1    H5 1237   2.759   3.243   1.323  0.0857 -0.4770 -1.2018
   79MPD1    N1 1238   2.300   3.466   1.601 -0.1531 -0.0181 -0.8035
   79MPD1    H6 1239   2.286   3.548   1.659  1.5700 -0.2577 -0.0519
   79MPD1    H7 1240   2.248   3.483   1.515 -0.1805  0.5919 -0.6669
   80TMC2    C1 1241   0.658   1.226  11.796  0.2143 -0.3006 -0.6261
   80TMC2    C2 1242   0.727   1.202  11.679  0.7336  0.4597  0.6978
   80TMC2    C3 1243   0.727   1.075  11.630  0.7815 -0.3407  0.6115
   80TMC2    C4 1244   0.591   1.126  11.866 -0.0760 -0.3772 -0.6218
   80TMC2    C5 1245   0.604   1.002  11.813  0.1914 -0.6132  0.3816
   80TMC2    C6 1246   0.665   0.977  11.698 -0.1198  0.2137  0.3346
   80TMC2     C 1247   0.608   1.362  11.808 -0.2898 -0.3332  0.4099
   80TMC2     O 1248   0.643   1.443  11.722  0.7864  0.1633  0.2087
   80TMC2     H 1249   0.793   1.277  11.635 -0.5847 -0.4033 -2.7071
   80TMC2    H1 1250   0.527   1.161  11.946  0.4559 -2.3009  0.6354
   80TMC2    H2 1251   0.671   0.878  11.654 -0.2548  0.2235  0.2954
   80TMC2    C7 1252   0.539   0.886  11.882 -0.4537  0.5511 -0.4625
   80TMC2    C8 1253   0.826   1.036  11.527 -0.0508 -0.4539 -0.1131
   80TMC2    O1 1254   0.527   0.780  11.817 -0.0562 -0.3462 -0.5712
   80TMC2    O2 1255   0.873   0.924  11.517 -0.2210 -0.5071  0.0011
   80TMC2    O5 1256   0.829   1.128  11.426  0.1804 -0.2634  0.1571
   80TMC2    H5 1257   0.778   1.213  11.428  0.2050 -0.1693 -2.9716
   81MPD2     C 1258   0.453   1.596  11.844 -0.2574 -0.9031  0.4379
   81MPD2    C1 1259   0.474   1.506  11.945  0.2464  0.0978  0.0818
   81MPD2    C2 1260   0.431   1.536  12.070 -0.9456  0.1418  0.1669
   81MPD2    C3 1261   0.351   1.645  12.094 -0.5201  0.0437 -0.4295
   81MPD2    C4 1262   0.333   1.740  11.990 -0.1850 -0.3271 -0.6728
   81MPD2    C5 1263   0.386   1.716  11.865  0.3787  0.2062  0.3200
   81MPD2     H 1264   0.455   1.469  12.151 -0.8963 -1.4233 -1.1440
   81MPD2    H1 1265   0.277   1.832  12.004  0.5402  0.1906 -1.1439
   81MPD2    H2 1266   0.475   1.576  11.740  1.1750 -1.6209  0.8764
   81MPD2    H3 1267   0.365   1.781  11.781 -0.2343 -0.9115 -0.3953
   81MPD2     N 1268   0.295   1.663  12.221 -0.2618  0.6799 -0.1570
   81MPD2    H5 1269   0.339   1.609  12.295 -1.9427  0.2823  0.5420
   81MPD2    N1 1270   0.534   1.383  11.921  0.1427 -0.0541 -0.8819
   81MPD2    H7 1271   0.512   1.309  11.987 -2.1677 -1.6236 -3.4006
   82TMC2    C1 1272   3.506   0.893  11.651  0.2672 -0.2898  0.0632
   82TMC2    C2 1273   3.578   0.958  11.752  0.4421 -0.1838 -1.0283
   82TMC2    C3 1274   3.699   0.899  11.786  0.0135  0.4133  0.0213
   82TMC2    C4 1275   3.554   0.794  11.574 -0.5480 -0.4135  0.0739
   82TMC2    C5 1276   3.679   0.745  11.608 -0.7998 -0.1031  0.2664
   82TMC2    C6 1277   3.756   0.798  11.713 -0.1900 -0.4928 -0.1208
   82TMC2     C 1278   3.366   0.922  11.637  0.1661  1.0595 -0.3633
   82TMC2     O 1279   3.322   0.883  11.526 -0.1549 -0.0924  1.0280
   82TMC2     H 1280   3.541   1.039  11.815 -0.3460 -1.3960  0.0664
   82TMC2    H1 1281   3.490   0.744  11.503 -1.7241 -1.7720  2.0956
   82TMC2    H2 1282   3.853   0.757  11.737  0.2001 -0.4671 -1.6364
   82TMC2    C7 1283   3.700   0.599  11.583 -0.3184  0.0683  0.0119
   82TMC2    C8 1284   3.779   0.960  11.890  0.9789 -0.1250 -0.7096
   82TMC2    O1 1285   3.771   0.532  11.652 -0.2780  0.6253  0.2863
   82TMC2    O2 1286   3.721   1.046  11.960  0.3210 -0.1553 -0.2213
   82TMC2    O5 1287   3.909   0.968  11.848  0.8486 -0.3014 -0.5262
   82TMC2    H5 1288   3.917   0.943  11.754 -1.5885 -1.3573 -0.4520
   83MPD2     C 1289   2.909   0.842  11.844  0.6172  0.0975  0.1058
   83MPD2    C1 1290   2.934   0.868  11.714 -0.1263  0.0456  0.3331
   83MPD2    C2 1291   3.068   0.904  11.682  0.7065 -0.2570  0.0108
   83MPD2    C3 1292   3.163   0.923  11.776  0.4964 -0.4719 -0.9005
   83MPD2    C4 1293   3.133   0.895  11.909  0.3781 -0.5494  0.1153
   83MPD2    C5 1294   3.004   0.857  11.941 -0.3203  0.2475  0.7040
   83MPD2     H 1295   3.103   0.923  11.581 -0.4273  0.5662 -0.2277
   83MPD2    H1 1296   3.199   0.903  11.993 -1.1878  0.3378  1.2643
   83MPD2    H2 1297   2.808   0.821  11.875  0.1343  2.8437  0.4343
   83MPD2    H3 1298   2.981   0.835  12.044 -0.4351 -1.9165  0.2136
   83MPD2     N 1299   3.304   0.951  11.755 -0.3812 -0.0851  0.3742
   83MPD2    H5 1300   3.356   0.947  11.842  0.6342 -0.3590 -0.2457
   83MPD2    N1 1301   2.843   0.874  11.611  0.7464 -0.1471 -0.3218
   83MPD2    H7 1302   2.882   0.911  11.525 -0.8294  0.7004 -0.6585
   84TMC2    C1 1303   0.029   4.184  11.051 -0.5722  0.4046  0.2027
   84TMC2    C2 1304   0.160   4.178  11.033 -0.2738 -0.3566  0.2592
   84TMC2    C3 1305   0.205   4.120  10.919  0.2341  0.5193 -0.8773
   84TMC2    C4 1306   4.673   4.137  10.960 -0.3484 -0.2996  0.2276
   84TMC2    C5 1307   4.722   4.092  10.841 -0.0026 -0.4244  0.7170
   84TMC2    C6 1308   0.122   4.071  10.827  0.8613 -0.2330 -0.2878
   84TMC2     C 1309   4.726   4.269  11.158  0.2116 -0.4822  0.2525
   84TMC2     O 1310   0.071   4.348  11.205 -0.0175 -0.0015  0.6407
   84TMC2     H 1311   0.232   4.203  11.110 -0.3622 -3.2369  1.2887
   84TMC2    H1 1312   4.571   4.172  10.967 -0.5494 -0.8621  0.1797
   84TMC2    H2 1313   0.154   4.000  10.751 -2.7468 -1.5075 -0.5998
   84TMC2    C7 1314   4.631   4.022  10.756  0.9858  0.4215 -0.1804
   84TMC2    C8 1315   0.354   4.127  10.909 -0.3987 -0.7253 -0.3627
   84TMC2    O1 1316   4.530   3.984  10.813 -0.2972  0.7729  0.4736
   84TMC2    O2 1317   0.428   4.156  11.001  0.5678  0.0456  0.2305
   84TMC2    O5 1318   0.386   4.108  10.783 -0.2920  0.0197  0.3556
   84TMC2    H5 1319   0.301   4.105  10.733  0.9850 -0.4789 -1.7870
   85TMC2    C1 1320   0.862   3.065  15.612 -0.2511  0.2581  0.0220
   85TMC2    C2 1321   0.744   3.083  15.544 -0.2085 -0.2282 -0.0188
   85TMC2    C3 1322   0.735   3.178  15.451  0.9338 -0.0585 -0.8578
   85TMC2    C4 1323   0.973   3.140  15.580 -0.0690  0.5765  1.3658
   85TMC2    C5 1324   0.964   3.233  15.475 -0.3577  0.3556  0.3748
   85TMC2    C6 1325   0.844   3.262  15.419 -0.1211  0.7496  0.5116
   85TMC2     C 1326   0.884   2.969  15.716  0.0807  0.2116 -1.0598
   85TMC2     O 1327   0.980   2.995  15.790 -0.8473 -0.1372 -0.7155
   85TMC2     H 1328   0.653   3.035  15.577  0.0032 -0.4806  0.1953
   85TMC2    H1 1329   1.072   3.116  15.617  1.4493  2.2399 -1.6355
   85TMC2    H2 1330   0.835   3.339  15.345  0.7863 -0.8317 -1.2532
   85TMC2    C7 1331   1.087   3.299  15.436  0.3693 -0.2676  0.1581
   85TMC2    C8 1332   0.617   3.167  15.373  0.4196  0.3573  0.1168
   85TMC2    O1 1333   1.187   3.255  15.493  1.2462  0.1103  0.2563
   85TMC2    O2 1334   0.560   3.062  15.348 -0.0188  0.0677 -0.5890
   85TMC2    O5 1335   0.550   3.287  15.388  0.1204 -0.1533 -0.1261
   85TMC2    H5 1336   0.604   3.362  15.422 -1.2301  1.0937 -0.7735
   86MPD2     C 1337   0.742   2.586  16.027  0.0033  0.4178 -0.0041
   86MPD2    C1 1338   0.667   2.581  15.913  0.6030 -0.1658 -0.0702
   86MPD2    C2 1339   0.686   2.678  15.813  0.2794 -0.1135  0.2124
   86MPD2    C3 1340   0.773   2.787  15.836  0.1067  0.0659 -0.1960
   86MPD2    C4 1341   0.843   2.796  15.957 -0.9879 -0.5431  0.1340
   86MPD2    C5 1342   0.823   2.697  16.048  0.4274  0.1039  0.1482
   86MPD2     H 1343   0.644   2.673  15.713 -0.9509  0.3018  0.7096
   86MPD2    H1 1344   0.918   2.872  15.977  1.1588 -1.8929 -2.7531
   86MPD2    H2 1345   0.747   2.508  16.102 -0.6029 -0.2058 -0.6129
   86MPD2    H3 1346   0.882   2.703  16.139  1.6691 -1.7301 -0.5370
   86MPD2     N 1347   0.780   2.881  15.730  0.6142 -0.0732 -0.0104
   86MPD2    H5 1348   0.718   2.863  15.651 -0.8426 -1.5165  1.4440
   86MPD2    N1 1349   0.599   2.464  15.880 -0.0980 -0.0215  0.6959
   86MPD2    H7 1350   0.597   2.440  15.781 -0.5473  0.8458  0.4919
   87TMC2    C1 1351   3.458   1.475   0.792  0.2205 -0.1803 -1.2776
   87TMC2    C2 1352   3.504   1.459   0.917  0.6207 -0.3924  0.0719
   87TMC2    C3 1353   3.428   1.507   1.020  0.0602  0.0575  0.2497
   87TMC2    C4 1354   3.340   1.539   0.769 -0.3108  0.0950 -0.0549
   87TMC2    C5 1355   3.272   1.587   0.878 -0.1477  0.0131 -0.0899
   87TMC2    C6 1356   3.313   1.575   1.005 -0.1341 -0.2561  0.5083
   87TMC2     C 1357   3.537   1.418   0.682 -0.2616  1.0755 -0.0170
   87TMC2     O 1358   3.633   1.353   0.722  0.5102 -0.6619  0.1480
   87TMC2     H 1359   3.590   1.397   0.941 -0.0226 -1.4002 -0.2005
   87TMC2    H1 1360   3.300   1.546   0.669 -0.8622 -0.2305  0.1405
   87TMC2    H2 1361   3.256   1.607   1.091  0.0136 -0.7263  0.7831
   87TMC2    C7 1362   3.139   1.650   0.840  0.1335 -0.7302 -0.0370
   87TMC2    C8 1363   3.475   1.499   1.163 -0.4352 -0.2361 -0.2456
   87TMC2    O1 1364   3.119   1.652   0.721  0.2388  0.3571  0.1874
   87TMC2    O2 1365   3.401   1.503   1.261  0.0411 -0.2967  0.2728
   87TMC2    O5 1366   3.607   1.519   1.165 -0.3322  0.3384 -0.1681
   87TMC2    H5 1367   3.648   1.535   1.077 -1.6128  1.4376 -0.5659
   88MPD2     C 1368   2.879   1.821   1.042  0.5436  0.1033  0.0414
   88MPD2    C1 1369   2.933   1.771   0.924 -0.1474 -0.3080 -0.4816
   88MPD2    C2 1370   2.857   1.789   0.805  0.2423 -0.4699 -0.0263
   88MPD2    C3 1371   2.744   1.865   0.796  0.1123  0.3222 -0.1992
   88MPD2    C4 1372   2.704   1.921   0.915 -0.0985 -0.3328 -0.7429
   88MPD2    C5 1373   2.764   1.897   1.035 -0.5536  0.0147 -0.2990
   88MPD2     H 1374   2.903   1.756   0.713 -0.4779 -1.3422 -0.0720
   88MPD2    H1 1375   2.623   1.994   0.918  0.6643  0.4920 -0.2047
   88MPD2    H2 1376   2.924   1.814   1.141 -1.2885  0.3263  0.8960
   88MPD2    H3 1377   2.725   1.936   1.128 -0.8777  2.0607 -1.2940
   88MPD2     N 1378   2.685   1.907   0.680  0.0235 -0.2308 -0.1223
   88MPD2    H5 1379   2.632   1.993   0.696 -0.6898 -0.9185  1.1801
   88MPD2    N1 1380   3.055   1.698   0.943 -0.6947  0.3779 -0.8015
   88MPD2    H7 1381   3.094   1.688   1.036 -0.3740  2.2832 -0.7420
   89TMC2    C1 1382   3.913   0.286   1.775 -0.0414 -0.1480  0.2740
   89TMC2    C2 1383   3.821   0.372   1.830 -0.1275 -0.1184  0.5390
   89TMC2    C3 1384   3.871   0.476   1.911 -0.0483  0.9622  0.1763
   89TMC2    C4 1385   4.047   0.324   1.758  0.4161  0.2974 -0.2584
   89TMC2    C5 1386   4.089   0.433   1.838  0.0042 -0.1261 -0.1922
   89TMC2    C6 1387   4.005   0.496   1.924 -0.5341 -0.2040 -0.0319
   89TMC2     C 1388   3.882   0.144   1.745  0.3318  0.7342 -0.5439
   89TMC2     O 1389   3.975   0.077   1.707 -0.4603 -0.1549 -0.3700
   89TMC2     H 1390   3.715   0.353   1.818  0.0509 -1.7557  1.6950
   89TMC2    H1 1391   4.110   0.275   1.685 -0.0305  0.3293 -0.6656
   89TMC2    H2 1392   4.030   0.596   1.958 -4.1637  1.0466 -1.0412
   89TMC2    C7 1393   4.235   0.468   1.848 -0.4978 -0.1725  0.3829
   89TMC2    C8 1394   3.784   0.577   1.969 -0.2496  0.4611  0.1215
   89TMC2    O1 1395   4.272   0.514   1.954  0.0867 -0.2414  0.0734
   89TMC2    O2 1396   3.676   0.611   1.922  0.5650  0.1129 -0.6874
   89TMC2    O5 1397   3.828   0.604   2.097  0.4484  0.8291 -0.0746
   89TMC2    H5 1398   3.896   0.539   2.127 -2.1043 -0.6294  2.5757
   90MPD2     C 1399   3.592   4.469   1.828  0.3006 -0.2547 -0.4671
   90MPD2    C1 1400   3.707   4.485   1.745  0.4755  0.0194  0.0227
   90MPD2    C2 1401   3.762   4.613   1.731 -1.0448 -0.4132  0.4063
   90MPD2    C3 1402   3.704   4.722   1.797 -0.3450  0.2628  0.3372
   90MPD2    C4 1403   3.598   4.701   1.882 -0.4699 -0.4475 -0.8452
   90MPD2    C5 1404   3.555   4.574   1.905 -0.4440  0.1615  0.3218
   90MPD2     H 1405   3.843   4.629   1.661 -0.6666 -2.3615  0.3990
   90MPD2    H1 1406   3.553   0.047   1.936  0.2972 -0.0359 -0.8360
   90MPD2    H2 1407   3.542   4.375   1.850 -1.7358  1.1964  1.0568
   90MPD2    H3 1408   3.467   4.566   1.967 -0.0224 -2.1945  0.6095
   90MPD2     N 1409   3.758   0.115   1.791  0.1392 -0.1386  0.3560
   90MPD2    H5 1410   3.712   0.187   1.845 -0.3230  0.1762 -0.4638
   90MPD2    N1 1411   3.761   4.377   1.659  0.2903 -0.1526 -0.0514
   90MPD2    H7 1412   3.837   4.391   1.593  1.8608  0.1124  1.8065
   91TMC2    C1 1413   0.710   3.409  16.325  0.3431 -0.0272 -0.7224
   91TMC2    C2 1414   0.692   3.428  16.461 -0.0415  0.3612 -0.5077
   91TMC2    C3 1415   0.563   3.417  16.517 -0.1010  0.0456 -0.7411
   91TMC2    C4 1416   0.604   3.366  16.256 -0.2436 -0.1998 -0.3207
   91TMC2    C5 1417   0.478   3.355  16.313  0.3035 -0.4808  0.6341
   91TMC2    C6 1418   0.457   3.377  16.442  0.3846  0.2297 -0.0949
   91TMC2     C 1419   0.842   3.410  16.262 -0.3288  0.2650 -0.0688
   91TMC2     O 1420   0.853   3.320  16.178 -0.1031 -0.3473  0.0942
   91TMC2     H 1421   0.773   3.471  16.519  0.4603 -1.4591  0.1279
   91TMC2    H1 1422   0.620   3.342  16.151 -1.9034 -0.5535 -0.5045
   91TMC2    H2 1423   0.355   3.376  16.480 -0.0491  1.1271 -1.2544
   91TMC2    C7 1424   0.381   3.284  16.243  0.3230  0.9194  0.4351
   91TMC2    C8 1425   0.529   3.465  16.650  0.3044  0.7314 -0.6204
   91TMC2    O1 1426   0.333   3.196  16.311  0.6182 -0.4570  0.1538
   91TMC2    O2 1427   0.419   3.448  16.700  0.9610  0.1638 -0.2433
   91TMC2    O5 1428   0.616   3.563  16.685 -0.3834  0.0640  0.3631
   91TMC2    H5 1429   0.680   3.590  16.616 -0.3810  0.9152  0.7033
   92MPD2     C 1430   1.122   3.453  16.166 -0.1720 -0.0623 -0.0524
   92MPD2    C1 1431   1.067   3.521  16.271  0.2100 -0.9301  0.9073
   92MPD2    C2 1432   1.141   3.619  16.325 -0.4468 -0.0880  0.2991
   92MPD2    C3 1433   1.268   3.652  16.282  0.0359 -0.6127  0.8265
   92MPD2    C4 1434   1.322   3.575  16.180  0.2213  0.3993  0.0328
   92MPD2    C5 1435   1.247   3.477  16.125  0.4548 -0.3768  0.0866
   92MPD2     H 1436   1.097   3.673  16.408 -2.8517 -0.6447 -0.5918
   92MPD2    H1 1437   1.418   3.599  16.135  0.2709 -2.8026 -1.5655
   92MPD2    H2 1438   1.072   3.378  16.105  2.6088 -0.6494 -1.6327
   92MPD2    H3 1439   1.278   3.417  16.041 -0.6098  0.3053 -0.7986
   92MPD2     N 1440   1.329   3.762  16.344 -0.5769 -0.2611 -0.0047
   92MPD2    H5 1441   1.299   3.792  16.436 -0.5778 -0.3490  0.0241
   92MPD2    N1 1442   0.935   3.501  16.316 -0.5943 -0.2688  0.1199
   92MPD2    H7 1443   0.894   3.565  16.384 -0.4243  0.7133 -0.6974
   93TMC2    C1 1444   2.908   3.604  13.939  0.2214 -0.3429  0.8355
   93TMC2    C2 1445   2.792   3.656  13.998 -0.6702  0.2199  0.4620
   93TMC2    C3 1446   2.801   3.740  14.105  0.1557  0.4609 -0.3057
   93TMC2    C4 1447   3.025   3.640  13.982  0.4407  0.5199 -0.7643
   93TMC2    C5 1448   3.030   3.717  14.093  0.3998  0.1205 -0.2824
   93TMC2    C6 1449   2.919   3.773  14.161  0.2188  0.2562  0.0882
   93TMC2     C 1450   2.899   3.508  13.827 -1.2011 -0.1627 -0.4729
   93TMC2     O 1451   2.999   3.467  13.779  0.3107 -0.3839 -0.1802
   93TMC2     H 1452   2.691   3.653  13.960 -1.1197 -3.1047  1.9638
   93TMC2    H1 1453   3.119   3.600  13.947  0.0585  0.3458 -1.5946
   93TMC2    H2 1454   2.933   3.829  14.252  2.2460 -1.9226  1.0914
   93TMC2    C7 1455   3.158   3.714  14.162  0.2118  0.4540 -0.2365
   93TMC2    C8 1456   2.686   3.808  14.157  0.0959  0.5379 -0.8900
   93TMC2    O1 1457   3.213   3.607  14.171  0.0383 -0.2973  0.8501
   93TMC2    O2 1458   2.693   3.909  14.227 -0.0428  0.1457  0.1829
   93TMC2    O5 1459   2.571   3.736  14.140  0.2658 -0.3974 -0.0595
   93TMC2    H5 1460   2.572   3.649  14.095  2.3862 -0.7222  0.6207
   94MPD2     C 1461   2.820   3.354  13.586 -0.0372  0.3780 -0.3942
   94MPD2    C1 1462   2.731   3.403  13.682  0.4682  0.0335  0.5293
   94MPD2    C2 1463   2.600   3.375  13.674  0.7305  0.4576 -0.0685
   94MPD2    C3 1464   2.552   3.304  13.565 -0.4645  0.1276 -0.7932
   94MPD2    C4 1465   2.640   3.267  13.471 -0.0429 -0.2137  0.0800
   94MPD2    C5 1466   2.770   3.285  13.480  0.0128  0.6031 -0.3239
   94MPD2     H 1467   2.535   3.412  13.752  0.8018 -1.8719  1.0937
   94MPD2    H1 1468   2.611   3.206  13.387  1.1540 -0.1116 -0.4135
   94MPD2    H2 1469   2.928   3.365  13.589  0.1563 -1.8603  0.8934
   94MPD2    H3 1470   2.835   3.250  13.400 -0.4687 -0.2396 -0.3431
   94MPD2     N 1471   2.419   3.268  13.549 -0.5479  0.1736  1.3924
   94MPD2    H5 1472   2.398   3.216  13.465 -0.3944  1.2228  0.7033
   94MPD2    N1 1473   2.765   3.484  13.793 -0.9654 -0.1184  0.2413
   94MPD2    H7 1474   2.693   3.511  13.859  0.8695  4.4762  0.3438
   95TMC2    C1 1475   2.171   1.271  15.834 -0.2841 -0.3531 -0.3779
   95TMC2    C2 1476   2.124   1.147  15.856  0.5326  0.3114  0.1333
   95TMC2    C3 1477   2.080   1.108  15.976  0.5505  0.6159  0.0502
   95TMC2    C4 1478   2.172   1.365  15.931 -0.1241 -0.2063 -0.2910
   95TMC2    C5 1479   2.119   1.325  16.058  0.3782 -0.4263 -0.1097
   95TMC2    C6 1480   2.081   1.194  16.080  0.4194 -0.1359 -0.6660
   95TMC2     C 1481   2.207   1.314  15.699 -0.0450 -0.0152  0.3356
   95TMC2     O 1482   2.254   1.429  15.696  0.3750  0.4624 -0.1180
   95TMC2     H 1483   2.115   1.075  15.775  0.9940 -0.9509  1.2211
   95TMC2    H1 1484   2.208   1.467  15.918 -2.4446  0.8288  1.4386
   95TMC2    H2 1485   2.042   1.169  16.178  0.4353 -0.4126 -0.7296
   95TMC2    C7 1486   2.113   1.424  16.164  0.1174 -0.4593 -0.2671
   95TMC2    C8 1487   2.046   0.968  15.991  0.2451 -0.0637 -0.3799
   95TMC2    O1 1488   2.139   1.542  16.152  0.0894 -0.1308  0.6303
   95TMC2    O2 1489   2.026   0.896  15.894  0.6123 -0.2280  0.0971
   95TMC2    O5 1490   2.073   0.929  16.117 -0.0734 -0.2072 -0.3784
   95TMC2    H5 1491   2.102   0.997  16.181  1.1341 -0.6260 -0.4886
   96MPD2     C 1492   2.201   1.313  15.183  0.5569 -0.4196 -0.0339
   96MPD2    C1 1493   2.235   1.412  15.276 -0.4321  1.2122 -0.9166
   96MPD2    C2 1494   2.220   1.398  15.412  0.6088  0.2148  0.2750
   96MPD2    C3 1495   2.164   1.276  15.460  0.0765  0.4670  0.0211
   96MPD2    C4 1496   2.121   1.184  15.364 -0.4453  0.1312  0.6661
   96MPD2    C5 1497   2.138   1.199  15.227 -0.0463 -0.6839 -1.0243
   96MPD2     H 1498   2.250   1.478  15.480 -0.3221 -0.9572  2.0646
   96MPD2    H1 1499   2.089   1.088  15.404  0.0775  0.0352  0.8452
   96MPD2    H2 1500   2.216   1.322  15.076 -0.6551  2.3170  0.0470
   96MPD2    H3 1501   2.117   1.122  15.154 -3.7760  0.0639 -0.7390
   96MPD2     N 1502   2.160   1.238  15.596 -0.2068  0.2430  0.4444
   96MPD2    H5 1503   2.123   1.148  15.622  0.4527 -0.5810 -1.4521
   96MPD2    N1 1504   2.294   1.528  15.217 -0.1147  0.5669  0.0829
   96MPD2    H7 1505   2.323   1.520  15.120  4.4971 -0.4021  1.5852
   97TMC2    C1 1506   0.770   3.090   0.030  0.3736 -0.0118 -0.2017
   97TMC2    C2 1507   0.793   3.044  17.642  0.0644  0.1144 -0.0887
   97TMC2    C3 1508   0.770   3.137  17.538 -0.6511  0.4058 -0.2913
   97TMC2    C4 1509   0.724   3.214   0.048  0.2054  0.5014  0.3828
   97TMC2    C5 1510   0.705   3.302  17.687 -0.3033 -0.1767  1.0373
   97TMC2    C6 1511   0.724   3.264  17.559 -0.5096 -0.2257  0.4169
   97TMC2     C 1512   0.744   2.998   0.136  0.0532 -0.4386  0.4994
   97TMC2     O 1513   0.699   3.042   0.239 -0.6466 -0.2004  0.6776
   97TMC2     H 1514   0.835   2.946  17.624 -2.4059 -1.0744  0.6578
   97TMC2    H1 1515   0.704   3.250   0.148 -1.2271 -0.0033  0.2771
   97TMC2    H2 1516   0.716   3.330  17.473 -0.8220 -1.1792 -0.2898
   97TMC2    C7 1517   0.669   3.440  17.701 -0.1985  0.1785 -0.4313
   97TMC2    C8 1518   0.752   3.085  17.411 -0.3937 -0.1855  0.8825
   97TMC2    O1 1519   0.703   3.497   0.058 -0.6982  0.0875  0.0571
   97TMC2    O2 1520   0.710   2.969  17.408  0.0148 -0.4375  0.1776
   97TMC2    O5 1521   0.850   3.131  17.339 -0.0417  0.1413  0.6322
   97TMC2    H5 1522   0.878   3.219  17.372  0.3116 -0.0772  0.9210
   98MPD2     C 1523   0.680   2.530   0.322 -0.0873  0.8001  0.1459
   98MPD2    C1 1524   0.603   2.643   0.338 -0.1705  0.0976 -0.8187
   98MPD2    C2 1525   0.638   2.753   0.264  0.5120 -0.1965  0.7136
   98MPD2    C3 1526   0.749   2.753   0.180  0.0824  0.3630  0.3813
   98MPD2    C4 1527   0.811   2.637   0.145 -1.0734  0.5550  0.2528
   98MPD2    C5 1528   0.775   2.523   0.213 -0.2168  0.8878  0.0374
   98MPD2     H 1529   0.576   2.841   0.276 -0.8506 -0.8471 -1.5461
   98MPD2    H1 1530   0.894   2.628   0.075 -0.9793  0.1371  0.4187
   98MPD2    H2 1531   0.665   2.437   0.375 -1.3877  0.1044 -1.4404
   98MPD2    H3 1532   0.835   2.434   0.200 -0.1579  0.8648  0.4557
   98MPD2     N 1533   0.789   2.868   0.112 -0.3961 -0.3887  0.4770
   98MPD2    H5 1534   0.864   2.862   0.043 -2.1650 -0.6745 -1.4442
   98MPD2    N1 1535   0.511   2.642   0.437  0.4497  0.0059  0.2931
   98MPD2    H7 1536   0.494   2.556   0.488  1.2089 -0.6646 -0.5955
   99TMC2    C1 1537   3.992   0.573   1.472  0.5731  0.4393  0.4222
   99TMC2    C2 1538   4.095   0.645   1.520 -0.9219 -0.2483 -0.0784
   99TMC2    C3 1539   4.062   0.775   1.556  0.5509 -0.0444  0.1911
   99TMC2    C4 1540   3.869   0.617   1.441 -0.5146 -0.3040  0.6520
   99TMC2    C5 1541   3.844   0.753   1.467 -0.3586  0.5952 -0.0491
   99TMC2    C6 1542   3.940   0.831   1.529 -0.2458  0.0072 -0.1548
   99TMC2     C 1543   4.033   0.438   1.433  0.2455 -0.0625  0.9536
   99TMC2     O 1544   4.134   0.388   1.485  0.3443 -0.3807  0.0533
   99TMC2     H 1545   4.195   0.604   1.514  0.1422  2.4580 -0.7676
   99TMC2    H1 1546   3.796   0.541   1.418  2.6644 -3.2716  0.3098
   99TMC2    H2 1547   3.922   0.935   1.552 -1.7339 -0.1661 -0.5778
   99TMC2    C7 1548   3.710   0.812   1.442 -0.5020 -0.6912  0.3682
   99TMC2    C8 1549   4.176   0.866   1.584 -1.0357 -0.7192 -0.7296
   99TMC2    O1 1550   3.693   0.921   1.492  0.0771 -0.1906 -0.4624
   99TMC2    O2 1551   4.290   0.851   1.542  0.6421  0.5079 -0.4955
   99TMC2    O5 1552   4.148   0.923   1.703  0.0842 -0.4457  0.9359
   99TMC2    H5 1553   4.055   0.909   1.731 -0.6324  3.4480  0.4888
  100MPD2     C 1554   4.041   0.153   1.328  0.0816 -0.0333 -0.1686
  100MPD2    C1 1555   3.970   0.259   1.272 -0.1042 -0.8114  0.0234
  100MPD2    C2 1556   3.903   0.237   1.151  0.0744  0.6776 -0.2483
  100MPD2    C3 1557   3.903   0.118   1.087 -0.3403  0.1797  0.4889
  100MPD2    C4 1558   3.967   0.010   1.154 -0.9124  0.2784  0.0032
  100MPD2    C5 1559   4.030   0.031   1.278  0.0431  0.2625 -0.0385
  100MPD2     H 1560   3.843   0.313   1.103 -1.9929 -0.7034  0.1605
  100MPD2    H1 1561   3.974   4.648   1.110 -0.0604 -0.1856  1.1773
  100MPD2    H2 1562   4.097   0.165   1.421 -0.2005  1.0237 -0.1426
  100MPD2    H3 1563   4.086   4.688   1.324  0.7135  0.4225 -0.5702
  100MPD2     N 1564   3.838   0.099   0.961 -0.1424  0.0055  0.3405
  100MPD2    H5 1565   3.776   0.169   0.921 -1.9246 -1.2436  0.9212
  100MPD2    N1 1566   3.959   0.394   1.328 -0.0442  0.4808 -0.0891
  100MPD2    H7 1567   3.883   0.449   1.289  0.7294  1.6644  0.0903
  101TMC2    C1 1568   3.764   2.047  13.112  0.3412 -0.6057  0.7278
  101TMC2    C2 1569   3.637   2.077  13.086  0.6446 -0.9859 -0.2202
  101TMC2    C3 1570   3.609   2.122  12.964  0.6161 -0.1881 -0.3729
  101TMC2    C4 1571   3.866   2.081  13.032 -0.3196 -0.0013  0.5807
  101TMC2    C5 1572   3.837   2.138  12.907 -0.6428 -0.6385 -0.2692
  101TMC2    C6 1573   3.708   2.156  12.875  0.3111  0.0753  0.2613
  101TMC2     C 1574   3.791   1.942  13.214  0.1205 -0.0609 -0.0137
  101TMC2     O 1575   3.699   1.937  13.294  0.6897 -0.5927  0.3039
  101TMC2     H 1576   3.557   2.060  13.158 -0.2189 -1.0590 -1.1927
  101TMC2    H1 1577   3.969   2.073  13.064  0.1848 -1.5579 -1.4956
  101TMC2    H2 1578   3.685   2.215  12.787  0.3242 -0.6691 -0.2486
  101TMC2    C7 1579   3.952   2.164  12.817  0.5231  0.1904  0.3404
  101TMC2    C8 1580   3.477   2.175  12.939 -0.5336  0.4377 -0.4811
  101TMC2    O1 1581   4.057   2.119  12.851 -0.6209 -0.5608  0.2118
  101TMC2    O2 1582   3.449   2.263  12.858 -0.0690 -0.3184 -0.0069
  101TMC2    O5 1583   3.389   2.078  12.979 -0.3471  0.2611  0.0096
  101TMC2    H5 1584   3.434   2.001  13.019  0.6854 -0.1780 -1.9753
  102MPD2     C 1585   4.075   1.710  13.224 -0.1502  0.6685 -0.1082
  102MPD2    C1 1586   3.958   1.774  13.270 -0.1464  0.0282 -1.1709
  102MPD2    C2 1587   3.903   1.731  13.393 -0.3650  0.2567 -0.0588
  102MPD2    C3 1588   3.948   1.613  13.450  0.4861  0.2740  0.4729
  102MPD2    C4 1589   4.062   1.550  13.393  0.3200 -0.4714  0.3533
  102MPD2    C5 1590   4.131   1.608  13.288  0.2021  0.0374 -0.3456
  102MPD2     H 1591   3.818   1.787  13.431 -0.0271  1.8422 -1.6480
  102MPD2    H1 1592   4.084   1.452  13.433 -0.2415 -0.7342  0.0326
  102MPD2    H2 1593   4.123   1.741  13.132 -1.9239  0.2540 -1.1639
  102MPD2    H3 1594   4.221   1.561  13.252 -0.0288 -0.0024 -0.8709
  102MPD2     N 1595   3.879   1.546  13.553  0.0432 -0.2543 -0.1217
  102MPD2    H5 1596   3.785   1.574  13.577  0.5435  2.5630 -1.3451
  102MPD2    N1 1597   3.908   1.872  13.190 -0.0283 -0.1822  0.1359
  102MPD2    H7 1598   3.954   1.886  13.101  0.9553  1.1623  0.8572
  103TMC2    C1 1599   1.958   2.047  12.808 -0.8392  0.6077  0.3970
  103TMC2    C2 1600   2.013   2.147  12.734 -0.2135  0.2046 -0.4598
  103TMC2    C3 1601   2.090   2.242  12.796 -0.2476  0.0029  0.3457
  103TMC2    C4 1602   1.984   2.048  12.945 -0.2421 -0.7227  0.2243
  103TMC2    C5 1603   2.048   2.158  13.001 -0.0509 -0.2628 -0.0150
  103TMC2    C6 1604   2.107   2.256  12.928  0.0279 -0.9507  0.1233
  103TMC2     C 1605   1.947   1.923  12.731  0.6765  0.7256  0.1911
  103TMC2     O 1606   1.943   1.927  12.607 -0.1116  0.5348  0.2381
  103TMC2     H 1607   2.027   2.148  12.627  1.3412 -1.8145 -0.2699
  103TMC2    H1 1608   1.926   1.977  13.002 -2.2802 -0.9120 -2.0358
  103TMC2    H2 1609   2.158   2.339  12.976 -0.1333 -0.9442  0.2855
  103TMC2    C7 1610   2.078   2.141  13.143 -0.6252 -0.0958  0.0399
  103TMC2    C8 1611   2.135   2.354  12.713 -0.2330 -0.7501  0.3990
  103TMC2    O1 1612   1.996   2.085  13.214 -0.4501 -0.2837  0.6973
  103TMC2    O2 1613   2.047   2.419  12.648  0.1381  0.2824 -0.0199
  103TMC2    O5 1614   2.258   2.385  12.745 -0.0486 -0.1123 -0.1949
  103TMC2    H5 1615   2.301   2.304  12.779 -0.7172 -0.3587  0.0691
  104MPD2     C 1616   1.890   1.600  12.889  0.5040 -0.7024 -0.8293
  104MPD2    C1 1617   1.907   1.685  12.785  0.6683  0.0560  0.5610
  104MPD2    C2 1618   1.921   1.636  12.659  0.0908  0.0901 -0.2602
  104MPD2    C3 1619   1.909   1.496  12.636  0.2184  0.5459 -0.1061
  104MPD2    C4 1620   1.883   1.409  12.742 -0.7101  0.5800 -0.1700
  104MPD2    C5 1621   1.870   1.465  12.868 -0.0441  0.0867  0.2708
  104MPD2     H 1622   1.952   1.680  12.565 -0.2889  1.9602  0.4989
  104MPD2    H1 1623   1.880   1.301  12.739  0.7417  0.5827 -1.2286
  104MPD2    H2 1624   1.884   1.641  12.989  1.5484 -2.9885  0.1639
  104MPD2    H3 1625   1.860   1.399  12.952  1.5938  0.3524  0.6582
  104MPD2     N 1626   1.931   1.448  12.504 -0.9192  0.9043 -0.5770
  104MPD2    H5 1627   1.940   1.518  12.432 -0.5597  0.4763 -0.9484
  104MPD2    N1 1628   1.931   1.816  12.815  0.2127  0.5255 -0.6334
  104MPD2    H7 1629   1.934   1.836  12.915 -2.2410 -2.5222  0.0467
  105TMC2    C1 1630   4.211   0.955   0.169 -0.2694  0.0596 -0.7163
  105TMC2    C2 1631   4.278   0.984   0.288 -0.2184  0.1784 -0.3629
  105TMC2    C3 1632   4.212   1.057   0.375 -0.0970 -0.1052 -0.0954
  105TMC2    C4 1633   4.092   1.025   0.147 -0.7118 -0.7126  0.8440
  105TMC2    C5 1634   4.042   1.110   0.238 -0.1807 -0.6631  0.0617
  105TMC2    C6 1635   4.101   1.131   0.355 -0.3404 -0.1393  0.2876
  105TMC2     C 1636   4.265   0.849   0.080 -0.0642 -0.0174 -0.3949
  105TMC2     O 1637   4.333   0.763   0.133  0.6837  0.2104 -0.0689
  105TMC2     H 1638   4.367   0.933   0.323  0.5722  0.6297 -1.7281
  105TMC2    H1 1639   4.034   1.002   0.059 -0.2858  0.3076  0.2943
  105TMC2    H2 1640   4.066   1.188   0.440 -2.7872 -0.6450 -0.3489
  105TMC2    C7 1641   3.903   1.143   0.223  0.4465  0.5895 -0.6346
  105TMC2    C8 1642   4.287   1.072   0.500 -0.2761  0.0124 -0.0071
  105TMC2    O1 1643   3.838   1.081   0.139  0.7944 -0.7134 -0.7993
  105TMC2    O2 1644   4.408   1.078   0.493 -0.1107  0.2467  0.0759
  105TMC2    O5 1645   4.203   1.101   0.595 -0.5413 -0.1538  0.1048
  105TMC2    H5 1646   4.112   1.069   0.582 -1.6068  2.6935  0.5184
  106MPD2     C 1647   4.348   0.633  17.370 -0.3612  0.8678 -0.0290
  106MPD2    C1 1648   4.265   0.739  17.346  0.1599  0.1800  0.6578
  106MPD2    C2 1649   4.234   0.827  17.452  0.8283 -0.2857  1.2819
  106MPD2    C3 1650   4.283   0.806  17.582 -0.3760 -0.5153  0.8852
  106MPD2    C4 1651   4.383   0.709  17.597 -0.4089  0.2922  0.0025
  106MPD2    C5 1652   4.414   0.622  17.498  0.2572  0.0924  0.4287
  106MPD2     H 1653   4.174   0.913  17.426 -0.0962 -0.9988  1.0654
  106MPD2    H1 1654   4.429   0.697  17.695 -0.0808 -1.2979 -0.3363
  106MPD2    H2 1655   4.382   0.560  17.297 -0.7082  0.7394 -0.0578
  106MPD2    H3 1656   4.485   0.544  17.523  1.6031  1.3295  0.4618
  106MPD2     N 1657   4.229   0.873  17.694  0.1991 -0.0019  0.4880
  106MPD2    H5 1658   4.157   0.941  17.672  1.4838  0.2832 -2.8598
  106MPD2    N1 1659   4.202   0.766  17.221 -0.2554  0.5264  0.6907
  106MPD2    H7 1660   4.158   0.856  17.207 -1.6272 -0.0307  1.4293
  107TMC2    C1 1661   4.436   0.237  11.781 -0.3208  0.8282 -0.0907
  107TMC2    C2 1662   4.491   0.317  11.689  0.5413 -0.1506 -0.2082
  107TMC2    C3 1663   4.553   0.253  11.585 -0.1810  0.6082  0.3807
  107TMC2    C4 1664   4.444   0.104  11.775  0.1660  0.3516 -0.1156
  107TMC2    C5 1665   4.504   0.044  11.666 -0.3319  0.5730  0.4869
  107TMC2    C6 1666   4.561   0.119  11.573  0.0033 -0.3846  0.2243
  107TMC2     C 1667   4.374   0.299  11.901  0.4647  0.1932  0.1671
  107TMC2     O 1668   4.340   0.232  11.997  0.2338 -0.2620  0.4385
  107TMC2     H 1669   4.517   0.421  11.707  3.4061 -1.2430  2.0375
  107TMC2    H1 1670   4.405   0.044  11.856 -0.5776  1.7235  0.5403
  107TMC2    H2 1671   4.585   0.062  11.484  0.4017  2.9721 -1.8224
  107TMC2    C7 1672   4.467   4.641  11.637  0.5967  0.1213 -0.5329
  107TMC2    C8 1673   4.589   0.337  11.472 -0.7363 -0.2098 -0.0794
  107TMC2    O1 1674   4.402   4.586  11.725  0.2418 -0.3369 -0.6051
  107TMC2    O2 1675   4.672   0.309  11.384 -0.2363 -0.5002 -0.1493
  107TMC2    O5 1676   4.522   0.454  11.478  0.2451  0.2828 -0.3005
  107TMC2    H5 1677   4.432   0.450  11.518  1.8727  0.8003  3.3654
  108MPD2     C 1678   4.251   0.640  11.904 -0.2473  0.0099 -0.6709
  108MPD2    C1 1679   4.279   0.519  11.963 -0.2282  0.2776  0.2930
  108MPD2    C2 1680   4.237   0.508  12.094 -0.2176  0.4410 -0.6540
  108MPD2    C3 1681   4.177   0.604  12.168 -0.5232 -0.4703 -0.5423
  108MPD2    C4 1682   4.164   0.727  12.110 -0.1256 -0.4926 -0.4822
  108MPD2    C5 1683   4.197   0.742  11.978 -0.2270 -0.2660 -0.1153
  108MPD2     H 1684   4.240   0.410  12.141  0.8480  1.1017  0.6779
  108MPD2    H1 1685   4.136   0.815  12.167 -0.0178 -0.4710 -0.4616
  108MPD2    H2 1686   4.272   0.669  11.802 -0.1196 -1.1184 -0.9758
  108MPD2    H3 1687   4.191   0.841  11.934 -5.1389 -0.2139  0.7140
  108MPD2     N 1688   4.130   0.594  12.302  0.0798 -0.4618  0.0621
  108MPD2    H5 1689   4.096   0.679  12.346 -0.1964 -0.9730  0.8395
  108MPD2    N1 1690   4.347   0.431  11.881  0.5325 -0.1054 -0.4385
  108MPD2    H7 1691   4.375   0.475  11.794  2.5631 -0.3590  0.0796
  109TMC2    C1 1692   4.078   2.132   0.288 -0.4295 -0.0757  0.7542
  109TMC2    C2 1693   4.115   2.090   0.160  0.3042 -0.2342  0.1422
  109TMC2    C3 1694   4.231   2.132   0.109  0.0962  0.1547 -0.0443
  109TMC2    C4 1695   4.163   2.212   0.356 -0.1415  0.2471 -0.0841
  109TMC2    C5 1696   4.278   2.254   0.291 -0.0452  0.3569 -0.3082
  109TMC2    C6 1697   4.314   2.215   0.169 -0.4731 -1.1114  0.7838
  109TMC2     C 1698   3.932   2.137   0.313 -1.1434  0.6315 -0.2325
  109TMC2     O 1699   3.871   2.065   0.240  0.3540 -0.3181 -0.0071
  109TMC2     H 1700   4.044   2.036   0.099 -0.2435  1.4499 -0.7050
  109TMC2    H1 1701   4.150   2.241   0.460  1.6505 -1.8508  0.7270
  109TMC2    H2 1702   4.407   2.248   0.123 -0.8282  1.0826  1.6601
  109TMC2    C7 1703   4.368   2.352   0.360 -0.1634  0.5450  0.4935
  109TMC2    C8 1704   4.271   2.093  17.721 -0.7466  0.2906 -0.1633
  109TMC2    O1 1705   4.473   2.370   0.295 -0.1169  0.7589  0.0713
  109TMC2    O2 1706   4.243   1.986  17.671  0.1297  0.1978 -0.1835
  109TMC2    O5 1707   4.268   2.210  17.647  0.0533 -0.5028  0.3298
  109TMC2    H5 1708   4.317   2.287  17.683  0.4681 -0.9310  0.6885
  110MPD2     C 1709   3.547   2.208   0.636 -0.4146 -0.0351 -0.1347
  110MPD2    C1 1710   3.659   2.268   0.689 -0.3242 -0.4659 -0.0662
  110MPD2    C2 1711   3.769   2.262   0.608 -0.0017  0.2525 -0.4650
  110MPD2    C3 1712   3.773   2.204   0.486  0.7431 -0.0575 -0.1706
  110MPD2    C4 1713   3.663   2.142   0.440 -0.2098  0.2734  0.1873
  110MPD2    C5 1714   3.550   2.151   0.515 -0.5007 -0.3479  0.0230
  110MPD2     H 1715   3.866   2.287   0.649  0.0655 -0.7028 -0.0437
  110MPD2    H1 1716   3.658   2.076   0.354  1.2006  0.2594  0.1099
  110MPD2    H2 1717   3.451   2.204   0.687 -0.2879 -0.1371  0.0960
  110MPD2    H3 1718   3.460   2.110   0.470 -0.5134  1.8446 -1.9708
  110MPD2     N 1719   3.901   2.194   0.429  0.2841  0.3340  0.3037
  110MPD2    H5 1720   3.971   2.235   0.491  0.2797 -0.3427  0.7590
  110MPD2    N1 1721   3.653   2.321   0.811 -0.2157 -0.1334 -0.4572
  110MPD2    H7 1722   3.563   2.317   0.859 -0.6757 -2.3918 -1.5000
  111TMC2    C1 1723   0.072   2.703  11.602  0.9601  0.1837 -0.3116
  111TMC2    C2 1724   0.105   2.820  11.536  0.4764 -0.3996  0.1685
  111TMC2    C3 1725   0.168   2.914  11.605 -0.5061 -0.5059 -0.0858
  111TMC2    C4 1726   0.094   2.698  11.737  1.1238 -0.0160  0.9396
  111TMC2    C5 1727   0.158   2.800  11.801 -0.2825  0.9602  0.5199
  111TMC2    C6 1728   0.193   2.911  11.736 -0.2431  0.3363  0.0709
  111TMC2     C 1729   4.692   2.625  11.553 -0.1092 -0.1588  0.1207
  111TMC2     O 1730   4.680   2.614  11.432 -0.4221 -0.3169 -0.2764
  111TMC2     H 1731   0.092   2.828  11.429 -0.5816 -2.6551  0.1379
  111TMC2    H1 1732   0.080   2.602  11.786 -1.0331  0.8156  1.9348
  111TMC2    H2 1733   0.235   2.984  11.803  1.3184 -0.7431  0.2815
  111TMC2    C7 1734   0.167   2.784  11.939 -0.3678 -0.6828 -0.3633
  111TMC2    C8 1735   0.211   3.033  11.532 -0.4040  0.7503  0.0060
  111TMC2    O1 1736   0.185   2.667  11.967 -0.2818  0.1994  0.1864
  111TMC2    O2 1737   0.328   3.076  11.545  0.2111 -0.1702  0.2521
  111TMC2    O5 1738   0.095   3.100  11.538  0.2529  0.2038  0.5089
  111TMC2    H5 1739   0.028   3.060  11.598 -1.5412  1.4339 -0.6677
  112MPD2     C 1740   4.256   2.366  11.605  0.2457  0.4017 -0.5391
  112MPD2    C1 1741   4.328   2.406  11.496 -0.3804  0.4015  0.1342
  112MPD2    C2 1742   4.443   2.479  11.520 -0.9147  0.3827  0.3902
  112MPD2    C3 1743   4.495   2.502  11.645 -0.0099 -0.0481  0.0610
  112MPD2    C4 1744   4.421   2.463  11.749 -0.1782  0.5685  0.2729
  112MPD2    C5 1745   4.305   2.400  11.730 -0.1411 -0.2830 -0.6160
  112MPD2     H 1746   4.492   2.515  11.430 -2.6823 -0.2762 -0.8371
  112MPD2    H1 1747   4.449   2.491  11.850 -0.3830  1.2371  0.1470
  112MPD2    H2 1748   4.157   2.323  11.595  0.5609 -0.1600 -1.1720
  112MPD2    H3 1749   4.239   2.375  11.813 -2.8385  1.9431 -2.0934
  112MPD2     N 1750   4.609   2.592  11.655 -0.1545  0.6568 -0.0149
  112MPD2    H5 1751   4.616   2.638  11.744 -2.2809  2.0381 -0.5710
  112MPD2    N1 1752   4.279   2.411  11.365  0.2628  0.2666  0.0016
  112MPD2    H7 1753   4.342   2.452  11.296  0.4995 -0.7363 -0.3840
  113TMC2    C1 1754   2.948   0.529   0.417 -0.2554 -0.1737 -0.1561
  113TMC2    C2 1755   2.920   0.630   0.327  0.5743  0.5555 -0.1139
  113TMC2    C3 1756   2.789   0.636   0.289  0.3799 -0.3717  0.3311
  113TMC2    C4 1757   2.860   0.427   0.448  0.4725  0.3503  0.1602
  113TMC2    C5 1758   2.736   0.443   0.403  0.1745 -0.1486  0.7518
  113TMC2    C6 1759   2.696   0.546   0.325 -0.3301 -0.0783  0.3986
  113TMC2     C 1760   3.062   0.555   0.504  1.1080 -0.2420 -0.2302
  113TMC2     O 1761   3.088   0.671   0.532 -0.1646  0.4678 -0.2322
  113TMC2     H 1762   2.990   0.711   0.309  0.9600 -0.3868 -2.9574
  113TMC2    H1 1763   2.886   0.349   0.519 -2.7966 -1.5479 -0.7456
  113TMC2    H2 1764   2.591   0.565   0.306 -0.1764 -0.0995 -0.4852
  113TMC2    C7 1765   2.643   0.335   0.412 -0.5145 -0.5732 -0.1161
  113TMC2    C8 1766   2.740   0.765   0.233 -0.3017 -0.2186 -0.1436
  113TMC2    O1 1767   2.546   0.331   0.338 -0.9042 -0.3259 -0.3320
  113TMC2    O2 1768   2.809   0.866   0.236 -0.4347 -0.4288 -0.5564
  113TMC2    O5 1769   2.658   0.722   0.134 -0.5574 -0.3893 -0.2470
  113TMC2    H5 1770   2.662   0.624   0.131  3.1530 -0.2312 -0.4746
  114MPD2     C 1771   3.446   0.417   0.827  0.0742  0.1059  0.1405
  114MPD2    C1 1772   3.387   0.539   0.794 -0.1370 -0.3225  0.7161
  114MPD2    C2 1773   3.280   0.536   0.711 -0.1727 -0.1531 -0.1474
  114MPD2    C3 1774   3.239   0.428   0.637 -0.4882  0.2523  0.5003
  114MPD2    C4 1775   3.304   0.314   0.662  0.0104 -0.1662 -0.6947
  114MPD2    C5 1776   3.408   0.309   0.755  0.7937  0.0955 -0.0640
  114MPD2     H 1777   3.225   0.630   0.702  0.0129 -0.0004  0.3073
  114MPD2    H1 1778   3.280   0.219   0.615  0.3267 -0.7749  0.3710
  114MPD2    H2 1779   3.523   0.408   0.902 -0.3641  1.3297  0.7474
  114MPD2    H3 1780   3.455   0.215   0.780 -0.2337 -0.5818 -0.6894
  114MPD2     N 1781   3.132   0.440   0.542 -0.8783  0.5875 -0.6054
  114MPD2    H5 1782   3.095   0.353   0.504  1.7003  0.0619 -1.8831
  114MPD2    N1 1783   3.417   0.664   0.858 -0.3744 -0.8646 -0.0949
  114MPD2    H7 1784   3.357   0.741   0.832  2.1772  1.4950  1.0218
  115TMC2    C1 1785   4.092   3.063  17.636 -0.6856  0.1826 -0.2981
  115TMC2    C2 1786   4.164   2.996  17.730  0.6288  0.1594  0.4314
  115TMC2    C3 1787   4.206   3.059   0.097  0.1160 -0.0689  0.6616
  115TMC2    C4 1788   4.064   3.193  17.654  0.4600 -0.0104 -0.3165
  115TMC2    C5 1789   4.107   3.254   0.025 -0.3966 -0.3026 -0.0582
  115TMC2    C6 1790   4.179   3.190   0.124 -0.0396 -0.8853  0.7080
  115TMC2     C 1791   4.015   2.975  17.542  0.3930 -0.2405 -0.4625
  115TMC2     O 1792   4.007   2.854  17.568 -0.0872  0.5550  0.4661
  115TMC2     H 1793   4.175   2.889  17.716  1.8257  0.2879  0.3916
  115TMC2    H1 1794   3.987   3.237  17.592  1.1956 -0.6409 -1.6534
  115TMC2    H2 1795   4.197   3.232   0.223 -0.4550 -1.3571  0.9867
  115TMC2    C7 1796   4.070   3.390   0.045 -0.4442  0.0380  0.6044
  115TMC2    C8 1797   4.252   2.980   0.209 -0.1308  0.3562 -0.0977
  115TMC2    O1 1798   4.045   3.436   0.156 -0.3663 -0.3798 -0.0040
  115TMC2    O2 1799   4.236   3.008   0.327  0.5807  0.1732 -0.1338
  115TMC2    O5 1800   4.351   2.906   0.164  0.3161  0.0558  0.4962
  115TMC2    H5 1801   4.375   2.928   0.072  1.6281 -3.4073  0.0059
  116MPD2     C 1802   3.670   2.944  17.155  0.1631  1.0886  0.3666
  116MPD2    C1 1803   3.711   2.841  17.240  0.0757  1.1414 -0.0022
  116MPD2    C2 1804   3.801   2.880  17.344  0.2611  0.0121  0.7399
  116MPD2    C3 1805   3.860   3.002  17.351 -0.1103  0.1533  0.4547
  116MPD2    C4 1806   3.803   3.106  17.276  1.0508 -0.5812 -0.5944
  116MPD2    C5 1807   3.701   3.072  17.185 -0.3846  0.0096 -0.4220
  116MPD2     H 1808   3.831   2.808  17.420  0.3836 -0.2853  0.4123
  116MPD2    H1 1809   3.847   3.205  17.277 -0.9307  0.2638  3.2173
  116MPD2    H2 1810   3.597   2.923  17.078  1.5015 -2.1403 -0.0068
  116MPD2    H3 1811   3.671   3.148  17.114  1.4580  1.2961  0.1814
  116MPD2     N 1812   3.961   3.050  17.437  0.3380  0.1299  0.3733
  116MPD2    H5 1813   3.985   3.148  17.430  0.4600  0.3345  3.4635
  116MPD2    N1 1814   3.659   2.715  17.230  0.0267  0.1260  0.3493
  116MPD2    H7 1815   3.587   2.699  17.161 -1.1106 -1.1912  1.8204
  117TMC2    C1 1816   2.601   3.847  13.773 -0.1057  0.5797 -0.3481
  117TMC2    C2 1817   2.721   3.841  13.702 -0.8915  0.1705 -0.3765
  117TMC2    C3 1818   2.795   3.954  13.675 -0.2883  0.1295 -0.1528
  117TMC2    C4 1819   2.548   3.968  13.809 -0.0015 -0.2462  0.3113
  117TMC2    C5 1820   2.629   4.076  13.791 -0.5993 -0.3423  0.1317
  117TMC2    C6 1821   2.747   4.073  13.719 -0.4354  0.4178 -0.0895
  117TMC2     C 1822   2.498   3.753  13.738 -0.4727 -0.0372 -0.1496
  117TMC2     O 1823   2.511   3.650  13.801  0.3601 -0.2337 -0.5549
  117TMC2     H 1824   2.747   3.746  13.657 -2.2885 -0.5793  0.4053
  117TMC2    H1 1825   2.473   3.985  13.885 -0.5816 -1.1404 -0.0632
  117TMC2    H2 1826   2.808   4.160  13.700  1.3811 -0.4683  1.6822
  117TMC2    C7 1827   2.560   4.200  13.790  0.5761 -0.1150 -0.3540
  117TMC2    C8 1828   2.909   3.931  13.581 -0.6693  0.0904 -0.1784
  117TMC2    O1 1829   2.625   4.302  13.800  0.1677  0.3277 -0.0743
  117TMC2    O2 1830   2.959   3.822  13.554  0.6601 -0.2583  0.2328
  117TMC2    O5 1831   2.926   4.046  13.511  0.3958  0.0917  0.7509
  117TMC2    H5 1832   2.861   4.113  13.540 -2.1197 -0.4713 -3.5970
  118MPD2     C 1833   2.204   4.238  13.811 -0.3039 -0.3211  0.3913
  118MPD2    C1 1834   2.329   4.285  13.818  0.1305  0.1211  1.0251
  118MPD2    C2 1835   2.355   4.417  13.851 -0.1603 -0.3417  0.0564
  118MPD2    C3 1836   2.246   4.500  13.869  0.0686  1.0799  0.2676
  118MPD2    C4 1837   2.122   4.453  13.853 -0.1322  0.0900  0.3775
  118MPD2    C5 1838   2.097   4.318  13.834 -0.7054 -0.2354 -0.0177
  118MPD2     H 1839   2.456   4.456  13.854  0.7497 -2.4130 -3.6743
  118MPD2    H1 1840   2.039   4.520  13.874 -1.5004 -1.4987  0.0111
  118MPD2    H2 1841   2.176   4.134  13.795 -0.4479 -0.0528 -1.0426
  118MPD2    H3 1842   1.998   4.275  13.841 -1.0926  0.4322 -1.2768
  118MPD2     N 1843   2.256   4.643  13.872  0.2161  0.7881 -0.2985
  118MPD2    H5 1844   2.176   4.703  13.855 -0.7601  0.2555  2.5601
  118MPD2    N1 1845   2.425   4.185  13.796  0.6067 -0.3101 -0.3522
  118MPD2    H7 1846   2.383   4.101  13.757  1.3479 -0.1275 -1.5552
  119TMC2    C1 1847   4.092   0.542  13.996 -0.2013  0.8794 -0.6022
  119TMC2    C2 1848   4.065   0.450  13.900 -0.1512 -0.5216 -0.0256
  119TMC2    C3 1849   4.006   0.330  13.934 -0.1562 -0.5829  0.4746
  119TMC2    C4 1850   4.069   0.506  14.128 -0.6039  0.2284 -0.6891
  119TMC2    C5 1851   4.020   0.383  14.153 -0.4490  0.2579  0.2617
  119TMC2    C6 1852   3.974   0.298  14.057 -0.5199 -0.4137  0.1092
  119TMC2     C 1853   4.217   0.610  13.969 -0.6231  0.1987  1.0069
  119TMC2     O 1854   4.302   0.585  14.053 -0.1308  0.1636 -0.0073
  119TMC2     H 1855   4.106   0.472  13.802 -0.5397  1.2273  0.2117
  119TMC2    H1 1856   4.125   0.559  14.204 -0.7170 -0.7199  0.0509
  119TMC2    H2 1857   3.898   0.224  14.079 -1.7780  1.0969  0.7969
  119TMC2    C7 1858   4.015   0.337  14.286  0.5753 -0.6257 -0.1893
  119TMC2    C8 1859   4.045   0.217  13.854 -0.5364 -0.9747 -0.0743
  119TMC2    O1 1860   4.026   0.434  14.356  0.3866  0.1111 -0.7039
  119TMC2    O2 1861   4.092   0.114  13.901  0.0957 -0.3994 -0.2321
  119TMC2    O5 1862   4.071   0.256  13.724  0.5279 -0.4092 -0.0969
  119TMC2    H5 1863   4.027   0.339  13.696  1.4363 -0.2190 -0.9713
  120MPD2     C 1864   4.531   0.915  13.695 -0.1843  0.9117 -0.1608
  120MPD2    C1 1865   4.548   0.853  13.818  0.1908 -0.2092 -0.5584
  120MPD2    C2 1866   4.447   0.771  13.869  0.7177  0.3006 -0.5996
  120MPD2    C3 1867   4.326   0.764  13.808 -0.4192  0.1613 -0.1991
  120MPD2    C4 1868   4.307   0.820  13.686 -0.0070  0.5762  0.2075
  120MPD2    C5 1869   4.414   0.897  13.633  0.3798 -0.1921 -0.4199
  120MPD2     H 1870   4.470   0.722  13.963  1.2319  0.5167 -0.6142
  120MPD2    H1 1871   4.215   0.821  13.629 -0.4979 -0.4705  0.9945
  120MPD2    H2 1872   4.609   0.975  13.648  0.6405 -1.2831 -1.5926
  120MPD2    H3 1873   4.399   0.953  13.542 -0.2078  1.0989  0.4600
  120MPD2     N 1874   4.209   0.695  13.860 -0.0362 -0.2608 -0.2398
  120MPD2    H5 1875   4.122   0.705  13.809 -1.0633 -0.9206  1.3857
  120MPD2    N1 1876   4.670   0.888  13.881  0.3499  0.2020  0.2495
  120MPD2    H7 1877   4.718   0.973  13.852  0.9128 -0.4170 -0.6380
  121TMC2    C1 1878   1.914   2.816  13.960 -0.0219 -0.0316 -0.6344
  121TMC2    C2 1879   1.984   2.775  14.073  0.5357 -0.0982 -0.4459
  121TMC2    C3 1880   1.911   2.733  14.182  0.5385 -0.0655  0.1679
  121TMC2    C4 1881   1.771   2.797  13.950  0.1832  0.3343 -0.4925
  121TMC2    C5 1882   1.715   2.740  14.063  0.8294 -0.7348  0.1780
  121TMC2    C6 1883   1.783   2.723  14.183  0.3134 -0.2315  0.8327
  121TMC2     C 1884   2.002   2.844  13.841  0.3606  0.6355  0.4379
  121TMC2     O 1885   2.118   2.800  13.843 -0.8431 -0.6395 -0.0371
  121TMC2     H 1886   2.090   2.798  14.077  0.2472  0.7033  2.3767
  121TMC2    H1 1887   1.724   2.821  13.856 -1.5327  1.8899  0.7404
  121TMC2    H2 1888   1.733   2.690  14.273  2.7429 -0.8295  1.9473
  121TMC2    C7 1889   1.574   2.696  14.059  0.2009 -0.0739  0.3677
  121TMC2    C8 1890   1.963   2.686  14.306  0.4178 -0.1468  0.5388
  121TMC2    O1 1891   1.548   2.627  14.153  0.1842 -0.4001 -0.1797
  121TMC2    O2 1892   1.901   2.616  14.384 -0.4883  0.2262  0.2325
  121TMC2    O5 1893   2.090   2.734  14.316  0.6664  0.1677  0.7235
  121TMC2    H5 1894   2.120   2.788  14.240  1.1619 -0.1114  0.7188
  122MPD2     C 1895   2.132   2.909  13.577  0.3573  0.1478  0.5440
  122MPD2    C1 1896   1.997   2.924  13.609  0.2686  0.0692 -0.0074
  122MPD2    C2 1897   1.918   2.986  13.512  0.0130 -0.2576 -0.2947
  122MPD2    C3 1898   1.955   3.005  13.378  0.6654  0.5757 -0.1926
  122MPD2    C4 1899   2.085   2.965  13.349 -0.0505  0.6681 -0.3728
  122MPD2    C5 1900   2.167   2.918  13.450  0.5071 -0.1909 -0.4258
  122MPD2     H 1901   1.815   3.004  13.538  0.0857 -1.3824  0.7804
  122MPD2    H1 1902   2.122   2.959  13.248  1.1219 -2.8102  0.2596
  122MPD2    H2 1903   2.204   2.864  13.644  1.5008  0.4356 -0.4890
  122MPD2    H3 1904   2.269   2.883  13.436  0.7205  0.5278 -0.6671
  122MPD2     N 1905   1.874   3.059  13.276  0.0456  0.3864 -0.1649
  122MPD2    H5 1906   1.916   3.048  13.184  0.7210 -1.1107  0.3287
  122MPD2    N1 1907   1.937   2.902  13.735  0.6090  0.1757 -0.1889
  122MPD2    H7 1908   1.839   2.922  13.752  1.2547  1.5583  1.9356
  123TMC2    C1 1909   4.504   4.483   9.764  0.3265 -0.2364 -0.1039
  123TMC2    C2 1910   4.499   4.511   9.633 -0.6216  0.0081 -0.2593
  123TMC2    C3 1911   4.619   4.545   9.572  0.4584  0.0654  0.3350
  123TMC2    C4 1912   4.614   4.513   9.842 -0.0127  0.9040  0.5936
  123TMC2    C5 1913   4.724   4.559   9.788  0.6709 -0.1535  0.4096
  123TMC2    C6 1914   4.732   4.572   9.648  0.3138 -0.3364 -0.2563
  123TMC2     C 1915   4.374   4.467   9.835 -0.6638 -0.4704  0.4006
  123TMC2     O 1916   4.282   4.430   9.766 -0.0969  0.6248  0.0572
  123TMC2     H 1917   4.404   4.500   9.582  0.0914  0.2455 -1.6076
  123TMC2    H1 1918   4.615   4.492   9.948 -0.9344  1.3480  0.6879
  123TMC2    H2 1919   0.076   4.630   9.605  0.7699  0.5141  1.7394
  123TMC2    C7 1920   0.114   4.559   9.863  0.5887  0.0505  0.4073
  123TMC2    C8 1921   4.613   4.599   9.437 -0.1940 -0.0410  0.5473
  123TMC2    O1 1922   0.108   4.595   9.981  0.2280  0.0041 -0.2401
  123TMC2    O2 1923   4.635   4.716   9.412  0.1269  0.4355 -0.3445
  123TMC2    O5 1924   4.515   4.520   9.383  0.4581 -0.1324  0.5304
  123TMC2    H5 1925   4.522   4.422   9.393  2.5764  0.1596  1.9024
  124MPD2     C 1926   4.091   4.518  10.242  0.3696  0.7196 -0.0899
  124MPD2    C1 1927   4.202   4.598  10.259 -0.6644  0.0711 -0.9397
  124MPD2    C2 1928   4.299   4.601  10.164 -1.1031 -0.1418 -0.5324
  124MPD2    C3 1929   4.287   4.520  10.054  0.0623 -0.2376 -0.0947
  124MPD2    C4 1930   4.179   4.436  10.034 -0.3753 -0.2645  0.1178
  124MPD2    C5 1931   4.085   4.433  10.138  0.0366  0.0884  0.2244
  124MPD2     H 1932   4.377   4.677  10.166 -0.0209 -1.3303  2.1211
  124MPD2    H1 1933   4.183   4.354   9.964 -0.5017 -1.0427  1.0120
  124MPD2    H2 1934   4.021   4.512  10.325  1.3078 -1.5240  0.5165
  124MPD2    H3 1935   4.001   4.365  10.135  0.8290 -0.8759  0.0617
  124MPD2     N 1936   4.384   4.523   9.958 -0.0146 -0.2162 -0.0441
  124MPD2    H5 1937   4.471   4.572   9.974 -0.2514 -0.4853  2.1680
  124MPD2    N1 1938   4.195   4.693  10.369  0.1579 -0.2433  0.2735
  124MPD2    H7 1939   4.120   4.676  10.435  2.0412 -2.1267  1.9237
  125TMC2    C1 1940   0.405   2.620   9.670  0.7246  0.2973 -0.0486
  125TMC2    C2 1941   0.271   2.659   9.690  0.5432 -0.1493 -0.1836
  125TMC2    C3 1942   0.195   2.581   9.771  0.1543 -0.2292 -0.1036
  125TMC2    C4 1943   0.454   2.506   9.727 -0.0021 -0.2140  0.5018
  125TMC2    C5 1944   0.368   2.431   9.800 -0.2786 -0.3972  0.3945
  125TMC2    C6 1945   0.238   2.471   9.824 -0.2484  0.7002  0.4585
  125TMC2     C 1946   0.496   2.700   9.583  0.5443 -0.0488  0.2870
  125TMC2     O 1947   0.439   2.773   9.500 -0.1301  0.5086 -0.0614
  125TMC2     H 1948   0.227   2.744   9.639  0.6841 -0.2146 -0.4148
  125TMC2    H1 1949   0.551   2.479   9.687  0.5361  1.9435  0.3670
  125TMC2    H2 1950   0.172   2.404   9.877  1.5013  0.2747  2.1187
  125TMC2    C7 1951   0.408   2.306   9.860  0.4237 -0.5549  0.6990
  125TMC2    C8 1952   0.060   2.633   9.790 -0.1223 -0.1315 -0.0860
  125TMC2    O1 1953   0.320   2.238   9.914  0.4662  0.2257  0.8975
  125TMC2    O2 1954   0.000   2.719   9.723  0.4956  0.5530 -0.3015
  125TMC2    O5 1955   0.029   2.607   9.919  0.2377  0.7455 -0.8636
  125TMC2    H5 1956   0.114   2.579   9.961 -0.9017 -0.2581  0.7782
  126MPD1     C 1957   0.919   2.890   9.382 -0.2556  0.0015  0.0302
  126MPD1    C1 1958   0.958   2.808   9.482  0.0546 -0.4075  0.2141
  126MPD1    C2 1959   0.858   2.739   9.552  0.4615  0.0246  0.3178
  126MPD1    C3 1960   0.725   2.770   9.545 -0.1482 -1.1512  0.3865
  126MPD1    C4 1961   0.693   2.879   9.468  0.4910  0.2297  0.2805
  126MPD1    C5 1962   0.791   2.932   9.386  0.5074  0.1966 -0.3287
  126MPD1     H 1963   0.888   2.658   9.618 -1.1037  0.2667  1.3381
  126MPD1    H1 1964   0.593   2.923   9.470  0.6232  0.4628  1.5625
  126MPD1    H2 1965   0.983   2.936   9.308 -0.3623 -1.3496 -0.8966
  126MPD1    H3 1966   0.764   3.022   9.331 -0.7293 -0.6080 -1.0338
  126MPD1     N 1967   0.631   2.691   9.614  0.0982 -0.0545  0.1429
  126MPD1    H5 1968   0.666   2.636   9.692  0.4586  0.0849  0.0788
  126MPD1    N1 1969   1.096   2.764   9.493  0.3023 -0.0248  0.0102
  126MPD1    H6 1970   1.114   2.717   9.582 -0.1243  1.7327  1.0075
  126MPD1    H7 1971   1.164   2.837   9.476 -0.0976 -0.0007 -1.4688
  127TMC2    C1 1972   1.871   0.925   9.882  0.1404 -0.3895  0.4692
  127TMC2    C2 1973   1.779   0.882   9.980  0.7818  0.3666 -0.3986
  127TMC2    C3 1974   1.733   0.757   9.974 -0.1941  0.2552  0.6107
  127TMC2    C4 1975   1.927   0.830   9.798  0.2998  0.1071  0.5375
  127TMC2    C5 1976   1.871   0.701   9.790 -0.1681  0.4719 -0.4639
  127TMC2    C6 1977   1.775   0.667   9.876  0.2620  0.2446 -0.1867
  127TMC2     C 1978   1.950   1.045   9.905  0.5343 -0.6632  0.0471
  127TMC2     O 1979   2.000   1.099   9.806 -0.0778  0.5889 -0.1868
  127TMC2     H 1980   1.742   0.965  10.039  1.1554  1.3733 -1.5570
  127TMC2    H1 1981   2.006   0.856   9.729  0.9184  0.4266  1.3756
  127TMC2    H2 1982   1.729   0.569   9.872 -2.0290  1.2866  0.8845
  127TMC2    C7 1983   1.905   0.623   9.677  0.5177 -0.3040  0.9608
  127TMC2    C8 1984   1.667   0.720  10.097 -0.9964 -1.3591  0.5326
  127TMC2    O1 1985   1.956   0.678   9.577 -0.8339 -0.1850  0.4397
  127TMC2    O2 1986   1.635   0.801  10.181  0.2807 -0.1855 -0.2936
  127TMC2    O5 1987   1.663   0.587  10.112 -0.0117  0.1687  0.5591
  127TMC2    H5 1988   1.705   0.528  10.046  0.0535 -1.2604  1.8850
  128MPD2     C 1989   2.027   1.220  10.226  0.0501  0.7113  0.2780
  128MPD2    C1 1990   2.010   1.208  10.089 -0.1730 -0.3405 -0.0970
  128MPD2    C2 1991   2.047   1.311  10.006  0.4260 -0.5092  0.1632
  128MPD2    C3 1992   2.107   1.428  10.058 -0.2263 -0.1469  0.0812
  128MPD2    C4 1993   2.128   1.434  10.189 -0.7239  0.2995 -0.6105
  128MPD2    C5 1994   2.090   1.331  10.273  0.4109 -0.3753  0.0555
  128MPD2     H 1995   2.021   1.307   9.901 -0.9314  0.2110  0.4747
  128MPD2    H1 1996   2.182   1.515  10.238  0.3399 -1.3613  0.9707
  128MPD2    H2 1997   1.999   1.138  10.291 -0.3578  1.0888  0.5747
  128MPD2    H3 1998   2.118   1.342  10.377  0.9887 -1.8214  0.0462
  128MPD2     N 1999   2.140   1.533   9.972  0.3263  0.2144  0.6152
  128MPD2    H5 2000   2.105   1.519   9.878  2.2442  0.3406 -0.1098
  128MPD2    N1 2001   1.959   1.089  10.037  0.0147  0.7170 -0.4705
  128MPD2    H7 2002   1.920   1.024  10.105 -0.6257  0.6677 -0.8793
  129TMC2    C1 2003   4.516   3.092   1.586  0.8071  0.6720  0.0330
  129TMC2    C2 2004   4.446   3.057   1.700 -0.1215  0.0100 -0.1441
  129TMC2    C3 2005   4.442   2.927   1.745 -0.0756 -1.2352 -0.2666
  129TMC2    C4 2006   4.583   2.994   1.510 -0.0456 -0.0272 -0.6187
  129TMC2    C5 2007   4.592   2.872   1.565 -0.2379 -0.8289 -0.2118
  129TMC2    C6 2008   4.512   2.837   1.675 -0.0825 -0.1368 -1.3806
  129TMC2     C 2009   4.541   3.234   1.569  0.1740 -0.3248  0.1408
  129TMC2     O 2010   4.488   3.309   1.648  0.1217 -0.0663 -0.0635
  129TMC2     H 2011   4.393   3.130   1.760  2.1176 -0.0265  1.8887
  129TMC2    H1 2012   4.626   3.027   1.416 -0.9976 -0.0365 -1.0633
  129TMC2    H2 2013   4.504   2.739   1.720 -3.9011  0.9112  0.2244
  129TMC2    C7 2014   4.654   2.763   1.488 -0.0799  0.8399  0.1630
  129TMC2    C8 2015   4.346   2.881   1.856 -0.3528  0.4390  0.3688
  129TMC2    O1 2016   4.634   2.645   1.513  0.2434  0.3681 -0.3152
  129TMC2    O2 2017   4.304   2.962   1.938  0.3751  0.2604  0.0602
  129TMC2    O5 2018   4.267   2.775   1.812 -0.6364  0.0848 -0.3295
  129TMC2    H5 2019   4.299   2.733   1.729 -2.1828 -0.0270 -0.8754
  130MPD2     C 2020   4.646   3.501   1.487  0.4766  0.0892 -0.3986
  130MPD2    C1 2021   4.694   3.380   1.440 -0.2679 -0.2382  0.4403
  130MPD2    C2 2022   0.057   3.385   1.347  0.1294  0.1598 -0.1753
  130MPD2    C3 2023   0.110   3.507   1.302 -0.8742  0.2702 -0.2955
  130MPD2    C4 2024   0.047   3.625   1.349  0.2096 -0.0596 -0.6003
  130MPD2    C5 2025   4.687   3.619   1.437 -0.9909  0.1746 -0.1899
  130MPD2     H 2026   0.099   3.294   1.306  1.0095  0.2876  0.4513
  130MPD2    H1 2027   0.083   3.725   1.329  0.8582 -0.0343  0.7208
  130MPD2    H2 2028   4.572   3.523   1.563 -0.5722 -1.6453 -0.8952
  130MPD2    H3 2029   4.641   3.705   1.484 -1.1433 -0.7726  1.4044
  130MPD2     N 2030   0.220   3.502   1.213  0.5454  0.2809 -0.0790
  130MPD2    H5 2031   0.265   3.412   1.201  0.3579  0.3516 -1.3146
  130MPD2    N1 2032   4.645   3.254   1.480 -0.3671 -0.5404  0.0192
  130MPD2    H7 2033   4.685   3.177   1.428 -0.2553  0.2870 -1.1436
  131TMC2    C1 2034   4.197   1.083  10.067 -0.2860  0.2614 -0.4832
  131TMC2    C2 2035   4.094   1.173  10.114 -0.3910  0.5087  0.1822
  131TMC2    C3 2036   4.146   1.288  10.152 -0.3023 -0.5188  0.7004
  131TMC2    C4 2037   4.323   1.114  10.023 -0.3157  0.2037 -0.5611
  131TMC2    C5 2038   4.358   1.242  10.053  0.3681 -0.0711 -0.1132
  131TMC2    C6 2039   4.272   1.331  10.122 -0.5164  0.0145  0.3089
  131TMC2     C 2040   4.168   0.943  10.078 -0.2846 -0.5857  0.5264
  131TMC2     O 2041   4.265   0.871  10.099  0.6487  0.3411  0.2123
  131TMC2     H 2042   4.002   1.140  10.160  0.6250 -1.3246  0.8658
  131TMC2    H1 2043   4.393   1.044   9.978 -1.3917 -1.1773 -0.0773
  131TMC2    H2 2044   4.295   1.437  10.126 -1.2739  0.1893 -0.0911
  131TMC2    C7 2045   4.491   1.289  10.016 -1.0145  0.3201 -1.0054
  131TMC2    C8 2046   4.062   1.378  10.223 -0.3862  0.3583  0.0228
  131TMC2    O1 2047   4.569   1.197   9.986 -0.0264  0.0677  0.2020
  131TMC2    O2 2048   3.941   1.372  10.208  0.4551 -0.6758 -0.4889
  131TMC2    O5 2049   4.129   1.470  10.294 -0.0657 -0.5082  0.0612
  131TMC2    H5 2050   4.219   1.439  10.317 -0.7850 -1.9539  1.0205
  132MPD2     C 2051   3.837   0.773  10.092  0.1761 -0.1301  0.8641
  132MPD2    C1 2052   3.976   0.782  10.113  0.7449 -0.4526 -0.2522
  132MPD2    C2 2053   4.043   0.677  10.180 -0.3621  0.1605  0.2498
  132MPD2    C3 2054   3.962   0.571  10.224 -0.3656  0.3865  0.8658
  132MPD2    C4 2055   3.829   0.565  10.194 -0.5177  0.0598  0.3077
  132MPD2    C5 2056   3.766   0.662  10.119  0.1254  0.1491  0.3493
  132MPD2     H 2057   4.150   0.670  10.196 -0.6770 -1.3328  1.7217
  132MPD2    H1 2058   3.764   0.495  10.246  2.6163 -2.2349  1.1525
  132MPD2    H2 2059   3.778   0.860  10.066  2.3053  0.9015 -0.4986
  132MPD2    H3 2060   3.659   0.672  10.105  0.1989  1.0003  0.3707
  132MPD2     N 2061   4.017   0.473  10.311  0.0396  0.5594  0.0686
  132MPD2    H5 2062   4.113   0.440  10.307  0.7004  2.2882  1.8767
  132MPD2    N1 2063   4.036   0.909  10.076 -0.0357 -0.4854 -0.1447
  132MPD2    H7 2064   3.976   0.980  10.036  1.4567 -0.3676 -2.2025
  133TMC2    C1 2065   3.634   2.396   9.546  0.5763  0.2952 -0.6789
  133TMC2    C2 2066   3.728   2.325   9.484 -0.2746 -0.2002 -0.3021
  133TMC2    C3 2067   3.845   2.391   9.473  0.0584  0.2033  0.7170
  133TMC2    C4 2068   3.646   2.524   9.596  0.3647  0.2038 -0.0527
  133TMC2    C5 2069   3.768   2.590   9.578  0.4999 -0.5197 -0.1189
  133TMC2    C6 2070   3.874   2.525   9.519 -0.5944  0.1982  0.0906
  133TMC2     C 2071   3.514   2.315   9.566 -0.0442 -0.0529  0.1379
  133TMC2     O 2072   3.520   2.193   9.549  0.2889  0.1409 -1.2789
  133TMC2     H 2073   3.709   2.222   9.459 -0.2577 -0.2583 -0.0750
  133TMC2    H1 2074   3.566   2.566   9.655 -0.0333 -1.2780  0.4593
  133TMC2    H2 2075   3.962   2.578   9.483  1.1761 -3.2918 -0.7434
  133TMC2    C7 2076   3.792   2.726   9.622  0.3446  0.0281 -0.3248
  133TMC2    C8 2077   3.929   2.341   9.368  1.1370 -0.1496 -1.0408
  133TMC2    O1 2078   3.904   2.776   9.621 -0.2070 -0.1809 -0.6345
  133TMC2    O2 2079   4.055   2.360   9.380  0.1986 -0.3840  0.6546
  133TMC2    O5 2080   3.860   2.266   9.279  0.0760  0.5332  0.3107
  133TMC2    H5 2081   3.766   2.296   9.271 -0.9347 -2.6998  0.0039
  134MPD2     C 2082   3.179   2.433   9.646  0.1963  0.6204 -1.1736
  134MPD2    C1 2083   3.284   2.339   9.635  0.1042 -0.0300 -0.3891
  134MPD2    C2 2084   3.254   2.201   9.651 -0.2742 -0.0438 -0.4786
  134MPD2    C3 2085   3.120   2.159   9.663  0.2841  0.2142 -0.0820
  134MPD2    C4 2086   3.015   2.256   9.667  0.0667  0.3770 -0.7598
  134MPD2    C5 2087   3.047   2.393   9.664 -0.0008 -0.3646 -0.6667
  134MPD2     H 2088   3.333   2.128   9.660  1.7098  1.9392 -2.0472
  134MPD2    H1 2089   2.913   2.221   9.680  0.6667 -0.6072  1.2120
  134MPD2    H2 2090   3.212   2.536   9.652  2.6427 -0.2809  0.9795
  134MPD2    H3 2091   2.979   2.478   9.665  1.5602  0.8413  1.7346
  134MPD2     N 2092   3.075   2.032   9.688  0.1944 -0.1318  0.5648
  134MPD2    H5 2093   2.978   2.020   9.715  0.1503  1.0064  0.8876
  134MPD2    N1 2094   3.404   2.391   9.593 -0.4955 -0.2600  0.0108
  134MPD2    H7 2095   3.412   2.489   9.567  1.0886 -0.2749  0.4088
  135TMC2    C1 2096   1.122   3.597   9.799 -0.1346  0.0660 -0.3814
  135TMC2    C2 2097   1.196   3.648   9.902 -0.5138 -0.6532 -0.2176
  135TMC2    C3 2098   1.170   3.607  10.026 -0.0092 -0.8465  0.6266
  135TMC2    C4 2099   1.038   3.490   9.819  0.1862 -0.5409 -0.3535
  135TMC2    C5 2100   1.012   3.461   9.954 -0.6472 -0.1661  0.0398
  135TMC2    C6 2101   1.082   3.511  10.058 -0.5740 -0.1635  0.2322
  135TMC2     C 2102   1.174   3.632   9.671 -0.3215  0.2480  0.3576
  135TMC2     O 2103   1.285   3.677   9.649 -0.3389  0.6093  0.2401
  135TMC2     H 2104   1.265   3.731   9.889  0.3638 -1.3269  0.0619
  135TMC2    H1 2105   0.997   3.435   9.735 -1.8294  0.9768 -0.3693
  135TMC2    H2 2106   1.052   3.491  10.161 -3.0966 -1.6121 -0.7800
  135TMC2    C7 2107   0.882   3.404   9.973  0.0756 -0.0251 -0.5963
  135TMC2    C8 2108   1.246   3.647  10.138 -0.0619  0.6645  0.5047
  135TMC2    O1 2109   0.790   3.415   9.892  0.1961 -0.4206 -0.1592
  135TMC2    O2 2110   1.207   3.628  10.248  0.4144  0.0716 -0.8643
  135TMC2    O5 2111   1.374   3.623  10.100 -0.6828 -0.1635  0.3624
  135TMC2    H5 2112   1.400   3.600  10.008 -0.2814  0.1392  0.3977
  136MPD2     C 2113   0.964   3.601   9.376 -0.4503 -0.6234  0.3300
  136MPD2    C1 2114   1.084   3.620   9.432 -0.3079  0.0448 -0.3510
  136MPD2    C2 2115   1.196   3.657   9.358  0.0745 -0.0946 -0.3234
  136MPD2    C3 2116   1.194   3.660   9.222  0.2126 -0.4295  0.6245
  136MPD2    C4 2117   1.074   3.634   9.162  0.4585  0.4825  0.1067
  136MPD2    C5 2118   0.961   3.602   9.239  0.3406  0.0576 -0.0061
  136MPD2     H 2119   1.290   3.673   9.410  1.0894 -4.9080 -0.7085
  136MPD2    H1 2120   1.071   3.617   9.055 -0.0014  0.7712  0.0768
  136MPD2    H2 2121   0.880   3.554   9.425 -0.6921 -0.4205  0.1133
  136MPD2    H3 2122   0.871   3.570   9.187  0.4752  1.6038 -1.1898
  136MPD2     N 2123   1.304   3.689   9.133  0.1915 -0.6351  0.1464
  136MPD2    H5 2124   1.277   3.695   9.035  2.2777  3.7540 -0.1805
  136MPD2    N1 2125   1.072   3.614   9.578 -0.7510 -0.0345 -0.5779
  136MPD2    H7 2126   0.979   3.602   9.617  0.8232 -1.0390  2.8992
  137TMC2    C1 2127   4.662   3.136   9.627 -0.1071 -0.6551  0.0276
  137TMC2    C2 2128   4.608   3.254   9.583  0.1371  0.1730  0.4547
  137TMC2    C3 2129   4.471   3.265   9.593  0.8047  0.3961 -0.6449
  137TMC2    C4 2130   4.585   3.030   9.668 -0.8199 -0.4066  0.1301
  137TMC2    C5 2131   4.448   3.046   9.666 -0.2975  0.8355 -0.0277
  137TMC2    C6 2132   4.390   3.160   9.617 -0.3120 -0.5945 -0.8620
  137TMC2     C 2133   0.067   3.108   9.632 -0.2264 -0.6060  0.7311
  137TMC2     O 2134   0.139   3.173   9.559  0.0149  0.7814 -0.3960
  137TMC2     H 2135   4.674   3.338   9.560 -1.5537  1.3678 -0.0214
  137TMC2    H1 2136   4.624   2.929   9.669  2.1746  0.7469 -1.6376
  137TMC2    H2 2137   4.285   3.172   9.595 -1.0563 -2.4338  1.7618
  137TMC2    C7 2138   4.360   2.935   9.650 -0.1767 -0.2224  0.3784
  137TMC2    C8 2139   4.426   3.373   9.516 -0.0366  0.4743 -0.4433
  137TMC2    O1 2140   4.259   2.941   9.579  0.0815  0.4390 -0.2318
  137TMC2    O2 2141   4.486   3.442   9.438 -0.4419  0.0916 -0.2612
  137TMC2    O5 2142   4.323   3.414   9.582 -0.3877  0.4115  0.7068
  137TMC2    H5 2143   4.300   3.346   9.649 -0.7481 -0.5390 -0.3839
  138MPD2     C 2144   0.208   2.943   9.943  0.0453  0.1372  0.0011
  138MPD2    C1 2145   0.215   3.016   9.820 -0.5147 -0.0910  0.0575
  138MPD2    C2 2146   0.342   3.056   9.770 -0.1534  0.9175 -0.2053
  138MPD2    C3 2147   0.452   3.028   9.846 -0.2887 -0.6843  0.1195
  138MPD2    C4 2148   0.438   2.961   9.968  0.7599 -0.0882 -0.3643
  138MPD2    C5 2149   0.318   2.924  10.021 -0.2446  0.0245 -0.0057
  138MPD2     H 2150   0.356   3.109   9.677 -1.3942  2.3283  0.4191
  138MPD2    H1 2151   0.521   2.943  10.035  0.6068  0.9480  0.1056
  138MPD2    H2 2152   0.112   2.913   9.985 -0.8117  1.8831 -0.6715
  138MPD2    H3 2153   0.308   2.875  10.117 -3.2926  1.1292  0.2625
  138MPD2     N 2154   0.585   3.066   9.813 -0.0751 -0.5376 -0.6591
  138MPD2    H5 2155   0.651   3.017   9.873  2.3245  1.0645 -2.0172
  138MPD2    N1 2156   0.088   3.033   9.751  0.3993 -0.2169  0.5581
  138MPD2    H7 2157   0.002   2.996   9.789  1.4485 -2.2402  0.9804
  139TMC2    C1 2158   2.061   0.644  13.525  0.6028  0.1051  0.0972
  139TMC2    C2 2159   2.148   0.737  13.587  0.5909  0.6804  0.9928
  139TMC2    C3 2160   2.101   0.865  13.616 -0.6941  0.6245 -0.1964
  139TMC2    C4 2161   1.925   0.670  13.506 -0.8243 -0.0898  0.3361
  139TMC2    C5 2162   1.884   0.798  13.538 -0.1973 -0.2762  0.5657
  139TMC2    C6 2163   1.970   0.896  13.595 -0.5030  0.5884  0.0654
  139TMC2     C 2164   2.090   0.500  13.517  0.1667  0.2539 -0.0756
  139TMC2     O 2165   1.997   0.428  13.534 -0.4303  0.6904 -0.2249
  139TMC2     H 2166   2.245   0.708  13.626  0.1705  0.1191  1.6155
  139TMC2    H1 2167   1.865   0.592  13.461 -1.0025  0.7936 -0.9539
  139TMC2    H2 2168   1.926   0.968  13.663  1.5967  1.8117  0.1487
  139TMC2    C7 2169   1.744   0.826  13.555 -0.3216  0.0690 -0.1235
  139TMC2    C8 2170   2.170   0.950  13.713  0.3862  0.1915 -0.0144
  139TMC2    O1 2171   1.706   0.940  13.531 -0.4773  0.3487  0.2010
  139TMC2    O2 2172   2.230   0.909  13.811 -0.3242  0.2687 -0.0047
  139TMC2    O5 2173   2.124   1.074  13.687  0.0062  0.6754  0.4799
  139TMC2    H5 2174   2.082   1.082  13.599 -1.3521 -4.1860  0.6836
  140MPD2     C 2175   2.424   0.336  13.522 -0.3134  0.2531  0.0133
  140MPD2    C1 2176   2.285   0.347  13.533 -0.7697  0.4392  0.3018
  140MPD2    C2 2177   2.214   0.231  13.549  0.8773  0.0593 -0.4701
  140MPD2    C3 2178   2.281   0.116  13.554 -0.2998  0.2615 -0.0285
  140MPD2    C4 2179   2.418   0.102  13.546  0.0954  0.0543 -0.0613
  140MPD2    C5 2180   2.488   0.219  13.537  0.4048 -0.1140 -0.2725
  140MPD2     H 2181   2.107   0.233  13.563  0.8483 -0.3452 -0.6321
  140MPD2    H1 2182   2.476   0.015  13.573 -0.3838 -0.1596  0.2763
  140MPD2    H2 2183   2.480   0.426  13.499 -1.1325 -0.1064 -3.3749
  140MPD2    H3 2184   2.596   0.224  13.543  0.3411  1.5913 -0.5990
  140MPD2     N 2185   2.201   0.003  13.573 -0.3103  0.3179  0.6706
  140MPD2    H5 2186   2.100   0.011  13.578 -0.2438  2.2213 -0.9183
  140MPD2    N1 2187   2.224   0.475  13.525  0.5375  0.3745  0.4259
  140MPD2    H7 2188   2.288   0.553  13.519  0.5332  0.1419 -2.7651
  141TMC2    C1 2189   2.027   1.769  14.952  0.3737  0.6871 -0.1310
  141TMC2    C2 2190   2.000   1.648  15.007 -0.3766 -0.0813  0.1511
  141TMC2    C3 2191   1.955   1.647  15.142 -1.3098  0.5954  0.4948
  141TMC2    C4 2192   1.992   1.889  15.020  0.0556  0.3722 -0.0231
  141TMC2    C5 2193   1.936   1.877  15.149  0.2013  1.0194  0.1104
  141TMC2    C6 2194   1.927   1.758  15.211 -0.5710 -0.4599 -0.3735
  141TMC2     C 2195   2.055   1.787  14.808  0.3732 -0.3013  0.1545
  141TMC2     O 2196   1.994   1.876  14.753 -0.0637  0.4690  0.9694
  141TMC2     H 2197   2.010   1.551  14.959  1.1549  0.7598 -1.2338
  141TMC2    H1 2198   2.016   1.985  14.975 -0.0102  0.4042  0.0111
  141TMC2    H2 2199   1.890   1.748  15.313  0.2318  0.5382  0.0148
  141TMC2    C7 2200   1.919   1.994  15.228  0.3315  0.0109 -0.0186
  141TMC2    C8 2201   1.909   1.527  15.195  0.2665  0.3834 -0.6747
  141TMC2    O1 2202   1.934   1.981  15.349  0.7607  0.4571 -0.2716
  141TMC2    O2 2203   1.863   1.434  15.122  0.0788  0.0037 -0.6358
  141TMC2    O5 2204   1.921   1.524  15.333  0.5558  0.7422  0.0153
  141TMC2    H5 2205   1.962   1.593  15.389 -1.4339  1.0587  1.0977
  142TMC2    C1 2206   0.563   4.430  10.524  0.3648 -0.7912  0.0962
  142TMC2    C2 2207   0.643   4.524  10.593  0.2132 -0.1072  0.1394
  142TMC2    C3 2208   0.740   4.575  10.510 -0.2821  0.7599  0.0577
  142TMC2    C4 2209   0.575   4.389  10.397 -0.6497  0.1332 -0.0674
  142TMC2    C5 2210   0.681   4.443  10.330  0.2922  0.1269  0.1597
  142TMC2    C6 2211   0.766   4.525  10.390  0.3163  0.1109 -0.5890
  142TMC2     C 2212   0.438   4.384  10.582 -0.1312 -0.4857 -0.2988
  142TMC2     O 2213   0.371   4.300  10.523 -0.1025  0.1337  0.0741
  142TMC2     H 2214   0.628   4.556  10.696 -1.7946 -0.9476  0.1032
  142TMC2    H1 2215   0.508   4.319  10.348 -1.4176 -1.1111  2.7856
  142TMC2    H2 2216   0.856   4.556  10.338  0.5982 -2.2749 -1.5620
  142TMC2    C7 2217   0.685   4.445  10.188  0.0403  0.3310  0.2928
  142TMC2    C8 2218   0.840   4.656  10.574 -0.0044  0.3144 -0.5526
  142TMC2    O1 2219   0.788   4.457  10.130  0.7154 -0.1263  0.3758
  142TMC2    O2 2220   0.914   4.598  10.650 -0.0412 -0.4622  0.6074
  142TMC2    O5 2221   0.880   0.002  10.472 -0.5713  0.5682 -0.4626
  142TMC2    H5 2222   0.808   0.019  10.408 -0.1773 -2.5814 -1.7455
  143MPD2     C 2223   0.031   4.465  10.882  0.2855 -0.4320  0.5197
  143MPD2    C1 2224   0.043   4.436  10.747  0.3040  1.3535  0.4223
  143MPD2    C2 2225   0.170   4.435  10.689  0.2801  0.1921  0.1140
  143MPD2    C3 2226   0.283   4.466  10.758  0.1589 -0.3472  0.8235
  143MPD2    C4 2227   0.273   4.498  10.887  0.4310  0.0758  0.8185
  143MPD2    C5 2228   0.149   4.497  10.950  0.4329 -0.4415  0.4621
  143MPD2     H 2229   0.185   4.425  10.582  2.6553  1.7420  0.3003
  143MPD2    H1 2230   0.362   4.526  10.942  0.8150 -1.6945  1.1028
  143MPD2    H2 2231   4.674   4.465  10.936  0.2558  1.4713  0.4723
  143MPD2    H3 2232   0.148   4.513  11.057 -1.7336  1.3753  0.1780
  143MPD2     N 2233   0.408   4.465  10.692 -0.2374 -0.3324 -0.1039
  143MPD2    H5 2234   0.497   4.475  10.740  0.1127 -2.2368 -0.3384
  143MPD2    N1 2235   4.663   4.405  10.670  0.0282 -0.9551 -0.5113
  143MPD2    H7 2236   4.575   4.418  10.720  1.4119 -0.7233  1.8878
  144TMC2    C1 2237   3.191   4.031   0.568  0.7471 -0.2086 -0.0193
  144TMC2    C2 2238   3.258   3.919   0.528 -0.1924 -0.5485  0.0077
  144TMC2    C3 2239   3.389   3.920   0.550  0.0111 -0.1737  0.4682
  144TMC2    C4 2240   3.249   4.146   0.615 -0.4608 -0.5550  0.3448
  144TMC2    C5 2241   3.389   4.142   0.622  0.6433 -0.4275  0.6113
  144TMC2    C6 2242   3.456   4.028   0.600  0.1204  0.0680  0.7217
  144TMC2     C 2243   3.046   4.037   0.539  0.2704  0.4047 -0.0664
  144TMC2     O 2244   2.993   3.935   0.505 -0.7273  0.1778 -0.3419
  144TMC2     H 2245   3.209   3.833   0.483 -2.3772  0.0117  1.3172
  144TMC2    H1 2246   3.191   4.235   0.638  2.5088  1.0289  1.7751
  144TMC2    H2 2247   3.564   4.027   0.607  0.2611 -1.0269 -1.7387
  144TMC2    C7 2248   3.462   4.240   0.702 -0.0512 -0.7817  0.6214
  144TMC2    C8 2249   3.458   3.801   0.500  0.1405 -0.2794 -0.4082
  144TMC2    O1 2250   3.580   4.216   0.731 -0.1397  0.2183  0.2222
  144TMC2    O2 2251   3.399   3.708   0.446  0.5581 -0.3829 -0.0407
  144TMC2    O5 2252   3.586   3.796   0.538  0.1292  0.1117  0.2763
  144TMC2    H5 2253   3.634   3.880   0.556  1.7974 -0.9411  0.6624
  145MPD2     C 2254   2.610   4.263   0.398 -0.2828  0.2465 -0.2965
  145MPD2    C1 2255   2.668   4.138   0.354  0.0109 -0.2127  0.3359
  145MPD2    C2 2256   2.792   4.097   0.405  0.5181 -0.1825  0.2553
  145MPD2    C3 2257   2.858   4.187   0.481 -0.0150 -0.2872  0.3696
  145MPD2    C4 2258   2.802   4.306   0.514  0.2446 -0.1863  0.7407
  145MPD2    C5 2259   2.670   4.339   0.488 -0.4477 -0.2411 -0.0576
  145MPD2     H 2260   2.838   4.004   0.376  0.9404  1.0386 -3.0467
  145MPD2    H1 2261   2.857   4.376   0.575 -2.6509  1.8485  1.0282
  145MPD2    H2 2262   2.511   4.291   0.364 -0.6379 -0.8402 -0.1286
  145MPD2    H3 2263   2.628   4.431   0.529  1.3189  0.2132  0.7488
  145MPD2     N 2264   2.989   4.165   0.524 -0.4720  0.4688 -0.5546
  145MPD2    H5 2265   3.035   4.249   0.558 -0.1543  0.2199 -0.3674
  145MPD2    N1 2266   2.615   4.052   0.252 -0.7303  1.2572 -0.5977
  145MPD2    H7 2267   2.674   3.975   0.220  0.0469  0.9967  1.4221
  146TMC2    C1 2268   3.401   3.177  12.871 -0.1099 -0.5973  0.1193
  146TMC2    C2 2269   3.361   3.286  12.797  0.4909 -0.0325 -0.6792
  146TMC2    C3 2270   3.367   3.272  12.663  0.0625  0.3920  0.1596
  146TMC2    C4 2271   3.453   3.066  12.806 -0.4037  1.0344 -0.3105
  146TMC2    C5 2272   3.465   3.057  12.668  0.2324 -0.0835 -0.5717
  146TMC2    C6 2273   3.408   3.159  12.594 -0.2839 -0.3584 -0.0729
  146TMC2     C 2274   3.426   3.208  13.009  0.4125 -0.2096  0.1579
  146TMC2     O 2275   3.371   3.302  13.057 -0.1290 -0.3793 -0.0308
  146TMC2     H 2276   3.348   3.387  12.835  0.2350 -0.2990 -0.0674
  146TMC2    H1 2277   3.487   2.978  12.858  1.8776  1.8289 -0.4329
  146TMC2    H2 2278   3.419   3.162  12.486  2.6489  0.7080  0.2330
  146TMC2    C7 2279   3.527   2.941  12.597  0.4004  0.4095  0.0404
  146TMC2    C8 2280   3.365   3.400  12.593  0.7851  0.5147  0.8172
  146TMC2    O1 2281   3.489   2.912  12.484  0.2342  0.3482  0.0258
  146TMC2    O2 2282   3.304   3.494  12.641  0.3071  0.1786  0.8898
  146TMC2    O5 2283   3.429   3.391  12.477  0.1513 -0.0527  0.3185
  146TMC2    H5 2284   3.490   3.315  12.467  2.7945  2.4771 -2.7055
  147MPD2     C 2285   3.906   2.594  12.548 -0.6319  0.1263 -0.6466
  147MPD2    C1 2286   3.906   2.637  12.680 -0.2945 -0.4151  0.2840
  147MPD2    C2 2287   3.812   2.728  12.719  0.3771 -0.2197  0.6918
  147MPD2    C3 2288   3.712   2.770  12.631 -0.2297 -0.7639 -0.5046
  147MPD2    C4 2289   3.715   2.718  12.503 -1.0236  0.3791  0.7684
  147MPD2    C5 2290   3.807   2.628  12.461  0.0739 -0.0972 -0.5479
  147MPD2     H 2291   3.806   2.772  12.818 -3.2463 -0.7173  0.7191
  147MPD2    H1 2292   3.651   2.766  12.430 -0.5503  0.1140  0.1859
  147MPD2    H2 2293   3.981   2.522  12.520  0.9201  0.2551  3.1391
  147MPD2    H3 2294   3.800   2.583  12.362 -4.2797  0.5367 -0.5275
  147MPD2     N 2295   3.629   2.887  12.666  0.6246 -0.0273 -0.5996
  147MPD2    H5 2296   3.656   2.923  12.757  0.7138  0.4471 -0.8182
  147MPD2    N1 2297   4.002   2.591  12.777 -0.3210 -0.1181 -0.2178
  147MPD2    H7 2298   3.989   2.617  12.875  1.7115 -1.2192  0.3447
  148TMC2    C1 2299   4.357   1.792  10.476 -0.0235 -0.0554 -0.5118
  148TMC2    C2 2300   4.473   1.872  10.458  0.3858 -0.3351 -0.1243
  148TMC2    C3 2301   4.593   1.803  10.442 -0.0971  0.1208 -0.3266
  148TMC2    C4 2302   4.373   1.658  10.497 -0.3306  0.5044 -0.2057
  148TMC2    C5 2303   4.485   1.599  10.455 -0.2614  0.0911 -0.5131
  148TMC2    C6 2304   4.598   1.668  10.429 -0.1307  0.0631  0.1225
  148TMC2     C 2305   4.230   1.851  10.518 -0.6806 -0.3949  0.1769
  148TMC2     O 2306   4.235   1.965  10.563 -0.5286  0.5747 -0.5835
  148TMC2     H 2307   4.470   1.980  10.458 -1.3447 -0.3848  0.4554
  148TMC2    H1 2308   4.286   1.598  10.522  0.0129 -1.6162 -4.0582
  148TMC2    H2 2309   4.678   1.608  10.386 -1.4112 -1.8857  0.4377
  148TMC2    C7 2310   4.476   1.455  10.431  0.6004 -0.0764  0.7345
  148TMC2    C8 2311   4.694   1.878  10.370  0.1917  0.3406 -0.4312
  148TMC2    O1 2312   4.364   1.411  10.396  0.3173 -0.7309  0.0405
  148TMC2    O2 2313   0.044   1.831  10.296 -0.4751  1.1955  0.1914
  148TMC2    O5 2314   4.695   2.012  10.399  0.4861 -0.3817 -0.2828
  148TMC2    H5 2315   4.679   2.006  10.496  0.6567  1.0487 -0.1616
  149MPD2     C 2316   3.939   1.908  10.522 -0.5511 -0.5267  0.1180
  149MPD2    C1 2317   3.988   1.785  10.503  0.3122 -0.8460  0.5915
  149MPD2    C2 2318   3.913   1.668  10.497 -0.8202  0.3189  0.5738
  149MPD2    C3 2319   3.782   1.678  10.517  0.5537  0.0164 -0.0009
  149MPD2    C4 2320   3.722   1.804  10.529 -0.2728  0.4281 -0.6751
  149MPD2    C5 2321   3.803   1.914  10.544 -0.2643 -0.4696  0.3706
  149MPD2     H 2322   3.958   1.571  10.480 -1.6073 -0.0762  0.7280
  149MPD2    H1 2323   3.614   1.806  10.540 -0.3666  0.4126 -1.5757
  149MPD2    H2 2324   3.997   1.993  10.556 -0.8881  0.1232 -0.9297
  149MPD2    H3 2325   3.750   2.005  10.572  2.3532  1.3146 -0.5118
  149MPD2     N 2326   3.688   1.567  10.518  0.8553 -0.2046  0.7224
  149MPD2    H5 2327   3.589   1.591  10.522  0.4780 -1.8790  1.1013
  149MPD2    N1 2328   4.127   1.761  10.490 -0.2196  0.7729 -1.4742
  149MPD2    H7 2329   4.149   1.664  10.468 -0.1274 -0.1164  2.6752
  150TMC2    C1 2330   1.489   0.870  12.894 -0.0925 -0.2132 -0.3315
  150TMC2    C2 2331   1.407   0.987  12.881  0.9868 -1.1153 -0.6700
  150TMC2    C3 2332   1.477   1.107  12.900 -0.0007  0.0382 -0.4059
  150TMC2    C4 2333   1.620   0.878  12.935 -0.4101  0.1905  0.9139
  150TMC2    C5 2334   1.674   1.005  12.956 -0.1030  0.3564  1.0395
  150TMC2    C6 2335   1.611   1.124  12.932 -0.4755 -0.3072  0.3542
  150TMC2     C 2336   1.447   0.743  12.850  0.3828  0.7102 -0.6342
  150TMC2     O 2337   1.513   0.643  12.886  0.2797  0.4561 -0.3478
  150TMC2     H 2338   1.303   0.984  12.852  1.2779 -0.0460 -1.8373
  150TMC2    H1 2339   1.682   0.789  12.938  0.9737  1.1582  1.1656
  150TMC2    H2 2340   1.658   1.221  12.937 -2.1044  0.4301  1.4481
  150TMC2    C7 2341   1.811   1.019  12.995  0.7913  0.2047 -0.4435
  150TMC2    C8 2342   1.407   1.221  12.847 -0.7214  0.0765  0.0182
  150TMC2    O1 2343   1.862   1.119  12.939  0.3595 -0.3913 -0.2193
  150TMC2    O2 2344   1.284   1.232  12.864 -0.7174 -0.3412 -0.0570
  150TMC2    O5 2345   1.473   1.259  12.735  0.9552  0.1154  0.2734
  150TMC2    H5 2346   1.561   1.217  12.736  1.8656  1.9650 -1.2659
  151MPD2     C 2347   1.048   0.441  12.731  0.0421 -0.0280  0.2421
  151MPD2    C1 2348   1.022   0.562  12.674  0.1226  0.4211  0.2929
  151MPD2    C2 2349   1.114   0.660  12.691 -0.0630  0.6041  0.0952
  151MPD2    C3 2350   1.234   0.638  12.763  0.5036 -0.2690  0.7415
  151MPD2    C4 2351   1.253   0.514  12.831  0.1825 -0.4838  0.0355
  151MPD2    C5 2352   1.163   0.415  12.812 -0.3995 -0.1551 -0.4931
  151MPD2     H 2353   1.103   0.763  12.658 -2.6885 -0.0332 -1.0171
  151MPD2    H1 2354   1.346   0.503  12.886 -0.5298 -0.3671  1.2628
  151MPD2    H2 2355   0.985   0.354  12.719 -2.2288  1.4928  1.1793
  151MPD2    H3 2356   1.177   0.319  12.861  0.5647 -1.1531 -2.6810
  151MPD2     N 2357   1.326   0.752  12.783 -0.4038  0.0432  0.4439
  151MPD2    H5 2358   1.302   0.845  12.748  0.9286  0.3198  0.2949
  151MPD2    N1 2359   0.902   0.575  12.597  0.0607  1.3152 -0.5052
  151MPD2    H7 2360   0.847   0.491  12.580  2.5148  0.0284 -2.0630
  152TMC2    C1 2361   1.289   0.798  13.146 -0.4261 -0.8597 -0.4431
  152TMC2    C2 2362   1.374   0.694  13.164  0.1490  0.3471 -0.2240
  152TMC2    C3 2363   1.492   0.720  13.234 -0.3273 -0.3951 -0.3249
  152TMC2    C4 2364   1.316   0.923  13.183  0.6655 -0.5704  0.5152
  152TMC2    C5 2365   1.434   0.948  13.238  0.0333  1.0048 -0.5999
  152TMC2    C6 2366   1.532   0.849  13.256 -0.3681 -0.4237  0.2982
  152TMC2     C 2367   1.150   0.777  13.105  0.9048  0.5464 -0.8419
  152TMC2     O 2368   1.073   0.871  13.099  0.1274 -0.1739 -0.0815
  152TMC2     H 2369   1.355   0.595  13.124  1.9157  0.4926 -1.4049
  152TMC2    H1 2370   1.240   0.999  13.167  0.5183 -1.0169 -0.9417
  152TMC2    H2 2371   1.624   0.860  13.312 -1.5654 -0.9755  2.3633
  152TMC2    C7 2372   1.472   1.090  13.233 -0.2234 -0.0978  0.1350
  152TMC2    C8 2373   1.590   0.622  13.203  0.4954  0.4345 -0.1954
  152TMC2    O1 2374   1.388   1.173  13.211 -0.1617 -0.5747 -0.3223
  152TMC2    O2 2375   1.704   0.653  13.173 -0.0050  0.3412  0.1194
  152TMC2    O5 2376   1.546   0.504  13.263  0.0603  0.4735  0.0294
  152TMC2    H5 2377   1.451   0.515  13.284 -0.2649 -0.6276 -0.8151
  153MPD2     C 2378   0.955   0.467  13.155 -0.3035  0.4632  0.0596
  153MPD2    C1 2379   0.982   0.592  13.098 -0.1352 -0.6933  0.5399
  153MPD2    C2 2380   0.881   0.658  13.027 -0.1180  0.2542 -0.1449
  153MPD2    C3 2381   0.756   0.601  13.013 -0.1114  0.3740  0.4218
  153MPD2    C4 2382   0.738   0.469  13.059  0.3301 -0.5236 -0.0810
  153MPD2    C5 2383   0.830   0.412  13.138 -0.6725 -0.1266 -0.6912
  153MPD2     H 2384   0.907   0.750  12.976  3.0964 -0.8102 -0.3860
  153MPD2    H1 2385   0.644   0.416  13.051  1.2413 -2.2905  0.7318
  153MPD2    H2 2386   1.036   0.420  13.209  0.6551  0.4900 -1.3393
  153MPD2    H3 2387   0.815   0.311  13.175  0.6102 -0.4670 -1.0924
  153MPD2     N 2388   0.651   0.670  12.945  0.4031 -0.2845 -0.4090
  153MPD2    H5 2389   0.675   0.763  12.914 -1.5225  0.6565  0.9692
  153MPD2    N1 2390   1.110   0.641  13.129 -0.6483  0.7073  0.3632
  153MPD2    H7 2391   1.181   0.578  13.166  0.4321  0.7058 -1.7113
  154TMC2    C1 2392   3.697   0.378   0.072 -0.4908 -0.4474  0.0176
  154TMC2    C2 2393   3.695   0.245   0.070  0.0141  0.2050  0.1136
  154TMC2    C3 2394   3.790   0.175   0.146 -0.2626  0.0199  0.0501
  154TMC2    C4 2395   3.791   0.443   0.147  0.2717 -0.1139 -0.0720
  154TMC2    C5 2396   3.877   0.370   0.225  0.5982  0.3006 -0.4342
  154TMC2    C6 2397   3.878   0.235   0.232 -0.9198 -0.0543  0.1332
  154TMC2     C 2398   3.591   0.457   0.020 -0.4328 -0.6746 -0.5891
  154TMC2     O 2399   3.610   0.575   0.006  0.5543  0.4783  0.4941
  154TMC2     H 2400   3.633   0.186   0.004 -3.3510  2.2441  1.4945
  154TMC2    H1 2401   3.808   0.550   0.140  0.7554 -0.2989 -1.6144
  154TMC2    H2 2402   3.956   0.181   0.283 -0.4673  0.1887 -0.3086
  154TMC2    C7 2403   3.974   0.435   0.308  0.1220  0.1018  0.1793
  154TMC2    C8 2404   3.823   0.034   0.118  0.3072 -0.8018 -0.1702
  154TMC2    O1 2405   4.068   0.366   0.334  0.1909 -0.6270 -0.0035
  154TMC2    O2 2406   3.933   4.727   0.144 -0.0847  0.6228 -0.4871
  154TMC2    O5 2407   3.710   4.708   0.110 -0.2498  0.3511  0.0695
  154TMC2    H5 2408   3.625   0.010   0.139 -0.2611 -0.0833  0.6372
  155MPD2     C 2409   3.236   0.366  17.683  0.3036  0.0562 -0.3220
  155MPD2    C1 2410   3.346   0.449  17.718 -0.8968 -0.8173 -0.7147
  155MPD2    C2 2411   3.319   0.588  17.726  0.1599 -0.7530 -0.1280
  155MPD2    C3 2412   3.187   0.634  17.713 -0.2705 -0.8388 -0.3953
  155MPD2    C4 2413   3.081   0.551  17.685 -0.4100 -0.1310  0.1319
  155MPD2    C5 2414   3.110   0.422  17.675 -0.4221 -0.1015 -0.1428
  155MPD2     H 2415   3.396   0.663  17.744 -1.8124  1.3405 -0.4875
  155MPD2    H1 2416   2.977   0.582  17.680 -0.7734 -1.6333 -1.4426
  155MPD2    H2 2417   3.244   0.259  17.667  2.7142  0.2404 -0.2907
  155MPD2    H3 2418   3.024   0.360  17.652 -1.7844  2.2271 -1.3139
  155MPD2     N 2419   3.161   0.773  17.735  0.0077  0.3090  0.4150
  155MPD2    H5 2420   3.239   0.830   0.021  0.9489 -0.3364 -0.7563
  155MPD2    N1 2421   3.474   0.387  17.742  0.0800  0.7188 -0.3492
  155MPD2    H7 2422   3.470   0.286   0.001  2.2181  0.6869  0.9185
  156TMC2    C1 2423   1.144   2.445  11.660  0.5593  1.1154  0.4416
  156TMC2    C2 2424   1.039   2.356  11.633 -0.3921 -0.0931 -0.0461
  156TMC2    C3 2425   1.005   2.345  11.502 -0.1505  0.0357 -0.4708
  156TMC2    C4 2426   1.201   2.528  11.565 -0.0590 -0.4419  0.0957
  156TMC2    C5 2427   1.157   2.509  11.438  0.1552 -0.1704 -0.2629
  156TMC2    C6 2428   1.067   2.409  11.397 -0.2360  0.6781 -0.6466
  156TMC2     C 2429   1.111   2.531  11.770  0.3399 -1.0320  0.3548
  156TMC2     O 2430   1.115   2.650  11.746  0.3332 -0.2917 -0.4170
  156TMC2     H 2431   1.001   2.292  11.711 -0.3428  1.8774  1.5934
  156TMC2    H1 2432   1.273   2.606  11.589  1.3747 -0.2219 -4.9375
  156TMC2    H2 2433   1.027   2.407  11.296 -0.2228  1.1582 -0.6618
  156TMC2    C7 2434   1.176   2.632  11.359  0.3566  0.8483 -0.3532
  156TMC2    C8 2435   0.909   2.250  11.463 -0.5660  0.5220 -0.1084
  156TMC2    O1 2436   1.262   2.712  11.403 -0.1975 -0.5067 -0.4835
  156TMC2    O2 2437   0.894   2.222  11.344 -0.1746  0.1311  0.2601
  156TMC2    O5 2438   0.810   2.252  11.561  0.2723  0.6435  0.2338
  156TMC2    H5 2439   0.838   2.265  11.654 -0.6622 -0.3910  0.6477
  157MPD2     C 2440   1.096   2.428  12.123 -0.1011 -0.5832 -0.0150
  157MPD2    C1 2441   1.065   2.510  12.014  0.9765 -0.8139 -0.2077
  157MPD2    C2 2442   0.990   2.625  12.027 -0.2938  0.1983  0.4523
  157MPD2    C3 2443   0.949   2.661  12.147  0.3852 -0.6751 -0.1392
  157MPD2    C4 2444   0.980   2.585  12.256  0.0355 -0.1221 -0.8097
  157MPD2    C5 2445   1.049   2.469  12.240 -0.3558  0.2240 -0.5599
  157MPD2     H 2446   0.965   2.679  11.937 -0.1684  1.7992  1.3819
  157MPD2    H1 2447   0.970   2.625  12.356 -0.5373 -3.6085  0.5467
  157MPD2    H2 2448   1.156   2.339  12.113  0.3146 -0.0462 -2.5413
  157MPD2    H3 2449   1.077   2.401  12.320  0.8119  0.1753 -1.0095
  157MPD2     N 2450   0.885   2.791  12.151 -0.4341  0.1912  0.1370
  157MPD2    H5 2451   0.883   2.825  12.055 -0.3212 -1.6074 -0.5229
  157MPD2    N1 2452   1.111   2.465  11.890 -0.3222  0.3773  1.2265
  157MPD2    H7 2453   1.162   2.377  11.886  1.2547  1.4467 -1.9139
  158TMC2    C1 2454   1.779   1.926  13.541  0.3528  0.2049 -0.5699
  158TMC2    C2 2455   1.814   2.058  13.512 -0.4421 -0.2005 -0.4711
  158TMC2    C3 2456   1.711   2.149  13.511 -0.4693 -1.1786  0.3143
  158TMC2    C4 2457   1.648   1.892  13.572  0.7013  0.3624  0.0033
  158TMC2    C5 2458   1.558   1.994  13.585  0.4065 -0.3065  0.0160
  158TMC2    C6 2459   1.580   2.121  13.545 -0.1365  0.3769 -0.0423
  158TMC2     C 2460   1.888   1.833  13.552  0.5614 -0.1173  0.5822
  158TMC2     O 2461   2.002   1.882  13.564 -0.0743  0.0393  0.1106
  158TMC2     H 2462   1.916   2.083  13.485 -0.3488 -0.7124 -0.5932
  158TMC2    H1 2463   1.614   1.796  13.609 -1.1189  1.2031  0.5684
  158TMC2    H2 2464   1.511   2.205  13.552  0.3100  0.7084  0.4696
  158TMC2    C7 2465   1.430   1.971  13.652  0.0744  0.0498  0.0942
  158TMC2    C8 2466   1.762   2.279  13.476 -0.0668  0.1557  0.0001
  158TMC2    O1 2467   1.382   2.068  13.716 -0.1594 -0.2050 -0.2085
  158TMC2    O2 2468   1.872   2.321  13.510 -0.4524  0.2774  0.4999
  158TMC2    O5 2469   1.663   2.343  13.410  0.2123  0.2527  0.4286
  158TMC2    H5 2470   1.598   2.282  13.370 -0.0958  0.7985  0.0925
  159MPD2     C 2471   2.047   1.394  13.735 -0.1255  0.1236 -0.3128
  159MPD2    C1 2472   1.912   1.384  13.712 -0.1775  0.2035 -0.2893
  159MPD2    C2 2473   1.853   1.483  13.635 -0.2824  0.0411 -0.8688
  159MPD2    C3 2474   1.923   1.597  13.609 -0.2763  0.4172  1.0648
  159MPD2    C4 2475   2.052   1.611  13.634  0.5704 -0.2559 -0.7580
  159MPD2    C5 2476   2.116   1.503  13.702 -0.2573 -0.4024 -0.3300
  159MPD2     H 2477   1.747   1.472  13.616 -0.4461 -1.6193  0.9768
  159MPD2    H1 2478   2.115   1.699  13.628 -0.4287  0.4904 -0.3083
  159MPD2    H2 2479   2.095   1.318  13.795 -0.9170  1.0215  1.4710
  159MPD2    H3 2480   2.223   1.511  13.720 -0.7918  0.9258  2.1935
  159MPD2     N 2481   1.843   1.705  13.570 -0.1614  0.6247  0.4987
  159MPD2    H5 2482   1.742   1.695  13.567 -0.1932  0.9332  0.5585
  159MPD2    N1 2483   1.850   1.272  13.777  0.1276 -0.1018 -0.4637
  159MPD2    H7 2484   1.893   1.201  13.835  2.1515 -0.1330 -2.0309
  160TMC2    C1 2485   1.540   0.429   1.479 -0.0992  0.1082  0.0858
  160TMC2    C2 2486   1.438   0.342   1.445 -0.1397 -0.0156 -0.4730
  160TMC2    C3 2487   1.466   0.207   1.417  0.9489 -0.3902  0.0358
  160TMC2    C4 2488   1.670   0.389   1.473 -0.4457 -0.5251  0.8845
  160TMC2    C5 2489   1.694   0.265   1.437 -0.0310 -0.6741 -0.1226
  160TMC2    C6 2490   1.602   0.165   1.413  0.5887 -0.3145 -0.1800
  160TMC2     C 2491   1.524   0.575   1.465  0.1206  0.3915 -0.3288
  160TMC2     O 2492   1.602   0.646   1.520 -0.3260  0.1059 -0.6174
  160TMC2     H 2493   1.333   0.364   1.464  0.1018  0.6938  0.0383
  160TMC2    H1 2494   1.751   0.460   1.485 -0.0394 -0.9883  0.8932
  160TMC2    H2 2495   1.632   0.066   1.384 -0.4151 -0.4891 -0.6437
  160TMC2    C7 2496   1.833   0.242   1.421  0.8199  0.0907 -0.5831
  160TMC2    C8 2497   1.368   0.110   1.366  0.0084  0.2114  0.3355
  160TMC2    O1 2498   1.905   0.295   1.500 -0.3378 -0.2397 -0.2108
  160TMC2    O2 2499   1.403   0.022   1.291 -0.0613 -0.5122  0.0823
  160TMC2    O5 2500   1.257   0.124   1.440  0.2736  0.6151 -0.1017
  160TMC2    H5 2501   1.261   0.182   1.519 -0.5411  0.2886  0.1759
  161MPD2     C 2502   1.506   0.850   1.335  0.3593  0.1734  0.2641
  161MPD2    C1 2503   1.431   0.742   1.295  0.4742  1.3174  0.3383
  161MPD2    C2 2504   1.344   0.756   1.192 -0.2252  0.5826  0.0916
  161MPD2    C3 2505   1.330   0.882   1.133  0.0473  0.3469 -0.4429
  161MPD2    C4 2506   1.388   0.990   1.191 -0.4874 -0.2927  0.5675
  161MPD2    C5 2507   1.484   0.977   1.280 -0.0508 -0.2009 -0.6954
  161MPD2     H 2508   1.289   0.668   1.162  0.6493  0.5162 -1.3567
  161MPD2    H1 2509   1.372   1.093   1.161 -0.5072 -0.1392  1.0986
  161MPD2    H2 2510   1.589   0.840   1.404 -1.0704  1.7088  2.2423
  161MPD2    H3 2511   1.541   1.065   1.304 -2.6647  1.1344  0.6539
  161MPD2     N 2512   1.238   0.907   1.025 -0.1259  0.1513  0.4342
  161MPD2    H5 2513   1.240   1.000   0.984 -0.6685 -0.3709 -0.8079
  161MPD2    N1 2514   1.442   0.610   1.362 -0.0214  0.1966 -0.5114
  161MPD2    H7 2515   1.372   0.547   1.324 -0.4595  0.0088  0.6154
  162TMC2    C1 2516   3.656   1.891   0.920 -0.3727 -0.5393  0.2351
  162TMC2    C2 2517   3.544   1.870   0.997 -0.1314 -0.1377  0.1454
  162TMC2    C3 2518   3.536   1.939   1.114  0.2033 -0.0284  0.6240
  162TMC2    C4 2519   3.758   1.971   0.958  0.3114  0.5822 -0.0169
  162TMC2    C5 2520   3.748   2.029   1.084  0.9473 -0.8938 -0.9595
  162TMC2    C6 2521   3.644   2.008   1.161 -0.2403 -0.0574 -0.7987
  162TMC2     C 2522   3.665   1.852   0.780  1.2410 -0.0283 -0.0764
  162TMC2     O 2523   3.779   1.827   0.731 -0.3209  0.3829 -0.5690
  162TMC2     H 2524   3.462   1.804   0.971  0.2522 -0.3554 -0.5298
  162TMC2    H1 2525   3.837   1.994   0.888  0.2934 -0.2084 -0.3058
  162TMC2    H2 2526   3.639   2.058   1.257  1.9384 -0.5929 -0.3985
  162TMC2    C7 2527   3.835   2.144   1.134  0.1762  0.6530 -0.1392
  162TMC2    C8 2528   3.420   1.911   1.191  0.9326  0.1019  0.1970
  162TMC2    O1 2529   3.777   2.224   1.209 -0.2543  0.0224  0.2163
  162TMC2    O2 2530   3.372   1.802   1.194  0.3259  0.2618  0.5787
  162TMC2    O5 2531   3.381   2.011   1.270  0.2520 -0.5220  0.2483
  162TMC2    H5 2532   3.425   2.098   1.256 -0.4293 -0.7154 -3.1172
  163MPD2     C 2533   3.452   1.739   0.323  0.7829 -0.0623 -0.0872
  163MPD2    C1 2534   3.580   1.733   0.366 -0.9295  0.7149  0.2582
  163MPD2    C2 2535   3.616   1.766   0.505  0.1850 -0.5147 -0.2342
  163MPD2    C3 2536   3.514   1.803   0.595 -0.1742  0.0675  0.8768
  163MPD2    C4 2537   3.383   1.803   0.540 -0.6937 -0.0113  0.2220
  163MPD2    C5 2538   3.353   1.774   0.406  0.2382  0.3295  0.4835
  163MPD2     H 2539   3.718   1.763   0.541 -0.2510  1.0763  1.1443
  163MPD2    H1 2540   3.299   1.826   0.605 -1.2747 -2.0391  0.2026
  163MPD2    H2 2541   3.424   1.712   0.222  2.6830  0.7536 -0.8423
  163MPD2    H3 2542   3.251   1.780   0.371 -0.7507 -1.1288  3.0737
  163MPD2     N 2543   3.541   1.839   0.728  0.1031  0.5035 -0.6132
  163MPD2    H5 2544   3.472   1.887   0.784  0.8878 -0.6252  1.3048
  163MPD2    N1 2545   3.675   1.693   0.266 -0.1383 -0.2132  0.4437
  163MPD2    H7 2546   3.629   1.671   0.178  1.3251  3.5513 -1.2508
  164TMC2    C1 2547   4.605   0.909  10.864  0.4115 -0.2532 -0.7773
  164TMC2    C2 2548   0.006   0.908  10.848  0.0314 -0.1985  0.2856
  164TMC2    C3 2549   0.068   1.030  10.838  0.1371  0.0331  0.4013
  164TMC2    C4 2550   4.528   1.033  10.864 -0.6273 -0.0210  0.6649
  164TMC2    C5 2551   4.601   1.152  10.849 -0.3037  0.0683 -0.2410
  164TMC2    C6 2552   4.735   1.154  10.835  0.0064  0.7390  0.2092
  164TMC2     C 2553   4.531   0.784  10.835 -0.6314 -0.5581  0.3249
  164TMC2     O 2554   4.411   0.779  10.854 -0.1346  0.1514 -0.7123
  164TMC2     H 2555   0.067   0.821  10.869 -0.1610  0.1207  2.1179
  164TMC2    H1 2556   4.421   1.019  10.870 -0.7427  0.6660  0.2109
  164TMC2    H2 2557   0.053   1.241  10.800  2.0138 -0.8794 -0.6834
  164TMC2    C7 2558   4.516   1.268  10.814  0.1086 -0.1630 -0.0757
  164TMC2    C8 2559   0.205   1.030  10.799  0.1881  0.0786 -0.0554
  164TMC2    O1 2560   4.396   1.243  10.800  0.6656  0.1284  0.2441
  164TMC2    O2 2561   0.256   0.968  10.706 -0.4204 -0.7000 -0.5030
  164TMC2    O5 2562   0.258   1.141  10.857  0.7804  0.4326 -0.7114
  164TMC2    H5 2563   0.215   1.154  10.944 -0.8894  0.0914 -1.4926
  165TMC2    C1 2564   1.252   4.398   1.121 -0.1756  0.7109 -0.3483
  165TMC2    C2 2565   1.242   4.268   1.056  0.2105  0.4467  0.4129
  165TMC2    C3 2566   1.349   4.184   1.071  0.2800  0.3577  0.9377
  165TMC2    C4 2567   1.370   4.433   1.182  1.0265 -1.2107  0.1197
  165TMC2    C5 2568   1.476   4.339   1.184  0.7822 -0.0102 -0.5825
  165TMC2    C6 2569   1.468   4.219   1.126 -0.4790 -0.0095 -0.1368
  165TMC2     C 2570   1.142   4.492   1.094 -0.5361  0.1521 -0.5132
  165TMC2     O 2571   1.055   4.447   1.019  0.3597  0.6052 -0.2073
  165TMC2     H 2572   1.152   4.238   1.003  0.4002 -1.4671  1.1967
  165TMC2    H1 2573   1.387   4.530   1.228 -1.8113 -0.9052  0.4811
  165TMC2    H2 2574   1.548   4.149   1.150 -2.0462 -2.0633 -0.8664
  165TMC2    C7 2575   1.609   4.384   1.213  0.3015 -0.6719 -0.3177
  165TMC2    C8 2576   1.337   4.064   0.985  0.2310 -0.1132  0.1241
  165TMC2    O1 2577   1.699   4.339   1.145 -0.1295  0.1385 -0.2058
  165TMC2    O2 2578   1.232   4.011   0.957  0.4314  0.3927 -0.2860
  165TMC2    O5 2579   1.453   4.005   0.959 -0.5010 -0.3067  0.2559
  165TMC2    H5 2580   1.536   4.056   0.949 -0.3405 -1.0577 -2.2043
  166MPD2     C 2581   0.945   0.219   0.998 -0.7157  0.4138 -0.4216
  166MPD2    C1 2582   0.895   0.095   0.980 -1.0226 -0.2556  0.2383
  166MPD2    C2 2583   0.965   4.727   1.020  0.5444 -0.1701 -0.1018
  166MPD2    C3 2584   1.093   0.001   1.072  0.0963  0.1889 -0.1109
  166MPD2    C4 2585   1.134   0.130   1.103  0.7833 -0.0690 -0.4232
  166MPD2    C5 2586   1.063   0.235   1.065 -0.0685 -0.4188 -0.0972
  166MPD2     H 2587   0.916   4.630   1.017  0.5163 -0.2427  2.6182
  166MPD2    H1 2588   1.228   0.152   1.151  0.3601  1.8315 -0.4852
  166MPD2    H2 2589   0.883   0.302   0.966 -2.2076  0.2373  1.9722
  166MPD2    H3 2590   1.097   0.337   1.082  0.1643 -0.9092  2.3875
  166MPD2     N 2591   1.171   4.623   1.116  0.2114 -0.0087  0.9387
  166MPD2    H5 2592   1.256   4.648   1.166  0.1979 -1.6083  1.7818
  166MPD2    N1 2593   0.764   0.079   0.917 -0.6178 -0.4237  0.9084
  166MPD2    H7 2594   0.704   0.159   0.930 -1.0009 -0.2117 -2.0557
  167TMC2    C1 2595   3.602   1.663  13.147  0.3181  0.1339  0.8442
  167TMC2    C2 2596   3.488   1.646  13.218  0.0768  0.2720 -0.1849
  167TMC2    C3 2597   3.474   1.543  13.301 -0.2364  0.5765 -0.1884
  167TMC2    C4 2598   3.695   1.565  13.138 -0.4935 -0.1758 -0.0085
  167TMC2    C5 2599   3.680   1.468  13.234  0.3879  0.3336 -0.0004
  167TMC2    C6 2600   3.569   1.446  13.311 -0.8799 -1.0499  0.0885
  167TMC2     C 2601   3.576   1.749  13.027  0.4696 -1.2786 -0.6234
  167TMC2     O 2602   3.483   1.826  13.029 -0.2889  0.0644 -0.1786
  167TMC2     H 2603   3.414   1.726  13.223  3.1578  2.9186  2.8937
  167TMC2    H1 2604   3.798   1.585  13.112 -0.0572 -1.4996  0.7025
  167TMC2    H2 2605   3.548   1.359  13.372 -2.5705  0.1929  1.3059
  167TMC2    C7 2606   3.792   1.380  13.251  0.3199  0.1005  0.9447
  167TMC2    C8 2607   3.348   1.533  13.374 -0.5720  0.1839  0.6986
  167TMC2    O1 2608   3.793   1.325  13.362  0.2187  0.6549 -0.6640
  167TMC2    O2 2609   3.263   1.621  13.374 -0.0454  0.7201 -0.1106
  167TMC2    O5 2610   3.307   1.412  13.418  0.1708  0.1530 -0.4346
  167TMC2    H5 2611   3.367   1.340  13.447 -1.5171 -1.9365 -2.0200
  168MPD2     C 2612   3.573   1.860  12.739  0.3183 -0.0979  0.5209
  168MPD2    C1 2613   3.663   1.767  12.791  0.3993 -0.4845 -0.2694
  168MPD2    C2 2614   3.747   1.701  12.710 -0.2624 -0.2669 -0.7111
  168MPD2    C3 2615   3.768   1.743  12.581 -0.3025  0.0776  0.5509
  168MPD2    C4 2616   3.687   1.845  12.529  0.1995 -0.3312  0.4066
  168MPD2    C5 2617   3.588   1.893  12.611  0.1450 -0.2516 -0.0833
  168MPD2     H 2618   3.795   1.617  12.759 -0.0005  0.4815  0.3493
  168MPD2    H1 2619   3.696   1.882  12.428 -0.2480  0.5843  0.7008
  168MPD2    H2 2620   3.491   1.909  12.790 -0.0429  1.3483 -1.4324
  168MPD2    H3 2621   3.522   1.966  12.566  0.5149  0.1805  0.0702
  168MPD2     N 2622   3.865   1.697  12.490 -0.5076  0.0521 -0.0054
  168MPD2    H5 2623   3.861   1.737  12.396 -0.6429  1.0489  0.4266
  168MPD2    N1 2624   3.663   1.721  12.927  0.2370  0.1622  0.0530
  168MPD2    H7 2625   3.728   1.645  12.945  0.3465 -0.0129 -1.0632
  169MPD1     C 2626   2.671   0.147   9.154  0.3946  0.6658 -0.2066
  169MPD1    C1 2627   2.565   0.232   9.168 -0.8066 -0.6827  0.6940
  169MPD1    C2 2628   2.474   0.212   9.267 -0.2789 -0.0501 -0.8305
  169MPD1    C3 2629   2.477   0.089   9.343  0.6547  0.0581 -0.2691
  169MPD1    C4 2630   2.577   0.001   9.320 -0.0854 -0.1849  0.1274
  169MPD1    C5 2631   2.670   0.029   9.225 -0.3736  0.0085  0.8209
  169MPD1     H 2632   2.389   0.276   9.285  1.3489  0.6827  4.2294
  169MPD1    H1 2633   2.584   4.651   9.386  0.6614 -0.3314 -0.1476
  169MPD1    H2 2634   2.751   0.169   9.084  0.5488 -1.4958 -0.7245
  169MPD1    H3 2635   2.756   4.700   9.215  0.0370  0.3799  1.9166
  169MPD1     N 2636   2.379   0.084   9.441  0.0144 -0.1249 -0.0057
  169MPD1    H5 2637   2.319   0.165   9.445 -1.2165 -1.0188 -0.3475
  169MPD1    N1 2638   2.574   0.360   9.113 -0.6643  0.1725  0.1003
  169MPD1    H6 2639   2.483   0.400   9.091 -0.0024  3.2461  3.0237
  169MPD1    H7 2640   2.619   0.346   9.023  0.0841 -1.6147  0.7527
  170MPD1     C 2641   4.526   3.345  12.586 -0.8471 -0.0934 -0.1561
  170MPD1    C1 2642   4.558   3.252  12.686  0.0695  0.0016  0.3581
  170MPD1    C2 2643   4.580   3.302  12.815  0.1243  0.6140 -0.3896
  170MPD1    C3 2644   4.568   3.445  12.838 -0.2245 -0.7126 -0.3039
  170MPD1    C4 2645   4.538   3.532  12.739 -1.1492 -0.2926  0.5782
  170MPD1    C5 2646   4.515   3.479  12.614  0.0056  0.0572  0.5517
  170MPD1     H 2647   4.607   3.235  12.896  0.4523 -0.4376 -1.3773
  170MPD1    H1 2648   4.530   3.639  12.752 -2.3862 -0.3788  0.4858
  170MPD1    H2 2649   4.504   3.315  12.485  0.8825  0.7305 -0.7711
  170MPD1    H3 2650   4.501   3.543  12.527 -0.0669 -0.9614 -0.1898
  170MPD1     N 2651   4.597   3.494  12.972 -0.8154 -0.8921 -0.0393
  170MPD1    H5 2652   4.624   3.426  13.043 -3.6634 -1.2094  0.7275
  170MPD1    N1 2653   4.581   3.119  12.663  0.4391  0.6933 -0.1335
  170MPD1    H6 2654   4.530   3.078  12.585 -1.3564 -0.2256  1.5285
  170MPD1    H7 2655   4.557   3.072  12.750  1.8278  1.9937  0.9510
  171MPD1     C 2656   3.540   4.641  15.498 -0.0121 -0.2443 -0.2040
  171MPD1    C1 2657   3.510   4.544  15.415 -0.3315  0.5618 -0.0816
  171MPD1    C2 2658   3.579   4.422  15.440  0.8610  0.2277 -0.1430
  171MPD1    C3 2659   3.666   4.407  15.549  0.0195  0.9078  0.0083
  171MPD1    C4 2660   3.698   4.519  15.622 -0.1752  0.2614  0.0981
  171MPD1    C5 2661   3.632   4.637  15.598 -0.5163  0.1827  0.3817
  171MPD1     H 2662   3.553   4.341  15.373 -0.3628  0.3172  0.2307
  171MPD1    H1 2663   3.767   4.506  15.705 -0.1028  0.0149  0.0016
  171MPD1    H2 2664   3.496   0.002  15.483  0.0839 -0.2466 -0.5236
  171MPD1    H3 2665   3.670   4.724  15.650  1.1720  0.4113 -1.2129
  171MPD1     N 2666   3.726   4.285  15.584 -0.4020 -0.2647 -0.1707
  171MPD1    H5 2667   3.771   4.289  15.675  0.5102  2.4662 -0.7372
  171MPD1    N1 2668   3.397   4.549  15.327 -0.1417  0.4298 -0.0483
  171MPD1    H6 2669   3.403   4.644  15.289 -0.8663  0.3322 -0.3973
  171MPD1    H7 2670   3.415   4.488  15.248 -0.6949  0.9425 -0.5713
  172MPD1     C 2671   2.719   3.552  17.515 -1.1864 -0.6534 -0.8041
  172MPD1    C1 2672   2.673   3.590  17.639  0.1978  0.0287 -0.1772
  172MPD1    C2 2673   2.756   3.664  17.723 -0.1488  0.1859  0.5374
  172MPD1    C3 2674   2.877   3.707  17.675 -0.1322 -0.0606 -0.1633
  172MPD1    C4 2675   2.924   3.665  17.547 -0.1761 -0.0577 -0.5625
  172MPD1    C5 2676   2.845   3.583  17.473  0.2115  0.1292  0.3566
  172MPD1     H 2677   2.723   3.674   0.080  1.2313 -3.4265  1.3675
  172MPD1    H1 2678   3.019   3.689  17.503  2.4660 -2.4423  3.8367
  172MPD1    H2 2679   2.670   3.486  17.444 -3.7115  1.5476 -1.1061
  172MPD1    H3 2680   2.864   3.545  17.373  0.7706  0.3481  0.3784
  172MPD1     N 2681   2.959   3.795   0.000  0.1433 -0.4120  0.8359
  172MPD1    H5 2682   3.044   3.830  17.701 -0.7477  1.2519  0.4238
  172MPD1    N1 2683   2.566   3.528  17.691  0.2802  0.0667 -0.3619
  172MPD1    H6 2684   2.498   3.508  17.618 -0.0594 -1.8449  0.4836
  172MPD1    H7 2685   2.525   3.588   0.018  0.1315 -0.2430 -0.1892
  173MPD1     C 2686   3.898   3.317  14.030  0.2824  0.0300 -0.3067
  173MPD1    C1 2687   3.798   3.223  14.028 -0.5792  0.3053  0.3156
  173MPD1    C2 2688   3.780   3.153  14.146  0.1705 -0.5843  0.3605
  173MPD1    C3 2689   3.841   3.189  14.266  0.4471  0.0394  0.2364
  173MPD1    C4 2690   3.935   3.289  14.263  0.1658 -0.3415  0.1723
  173MPD1    C5 2691   3.970   3.340  14.139  0.4196 -0.8361 -0.3185
  173MPD1     H 2692   3.710   3.070  14.148 -1.9076  1.1435 -0.5185
  173MPD1    H1 2693   3.997   3.318  14.346  0.2069 -1.0580  0.3865
  173MPD1    H2 2694   3.922   3.381  13.946  0.1996 -0.3343 -0.6100
  173MPD1    H3 2695   4.054   3.408  14.127 -0.1900 -0.2802 -1.4528
  173MPD1     N 2696   3.810   3.116  14.385 -0.3166  0.0578 -0.1149
  173MPD1    H5 2697   3.753   3.034  14.372 -0.1022  0.2112 -2.0291
  173MPD1    N1 2698   3.739   3.175  13.910 -0.1641 -0.0787  0.4266
  173MPD1    H6 2699   3.724   3.253  13.848 -1.3428  1.3103  2.4416
  173MPD1    H7 2700   3.645   3.140  13.930  0.1719 -0.8600  0.6278
  174MPD1     C 2701   3.035   2.698  14.366 -0.0988 -0.1741 -0.1209
  174MPD1    C1 2702   3.130   2.779  14.299  0.2336 -0.2535 -0.2089
  174MPD1    C2 2703   3.240   2.823  14.371 -0.0493 -0.2860  0.2758
  174MPD1    C3 2704   3.264   2.780  14.499 -0.0612  0.6420  0.5073
  174MPD1    C4 2705   3.165   2.706  14.565  0.7166 -0.3667  0.3351
  174MPD1    C5 2706   3.053   2.665  14.495  0.0118  0.6954  0.5800
  174MPD1     H 2707   3.306   2.896  14.325 -0.6067  0.0541  0.0188
  174MPD1    H1 2708   3.167   2.678  14.670  1.8368  1.0866  0.6951
  174MPD1    H2 2709   2.939   2.665  14.327 -0.0880  1.1391 -1.2523
  174MPD1    H3 2710   2.977   2.616  14.554 -1.3991  1.0120 -1.0046
  174MPD1     N 2711   3.377   2.827  14.569 -0.7319 -0.0592  0.0827
  174MPD1    H5 2712   3.380   2.826  14.670 -3.1774 -0.6737  0.1392
  174MPD1    N1 2713   3.092   2.831  14.173 -0.6724  0.0495 -0.5917
  174MPD1    H6 2714   3.168   2.856  14.110 -0.3108  0.7115  0.1081
  174MPD1    H7 2715   3.033   2.770  14.117  0.3398 -0.8014 -0.7392
  175MPD1     C 2716   2.512   0.829  15.346  0.5694  0.0034 -0.0611
  175MPD1    C1 2717   2.629   0.814  15.420 -0.4809 -0.0039  0.3595
  175MPD1    C2 2718   2.633   0.734  15.535  0.3968  0.7710 -0.4989
  175MPD1    C3 2719   2.515   0.673  15.584 -0.4853  0.1069  0.1503
  175MPD1    C4 2720   2.403   0.687  15.506  0.2878  0.2643  0.3327
  175MPD1    C5 2721   2.403   0.756  15.386 -0.0258 -0.2013 -0.3952
  175MPD1     H 2722   2.733   0.720  15.573  0.2952  2.6794  0.5152
  175MPD1    H1 2723   2.308   0.645  15.538  1.4882 -0.5321  2.8754
  175MPD1    H2 2724   2.493   0.907  15.272  1.6321  0.7095  0.4129
  175MPD1    H3 2725   2.308   0.772  15.338 -0.5088 -0.2263  0.5523
  175MPD1     N 2726   2.510   0.583  15.697 -0.3393 -0.6446  0.1479
  175MPD1    H5 2727   2.417   0.549  15.717 -0.1844 -0.2242  1.6494
  175MPD1    N1 2728   2.743   0.901  15.394  0.1710 -0.2361  0.5045
  175MPD1    H6 2729   2.834   0.857  15.406  0.2729 -0.1754 -0.0390
  175MPD1    H7 2730   2.729   0.935  15.299 -1.4773  0.0887  0.8682
  176MPD1     C 2731   3.902   2.524   0.281  0.3567 -0.4593 -0.3057
  176MPD1    C1 2732   3.971   2.630   0.330 -0.3942  0.2486 -0.2178
  176MPD1    C2 2733   4.095   2.654   0.278 -0.4983 -0.2868  1.0881
  176MPD1    C3 2734   4.154   2.585   0.175 -1.0022 -0.5002  0.2453
  176MPD1    C4 2735   4.086   2.475   0.130  1.3785  0.1688 -0.7198
  176MPD1    C5 2736   3.966   2.448   0.187  0.1208  1.0838  0.2750
  176MPD1     H 2737   4.154   2.729   0.329 -1.0851  1.0622 -0.2235
  176MPD1    H1 2738   4.115   2.404   0.053  0.4509  1.0256 -1.8522
  176MPD1    H2 2739   3.803   2.498   0.318  1.2824 -0.8199  1.9001
  176MPD1    H3 2740   3.921   2.354   0.158 -0.1334  1.5270 -0.7946
  176MPD1     N 2741   4.280   2.628   0.122  0.0764 -1.2593  0.0012
  176MPD1    H5 2742   4.314   2.714   0.165 -0.4020 -0.0788 -1.9787
  176MPD1    N1 2743   3.928   2.706   0.437  0.2378  0.3806 -0.4604
  176MPD1    H6 2744   3.972   2.797   0.444 -0.9321  0.6286  3.8390
  176MPD1    H7 2745   3.830   2.732   0.433 -0.0976 -0.8287 -0.1783
  177MPD1     C 2746   2.938   1.458   9.682  0.1774  0.5162  0.1187
  177MPD1    C1 2747   2.857   1.423   9.788 -0.5135 -0.1706  0.4229
  177MPD1    C2 2748   2.749   1.497   9.814 -1.2132  0.4389  0.2040
  177MPD1    C3 2749   2.717   1.606   9.735  0.8147  0.3055  0.8066
  177MPD1    C4 2750   2.795   1.637   9.633  0.1358 -0.4141  0.3631
  177MPD1    C5 2751   2.905   1.565   9.603  0.2536 -0.2315 -0.2353
  177MPD1     H 2752   2.683   1.482   9.899  0.0932  1.0265  1.3180
  177MPD1    H1 2753   2.770   1.716   9.562  0.3660 -0.6922 -0.0294
  177MPD1    H2 2754   3.019   1.395   9.647  0.9943  1.5486  0.1495
  177MPD1    H3 2755   2.974   1.590   9.523  0.7212  0.3697  0.3664
  177MPD1     N 2756   2.600   1.672   9.765 -0.1791  0.4409 -1.2821
  177MPD1    H5 2757   2.554   1.642   9.851  0.2946  0.6485 -0.9548
  177MPD1    N1 2758   2.870   1.303   9.866 -0.5463  0.2664 -0.3590
  177MPD1    H6 2759   2.808   1.289   9.945  0.5386 -0.3285  0.3969
  177MPD1    H7 2760   2.966   1.275   9.885 -0.3294  1.3215  0.1102
  178MPD1     C 2761   0.254   2.370   0.333  1.0442  0.2572  0.1514
  178MPD1    C1 2762   0.143   2.372   0.259 -0.0066  0.2178  0.5130
  178MPD1    C2 2763   0.154   2.374   0.122  0.2489  0.9421 -0.1161
  178MPD1    C3 2764   0.278   2.400   0.057 -0.1376 -0.0612 -0.2560
  178MPD1    C4 2765   0.390   2.392   0.133 -0.2503  0.1385 -0.1277
  178MPD1    C5 2766   0.373   2.373   0.269 -0.6163  0.3046 -0.2640
  178MPD1     H 2767   0.065   2.364   0.061  0.2057 -0.8557  0.2380
  178MPD1    H1 2768   0.491   2.390   0.093  0.7462  1.4407  2.3414
  178MPD1    H2 2769   0.259   2.358   0.441  0.6455 -2.7691 -0.1573
  178MPD1    H3 2770   0.452   2.340   0.336 -1.6527  0.2330  0.9314
  178MPD1     N 2771   0.297   2.414  17.662 -0.4051  0.3110  0.2216
  178MPD1    H5 2772   0.392   2.406  17.628 -1.0682  0.8585 -1.7285
  178MPD1    N1 2773   0.018   2.339   0.322  0.2988  0.1425 -0.6995
  178MPD1    H6 2774   0.015   2.395   0.407 -1.7457  0.3051 -0.8711
  178MPD1    H7 2775   4.674   2.368   0.267 -2.1902 -1.9963  1.8919
  179MPD1     C 2776   0.874   0.534  15.569 -0.3694 -0.8879  0.7402
  179MPD1    C1 2777   0.806   0.651  15.590  0.3076  0.1824  0.2617
  179MPD1    C2 2778   0.675   0.636  15.627  0.1832  0.3290 -0.3217
  179MPD1    C3 2779   0.623   0.510  15.663  0.6810  0.1254 -1.0872
  179MPD1    C4 2780   0.696   0.395  15.652  0.2496  0.1465  0.5472
  179MPD1    C5 2781   0.828   0.411  15.608 -0.5411 -0.1731  0.5139
  179MPD1     H 2782   0.608   0.722  15.631  0.4956  0.5244  0.6123
  179MPD1    H1 2783   0.644   0.300  15.661  0.5956 -0.1560 -0.7550
  179MPD1    H2 2784   0.975   0.533  15.530  0.6378  1.6822  3.3260
  179MPD1    H3 2785   0.896   0.327  15.598 -0.8442 -0.4981  1.2053
  179MPD1     N 2786   0.487   0.487  15.704  0.0359  0.6597 -0.5327
  179MPD1    H5 2787   0.480   0.400  15.756 -2.6448 -0.1044 -2.1520
  179MPD1    N1 2788   0.858   0.771  15.531 -0.0244  0.3416 -0.3962
  179MPD1    H6 2789   0.960   0.764  15.528 -0.1449 -0.9677 -1.6247
  179MPD1    H7 2790   0.826   0.845  15.593 -0.1736  1.8232 -2.2319
  180MPD1     C 2791   4.182   2.597  15.173  0.2558  0.0152 -0.6836
  180MPD1    C1 2792   4.266   2.598  15.063 -0.0786  0.2535 -0.2068
  180MPD1    C2 2793   4.235   2.511  14.961 -0.0984 -0.3041  0.2095
  180MPD1    C3 2794   4.129   2.421  14.967 -0.4476  0.4280 -0.3757
  180MPD1    C4 2795   4.045   2.430  15.078  0.1249  0.8963 -0.3952
  180MPD1    C5 2796   4.071   2.523  15.174 -0.5840  0.1445  0.0633
  180MPD1     H 2797   4.301   2.505  14.875 -0.7517 -1.6462 -0.2022
  180MPD1    H1 2798   3.960   2.363  15.089  1.1983 -0.2430  0.8462
  180MPD1    H2 2799   4.203   2.656  15.262 -2.5277 -0.7621  0.4945
  180MPD1    H3 2800   4.003   2.535  15.257 -0.9422  0.1611 -0.2352
  180MPD1     N 2801   4.113   2.331  14.861 -0.3646 -0.3313 -0.7256
  180MPD1    H5 2802   4.182   2.327  14.787  1.5954 -0.5311  1.0926
  180MPD1    N1 2803   4.356   2.710  15.053 -0.1062  0.2578  0.3325
  180MPD1    H6 2804   4.440   2.682  15.003  0.2436  3.8876 -1.1237
  180MPD1    H7 2805   4.378   2.739  15.148  0.4421  1.1558 -0.0739
  181MPD1     C 2806   2.841   0.514  10.238 -0.3826  0.0194  0.0943
  181MPD1    C1 2807   2.820   0.397  10.176  0.0825  0.0571  0.0502
  181MPD1    C2 2808   2.744   0.289  10.225 -0.6187 -0.6673 -0.2176
  181MPD1    C3 2809   2.673   0.311  10.347 -0.6883  1.3678 -0.7565
  181MPD1    C4 2810   2.700   0.430  10.413  0.2195 -0.7220  0.5235
  181MPD1    C5 2811   2.782   0.526  10.360 -1.0834  0.2999  0.0448
  181MPD1     H 2812   2.735   0.198  10.166 -1.0459 -1.1257  0.5458
  181MPD1    H1 2813   2.649   0.461  10.503  1.3750 -1.2064  1.3442
  181MPD1    H2 2814   2.894   0.598  10.194 -1.3008  0.2241 -0.6355
  181MPD1    H3 2815   2.791   0.622  10.409 -0.3167 -0.6390  1.7691
  181MPD1     N 2816   2.582   0.227  10.400 -0.0928 -0.1745 -0.0808
  181MPD1    H5 2817   2.535   0.256  10.485 -0.3466 -2.6175  0.6111
  181MPD1    N1 2818   2.887   0.375  10.058  0.0090 -1.0479  0.0974
  181MPD1    H6 2819   2.904   0.455   9.999 -0.0971  0.1820  1.7306
  181MPD1    H7 2820   2.845   0.309   9.992 -0.3058 -0.4215 -0.3235
  182MPD1     C 2821   2.354   4.246   1.487  0.1375  0.2749  0.2599
  182MPD1    C1 2822   2.437   4.165   1.412 -0.1240  0.1451  0.0268
  182MPD1    C2 2823   2.388   4.108   1.290 -0.2604  0.3063 -0.2694
  182MPD1    C3 2824   2.257   4.132   1.248 -0.0873 -0.0670 -0.3239
  182MPD1    C4 2825   2.178   4.213   1.329  0.5228 -0.1235 -0.9926
  182MPD1    C5 2826   2.226   4.267   1.446 -0.5603  0.1914  0.3983
  182MPD1     H 2827   2.446   4.039   1.230 -1.3973 -0.6928 -0.2166
  182MPD1    H1 2828   2.073   4.228   1.306  0.0402 -0.1085  1.1910
  182MPD1    H2 2829   2.380   4.277   1.588 -0.8206  1.2322  0.2159
  182MPD1    H3 2830   2.161   4.317   1.517  1.3007  1.2462  1.3481
  182MPD1     N 2831   2.197   4.075   1.127  0.6012  0.1262 -0.4127
  182MPD1    H5 2832   2.100   4.099   1.109  0.2764  0.1666  1.4464
  182MPD1    N1 2833   2.561   4.126   1.458 -0.8172  0.0580  0.2662
  182MPD1    H6 2834   2.630   4.115   1.384 -1.0346 -5.1108  0.8466
  182MPD1    H7 2835   2.594   4.196   1.523 -0.2984  0.0429  0.0144
  183MPD1     C 2836   2.386   4.288   9.030  0.6491 -0.5762  0.0282
  183MPD1    C1 2837   2.393   4.413   9.089  0.4559 -0.2525  0.0172
  183MPD1    C2 2838   2.405   4.424   9.224 -0.2346 -0.1454 -0.0905
  183MPD1    C3 2839   2.404   4.307   9.301 -0.3363  0.3299 -0.2592
  183MPD1    C4 2840   2.395   4.181   9.241 -0.6594  0.2136 -0.5798
  183MPD1    C5 2841   2.382   4.178   9.109 -0.6430  0.4901  0.1812
  183MPD1     H 2842   2.420   4.521   9.271 -2.0482  0.4228 -0.6911
  183MPD1    H1 2843   2.390   4.086   9.292 -0.7123  0.0053 -0.9728
  183MPD1    H2 2844   2.385   4.277   8.922 -0.5663  1.8756 -0.2185
  183MPD1    H3 2845   2.377   4.078   9.067 -1.4842 -0.0174  1.4748
  183MPD1     N 2846   2.434   4.320   9.444  0.0702  0.3387  0.3809
  183MPD1    H5 2847   2.435   4.412   9.486 -0.7279  0.9420 -0.9276
  183MPD1    N1 2848   2.414   4.529   9.012  0.0478  0.6643 -0.1608
  183MPD1    H6 2849   2.385   4.613   9.062  0.2522 -0.0501  1.1575
  183MPD1    H7 2850   2.357   4.514   8.929 -1.8165 -2.6546  1.7257
  184MPD1     C 2851   1.143   1.946  10.172  0.0966 -0.1508  0.1219
  184MPD1    C1 2852   1.256   1.877  10.155  0.3224  0.1100  0.3286
  184MPD1    C2 2853   1.337   1.914  10.042 -0.0248  0.2052  0.2894
  184MPD1    C3 2854   1.312   2.032   9.969  0.0902  0.5581  0.1282
  184MPD1    C4 2855   1.210   2.110  10.005 -0.8462  0.4362  0.3697
  184MPD1    C5 2856   1.125   2.061  10.105  0.6200  0.1187  0.3421
  184MPD1     H 2857   1.431   1.861  10.028 -0.9659 -1.4681  0.2225
  184MPD1    H1 2858   1.178   2.200   9.953 -0.8502  0.5492  0.5707
  184MPD1    H2 2859   1.072   1.915  10.248  0.0902 -4.0256 -1.4733
  184MPD1    H3 2860   1.033   2.119  10.114 -0.3246 -1.0930 -1.5742
  184MPD1     N 2861   1.400   2.085   9.873  0.0323  0.7311  0.0190
  184MPD1    H5 2862   1.371   2.171   9.827  1.0778  0.9578 -0.2230
  184MPD1    N1 2863   1.281   1.757  10.224  0.3906 -0.0025 -0.1470
  184MPD1    H6 2864   1.253   1.762  10.322  0.4171 -3.0149  0.0286
  184MPD1    H7 2865   1.379   1.733  10.231  0.0362 -1.0100  1.3215
  185MPD1     C 2866   1.512   2.821   9.207  0.0056 -0.7009 -0.5379
  185MPD1    C1 2867   1.441   2.794   9.324 -0.2459 -0.7252  0.1397
  185MPD1    C2 2868   1.433   2.666   9.388  0.0561  0.0384 -0.0126
  185MPD1    C3 2869   1.513   2.568   9.333 -0.2288 -0.1545 -0.2378
  185MPD1    C4 2870   1.588   2.596   9.214  0.3567 -0.5895 -0.1229
  185MPD1    C5 2871   1.594   2.718   9.156  0.5210  1.2573 -0.5256
  185MPD1     H 2872   1.373   2.649   9.476  0.1539  1.5030  0.3458
  185MPD1    H1 2873   1.653   2.516   9.180  1.0365  0.6482 -1.6952
  185MPD1    H2 2874   1.513   2.914   9.152  0.1592 -0.7485 -0.6129
  185MPD1    H3 2875   1.648   2.728   9.063  0.8675  1.0383 -0.3474
  185MPD1     N 2876   1.536   2.441   9.394  0.1770 -0.5871  0.4827
  185MPD1    H5 2877   1.603   2.382   9.346 -0.9274  0.2668 -2.1111
  185MPD1    N1 2878   1.360   2.897   9.370 -0.0506 -0.7031 -0.3802
  185MPD1    H6 2879   1.390   2.991   9.344 -0.8249  0.0467  1.4448
  185MPD1    H7 2880   1.343   2.881   9.469  2.3788  0.4375  0.2015
  186MPD1     C 2881   0.194   1.271  15.241  0.2191 -0.0294 -0.0509
  186MPD1    C1 2882   0.073   1.301  15.296 -0.0198 -0.4133  0.4440
  186MPD1    C2 2883   0.063   1.336  15.433 -0.1761 -0.0697  0.0687
  186MPD1    C3 2884   0.186   1.338  15.501 -0.5061  0.1507  0.0805
  186MPD1    C4 2885   0.305   1.302  15.443 -0.1428  0.7656 -0.2845
  186MPD1    C5 2886   0.312   1.267  15.313 -0.1809 -0.2629 -0.1741
  186MPD1     H 2887   4.701   1.359  15.472 -0.8038 -0.8713 -1.0314
  186MPD1    H1 2888   0.397   1.307  15.500  0.5499  1.2822 -1.4525
  186MPD1    H2 2889   0.204   1.258  15.134  1.8558  0.4294  0.0485
  186MPD1    H3 2890   0.407   1.256  15.261 -1.3785 -0.1762 -2.4122
  186MPD1     N 2891   0.197   1.378  15.638 -0.3466  0.1469  0.3048
  186MPD1    H5 2892   0.290   1.388  15.676  0.1446  1.6466 -1.2605
  186MPD1    N1 2893   4.696   1.299  15.206 -0.3662  0.0113 -0.6913
  186MPD1    H6 2894   4.700   1.239  15.125 -1.5748  0.2307 -0.9102
  186MPD1    H7 2895   4.606   1.293  15.253  0.7915  1.6306  1.7656
  187MPD1     C 2896   0.143   3.778   0.040 -0.3905  0.5888 -0.3082
  187MPD1    C1 2897   0.007   3.757   0.037  0.1180  0.2435  0.9590
  187MPD1    C2 2898   4.695   3.700  17.669  0.0310 -0.4496  0.1602
  187MPD1    C3 2899   0.042   3.665  17.562  0.2953 -0.2818 -0.8700
  187MPD1    C4 2900   0.177   3.689  17.575 -0.2794  0.6743 -0.5487
  187MPD1    C5 2901   0.232   3.739  17.685  0.5269  0.3648  0.0737
  187MPD1     H 2902   4.588   3.685  17.655 -0.3425  1.5714  0.8576
  187MPD1    H1 2903   0.252   3.661  17.501  1.2235  0.9620  0.8862
  187MPD1    H2 2904   0.192   3.832   0.120 -1.2087 -1.7321  1.7426
  187MPD1    H3 2905   0.340   3.749  17.684  0.7491 -2.1966 -1.1302
  187MPD1     N 2906   4.736   3.623  17.437  0.2077  0.1664  0.4763
  187MPD1    H5 2907   0.070   3.605  17.366  2.2173 -2.9218  3.2738
  187MPD1    N1 2908   4.658   3.823   0.128 -0.0934 -0.7017 -0.1687
  187MPD1    H6 2909   4.573   3.771   0.151 -1.3729  1.4785  0.0754
  187MPD1    H7 2910   4.707   3.842   0.215 -1.9184 -0.2453  0.7542
  188MPD1     C 2911   3.659   3.399  10.482  0.2151 -0.2930 -0.0811
  188MPD1    C1 2912   3.768   3.327  10.514  0.3353  0.2145  0.1885
  188MPD1    C2 2913   3.795   3.217  10.441 -0.0386 -0.2649  0.0941
  188MPD1    C3 2914   3.710   3.157  10.351  1.5065 -0.1955 -0.4805
  188MPD1    C4 2915   3.589   3.221  10.340  0.0976  0.1348  0.9390
  188MPD1    C5 2916   3.563   3.338  10.412  0.3106  0.8168  0.1849
  188MPD1     H 2917   3.882   3.163  10.474 -0.7529  0.3631  2.9885
  188MPD1    H1 2918   3.504   3.168  10.300  0.0792  0.3570  0.6840
  188MPD1    H2 2919   3.621   3.483  10.540  0.5640 -1.2475  1.5268
  188MPD1    H3 2920   3.467   3.389  10.404 -1.6775 -2.8554  0.2668
  188MPD1     N 2921   3.721   3.024  10.293 -0.6724  1.0415  0.3139
  188MPD1    H5 2922   3.653   2.985  10.229 -0.4178  1.2826 -0.1050
  188MPD1    N1 2923   3.870   3.385  10.593 -0.1966  0.4222  0.4501
  188MPD1    H6 2924   3.929   3.314  10.635  1.1121  1.5854  0.5694
  188MPD1    H7 2925   3.818   3.428  10.670 -0.2760  1.5364 -0.2376
  189MPD1     C 2926   1.479   3.856   0.445 -0.6355  0.4690  0.2594
  189MPD1    C1 2927   1.392   3.766   0.379 -0.6800 -0.5921 -0.3997
  189MPD1    C2 2928   1.278   3.821   0.315 -0.7100 -0.1468  0.0177
  189MPD1    C3 2929   1.253   3.959   0.310  0.1517  0.1690 -0.4801
  189MPD1    C4 2930   1.343   4.043   0.372  0.1632 -0.2226 -0.2632
  189MPD1    C5 2931   1.453   3.988   0.432  0.2543  0.1118 -0.3897
  189MPD1     H 2932   1.207   3.751   0.274 -0.8717  0.2012 -0.2945
  189MPD1    H1 2933   1.324   4.149   0.385  2.5110 -0.0677  1.7504
  189MPD1    H2 2934   1.572   3.827   0.492 -0.5460 -1.3397 -1.0330
  189MPD1    H3 2935   1.525   4.054   0.481 -1.6228  0.0782  2.3962
  189MPD1     N 2936   1.134   4.002   0.245  0.1265 -0.1752  0.2121
  189MPD1    H5 2937   1.068   3.932   0.212 -2.1683  0.5558  3.2644
  189MPD1    N1 2938   1.393   3.625   0.408  0.5590  0.8611  0.6201
  189MPD1    H6 2939   1.342   3.585   0.330 -0.7487 -0.9602  2.3936
  189MPD1    H7 2940   1.491   3.598   0.409  0.4349  0.4431  1.5037
  190MPD1     C 2941   4.342   1.827  15.316 -0.0180 -0.4193  0.5480
  190MPD1    C1 2942   4.372   1.871  15.441  0.0111  0.7383 -0.2719
  190MPD1    C2 2943   4.484   1.948  15.457 -0.4209 -0.2873 -0.5862
  190MPD1    C3 2944   4.554   2.002  15.345 -0.5210 -0.2208  0.0158
  190MPD1    C4 2945   4.516   1.962  15.225 -0.7363 -0.0968 -0.6351
  190MPD1    C5 2946   4.408   1.875  15.206 -0.2206 -0.4659  0.0672
  190MPD1     H 2947   4.521   1.970  15.557  2.3433 -1.0778 -1.4207
  190MPD1    H1 2948   4.559   2.000  15.133  0.3662  0.7844  0.2310
  190MPD1    H2 2949   4.275   1.742  15.308 -0.4480 -0.0317  0.0623
  190MPD1    H3 2950   4.365   1.850  15.110  2.2644 -1.3104 -0.8134
  190MPD1     N 2951   4.663   2.089  15.379  0.2472 -0.3635  0.6028
  190MPD1    H5 2952   4.685   2.110  15.476  1.4451  0.0638  0.2340
  190MPD1    N1 2953   4.312   1.807  15.547 -0.0321  0.2875  0.0433
  190MPD1    H6 2954   4.320   1.859  15.634 -0.7756  1.7452 -0.7594
  190MPD1    H7 2955   4.216   1.777  15.530  1.3994 -3.5233 -1.2867
  191MPD1     C 2956   4.168   3.424  12.710 -0.2097  0.2483 -0.0252
  191MPD1    C1 2957   4.076   3.493  12.636 -0.3924  0.4350  0.5882
  191MPD1    C2 2958   3.996   3.591  12.704 -0.0940 -0.1902  0.1884
  191MPD1    C3 2959   4.018   3.621  12.835 -0.1958 -0.2351 -0.3212
  191MPD1    C4 2960   4.122   3.565  12.898 -0.6241 -0.1572 -0.4077
  191MPD1    C5 2961   4.197   3.467  12.836  0.8343  0.0161 -0.1569
  191MPD1     H 2962   3.918   3.650  12.657  1.8609  2.5605  0.4143
  191MPD1    H1 2963   4.145   3.588  13.002 -0.7551 -0.3705 -0.3307
  191MPD1    H2 2964   4.227   3.341  12.673 -0.1574  1.3407 -2.4047
  191MPD1    H3 2965   4.274   3.416  12.893  0.7703  1.7131  1.4629
  191MPD1     N 2966   3.940   3.719  12.896  0.6701 -0.1794 -0.2049
  191MPD1    H5 2967   3.895   3.781  12.829 -0.0764 -0.4870  0.0128
  191MPD1    N1 2968   4.048   3.460  12.503  0.5624  0.0085 -0.1466
  191MPD1    H6 2969   4.002   3.529  12.443  0.8336  0.0072 -0.3551
  191MPD1    H7 2970   4.126   3.428  12.447 -0.3647  0.3296 -1.6221
  192MPD1     C 2971   3.477   4.017  13.861  0.3482 -0.4726  0.3856
  192MPD1    C1 2972   3.454   3.907  13.778  0.6568 -0.9595  0.5093
  192MPD1    C2 2973   3.514   3.899  13.652 -0.2064  0.3315  0.1917
  192MPD1    C3 2974   3.577   4.009  13.598 -0.1487  0.4670 -0.2868
  192MPD1    C4 2975   3.585   4.116  13.678  0.9383  1.0061 -0.0860
  192MPD1    C5 2976   3.551   4.118  13.811  0.0811  0.3667 -0.1760
  192MPD1     H 2977   3.477   3.819  13.588  0.0099 -0.6496  1.3051
  192MPD1    H1 2978   3.637   4.203  13.639 -0.9175  1.6294 -1.2102
  192MPD1    H2 2979   3.449   4.017  13.966  0.1507 -0.9264  0.3321
  192MPD1    H3 2980   3.570   4.204  13.873  1.9385 -0.8806  0.9667
  192MPD1     N 2981   3.631   4.012  13.468 -0.4174 -0.6641 -0.5072
  192MPD1    H5 2982   3.683   4.096  13.443 -1.3812 -0.2443 -1.0889
  192MPD1    N1 2983   3.405   3.792  13.831  0.5657 -0.0631  0.1129
  192MPD1    H6 2984   3.348   3.808  13.914 -0.3169  0.4199 -0.5804
  192MPD1    H7 2985   3.366   3.726  13.765 -1.3409 -0.1921  1.3581
  193MPD1     C 2986   3.598   4.113  16.093  0.2408  0.8920  0.3483
  193MPD1    C1 2987   3.602   4.240  16.148  0.6674  0.1786  0.3544
  193MPD1    C2 2988   3.714   4.277  16.226 -0.3398 -0.2950 -0.3607
  193MPD1    C3 2989   3.810   4.184  16.250 -0.6810  0.5118 -0.0017
  193MPD1    C4 2990   3.796   4.054  16.207  0.4181 -0.1266 -0.1332
  193MPD1    C5 2991   3.691   4.017  16.125  0.4651  0.4478  0.1253
  193MPD1     H 2992   3.735   4.379  16.256  2.0508 -1.4381  1.7651
  193MPD1    H1 2993   3.857   3.968  16.231 -0.1721  0.0181  1.8111
  193MPD1    H2 2994   3.518   4.088  16.024  1.0346  0.7083 -0.5094
  193MPD1    H3 2995   3.701   3.920  16.078  1.0714  0.6445 -0.1486
  193MPD1     N 2996   3.917   4.210  16.336 -0.0061 -0.2777  0.0513
  193MPD1    H5 2997   3.984   4.135  16.345  1.7307  1.2393 -0.4300
  193MPD1    N1 2998   3.515   4.336  16.092 -0.1794  0.0733  0.6544
  193MPD1    H6 2999   3.496   4.409  16.160 -1.8407 -1.0762  1.4325
  193MPD1    H7 3000   3.430   4.291  16.061  1.3206 -0.5742 -2.5049
  194MPD1     C 3001   0.612   1.968  17.091  0.0575  0.6122 -0.0728
  194MPD1    C1 3002   0.724   1.994  17.013 -0.7203 -0.1983  0.0148
  194MPD1    C2 3003   0.833   1.917  17.035  0.3680  0.1169 -0.4859
  194MPD1    C3 3004   0.830   1.816  17.136  0.2217 -0.4835  0.1473
  194MPD1    C4 3005   0.720   1.794  17.208  0.3464  0.6689  0.5881
  194MPD1    C5 3006   0.607   1.869  17.188 -0.2153 -0.6524  0.2731
  194MPD1     H 3007   0.923   1.942  16.980 -0.1655  0.2020 -1.3066
  194MPD1    H1 3008   0.728   1.722  17.289 -0.0870  1.4519  1.3228
  194MPD1    H2 3009   0.522   2.028  17.079  1.3321  2.4782 -0.3690
  194MPD1    H3 3010   0.523   1.854  17.255 -0.0330 -0.4978  0.5306
  194MPD1     N 3011   0.948   1.741  17.170 -0.3255  0.8372  0.0156
  194MPD1    H5 3012   0.945   1.689  17.257 -2.0774 -0.1966 -0.6520
  194MPD1    N1 3013   0.724   2.096  16.913 -0.0936  0.5738  0.2958
  194MPD1    H6 3014   0.820   2.108  16.880 -0.0932 -0.9103 -0.2556
  194MPD1    H7 3015   0.686   2.186  16.941 -0.8074 -0.2000  1.8132
  195MPD1     C 3016   3.757   3.985   0.354  0.3780  0.2362 -0.1679
  195MPD1    C1 3017   3.847   3.979   0.457 -0.8553 -0.8154  0.2814
  195MPD1    C2 3018   3.892   3.854   0.482  0.5786 -0.0601  0.2273
  195MPD1    C3 3019   3.887   3.750   0.391 -0.1991  0.3954 -0.4516
  195MPD1    C4 3020   3.814   3.772   0.278  0.7041  0.3057 -0.3163
  195MPD1    C5 3021   3.746   3.887   0.259 -0.2145 -0.3286  0.6768
  195MPD1     H 3022   3.942   3.837   0.577  2.5264  0.9195 -0.6158
  195MPD1    H1 3023   3.808   3.704   0.194  0.8561 -0.1868  0.0696
  195MPD1    H2 3024   3.697   4.069   0.320  1.0090  0.7292 -0.0674
  195MPD1    H3 3025   3.665   3.894   0.188 -0.5555 -1.8502  0.9198
  195MPD1     N 3026   3.952   3.625   0.410 -0.4824  0.1200 -0.2007
  195MPD1    H5 3027   3.961   3.559   0.333 -0.7065  0.2477 -0.3344
  195MPD1    N1 3028   3.853   4.083   0.548  0.3830  0.1763 -0.5380
  195MPD1    H6 3029   3.950   4.097   0.575  0.1973 -1.1557  0.8128
  195MPD1    H7 3030   3.827   4.173   0.507  2.2932  2.1044  2.4970
  196MPD1     C 3031   3.211   2.658   0.067 -0.2908 -0.1951  0.4832
  196MPD1    C1 3032   3.295   2.765   0.088  0.2559 -0.9856 -0.4273
  196MPD1    C2 3033   3.309   2.814   0.219  0.9453 -0.2145 -0.2766
  196MPD1    C3 3034   3.230   2.762   0.321  0.4840  0.0531  0.0766
  196MPD1    C4 3035   3.139   2.662   0.291 -0.2034  0.4305 -0.1914
  196MPD1    C5 3036   3.139   2.606   0.168  0.9441  0.9568 -0.7798
  196MPD1     H 3037   3.373   2.901   0.230  1.4095 -0.4172 -1.4318
  196MPD1    H1 3038   3.075   2.627   0.371  0.8810  0.4714  0.6899
  196MPD1    H2 3039   3.177   2.636  17.712  0.5032  1.5600 -0.1803
  196MPD1    H3 3040   3.060   2.533   0.154  0.4965  1.2340  0.2830
  196MPD1     N 3041   3.230   2.824   0.450  0.2420 -0.4491  0.2090
  196MPD1    H5 3042   3.156   2.787   0.510 -1.2974  2.4979  0.1146
  196MPD1    N1 3043   3.336   2.847  17.732 -0.6702  0.0324 -0.7509
  196MPD1    H6 3044   3.420   2.900   0.008  1.4151 -3.1445 -1.1300
  196MPD1    H7 3045   3.342   2.808  17.638  1.7104 -1.6231  0.0893
  197MPD1     C 3046   2.496   4.719  17.135 -0.9471 -0.0764  0.0467
  197MPD1    C1 3047   2.591   0.068  17.199  0.1484 -0.3233  0.0118
  197MPD1    C2 3048   2.607   0.198  17.142 -0.6739 -0.2224 -0.1693
  197MPD1    C3 3049   2.524   0.238  17.039 -0.0520 -0.8029  0.2924
  197MPD1    C4 3050   2.418   0.161  16.993 -0.1303 -0.0299  0.0371
  197MPD1    C5 3051   2.409   0.034  17.043 -0.2289  0.4529 -0.2319
  197MPD1     H 3052   2.694   0.256  17.173 -0.6139 -1.0453  1.2069
  197MPD1    H1 3053   2.351   0.200  16.918 -1.4264 -0.8611  0.7646
  197MPD1    H2 3054   2.493   4.615  17.168  1.9158 -0.0911  0.2280
  197MPD1    H3 3055   2.336   4.705  16.997 -0.0393  0.5459 -0.6724
  197MPD1     N 3056   2.563   0.354  16.961  0.0205  0.6543 -0.2700
  197MPD1    H5 3057   2.489   0.392  16.903  1.9030  0.3566 -2.8228
  197MPD1    N1 3058   2.672   0.019  17.300 -0.3537  0.2418  0.0910
  197MPD1    H6 3059   2.645   4.674  17.355 -1.6478  1.9652  2.0394
  197MPD1    H7 3060   2.688   0.101  17.359  1.8892 -0.4940  0.4984
  198MPD1     C 3061   4.162   3.752  15.037 -0.3783 -0.0651  0.5873
  198MPD1    C1 3062   4.198   3.779  15.166 -0.2198  0.0561  0.2678
  198MPD1    C2 3063   4.304   3.713  15.233  0.4389 -0.0624  0.4055
  198MPD1    C3 3064   4.365   3.609  15.167  0.3194 -0.4613  0.7591
  198MPD1    C4 3065   4.335   3.588  15.036  0.6767 -0.5304 -0.5487
  198MPD1    C5 3066   4.234   3.653  14.972  0.2585 -0.0174 -0.9238
  198MPD1     H 3067   4.320   3.743  15.336 -0.1268 -1.0506  0.7860
  198MPD1    H1 3068   4.377   3.504  14.981  1.7894 -1.8350  2.2658
  198MPD1    H2 3069   4.096   3.812  14.975  0.9133  1.2798  0.5474
  198MPD1    H3 3070   4.226   3.643  14.864 -1.1851 -0.8434 -0.7366
  198MPD1     N 3071   4.475   3.553  15.234  0.2943 -0.2547  0.1732
  198MPD1    H5 3072   4.476   3.581  15.332 -0.3187 -0.2924  0.1922
  198MPD1    N1 3073   4.136   3.893  15.230 -0.0907 -0.2067 -0.2356
  198MPD1    H6 3074   4.041   3.910  15.197  0.0819  1.6166  0.1881
  198MPD1    H7 3075   4.126   3.873  15.329 -2.7174 -0.2373 -0.4837
  199MPD1     C 3076   1.313   0.333  11.160 -0.9518  0.6345 -0.3738
  199MPD1    C1 3077   1.427   0.344  11.080 -0.1125 -0.4684  0.2011
  199MPD1    C2 3078   1.444   0.251  10.978  0.1836 -0.5393  0.1127
  199MPD1    C3 3079   1.344   0.165  10.937 -0.0653  0.0029 -0.3737
  199MPD1    C4 3080   1.235   0.154  11.016  0.3056 -0.1675  0.1510
  199MPD1    C5 3081   1.215   0.244  11.120 -0.3816  0.5778  0.5396
  199MPD1     H 3082   1.535   0.245  10.919  2.8305  2.3393  3.9294
  199MPD1    H1 3083   1.158   0.078  11.003  0.7261 -0.6333  0.3806
  199MPD1    H2 3084   1.293   0.396  11.246  1.5888  1.3986 -0.3578
  199MPD1    H3 3085   1.134   0.225  11.189 -0.6129 -1.2370 -0.2047
  199MPD1     N 3086   1.355   0.071  10.831  0.5247  0.0015  0.4830
  199MPD1    H5 3087   1.281   0.003  10.831  0.0462  0.5161  1.7301
  199MPD1    N1 3088   1.539   0.411  11.127 -0.1194 -0.6111  0.0047
  199MPD1    H6 3089   1.511   0.501  11.166 -0.7991 -0.6532 -0.3727
  199MPD1    H7 3090   1.608   0.434  11.056 -0.4831 -0.8605 -0.4293
  200MPD1     C 3091   0.572   4.568  15.072 -0.0691  0.4610  0.4530
  200MPD1    C1 3092   0.585   4.583  14.938 -0.2753 -0.0674  0.2047
  200MPD1    C2 3093   0.712   4.608  14.885  0.7203 -0.1036 -0.6512
  200MPD1    C3 3094   0.821   4.622  14.968  0.0552  0.8093  0.7414
  200MPD1    C4 3095   0.805   4.605  15.104 -0.0529 -0.1312 -0.3723
  200MPD1    C5 3096   0.680   4.578  15.153 -0.5108  0.3464  0.6680
  200MPD1     H 3097   0.726   4.624  14.778  1.0135  0.9399 -0.4572
  200MPD1    H1 3098   0.875   4.606  15.186  0.6018  0.4366 -0.9318
  200MPD1    H2 3099   0.481   4.538  15.121  0.0243 -0.5663 -0.0110
  200MPD1    H3 3100   0.665   4.573  15.260  0.8958 -1.6059  0.7810
  200MPD1     N 3101   0.943   4.658  14.912 -0.6275  0.0907 -0.0750
  200MPD1    H5 3102   0.947   4.678  14.812  2.0008 -1.4623 -0.2662
  200MPD1    N1 3103   0.479   4.538  14.853 -0.0843 -0.9899  0.1974
  200MPD1    H6 3104   0.383   4.543  14.885 -0.5823 -1.9022 -1.1741
  200MPD1    H7 3105   0.489   4.566  14.756 -1.4821 -1.9660 -0.2238
  201MPD1     C 3106   2.936   4.279  12.745  0.4295  0.5440  0.4086
  201MPD1    C1 3107   3.020   4.207  12.665 -0.4554 -0.2995  0.2808
  201MPD1    C2 3108   3.061   4.081  12.699 -0.4293  0.2686  0.1509
  201MPD1    C3 3109   3.014   4.019  12.812  0.3604  0.2975  0.2352
  201MPD1    C4 3110   2.919   4.083  12.889  0.0773  0.4060  0.7522
  201MPD1    C5 3111   2.892   4.214  12.853  0.0189 -0.5041 -0.4078
  201MPD1     H 3112   3.129   4.025  12.636 -0.4388 -0.3615  0.6983
  201MPD1    H1 3113   2.862   4.042  12.971  0.0390 -1.9823 -0.4622
  201MPD1    H2 3114   2.921   4.386  12.734 -0.2868  0.2196 -1.6380
  201MPD1    H3 3115   2.822   4.269  12.915  0.7128  1.4641 -1.3989
  201MPD1     N 3116   3.065   3.896  12.855 -0.1335  0.6463 -0.2279
  201MPD1    H5 3117   3.126   3.844  12.793 -0.8501  0.8200 -1.0864
  201MPD1    N1 3118   3.098   4.270  12.566 -0.5958  0.1855  0.0511
  201MPD1    H6 3119   3.044   4.349  12.530 -2.3841  0.7962  4.0228
  201MPD1    H7 3120   3.144   4.213  12.496 -0.9528  0.5069 -0.4458
  202MPD1     C 3121   2.729   3.403   9.239  1.3939 -0.2835  0.8103
  202MPD1    C1 3122   2.703   3.270   9.266 -0.2400  0.9207 -0.0775
  202MPD1    C2 3123   2.704   3.243   9.400 -0.1230 -0.7239  0.1721
  202MPD1    C3 3124   2.698   3.342   9.496  0.3163 -0.3726 -0.0797
  202MPD1    C4 3125   2.696   3.477   9.462  0.0962  0.7160 -0.1469
  202MPD1    C5 3126   2.728   3.505   9.336 -0.0558  0.1045  0.3519
  202MPD1     H 3127   2.696   3.139   9.432 -2.1755 -0.5558  0.1585
  202MPD1    H1 3128   2.682   3.550   9.541  0.3147  1.4843 -0.8246
  202MPD1    H2 3129   2.751   3.434   9.138  2.9845  0.0732  1.2779
  202MPD1    H3 3130   2.755   3.603   9.300 -1.4567  0.1631 -0.5454
  202MPD1     N 3131   2.680   3.323   9.638  0.4931  0.2184 -0.3169
  202MPD1    H5 3132   2.664   3.404   9.697 -0.4002 -0.4905  0.4117
  202MPD1    N1 3133   2.739   3.171   9.169  0.3041  0.3848 -0.3323
  202MPD1    H6 3134   2.686   3.085   9.184 -0.8207  1.0337 -0.5926
  202MPD1    H7 3135   2.720   3.205   9.075  0.5904 -2.5219 -1.4381
  203MPD1     C 3136   0.747   4.323  12.245  0.7608 -0.3132  0.3781
  203MPD1    C1 3137   0.794   4.261  12.132 -0.1501 -0.0960  0.5017
  203MPD1    C2 3138   0.803   4.120  12.129 -0.3381  0.5007 -0.7771
  203MPD1    C3 3139   0.792   4.046  12.244 -0.1684 -0.3965  0.0286
  203MPD1    C4 3140   0.768   4.114  12.359 -0.1338 -0.8109  0.3783
  203MPD1    C5 3141   0.728   4.245  12.351  0.0595 -0.6034  0.1789
  203MPD1     H 3142   0.828   4.071  12.036 -2.1181 -1.0150 -0.4476
  203MPD1    H1 3143   0.770   4.067  12.456 -0.9825 -1.3756  0.1189
  203MPD1    H2 3144   0.749   4.431  12.255  0.0843 -0.2242 -0.4391
  203MPD1    H3 3145   0.706   4.294  12.445 -0.3430 -0.9714  0.2773
  203MPD1     N 3146   0.823   3.909  12.244 -0.8788 -0.2260 -0.7796
  203MPD1    H5 3147   0.871   3.875  12.162 -0.7803 -1.8494 -0.0472
  203MPD1    N1 3148   0.792   4.324  12.010 -0.5429  0.3320  0.0371
  203MPD1    H6 3149   0.859   4.306  11.935  1.2844  0.1158  1.7431
  203MPD1    H7 3150   0.784   4.425  12.019 -2.2884  0.0927  1.1804
  204MPD1     C 3151   1.866   0.962  17.639 -0.6490  0.6827  0.0604
  204MPD1    C1 3152   1.797   0.904  17.534  0.0781 -0.2836 -0.1346
  204MPD1    C2 3153   1.787   0.767  17.532 -0.0123  0.1730  0.1050
  204MPD1    C3 3154   1.877   0.685  17.602  0.1868 -0.7887 -0.2812
  204MPD1    C4 3155   1.970   0.748  17.679 -0.4282 -0.7578  0.4149
  204MPD1    C5 3156   1.967   0.884  17.693 -0.0346 -0.4516 -0.3872
  204MPD1     H 3157   1.727   0.721  17.455  1.4813  0.3475 -1.1747
  204MPD1    H1 3158   2.047   0.691  17.730 -0.1227  0.5536  1.4056
  204MPD1    H2 3159   1.846   1.062  17.675 -0.7112  0.9021 -0.5864
  204MPD1    H3 3160   2.032   0.928   0.022 -2.5011  0.8144  1.0159
  204MPD1     N 3161   1.867   0.543  17.571  0.1277  0.0279 -0.4952
  204MPD1    H5 3162   1.788   0.513  17.514 -0.5155  2.4319 -0.8749
  204MPD1    N1 3163   1.711   0.984  17.462 -0.0103 -0.2133 -0.2933
  204MPD1    H6 3164   1.673   0.934  17.382 -2.9591 -0.0760  1.0179
  204MPD1    H7 3165   1.748   1.078  17.446  2.1989 -1.2230 -1.1130
  205MPD1     C 3166   2.048   4.085  16.613 -0.3411 -0.0456 -0.1465
  205MPD1    C1 3167   2.031   3.955  16.656  0.6305  0.0611  0.2285
  205MPD1    C2 3168   1.947   3.948  16.763 -0.2082  0.1158 -0.3211
  205MPD1    C3 3169   1.871   4.054  16.818  0.0321 -0.4314  0.3258
  205MPD1    C4 3170   1.894   4.180  16.772 -0.3009 -0.5849 -1.0551
  205MPD1    C5 3171   1.990   4.197  16.678 -0.3277 -0.2089 -0.2969
  205MPD1     H 3172   1.929   3.849  16.802 -0.0368 -0.5752 -1.9874
  205MPD1    H1 3173   1.835   4.264  16.809  1.4413  0.4347 -0.5841
  205MPD1    H2 3174   2.115   4.103  16.530 -0.8657 -0.2173 -0.6075
  205MPD1    H3 3175   2.020   4.296  16.647  0.0676 -0.4998 -0.8654
  205MPD1     N 3176   1.792   4.038  16.928  0.5037  0.3478  0.0550
  205MPD1    H5 3177   1.769   4.120  16.983 -1.2978  0.0656 -0.2549
  205MPD1    N1 3178   2.116   3.855  16.619 -0.0769  0.1858 -0.6122
  205MPD1    H6 3179   2.147   3.865  16.522  2.9054  0.6889  0.3770
  205MPD1    H7 3180   2.069   3.765  16.625 -0.3516  0.4016  0.4401
  206MPD1     C 3181   1.515   1.715  17.000 -0.1335 -0.4066  0.2762
  206MPD1    C1 3182   1.525   1.852  16.994  0.0766 -0.0401 -0.3269
  206MPD1    C2 3183   1.511   1.906  16.869  0.1026 -0.0522 -0.2916
  206MPD1    C3 3184   1.504   1.833  16.753 -0.0199  0.1274 -0.1647
  206MPD1    C4 3185   1.490   1.699  16.767  0.3433 -0.3647  0.3067
  206MPD1    C5 3186   1.494   1.642  16.889  0.3561  1.0560 -0.2939
  206MPD1     H 3187   1.524   2.013  16.857  0.1764 -0.3434 -2.8007
  206MPD1    H1 3188   1.477   1.631  16.683 -0.5577 -0.5330  0.5883
  206MPD1    H2 3189   1.535   1.661  17.091 -0.9882  0.3549  0.9176
  206MPD1    H3 3190   1.480   1.535  16.902 -2.4281  1.5470  0.6451
  206MPD1     N 3191   1.505   1.892  16.626  0.3158 -0.1433 -0.5919
  206MPD1    H5 3192   1.477   1.827  16.553  2.8687 -1.6530 -0.2158
  206MPD1    N1 3193   1.531   1.934  17.110 -0.1105  0.0586 -0.4832
  206MPD1    H6 3194   1.561   1.889  17.196 -1.3449  1.3908  0.6584
  206MPD1    H7 3195   1.595   2.011  17.092 -0.5127  0.4418 -0.2935
  207MPD1     C 3196   0.033   4.170   9.706 -0.5215 -0.6129 -0.1114
  207MPD1    C1 3197   4.634   4.156   9.718  0.0567  0.5582  0.6649
  207MPD1    C2 3198   4.574   4.175   9.845  0.0832 -0.3028 -0.8637
  207MPD1    C3 3199   4.654   4.221   9.955  0.2864  0.1750 -0.3837
  207MPD1    C4 3200   0.052   4.234   9.934 -0.0924  0.8118 -0.4897
  207MPD1    C5 3201   0.111   4.194   9.816 -0.5289 -0.0884 -0.2638
  207MPD1     H 3202   4.468   4.151   9.850  0.6784 -2.5002  1.1199
  207MPD1    H1 3203   0.118   4.270  10.012 -0.6770  0.7144  0.0508
  207MPD1    H2 3204   0.086   4.137   9.618  1.7363 -1.5745  1.6269
  207MPD1    H3 3205   0.218   4.197   9.799 -0.3648 -2.0986  0.4072
  207MPD1     N 3206   4.610   4.248  10.086  0.1548  0.1558 -0.5169
  207MPD1    H5 3207   4.671   4.296  10.152  2.4753 -3.1784 -0.2550
  207MPD1    N1 3208   4.569   4.076   9.626 -0.1999 -0.2923 -0.9011
  207MPD1    H6 3209   4.469   4.095   9.630 -0.4770 -2.0735  0.8305
  207MPD1    H7 3210   4.593   4.089   9.528  0.8468  0.2975 -0.5638
  208MPD1     C 3211   2.857   3.046  17.350  0.0989 -0.1659  0.1329
  208MPD1    C1 3212   2.865   3.148  17.439 -0.4376 -0.5153  0.4043
  208MPD1    C2 3213   2.769   3.148  17.544  0.2520  0.7374 -0.0678
  208MPD1    C3 3214   2.682   3.039  17.556 -0.3715  0.3754 -0.5368
  208MPD1    C4 3215   2.692   2.929  17.474 -0.3238 -0.3912  0.2344
  208MPD1    C5 3216   2.764   2.940  17.360 -0.1220  0.0930 -1.0188
  208MPD1     H 3217   2.762   3.244  17.595 -2.5321  0.4857  0.0142
  208MPD1    H1 3218   2.619   2.850  17.461 -0.1184 -0.3165 -1.4242
  208MPD1    H2 3219   2.925   3.045  17.266 -0.1975 -1.1559 -0.0954
  208MPD1    H3 3220   2.752   2.855  17.294 -1.2011  0.1474 -0.8864
  208MPD1     N 3221   2.586   3.054  17.657 -0.0661 -0.1269  0.2966
  208MPD1    H5 3222   2.586   3.138  17.715  0.0258  0.5343 -0.6524
  208MPD1    N1 3223   2.954   3.253  17.412  0.1082 -0.2226 -0.0929
  208MPD1    H6 3224   2.973   3.306  17.497  3.6936 -1.3628 -0.1733
  208MPD1    H7 3225   3.038   3.221  17.365  0.9754  0.3204  1.0965
  209MPD1     C 3226   3.086   3.597  11.343 -0.0291  0.4063 -1.1028
  209MPD1    C1 3227   3.186   3.615  11.437 -0.1698 -0.1001 -0.1089
  209MPD1    C2 3228   3.300   3.682  11.401 -0.0526  0.2287 -0.1724
  209MPD1    C3 3229   3.307   3.729  11.275 -0.0016  0.1405  0.0224
  209MPD1    C4 3230   3.203   3.727  11.185  0.1049  0.6111  0.0864
  209MPD1    C5 3231   3.092   3.658  11.226 -0.3132  0.2046 -0.2834
  209MPD1     H 3232   3.378   3.700  11.473 -0.0866 -1.1702  0.2211
  209MPD1    H1 3233   3.203   3.783  11.092  0.1145  1.5133  0.6255
  209MPD1    H2 3234   2.999   3.535  11.362  1.1677 -0.9014  0.1528
  209MPD1    H3 3235   3.018   3.637  11.151 -1.4641 -0.8147  1.1485
  209MPD1     N 3236   3.430   3.787  11.245  0.1724  0.7131 -0.1954
  209MPD1    H5 3237   3.508   3.785  11.310 -0.2445 -0.4673  0.2566
  209MPD1    N1 3238   3.169   3.560  11.571 -0.3861 -0.8161 -0.2432
  209MPD1    H6 3239   3.073   3.536  11.598 -0.6305  2.5021  1.7788
  209MPD1    H7 3240   3.217   3.612  11.644  0.0375 -0.1659 -0.9955
  210MPD1     C 3241   4.029   4.369  11.695  0.0971  0.0987 -0.2336
  210MPD1    C1 3242   4.009   4.231  11.721  0.5273  0.2344 -0.2182
  210MPD1    C2 3243   3.964   4.156  11.615 -0.1077 -0.1779 -0.1772
  210MPD1    C3 3244   3.926   4.213  11.491 -0.6211  0.4235 -1.0398
  210MPD1    C4 3245   3.955   4.344  11.473  0.5134  0.5178 -0.1003
  210MPD1    C5 3246   4.000   4.428  11.573 -0.0595 -0.0928  0.3277
  210MPD1     H 3247   3.947   4.050  11.631 -0.0952 -0.4151 -1.6946
  210MPD1    H1 3248   3.934   4.385  11.375  1.9891 -0.5332 -0.8464
  210MPD1    H2 3249   4.057   4.435  11.777 -0.6696 -0.3589  0.4048
  210MPD1    H3 3250   4.019   4.534  11.559  0.0652 -0.5856 -3.2965
  210MPD1     N 3251   3.884   4.144  11.379  0.8120 -1.0046  0.5571
  210MPD1    H5 3252   3.867   4.187  11.289  2.0972 -1.0021  0.3081
  210MPD1    N1 3253   4.040   4.163  11.843  0.5543 -0.3533  0.0706
  210MPD1    H6 3254   4.031   4.224  11.925  2.0988 -2.1140  1.5458
  210MPD1    H7 3255   3.979   4.083  11.856 -0.6789  0.7576  1.2100
  211MPD1     C 3256   1.248   3.846  17.169 -0.3918  1.1242 -0.1221
  211MPD1    C1 3257   1.231   3.748  17.071 -0.0002 -0.3226 -0.8392
  211MPD1    C2 3258   1.281   3.777  16.939  0.2187  0.0915  0.6174
  211MPD1    C3 3259   1.357   3.889  16.910  0.2021  0.5091 -0.2784
  211MPD1    C4 3260   1.378   3.981  17.013  0.3060 -0.0664 -0.6073
  211MPD1    C5 3261   1.319   3.962  17.135  0.2577 -0.2786 -0.4304
  211MPD1     H 3262   1.253   3.713  16.856 -1.9218  0.5470  0.9857
  211MPD1    H1 3263   1.440   4.071  17.009  1.1800 -0.6200  0.3686
  211MPD1    H2 3264   1.208   3.855  17.269 -3.1040 -0.9666 -1.0040
  211MPD1    H3 3265   1.328   4.039  17.211  2.6773 -2.8770  1.9124
  211MPD1     N 3266   1.415   3.904  16.782 -0.4747 -0.4735  0.5291
  211MPD1    H5 3267   1.402   3.826  16.718 -1.2630 -1.8049  2.3106
  211MPD1    N1 3268   1.131   3.655  17.098 -0.0427 -0.0781  0.2421
  211MPD1    H6 3269   1.147   3.619  17.192 -1.1465  1.9637  1.2129
  211MPD1    H7 3270   1.134   3.578  17.031  1.1950 -0.2035  0.4523
  212MPD1     C 3271   0.836   2.373  16.374 -0.0504 -0.3311  0.3068
  212MPD1    C1 3272   0.930   2.272  16.371  0.2718  0.5368  0.1560
  212MPD1    C2 3273   0.901   2.154  16.431  0.1497  0.7823  0.0689
  212MPD1    C3 3274   0.779   2.132  16.492  0.1982  0.4027 -0.2328
  212MPD1    C4 3275   0.678   2.230  16.491  0.0347  0.0825 -0.4571
  212MPD1    C5 3276   0.712   2.350  16.430 -0.4801  0.1838  0.4771
  212MPD1     H 3277   0.983   2.083  16.422 -1.5572 -1.1131 -0.7885
  212MPD1    H1 3278   0.587   2.211  16.546  0.8582 -0.1806  0.8280
  212MPD1    H2 3279   0.851   2.473  16.335  3.1069 -0.9653 -0.0906
  212MPD1    H3 3280   0.638   2.428  16.416 -2.5078 -1.1668  3.6820
  212MPD1     N 3281   0.753   2.008  16.561 -0.3789  0.1330  0.1106
  212MPD1    H5 3282   0.663   2.003  16.608 -0.2953 -1.9179  0.0403
  212MPD1    N1 3283   1.064   2.308  16.355  0.2935 -0.5552 -0.3927
  212MPD1    H6 3284   1.114   2.238  16.301  1.0477 -1.4483  1.4744
  212MPD1    H7 3285   1.074   2.401  16.315 -1.3106 -0.1601  0.1151
  213MPD1     C 3286   3.959   2.318  16.018 -0.3914  0.2327 -0.3840
  213MPD1    C1 3287   3.879   2.203  16.010 -0.7372 -0.8566 -0.0696
  213MPD1    C2 3288   3.837   2.178  15.883 -0.1291  0.2243  0.1745
  213MPD1    C3 3289   3.857   2.259  15.772 -0.6144 -0.1583 -0.2856
  213MPD1    C4 3290   3.921   2.388  15.791  0.9546 -0.3228  0.9301
  213MPD1    C5 3291   3.969   2.415  15.917 -0.3288  0.4482 -1.1982
  213MPD1     H 3292   3.796   2.079  15.865  1.6957 -0.4396 -0.2386
  213MPD1    H1 3293   3.934   2.469  15.719 -0.9494 -0.6077  0.2502
  213MPD1    H2 3294   4.015   2.345  16.107  1.8040 -1.7004 -1.1577
  213MPD1    H3 3295   4.013   2.512  15.935  0.4493 -0.1680  0.2304
  213MPD1     N 3296   3.790   2.221  15.651 -0.2462  0.4815  0.2390
  213MPD1    H5 3297   3.725   2.144  15.653  0.1691  0.1631  1.7323
  213MPD1    N1 3298   3.922   2.107  16.099  0.1864  0.1052  0.3642
  213MPD1    H6 3299   3.862   2.025  16.090  0.8844 -0.2124 -1.3342
  213MPD1    H7 3300   3.923   2.143  16.195 -0.6415 -1.1024  0.8243
  214MPD1     C 3301   3.014   1.833  15.661  0.0441 -0.7848 -0.6665
  214MPD1    C1 3302   3.029   1.842  15.521  0.4048 -0.2565 -0.3335
  214MPD1    C2 3303   3.141   1.915  15.472  0.3179 -0.0993 -0.3936
  214MPD1    C3 3304   3.220   1.995  15.557  0.0397  0.3551  0.1360
  214MPD1    C4 3305   3.189   1.998  15.693 -0.2020 -0.8685  0.3092
  214MPD1    C5 3306   3.094   1.908  15.739  0.0142  0.6926  0.7873
  214MPD1     H 3307   3.159   1.918  15.365  0.7484 -0.8639 -0.3419
  214MPD1    H1 3308   3.234   2.071  15.760 -1.3779 -0.1330  0.2814
  214MPD1    H2 3309   2.943   1.759  15.695  0.3904 -0.7486  0.1306
  214MPD1    H3 3310   3.099   1.891  15.846  0.3087 -2.1310  0.3247
  214MPD1     N 3311   3.328   2.079  15.517  0.3519  0.2372 -0.1073
  214MPD1    H5 3312   3.375   2.130  15.591 -0.9038 -0.4945  1.2057
  214MPD1    N1 3313   2.955   1.757  15.434  0.2411 -0.2588  0.3695
  214MPD1    H6 3314   2.922   1.811  15.355  0.4463  1.0962  1.1971
  214MPD1    H7 3315   2.868   1.737  15.484 -1.3795  0.8593 -1.9814
  215MPD1     C 3316   2.792   3.832  11.023  0.3104 -0.9724  0.0320
  215MPD1    C1 3317   2.785   3.887  11.153  0.2774 -0.0275  0.3217
  215MPD1    C2 3318   2.888   3.971  11.192  0.0797 -0.4137  0.2691
  215MPD1    C3 3319   2.995   3.998  11.112  0.0096  0.8331  0.0212
  215MPD1    C4 3320   3.001   3.938  10.985  0.0841 -0.6956 -0.9626
  215MPD1    C5 3321   2.894   3.867  10.942  0.3132 -0.1589  0.7482
  215MPD1     H 3322   2.888   4.006  11.295 -1.4854  2.0572 -0.5773
  215MPD1    H1 3323   3.092   3.941  10.927  0.5167  0.5380 -0.2233
  215MPD1    H2 3324   2.713   3.769  10.984 -0.7397 -0.1372  0.8010
  215MPD1    H3 3325   2.907   3.806  10.853  2.1082 -0.1609  1.0110
  215MPD1     N 3326   3.116   4.058  11.163 -0.0670  0.2261 -0.2866
  215MPD1    H5 3327   3.114   4.085  11.261  2.8983  1.5985 -0.6090
  215MPD1    N1 3328   2.678   3.854  11.237  0.4596  0.2504  0.1256
  215MPD1    H6 3329   2.592   3.843  11.184 -0.3582 -0.0379  1.5064
  215MPD1    H7 3330   2.671   3.899  11.328  2.2038 -0.0608  0.4160
  216MPD1     C 3331   1.174   1.896   0.069 -0.3253 -0.2297  0.1646
  216MPD1    C1 3332   1.164   1.779   0.128  0.3950 -0.1325 -0.2367
  216MPD1    C2 3333   1.088   1.674   0.077  0.0838 -0.0610  0.3066
  216MPD1    C3 3334   1.025   1.689  17.701  0.2234  0.2957  0.2440
  216MPD1    C4 3335   1.029   1.814  17.643 -0.3155  0.3817  0.5262
  216MPD1    C5 3336   1.094   1.917  17.705 -0.0986 -0.1547 -0.1032
  216MPD1     H 3337   1.079   1.579   0.128  1.5659 -0.8383 -0.8755
  216MPD1    H1 3338   0.992   1.840  17.544  2.0341  0.4682 -0.3410
  216MPD1    H2 3339   1.224   1.979   0.118 -0.3590 -0.3627  0.4228
  216MPD1    H3 3340   1.091   2.021  17.676 -3.7507 -0.0757  0.5990
  216MPD1     N 3341   0.960   1.575  17.642  0.5629 -0.1292 -0.8657
  216MPD1    H5 3342   0.937   1.505  17.711 -2.5729  0.6252 -1.1131
  216MPD1    N1 3343   1.245   1.749   0.239  0.0064  0.0494  0.2135
  216MPD1    H6 3344   1.259   1.837   0.288 -1.6603  0.4785 -0.0867
  216MPD1    H7 3345   1.201   1.687   0.307  0.0146  1.2394  1.2982
  217MPD1     C 3346   1.611   4.368   8.502  0.1274 -0.4674  0.0303
  217MPD1    C1 3347   1.533   4.261   8.477 -0.3087  0.4423  0.7338
  217MPD1    C2 3348   1.540   4.148   8.552  0.3141 -0.4270 -0.7668
  217MPD1    C3 3349   1.642   4.134   8.643  0.1587  0.1243  0.1047
  217MPD1    C4 3350   1.733   4.234   8.661 -0.1256  0.3234  0.0941
  217MPD1    C5 3351   1.710   4.347   8.594  0.5332 -0.5085 -0.3025
  217MPD1     H 3352   1.466   4.069   8.545 -0.0966  0.0573 -1.9398
  217MPD1    H1 3353   1.807   4.231   8.740  0.8078  2.5675 -0.7203
  217MPD1    H2 3354   1.592   4.470   8.470  0.4281 -0.2619  0.4978
  217MPD1    H3 3355   1.773   4.430   8.625 -2.2176 -0.1439  4.2308
  217MPD1     N 3356   1.665   4.016   8.718 -0.1484  0.4482 -0.1448
  217MPD1    H5 3357   1.747   4.012   8.778  0.3534 -0.3117 -0.8762
  217MPD1    N1 3358   1.419   4.279   8.398  0.7794 -0.6848  0.0175
  217MPD1    H6 3359   1.429   4.342   8.318 -0.9779 -0.5396 -0.0957
  217MPD1    H7 3360   1.382   4.197   8.350  3.0185 -1.3771 -0.5405
  218MPD1     C 3361   3.159   4.725  13.112 -0.3116 -0.1683 -0.1171
  218MPD1    C1 3362   3.080   4.614  13.093  0.1454  0.1284 -0.8987
  218MPD1    C2 3363   3.120   4.532  12.983 -0.5553 -0.9237 -0.0227
  218MPD1    C3 3364   3.245   4.544  12.927 -0.3063  0.9197  0.2564
  218MPD1    C4 3365   3.323   4.647  12.967 -0.6878  0.0611 -0.4303
  218MPD1    C5 3366   3.271   0.006  13.037 -0.0544  0.1149  0.5348
  218MPD1     H 3367   3.058   4.450  12.949 -0.2835 -0.5844 -1.3346
  218MPD1    H1 3368   3.420   4.666  12.922 -0.3417 -0.4396  0.1052
  218MPD1    H2 3369   3.142   0.074  13.176  2.0264 -0.1004  0.4253
  218MPD1    H3 3370   3.327   0.099  13.045 -0.5183  0.2528  2.1093
  218MPD1     N 3371   3.284   4.447  12.826 -0.4111 -0.2192  0.0766
  218MPD1    H5 3372   3.220   4.371  12.806  1.3320 -1.6839  0.0519
  218MPD1    N1 3373   2.946   4.611  13.133  0.5058  1.0986  0.0295
  218MPD1    H6 3374   2.890   4.527  13.125  0.4579  0.9773  1.6237
  218MPD1    H7 3375   2.932   4.667  13.217  0.2759  0.7180  0.2438
  219MPD1     C 3376   3.993   4.423  12.087 -0.3174  0.8986 -0.4998
  219MPD1    C1 3377   3.997   4.309  12.167  0.2136  0.1178 -0.0681
  219MPD1    C2 3378   3.884   4.280  12.248  0.4735  0.1757  0.0698
  219MPD1    C3 3379   3.779   4.368  12.257 -0.5109  0.3567  0.0561
  219MPD1    C4 3380   3.778   4.485  12.175  0.7082  0.0927  0.2172
  219MPD1    C5 3381   3.880   4.503  12.088  0.5989  0.2977 -0.3158
  219MPD1     H 3382   3.882   4.189  12.306  0.3988 -0.2219 -0.5644
  219MPD1    H1 3383   3.689   4.547  12.170  0.7797  0.3064  1.5756
  219MPD1    H2 3384   4.067   4.442  12.009 -0.1400  1.3641 -0.2196
  219MPD1    H3 3385   3.866   4.590  12.025  0.9563  1.1835  0.8217
  219MPD1     N 3386   3.666   4.343  12.341  0.1010 -0.7293 -0.5368
  219MPD1    H5 3387   3.582   4.400  12.340  1.6165  1.5168  0.6177
  219MPD1    N1 3388   4.090   4.207  12.146  0.2311  0.9182  0.6858
  219MPD1    H6 3389   4.182   4.237  12.116 -0.0385  0.6441 -0.4258
  219MPD1    H7 3390   4.101   4.148  12.229 -1.5679  0.2762  0.4659
  220MPD1     C 3391   4.207   0.354   9.810  0.5457 -0.2279 -0.5124
  220MPD1    C1 3392   4.223   0.241   9.878 -0.2700  0.0973  0.2638
  220MPD1    C2 3393   4.123   0.186   9.948 -0.2371 -0.2464  0.6804
  220MPD1    C3 3394   4.005   0.255   9.978 -0.0112 -0.2400  0.1797
  220MPD1    C4 3395   3.998   0.387   9.927 -0.2724 -0.3070  0.2800
  220MPD1    C5 3396   4.091   0.430   9.832 -0.3165  0.6231 -0.1355
  220MPD1     H 3397   4.137   0.080   9.967 -1.5914 -0.4764  0.4057
  220MPD1    H1 3398   3.915   0.454   9.946 -1.6124 -1.7057 -0.5871
  220MPD1    H2 3399   4.271   0.392   9.731  0.4850 -0.0419 -0.4737
  220MPD1    H3 3400   4.078   0.525   9.780  2.1631  1.1672  0.2324
  220MPD1     N 3401   3.902   0.191  10.054 -0.0792 -0.8154 -0.3613
  220MPD1    H5 3402   3.919   0.094  10.076  2.0094 -0.2551  0.5342
  220MPD1    N1 3403   4.335   0.165   9.845  0.4801  0.0046 -0.4159
  220MPD1    H6 3404   4.370   0.102   9.917 -0.7946 -1.2576 -0.8993
  220MPD1    H7 3405   4.416   0.218   9.814 -1.5207  1.8121 -2.6368
  221MPD1     C 3406   0.890   3.487  16.828 -0.8598 -0.1259  0.6567
  221MPD1    C1 3407   0.948   3.605  16.786  0.0677 -0.2886  0.4931
  221MPD1    C2 3408   1.071   3.591  16.722 -0.0168 -0.4181  0.2006
  221MPD1    C3 3409   1.130   3.467  16.699 -0.5430  0.2038 -0.1817
  221MPD1    C4 3410   1.076   3.357  16.761  0.8828 -0.1145  0.3017
  221MPD1    C5 3411   0.958   3.363  16.830 -0.0430 -0.0602 -0.5166
  221MPD1     H 3412   1.115   3.677  16.674  0.3517  0.4038  2.0295
  221MPD1    H1 3413   1.126   3.260  16.762  2.3304  0.6346  1.1631
  221MPD1    H2 3414   0.791   3.493  16.872  0.3210  1.1140  3.1040
  221MPD1    H3 3415   0.902   3.277  16.865  0.7098  0.3233  1.6292
  221MPD1     N 3416   1.257   3.448  16.638 -0.9275 -0.3599 -0.0100
  221MPD1    H5 3417   1.278   3.352  16.613 -1.2793 -0.2256 -0.7938
  221MPD1    N1 3418   0.872   3.724  16.769 -0.4147  0.3534 -0.3154
  221MPD1    H6 3419   0.937   3.802  16.765  0.4005 -0.2694  0.8475
  221MPD1    H7 3420   0.788   3.730  16.826 -1.0112  0.0797 -1.1493
  222MPD1     C 3421   1.146   2.180  16.738 -0.3135  0.0455  0.1401
  222MPD1    C1 3422   1.045   2.262  16.781  0.3859 -0.2038  0.0139
  222MPD1    C2 3423   1.015   2.262  16.914  0.2270  0.1464  0.7469
  222MPD1    C3 3424   1.088   2.183  17.005  0.1705 -0.0111  0.0381
  222MPD1    C4 3425   1.189   2.101  16.959 -0.2128 -0.4014 -0.7962
  222MPD1    C5 3426   1.212   2.103  16.822 -0.2272  0.3548  0.2318
  222MPD1     H 3427   0.938   2.336  16.933  0.0533  0.1341  0.1026
  222MPD1    H1 3428   1.225   2.018  17.018  0.7800  0.6209  0.0311
  222MPD1    H2 3429   1.175   2.165  16.635 -1.0353  2.5214 -0.4274
  222MPD1    H3 3430   1.287   2.036  16.781  2.0315  4.1521 -1.8022
  222MPD1     N 3431   1.059   2.167  17.138 -0.1710 -0.0031 -0.1282
  222MPD1    H5 3432   1.108   2.093  17.187 -0.1960 -0.7883 -1.2962
  222MPD1    N1 3433   0.989   2.362  16.699  0.5688  0.5989 -0.1656
  222MPD1    H6 3434   0.984   2.328  16.604  0.2148  0.1603  0.0131
  222MPD1    H7 3435   0.894   2.376  16.732  0.9080 -0.7838  1.3945
  223MPD1     C 3436   0.129   2.112  17.475  0.1907  0.2920  1.1044
  223MPD1    C1 3437   0.185   2.136  17.353 -0.2714  0.3800 -0.0513
  223MPD1    C2 3438   0.325   2.144  17.350 -0.1333 -0.0509  0.6737
  223MPD1    C3 3439   0.399   2.115  17.460 -0.2644  0.0828  0.1383
  223MPD1    C4 3440   0.336   2.081  17.585  0.1956 -0.5807  0.1918
  223MPD1    C5 3441   0.202   2.077  17.583 -1.0538 -0.1493  0.1814
  223MPD1     H 3442   0.368   2.173  17.255 -0.1866 -2.2547 -0.0412
  223MPD1    H1 3443   0.386   2.035  17.670 -0.8797 -0.4598  0.8873
  223MPD1    H2 3444   0.021   2.106  17.470  0.3096 -0.0739 -1.1018
  223MPD1    H3 3445   0.146   2.036  17.666 -1.1696  2.0310  1.1900
  223MPD1     N 3446   0.542   2.133  17.447  0.1912  0.3025 -0.1645
  223MPD1    H5 3447   0.577   2.175  17.361  0.1744 -1.1540 -0.8747
  223MPD1    N1 3448   0.113   2.185  17.251  0.2336 -0.1238 -0.4361
  223MPD1    H6 3449   0.157   2.142  17.170 -1.0360 -2.6424  0.2093
  223MPD1    H7 3450   0.016   2.155  17.247 -0.4271  2.0285 -0.9082
  224MPD1     C 3451   2.014   4.610   9.172  0.2392  0.8436 -0.2535
  224MPD1    C1 3452   2.045   4.480   9.135  0.3373  0.3294 -0.0262
  224MPD1    C2 3453   2.034   4.380   9.232 -0.3739  0.0986  0.1580
  224MPD1    C3 3454   2.024   4.416   9.366  0.3456 -0.6806 -0.8566
  224MPD1    C4 3455   1.999   4.550   9.403 -0.0559 -0.2654 -0.1338
  224MPD1    C5 3456   1.997   4.651   9.305 -0.3303  0.4866 -1.3665
  224MPD1     H 3457   2.073   4.285   9.199  1.5588  1.0483 -0.2975
  224MPD1    H1 3458   1.991   4.580   9.507  0.2323  0.9499 -0.4608
  224MPD1    H2 3459   1.998   4.681   9.092  2.4325  0.8313 -0.6943
  224MPD1    H3 3460   1.990   0.020   9.331 -0.0111  0.2060 -0.1414
  224MPD1     N 3461   2.035   4.325   9.473  0.4648  0.6935  0.0389
  224MPD1    H5 3462   2.026   4.369   9.564 -0.4778 -0.9779  0.7431
  224MPD1    N1 3463   2.059   4.447   8.999 -0.2698  0.1151  0.8657
  224MPD1    H6 3464   2.104   4.521   8.945  0.1501 -1.3687 -0.8251
  224MPD1    H7 3465   2.112   4.362   8.980  2.9795  2.2606  0.3150
  225MPD1     C 3466   3.953   0.114  12.504 -0.0621 -0.8282 -1.2331
  225MPD1    C1 3467   3.868   0.071  12.401  0.5260  0.3348  0.7162
  225MPD1    C2 3468   3.733   0.046  12.446  0.0574 -0.1288 -0.0002
  225MPD1    C3 3469   3.691   0.055  12.578  0.0606  0.3977 -0.1385
  225MPD1    C4 3470   3.781   0.087  12.675 -0.1034  0.3387  0.5155
  225MPD1    C5 3471   3.912   0.117  12.636 -0.0044 -0.5942 -0.0933
  225MPD1     H 3472   3.664   0.003  12.374 -0.6783 -1.9806  1.7816
  225MPD1    H1 3473   3.769   0.086  12.783  1.5231  0.6662  0.7051
  225MPD1    H2 3474   4.055   0.146  12.488  0.4302 -2.1311 -0.7680
  225MPD1    H3 3475   3.986   0.139  12.712 -0.4128  0.4374  0.0116
  225MPD1     N 3476   3.558   0.035  12.617  0.0561  0.1705  0.0591
  225MPD1    H5 3477   3.535   0.059  12.713  1.0579 -1.2442  0.6501
  225MPD1    N1 3478   3.899   0.064  12.266  0.5644  0.3224  0.1008
  225MPD1    H6 3479   3.861   4.718  12.220 -1.7982 -0.1018  2.8242
  225MPD1    H7 3480   4.000   0.067  12.254  0.2906  1.3446 -2.1284
  226MPD1     C 3481   2.273   1.104  10.723 -0.1284 -0.1564 -0.3719
  226MPD1    C1 3482   2.296   0.979  10.772 -0.0386 -0.7848 -0.1284
  226MPD1    C2 3483   2.302   0.882  10.681 -0.6906  0.9751  0.3336
  226MPD1    C3 3484   2.315   0.900  10.545 -0.0719  0.5429  0.2076
  226MPD1    C4 3485   2.296   1.024  10.497 -0.1790  0.2194  0.1627
  226MPD1    C5 3486   2.266   1.125  10.587 -0.4287  0.2416 -0.5745
  226MPD1     H 3487   2.306   0.780  10.718 -1.1674  0.3698 -1.2750
  226MPD1    H1 3488   2.301   1.043  10.390 -2.4021 -0.7962 -0.1055
  226MPD1    H2 3489   2.256   1.176  10.803  1.7164  0.9501 -0.9718
  226MPD1    H3 3490   2.244   1.222  10.544 -0.0158  0.7445  0.3581
  226MPD1     N 3491   2.328   0.785  10.464  0.0919 -0.3350 -0.0070
  226MPD1    H5 3492   2.343   0.702  10.521  2.4146 -0.6917 -1.1323
  226MPD1    N1 3493   2.284   0.948  10.906 -0.1903 -0.1733 -0.1659
  226MPD1    H6 3494   2.345   0.873  10.936  2.4570  2.2336  0.5067
  226MPD1    H7 3495   2.294   1.030  10.965  1.5971 -1.1019  0.8200
  227MPD1     C 3496   1.902   0.106  10.667  0.0107  0.1737  0.8790
  227MPD1    C1 3497   1.968   0.214  10.723  0.3617 -0.0473 -0.0514
  227MPD1    C2 3498   2.054   0.287  10.654 -0.0599  0.3804  0.4501
  227MPD1    C3 3499   2.101   0.249  10.526 -0.4268  0.3286 -0.2164
  227MPD1    C4 3500   2.061   0.126  10.483 -0.2460  0.0120  0.6330
  227MPD1    C5 3501   1.948   0.063  10.547  0.0997 -0.3930 -0.2579
  227MPD1     H 3502   2.088   0.383  10.692 -0.4917  0.7444 -0.0932
  227MPD1    H1 3503   2.090   0.083  10.388  2.8256  0.4608  1.3643
  227MPD1    H2 3504   1.832   0.039  10.716 -0.7663 -0.7080 -1.4528
  227MPD1    H3 3505   1.914   4.704  10.510  0.0017 -0.8275  0.9822
  227MPD1     N 3506   2.192   0.326  10.450 -0.0016 -0.1640 -0.1950
  227MPD1    H5 3507   2.229   0.406  10.500 -0.3096  0.5553 -1.1150
  227MPD1    N1 3508   1.910   0.262  10.839 -0.0412  0.5683 -0.1895
  227MPD1    H6 3509   1.983   0.295  10.902  0.2591 -0.5651  0.0552
  227MPD1    H7 3510   1.864   0.183  10.884 -0.5775  1.1600  0.3044
  228MPD1     C 3511   0.171   2.733  13.254  0.2495  0.9536 -0.5389
  228MPD1    C1 3512   0.092   2.661  13.343  0.0610  0.3075  0.1547
  228MPD1    C2 3513   0.002   2.578  13.281 -0.5348 -0.4058  0.1247
  228MPD1    C3 3514   4.718   2.563  13.143  0.1382  0.4331 -0.8113
  228MPD1    C4 3515   0.071   2.621  13.061 -0.1815 -0.1654 -1.0697
  228MPD1    C5 3516   0.167   2.701  13.121 -0.3097  0.4537 -0.1478
  228MPD1     H 3517   4.671   2.525  13.347  1.8868 -1.7959  1.4868
  228MPD1    H1 3518   0.067   2.619  12.952  4.0831 -1.6146 -1.2067
  228MPD1    H2 3519   0.237   2.811  13.290  0.9558  0.0782  0.0651
  228MPD1    H3 3520   0.235   2.759  13.059 -1.1019  0.8385 -0.6618
  228MPD1     N 3521   4.603   2.494  13.101  0.3507 -0.0886  0.0026
  228MPD1    H5 3522   4.548   2.463  13.180 -1.7928 -0.1565 -1.5371
  228MPD1    N1 3523   0.088   2.689  13.478 -0.1734  0.0849  0.2562
  228MPD1    H6 3524   0.178   2.710  13.520  0.2552  0.3139 -0.7692
  228MPD1    H7 3525   0.059   2.616  13.542 -0.0712 -1.4220 -1.4269
  229MPD1     C 3526   4.366   1.123  14.835 -0.1900 -0.3492  0.5875
  229MPD1    C1 3527   4.384   1.193  14.951  0.7496 -0.4880  0.1956
  229MPD1    C2 3528   4.458   1.138  15.056 -0.4700 -0.9319 -0.3939
  229MPD1    C3 3529   4.528   1.019  15.038 -0.7094 -0.5207  0.0972
  229MPD1    C4 3530   4.519   0.963  14.911 -0.2784 -0.1366 -0.8709
  229MPD1    C5 3531   4.434   1.004  14.820  0.5008 -0.6464 -0.9753
  229MPD1     H 3532   4.461   1.191  15.151 -1.7257  0.0734 -0.9110
  229MPD1    H1 3533   4.573   0.870  14.909 -0.8777 -0.5331  1.6818
  229MPD1    H2 3534   4.305   1.158  14.753 -0.7738 -0.6250  0.9018
  229MPD1    H3 3535   4.434   0.951  14.725  3.2545  0.0556 -1.3599
  229MPD1     N 3536   4.604   0.959  15.138  0.4597 -0.0269  0.0045
  229MPD1    H5 3537   4.665   0.881  15.115 -0.6136 -0.4279 -1.4857
  229MPD1    N1 3538   4.299   1.297  14.983 -0.3055  0.1263  0.1063
  229MPD1    H6 3539   4.347   1.365  15.041  1.0402 -0.5926 -0.1590
  229MPD1    H7 3540   4.268   1.348  14.900  1.5456  0.4318 -0.4085
  230MPD1     C 3541   0.322   1.174  16.022  0.4863 -0.0423 -0.1198
  230MPD1    C1 3542   0.192   1.124  16.014 -0.0998 -0.6954 -0.0251
  230MPD1    C2 3543   0.140   1.061  15.900  0.3180  0.0237  0.4634
  230MPD1    C3 3544   0.213   1.063  15.783 -0.3968 -0.2505 -0.9237
  230MPD1    C4 3545   0.338   1.119  15.789  0.2987  0.0380 -0.1963
  230MPD1    C5 3546   0.393   1.179  15.905  0.6794  0.0437  1.4163
  230MPD1     H 3547   0.042   1.015  15.894 -0.2394  1.0081  1.9141
  230MPD1    H1 3548   0.399   1.129  15.700 -0.8298 -1.3681 -1.1367
  230MPD1    H2 3549   0.368   1.221  16.108  3.9739 -1.3622 -1.2365
  230MPD1    H3 3550   0.489   1.229  15.900  0.5376  0.5598  3.6314
  230MPD1     N 3551   0.158   0.998  15.664 -0.1176  0.1618  0.2453
  230MPD1    H5 3552   0.073   0.942  15.672 -1.1593  2.1527  3.0050
  230MPD1    N1 3553   0.132   1.097  16.140 -0.0795 -0.2519  0.2539
  230MPD1    H6 3554   0.033   1.091  16.120 -0.3868  0.6421  1.5673
  230MPD1    H7 3555   0.158   1.176  16.198 -0.2038 -1.1861  1.5727
  231MPD1     C 3556   2.866   2.422  16.156 -0.2157  0.5051 -0.0911
  231MPD1    C1 3557   2.774   2.367  16.065 -0.2253 -0.4415  0.5212
  231MPD1    C2 3558   2.775   2.414  15.939 -0.0488 -0.1634 -0.0582
  231MPD1    C3 3559   2.853   2.529  15.907 -0.2434 -0.4659 -0.5666
  231MPD1    C4 3560   2.933   2.578  16.006 -0.7745 -0.4603 -0.2295
  231MPD1    C5 3561   2.930   2.538  16.136 -0.2602  0.1178 -0.8982
  231MPD1     H 3562   2.730   2.349  15.865  1.2460 -0.4891 -0.5595
  231MPD1    H1 3563   3.005   2.657  15.991 -0.8691 -0.6906 -1.8852
  231MPD1    H2 3564   2.883   2.386  16.257  2.4904  1.6689 -0.1543
  231MPD1    H3 3565   3.000   2.575  16.209  0.4202  0.5941 -1.7927
  231MPD1     N 3566   2.856   2.565  15.771 -0.0048  0.1924 -0.0904
  231MPD1    H5 3567   2.788   2.519  15.711  0.8129 -0.2592 -0.6783
  231MPD1    N1 3568   2.718   2.244  16.098  0.3899 -0.4410 -0.5186
  231MPD1    H6 3569   2.690   2.244  16.196 -1.6734 -0.3933 -1.1133
  231MPD1    H7 3570   2.638   2.222  16.040 -0.7810  0.9472  0.5875
  232MPD1     C 3571   4.213   4.062   0.734  0.1540 -0.2933 -0.5925
  232MPD1    C1 3572   4.181   4.178   0.806  0.0518 -0.5570 -0.5165
  232MPD1    C2 3573   4.162   4.289   0.729 -0.3970 -0.1594  0.7047
  232MPD1    C3 3574   4.139   4.287   0.592  0.5624  0.2982 -0.2141
  232MPD1    C4 3575   4.158   4.168   0.527 -0.0745 -0.1677  0.0979
  232MPD1    C5 3576   4.192   4.056   0.601 -0.6515  0.5301  0.2520
  232MPD1     H 3577   4.164   4.383   0.782 -0.9914 -0.0129  0.4688
  232MPD1    H1 3578   4.136   4.157   0.422  1.7077  2.4632 -0.5613
  232MPD1    H2 3579   4.247   3.970   0.780  1.0256  0.8291  1.0082
  232MPD1    H3 3580   4.217   3.962   0.554 -1.0747 -0.0610  1.2047
  232MPD1     N 3581   4.117   4.408   0.521 -0.4117  0.2497  0.1515
  232MPD1    H5 3582   4.113   4.483   0.589  1.0527  1.1468 -0.7433
  232MPD1    N1 3583   4.217   4.187   0.942 -0.2354 -0.0668  0.0826
  232MPD1    H6 3584   4.142   4.237   0.990 -0.7352  0.6287 -1.4525
  232MPD1    H7 3585   4.216   4.093   0.982  1.4343 -0.2069 -0.2196
  233MPD1     C 3586   1.055   4.550  17.508 -0.3489  0.6883  0.7800
  233MPD1    C1 3587   1.030   4.430  17.443  0.4944 -0.9824  0.1090
  233MPD1    C2 3588   1.095   4.311  17.474  0.2983  0.2345 -0.1373
  233MPD1    C3 3589   1.199   4.318  17.571  0.1744  0.4504 -0.5238
  233MPD1    C4 3590   1.222   4.443  17.637 -0.0659  0.0195 -0.1334
  233MPD1    C5 3591   1.152   4.552  17.604 -0.2071  0.0111  0.3894
  233MPD1     H 3592   1.082   4.216  17.423 -1.2106 -0.0713  0.7901
  233MPD1    H1 3593   1.287   4.449  17.724 -0.1463  0.0011 -0.0717
  233MPD1    H2 3594   1.010   4.644  17.480  0.8383  0.9206 -0.3434
  233MPD1    H3 3595   1.171   4.639  17.666  0.8579  0.1527 -0.1271
  233MPD1     N 3596   1.281   4.213  17.608 -0.0633  0.1638  0.0494
  233MPD1    H5 3597   1.357   4.231  17.673 -1.1678 -0.9151  1.6574
  233MPD1    N1 3598   0.949   4.432  17.331  0.1574 -0.0887  0.6464
  233MPD1    H6 3599   0.868   4.493  17.332  0.1368 -0.1374  1.5071
  233MPD1    H7 3600   0.914   4.342  17.299 -0.9714  1.2313 -1.8427
  234MPD1     C 3601   2.435   2.354   9.361 -0.1302  0.1817  0.6634
  234MPD1    C1 3602   2.552   2.428   9.390  0.3314 -0.7043  0.7010
  234MPD1    C2 3603   2.539   2.561   9.363  0.8230  0.8334 -0.3380
  234MPD1    C3 3604   2.433   2.612   9.284 -0.0504 -0.2155 -0.2679
  234MPD1    C4 3605   2.322   2.534   9.247  0.5062 -0.6695  0.1337
  234MPD1    C5 3606   2.327   2.403   9.288  0.3844 -0.5942  0.2076
  234MPD1     H 3607   2.618   2.626   9.399  1.9152 -2.2930  3.0250
  234MPD1    H1 3608   2.229   2.572   9.206  0.6062 -0.5722 -0.0050
  234MPD1    H2 3609   2.437   2.250   9.390  0.9498 -0.0863 -0.3142
  234MPD1    H3 3610   2.245   2.335   9.266  0.8296 -1.6925  1.9363
  234MPD1     N 3611   2.448   2.750   9.243 -0.2292  0.8168 -0.7559
  234MPD1    H5 3612   2.534   2.796   9.270  0.0854 -0.8872  1.1474
  234MPD1    N1 3613   2.658   2.382   9.476  0.7095 -0.0960  0.5878
  234MPD1    H6 3614   2.678   2.283   9.466  1.5140  0.2208 -1.0044
  234MPD1    H7 3615   2.745   2.430   9.453  0.3522 -0.2171 -1.0532
  235MPD1     C 3616   4.122   4.593  11.203 -0.0896  0.6986  0.8124
  235MPD1    C1 3617   4.241   4.631  11.145 -0.0620 -0.1020 -0.8774
  235MPD1    C2 3618   4.237   4.712  11.037  0.5159  0.0881 -0.0999
  235MPD1    C3 3619   4.114   4.735  10.983 -0.0610 -0.6514  0.5310
  235MPD1    C4 3620   3.993   4.689  11.033  0.0776 -0.1398 -0.4032
  235MPD1    C5 3621   3.999   4.622  11.147 -0.7015 -0.1462  0.2554
  235MPD1     H 3622   4.324   0.025  10.996 -0.1355  1.1517 -0.1901
  235MPD1    H1 3623   3.903   4.684  10.973  1.6501 -1.7378 -2.6317
  235MPD1    H2 3624   4.111   4.537  11.296  4.7008 -2.5020 -0.5672
  235MPD1    H3 3625   3.905   4.574  11.175 -1.1019  0.5671  0.1225
  235MPD1     N 3626   4.112   0.059  10.859 -0.5226 -0.4671 -0.3357
  235MPD1    H5 3627   4.202   0.070  10.814 -0.8492 -0.3738 -0.9663
  235MPD1    N1 3628   4.358   4.620  11.215 -0.3678  0.0283 -0.6088
  235MPD1    H6 3629   4.357   4.555  11.293 -1.3940 -0.6151 -1.1571
  235MPD1    H7 3630   4.442   4.614  11.157  0.5801 -0.7162  0.8473
  236MPD1     C 3631   2.835   1.317  10.257  0.0266  0.8288  0.5608
  236MPD1    C1 3632   2.848   1.268  10.385  0.2475 -0.1739  0.0200
  236MPD1    C2 3633   2.976   1.257  10.443 -0.4936 -0.0687 -0.6531
  236MPD1    C3 3634   3.087   1.315  10.377  0.5314 -0.0164  0.3028
  236MPD1    C4 3635   3.068   1.372  10.256 -0.3497  0.3930 -0.7161
  236MPD1    C5 3636   2.945   1.369  10.191 -0.0463 -0.6542 -0.3434
  236MPD1     H 3637   2.989   1.209  10.539  0.4725  0.8588 -0.3250
  236MPD1    H1 3638   3.150   1.421  10.204  0.9903 -0.8741  0.2191
  236MPD1    H2 3639   2.735   1.329  10.216 -0.6008 -3.1795  0.9393
  236MPD1    H3 3640   2.943   1.410  10.091  3.4221  0.5419  0.0903
  236MPD1     N 3641   3.227   1.309  10.423  0.1747  0.3172 -0.2670
  236MPD1    H5 3642   3.302   1.348  10.367 -1.0313  0.2312 -1.9586
  236MPD1    N1 3643   2.738   1.211  10.438 -0.0117 -0.3828  0.0737
  236MPD1    H6 3644   2.742   1.221  10.540 -0.5991 -0.8264  0.1352
  236MPD1    H7 3645   2.654   1.252  10.398 -0.9243 -2.2108  0.1614
  237MPD1     C 3646   3.505   3.962  15.140  0.2719 -0.1444 -0.4474
  237MPD1    C1 3647   3.407   3.970  15.240  0.5519 -0.2525 -0.1547
  237MPD1    C2 3648   3.278   3.943  15.213  0.2918  0.2912  0.6878
  237MPD1    C3 3649   3.228   3.934  15.081  0.0997  0.2468 -0.4493
  237MPD1    C4 3650   3.323   3.922  14.981  0.8748 -0.5877 -0.5806
  237MPD1    C5 3651   3.458   3.934  15.004  0.5397  0.0394  0.3674
  237MPD1     H 3652   3.213   3.934  15.298 -0.5584 -3.0203 -0.3416
  237MPD1    H1 3653   3.294   3.897  14.879 -0.5957  2.1175 -0.8149
  237MPD1    H2 3654   3.612   3.959  15.159  0.1293 -0.1617  0.3382
  237MPD1    H3 3655   3.537   3.920  14.931 -2.0064  3.3962 -3.0069
  237MPD1     N 3656   3.094   3.943  15.043 -0.2776  0.0214 -0.2274
  237MPD1    H5 3657   3.072   3.931  14.944 -2.3118 -3.0939  0.6124
  237MPD1    N1 3658   3.457   3.962  15.372 -0.7595  0.7352  1.3093
  237MPD1    H6 3659   3.534   4.028  15.375 -1.1399  1.2125  0.4252
  237MPD1    H7 3660   3.395   3.984  15.450 -0.3763  2.5904  1.0888
  238MPD1     C 3661   0.870   2.603  14.876 -0.4620  0.1479  0.3189
  238MPD1    C1 3662   0.825   2.690  14.781 -0.3050 -0.1939  0.2496
  238MPD1    C2 3663   0.687   2.719  14.778  0.7558  0.6764  0.3046
  238MPD1    C3 3664   0.598   2.660  14.869  0.3522  0.3309 -0.0242
  238MPD1    C4 3665   0.648   2.579  14.970  0.1123  0.0382 -1.2518
  238MPD1    C5 3666   0.784   2.549  14.974  0.1838  0.3738  0.0242
  238MPD1     H 3667   0.631   2.775  14.703 -0.6464  1.0214  1.6142
  238MPD1    H1 3668   0.587   2.542  15.051 -0.4587 -1.3436 -2.3130
  238MPD1    H2 3669   0.976   2.582  14.868 -0.4348  0.1113  0.7883
  238MPD1    H3 3670   0.822   2.482  15.051  0.9732  0.0729 -0.6292
  238MPD1     N 3671   0.458   2.683  14.867  0.3909 -0.3935 -0.1054
  238MPD1    H5 3672   0.400   2.626  14.928 -0.5143  0.8437  0.2164
  238MPD1    N1 3673   0.910   2.731  14.675 -0.0678 -0.1538 -0.3475
  238MPD1    H6 3674   1.009   2.709  14.686  0.5099  2.6189 -0.1055
  238MPD1    H7 3675   0.892   2.827  14.646  1.9657  0.2158 -0.3508
  239MPD1     C 3676   0.480   3.266  14.455  0.6410 -0.0371  0.2536
  239MPD1    C1 3677   0.345   3.256  14.476  0.3501  0.2853 -0.6989
  239MPD1    C2 3678   0.268   3.353  14.414  1.1244 -0.0589  0.2256
  239MPD1    C3 3679   0.327   3.461  14.350 -0.2852 -0.1312  0.7837
  239MPD1    C4 3680   0.465   3.468  14.336 -0.2679  0.2708  0.2724
  239MPD1    C5 3681   0.546   3.367  14.385 -0.1679 -0.1585  0.5738
  239MPD1     H 3682   0.159   3.346  14.418  1.3016 -0.8693  3.4936
  239MPD1    H1 3683   0.510   3.557  14.293  0.4433 -0.1120  0.2288
  239MPD1    H2 3684   0.550   3.187  14.482 -0.6108 -1.2895 -0.1848
  239MPD1    H3 3685   0.654   3.359  14.374 -0.2468  0.8739 -0.8992
  239MPD1     N 3686   0.250   3.562  14.279 -0.2769  0.2218  0.5037
  239MPD1    H5 3687   0.292   3.624  14.210  0.1479 -1.6669 -0.9511
  239MPD1    N1 3688   0.281   3.139  14.527  0.0855 -0.3556  0.2646
  239MPD1    H6 3689   0.328   3.079  14.595 -1.1452 -0.7168  0.8106
  239MPD1    H7 3690   0.190   3.163  14.567 -0.0075 -1.0324  0.4659
  240MPD1     C 3691   0.118   3.434  13.826  0.2921 -0.0683 -0.1411
  240MPD1    C1 3692   0.179   3.373  13.936  0.7865  0.3062 -0.3612
  240MPD1    C2 3693   0.103   3.356  14.053  0.3397 -0.2941  0.0030
  240MPD1    C3 3694   4.703   3.375  14.049  0.3301  0.3662  0.3635
  240MPD1    C4 3695   4.641   3.435  13.943 -0.2158  0.1404  0.6583
  240MPD1    C5 3696   4.717   3.449  13.831  0.1949  0.2154  0.1020
  240MPD1     H 3697   0.142   3.313  14.144 -1.9028 -0.7885  0.7459
  240MPD1    H1 3698   4.535   3.457  13.945 -0.3889 -0.5338 -0.6687
  240MPD1    H2 3699   0.176   3.469  13.742 -0.6638  0.6183 -0.5083
  240MPD1    H3 3700   4.683   3.512  13.749  0.4053 -0.5363 -0.5562
  240MPD1     N 3701   4.637   3.336  14.169 -0.3570 -0.2669  0.8874
  240MPD1    H5 3702   4.694   3.297  14.243 -0.6763  1.2539  1.9213
  240MPD1    N1 3703   0.319   3.365  13.940  0.2824  0.2758  0.2613
  240MPD1    H6 3704   0.356   3.301  14.011 -1.1894 -2.5970 -1.5587
  240MPD1    H7 3705   0.359   3.348  13.848 -0.2605  2.9102 -0.4580
  241MPD1     C 3706   0.035   3.025  15.077  0.1775 -0.1088 -0.1908
  241MPD1    C1 3707   0.114   3.069  14.971  1.2609 -0.1044  0.1316
  241MPD1    C2 3708   0.054   3.090  14.849 -0.5022  0.3851  0.2501
  241MPD1    C3 3709   4.652   3.080  14.850  0.1217 -0.7713 -0.1585
  241MPD1    C4 3710   4.575   3.044  14.953  0.2327  0.1907  0.2509
  241MPD1    C5 3711   4.639   3.009  15.070 -0.8754  0.1115  0.3957
  241MPD1     H 3712   0.115   3.118  14.764 -3.9733  1.8891 -1.7485
  241MPD1    H1 3713   4.468   3.058  14.945  0.1198 -0.1750  1.1637
  241MPD1    H2 3714   0.085   2.987  15.165  0.5259  0.1218 -0.2929
  241MPD1    H3 3715   4.576   2.977  15.152  1.6356 -0.5790  2.0547
  241MPD1     N 3716   4.577   3.116  14.735 -0.2908 -0.0067  0.5625
  241MPD1    H5 3717   4.477   3.127  14.746 -0.5197 -1.1928 -0.3883
  241MPD1    N1 3718   0.254   3.075  14.986 -0.6123  0.4187  0.4652
  241MPD1    H6 3719   0.302   3.148  14.933 -0.8695  0.2373 -0.0214
  241MPD1    H7 3720   0.272   3.082  15.086 -1.6532  0.7058  0.6272
  242MPD1     C 3721   4.420   1.899  16.354 -0.2783 -0.5509 -0.1114
  242MPD1    C1 3722   4.375   1.781  16.320  0.0170  0.3809 -0.3131
  242MPD1    C2 3723   4.426   1.728  16.200  0.2514 -0.3615 -0.4226
  242MPD1    C3 3724   4.497   1.806  16.106  0.3411 -0.0229  0.4787
  242MPD1    C4 3725   4.534   1.933  16.141  0.8226  0.2697 -0.2573
  242MPD1    C5 3726   4.494   1.976  16.265 -0.1191 -0.8968  0.4429
  242MPD1     H 3727   4.382   1.633  16.172  1.5289 -1.4435  1.3270
  242MPD1    H1 3728   4.591   1.993  16.070  1.8817  1.1262  1.3148
  242MPD1    H2 3729   4.412   1.925  16.459  1.3572  0.5080 -0.2545
  242MPD1    H3 3730   4.541   2.070  16.291 -0.9061 -0.7951  1.5401
  242MPD1     N 3731   4.526   1.767  15.974 -0.7821 -0.4932 -0.2773
  242MPD1    H5 3732   4.565   1.845  15.922 -1.0334  0.7307  1.3621
  242MPD1    N1 3733   4.310   1.702  16.417  0.1572 -0.4774  0.4983
  242MPD1    H6 3734   4.254   1.755  16.483  0.6855  0.4256  0.2283
  242MPD1    H7 3735   4.248   1.635  16.373 -1.0218  1.0289 -0.1670
  243MPD1     C 3736   0.389   0.291  17.007 -0.0116 -0.3678  0.2780
  243MPD1    C1 3737   0.492   0.251  16.921  0.4302  0.2656  0.6031
  243MPD1    C2 3738   0.622   0.291  16.948 -0.5357 -0.3109  0.4162
  243MPD1    C3 3739   0.657   0.345  17.067 -0.0746 -0.7324  0.1647
  243MPD1    C4 3740   0.556   0.382  17.156  1.0118 -0.2394  0.2145
  243MPD1    C5 3741   0.425   0.357  17.121 -0.3137  0.0433  0.7698
  243MPD1     H 3742   0.701   0.275  16.875 -0.7589  0.7745 -0.0623
  243MPD1    H1 3743   0.573   0.436  17.249  0.6593  2.6820 -1.3955
  243MPD1    H2 3744   0.283   0.277  16.985  0.1489 -0.0734 -0.6786
  243MPD1    H3 3745   0.351   0.396  17.190 -1.4951  1.5457 -1.3509
  243MPD1     N 3746   0.792   0.371  17.097  0.0617 -0.7455 -0.1312
  243MPD1    H5 3747   0.858   0.347  17.023  0.3791 -0.9510  0.2189
  243MPD1    N1 3748   0.460   0.195  16.796  0.6626  0.0595  0.7319
  243MPD1    H6 3749   0.375   0.141  16.808  0.2323  0.5338 -0.1894
  243MPD1    H7 3750   0.536   0.131  16.775 -0.2121 -1.2569  1.6127
  244MPD1     C 3751   1.381   0.078   0.019  0.1894  0.2819  0.1339
  244MPD1    C1 3752   1.434   0.076  17.637 -0.6710 -0.0574  0.6255
  244MPD1    C2 3753   1.394   0.181  17.554 -0.6919 -1.1235 -0.2853
  244MPD1    C3 3754   1.283   0.260  17.584 -1.3370  0.2917  0.5527
  244MPD1    C4 3755   1.212   0.231  17.693  0.6720  1.4322  0.3150
  244MPD1    C5 3756   1.269   0.154   0.039  0.7796  0.1019  0.3145
  244MPD1     H 3757   1.449   0.189  17.461 -1.4944  0.0224 -0.6653
  244MPD1    H1 3758   1.114   0.272  17.716 -1.0692 -1.9779 -1.0355
  244MPD1    H2 3759   1.418   0.007   0.091  0.1148  1.3959  1.2677
  244MPD1    H3 3760   1.214   0.127   0.129  0.8159  1.3218  0.6985
  244MPD1     N 3761   1.220   0.353  17.497  0.2917 -0.3684 -0.6470
  244MPD1    H5 3762   1.125   0.381  17.518  1.1733  1.4957  0.8155
  244MPD1    N1 3763   1.555   0.011  17.595 -0.3170 -0.3248 -0.3619
  244MPD1    H6 3764   1.551   4.737  17.494  4.6122  1.9721 -0.8044
  244MPD1    H7 3765   1.563   4.653  17.629 -0.9241  0.1440  1.1038
  245MPD1     C 3766   2.647   0.868  13.918 -0.3020 -0.0469  0.0899
  245MPD1    C1 3767   2.597   0.992  13.892 -0.4684  0.2001 -0.3528
  245MPD1    C2 3768   2.682   1.088  13.833  0.6441  0.0613  0.0872
  245MPD1    C3 3769   2.813   1.057  13.798  0.1675  0.1958  0.3208
  245MPD1    C4 3770   2.856   0.929  13.817  0.8404  0.9516 -0.0542
  245MPD1    C5 3771   2.775   0.836  13.880 -0.2900 -1.1363  0.3889
  245MPD1     H 3772   2.639   1.188  13.825 -1.0744 -0.7864 -1.3807
  245MPD1    H1 3773   2.954   0.894  13.786 -0.2389 -1.0274 -1.1691
  245MPD1    H2 3774   2.587   0.787  13.957  2.4157 -1.7543  0.7005
  245MPD1    H3 3775   2.810   0.734  13.883 -2.0313 -1.7437  0.0829
  245MPD1     N 3776   2.891   1.168  13.758 -0.1545  0.0357  0.2707
  245MPD1    H5 3777   2.845   1.258  13.756 -0.8695 -0.3410 -0.7652
  245MPD1    N1 3778   2.468   1.022  13.935 -0.2430  0.5826 -0.1355
  245MPD1    H6 3779   2.424   1.101  13.888 -2.4461 -0.4365  0.2228
  245MPD1    H7 3780   2.405   0.943  13.927 -0.2284  0.6458 -0.9394
  246MPD1     C 3781   3.539   3.171   9.671 -0.0476 -0.3803  0.2671
  246MPD1    C1 3782   3.671   3.151   9.625 -0.6972 -0.4196  0.0915
  246MPD1    C2 3783   3.720   3.013   9.619  0.2034 -0.1188  0.9720
  246MPD1    C3 3784   3.643   2.911   9.666 -0.0343  0.4918  0.4024
  246MPD1    C4 3785   3.523   2.943   9.723 -0.4870 -0.4645 -0.3064
  246MPD1    C5 3786   3.476   3.071   9.732 -0.6441 -0.1664 -0.0354
  246MPD1     H 3787   3.816   2.993   9.573  0.2058  1.4464  0.3079
  246MPD1    H1 3788   3.474   2.861   9.774 -0.8595  1.0424  1.7454
  246MPD1    H2 3789   3.488   3.267   9.670 -0.2763 -0.5160 -1.2247
  246MPD1    H3 3790   3.375   3.089   9.768 -0.2035 -0.4665  1.3393
  246MPD1     N 3791   3.676   2.775   9.661 -0.3929  0.1389 -0.1940
  246MPD1    H5 3792   3.602   2.707   9.666 -0.9554  0.8756  1.2002
  246MPD1    N1 3793   3.731   3.254   9.549 -0.0217 -1.1823 -0.0218
  246MPD1    H6 3794   3.718   3.349   9.582  0.5735 -1.0559 -0.1491
  246MPD1    H7 3795   3.832   3.243   9.544  0.0954  0.5805 -1.2780
  247MPD1     C 3796   2.115   1.516  16.672 -0.9200 -0.2658  0.0509
  247MPD1    C1 3797   2.066   1.594  16.565 -0.5778 -0.0215  0.2869
  247MPD1    C2 3798   2.059   1.541  16.434  0.3504 -0.0599 -0.0283
  247MPD1    C3 3799   2.118   1.419  16.414 -0.5401 -0.3068  0.3830
  247MPD1    C4 3800   2.174   1.345  16.517 -0.3544 -0.0374  0.5212
  247MPD1    C5 3801   2.173   1.389  16.648  0.0265 -0.3638 -0.2363
  247MPD1     H 3802   2.025   1.604  16.352  2.6910  1.3602  0.0759
  247MPD1    H1 3803   2.226   1.253  16.494  0.8913  0.5297  1.0552
  247MPD1    H2 3804   2.121   1.553  16.774  1.0161  0.2361 -0.2466
  247MPD1    H3 3805   2.229   1.337  16.725  0.6430  2.4131  1.2373
  247MPD1     N 3806   2.127   1.357  16.289  0.3554 -0.6290  0.0025
  247MPD1    H5 3807   2.154   1.259  16.283  0.3675 -0.4842 -2.5959
  247MPD1    N1 3808   2.031   1.731  16.580  0.2918 -0.2209  0.4580
  247MPD1    H6 3809   1.966   1.760  16.507 -1.7773 -0.9595  2.0125
  247MPD1    H7 3810   1.993   1.747  16.673 -1.0221 -1.9049  0.2155
  248MPD1     C 3811   4.118   0.804   0.648 -0.4648 -0.1634  0.0786
  248MPD1    C1 3812   4.011   0.855   0.576 -0.5168 -0.2891  0.1895
  248MPD1    C2 3813   3.958   0.776   0.476 -0.3128  0.5575  0.6912
  248MPD1    C3 3814   4.009   0.648   0.441 -0.3131  0.1388 -0.8718
  248MPD1    C4 3815   4.113   0.599   0.518  0.3825 -0.7140 -0.7803
  248MPD1    C5 3816   4.162   0.678   0.623 -0.1979  0.4722  0.2399
  248MPD1     H 3817   3.873   0.807   0.416  0.8720  0.5148 -1.0240
  248MPD1    H1 3818   4.160   0.502   0.505  2.7485 -0.2471  4.5228
  248MPD1    H2 3819   4.168   0.856   0.729  0.5050  1.5044 -1.5701
  248MPD1    H3 3820   4.243   0.629   0.677  0.1884  0.5401 -0.2725
  248MPD1     N 3821   3.938   0.565   0.350 -0.3974 -0.2671  0.0697
  248MPD1    H5 3822   3.856   0.608   0.309 -0.1269  1.0627  0.8991
  248MPD1    N1 3823   3.961   0.979   0.603  0.2300  0.4936  0.0158
  248MPD1    H6 3824   3.877   0.988   0.546 -0.3275 -0.1296  0.7353
  248MPD1    H7 3825   3.946   1.002   0.701 -1.1900  0.2925 -0.1604
  249MPD1     C 3826   4.027   3.745  11.246 -0.0315 -0.5120  0.0933
  249MPD1    C1 3827   4.107   3.824  11.173 -0.0006  0.1884  0.3116
  249MPD1    C2 3828   4.095   3.821  11.035  0.3889 -0.0462 -0.5697
  249MPD1    C3 3829   4.008   3.735  10.977 -0.2439  0.1765  0.0316
  249MPD1    C4 3830   3.927   3.652  11.050 -0.3513 -0.3327 -0.5258
  249MPD1    C5 3831   3.937   3.660  11.188  0.1496  0.0986  0.7591
  249MPD1     H 3832   4.160   3.882  10.973  0.5064 -1.7909 -2.1387
  249MPD1    H1 3833   3.859   3.580  11.006  0.1568 -0.5225 -0.9926
  249MPD1    H2 3834   4.029   3.758  11.354 -3.5281  1.0602 -0.0483
  249MPD1    H3 3835   3.863   3.603  11.243 -0.4711  1.8083  1.7049
  249MPD1     N 3836   3.997   3.750  10.835 -0.4992 -0.2904  0.3697
  249MPD1    H5 3837   4.053   3.819  10.786  2.7639 -2.4003  1.1086
  249MPD1    N1 3838   4.167   3.938  11.230  0.6354  0.2598 -0.5198
  249MPD1    H6 3839   4.258   3.970  11.198  1.4519 -0.6637  0.9150
  249MPD1    H7 3840   4.181   3.916  11.328 -3.6420  2.3662  0.5555
  250MPD2     C 3841   0.958   4.051  12.972  0.1738 -0.3688  0.1302
  250MPD2    C1 3842   0.913   4.182  12.948  0.4133  1.4261  0.2924
  250MPD2    C2 3843   0.814   4.189  12.853  0.1408 -0.4912 -0.3501
  250MPD2    C3 3844   0.773   4.079  12.775 -0.3082  0.1471  0.1377
  250MPD2    C4 3845   0.820   3.955  12.800  0.5828  0.0455  0.2131
  250MPD2    C5 3846   0.920   3.947  12.896  0.7197 -0.2714 -0.0089
  250MPD2     H 3847   0.767   4.283  12.825  1.0314  1.0704  3.2808
  250MPD2    H1 3848   0.780   3.867  12.751 -3.1591  1.9752 -0.1268
  250MPD2    H2 3849   1.028   4.042  13.054  0.3335 -0.7592 -0.0464
  250MPD2    H3 3850   0.938   3.847  12.934  0.8457  0.1990  1.1812
  250MPD2     N 3851   0.654   4.083  12.697  0.0950 -0.0747 -0.3318
  250MPD2    H5 3852   0.611   3.996  12.669 -0.0065 -0.3514  0.7250
  250MPD2    N1 3853   0.960   4.287  13.021  0.2950  0.2463 -0.7474
  250MPD2    H7 3854   1.031   4.266  13.091 -0.2510  0.8245 -0.0197
  251TMC3    C1 3855   0.987   4.505  13.104  0.2802  0.3963 -0.2966
  251TMC3    C2 3856   0.919   4.622  13.123 -0.1298 -0.6172 -0.1894
  251TMC3    C3 3857   0.987   4.724  13.179  0.2141 -0.4503  0.3970
  251TMC3    C4 3858   1.124   4.506  13.106 -0.7655 -0.5719  0.3374
  251TMC3    C5 3859   1.189   4.615  13.145 -0.1949 -0.2587  0.3300
  251TMC3    C6 3860   1.128   4.728  13.189 -0.3294  0.3428  0.6424
  251TMC3     C 3861   0.918   4.416  13.009  0.0703 -0.0314  0.0575
  251TMC3     O 3862   0.840   4.475  12.931  0.0111 -0.0599  0.1821
  251TMC3     H 3863   0.811   4.614  13.119  0.1873 -4.2700 -1.3590
  251TMC3    H1 3864   1.177   4.415  13.082  0.0765  0.0695 -0.2271
  251TMC3    H2 3865   1.176   0.070  13.247  1.1827  0.7246 -1.1177
  251TMC3    C7 3866   1.331   4.603  13.170  0.6420  0.6782  1.0365
  251TMC3    C8 3867   0.926   0.058  13.294  0.6923 -0.2623  0.7123
  251TMC3    O1 3868   1.375   4.487  13.188  0.2395  0.5015  0.1955
  251TMC3    O2 3869   0.991   0.105  13.381  0.0434  0.1225 -0.2892
  252TMC3    C1 3870   2.261   0.011   9.627  0.5861  0.5981  0.4842
  252TMC3    C2 3871   2.257   0.141   9.673 -0.0274  0.2971 -0.1315
  252TMC3    C3 3872   2.167   0.170   9.770 -0.1935  0.4023  0.3341
  252TMC3    C4 3873   2.177   4.646   9.664  0.0744  0.5862 -0.6029
  252TMC3    C5 3874   2.086   4.681   9.767 -0.3605  0.3601 -0.8081
  252TMC3    C6 3875   2.080   0.070   9.815 -0.0873 -0.1537 -0.9605
  252TMC3     C 3876   2.361   4.715   9.529  0.2342 -0.6383 -0.2794
  252TMC3     O 3877   2.394   4.597   9.512  0.2021 -0.1808  0.5614
  252TMC3     H 3878   2.325   0.220   9.644 -0.7715  1.5270  1.4384
  252TMC3    H1 3879   2.187   4.546   9.626  2.5764  0.5133  0.2558
  252TMC3    H2 3880   2.008   0.099   9.891  1.6511  0.1529  0.5686
  252TMC3    C7 3881   1.988   4.580   9.800  0.1534 -0.2325 -0.4111
  252TMC3    C8 3882   2.152   0.315   9.803 -1.4353 -0.2617 -0.4927
  252TMC3    O1 3883   1.983   4.491   9.720 -0.0020 -0.0431  0.5133
  252TMC3    O2 3884   2.197   0.389   9.719  0.4572 -0.0047 -0.4939
  253MPD2     C 3885   2.809   4.291  15.347  0.5338  0.4745 -0.6811
  253MPD2    C1 3886   2.680   4.321  15.305  0.3225  0.4672  0.1989
  253MPD2    C2 3887   2.583   4.299  15.395 -0.3942  0.0421 -0.3248
  253MPD2    C3 3888   2.596   4.288  15.529  0.6415 -0.4480  0.3238
  253MPD2    C4 3889   2.725   4.294  15.574 -0.8369  0.2754  0.0275
  253MPD2    C5 3890   2.829   4.288  15.485 -0.7985 -0.5388 -0.3321
  253MPD2     H 3891   2.482   4.304  15.356 -0.4901 -1.9886 -0.3251
  253MPD2    H1 3892   2.741   4.298  15.682  0.1408 -0.8036 -0.0901
  253MPD2    H2 3893   2.899   4.294  15.287  1.2690 -0.3026  0.3767
  253MPD2    H3 3894   2.930   4.287  15.524  0.5365  0.8435 -3.7756
  253MPD2     N 3895   2.492   4.292  15.625  0.2008 -0.1063 -0.0280
  253MPD2    H5 3896   2.521   4.280  15.722  1.9773  1.8464 -0.3227
  253MPD2    N1 3897   2.646   4.370  15.177 -0.1243  0.2910 -0.3150
  253MPD2    H7 3898   2.550   4.390  15.151 -0.5193 -0.0523  0.9115
  254TMC3    C1 3899   2.275   4.324  15.715 -0.6384  0.1206  0.0550
  254TMC3    C2 3900   2.160   4.403  15.715  0.2272  0.1267  0.7501
  254TMC3    C3 3901   2.075   4.378  15.811  0.3852  0.5944  0.4080
  254TMC3    C4 3902   2.310   4.234  15.811 -0.4680  0.1688 -0.0815
  254TMC3    C5 3903   2.218   4.219  15.912  0.5277  0.1426 -0.2384
  254TMC3    C6 3904   2.103   4.288  15.912  0.2622  0.1916  1.2744
  254TMC3     C 3905   2.364   4.346  15.604  0.0784  0.6202  0.0286
  254TMC3     O 3906   2.327   4.408  15.503  0.0749  0.3129 -0.5133
  254TMC3     H 3907   2.139   4.481  15.643 -1.6500 -0.5004  0.6149
  254TMC3    H1 3908   2.395   4.167  15.808 -0.2747  0.3152  1.9612
  254TMC3    H2 3909   2.021   4.263  15.979 -2.1163 -1.2169 -2.2172
  254TMC3    C7 3910   2.275   4.186  16.033 -0.3733  0.4967  0.6767
  254TMC3    C8 3911   2.015   4.491  15.881  0.3511  0.0985 -0.0988
  254TMC3    O1 3912   2.378   4.123  16.038  0.6388 -0.0975 -0.3796
  254TMC3    O2 3913   2.039   4.492  16.000  0.7313  0.1807 -0.1009
  255MPD2     C 3914   1.241   2.829  10.276 -0.0266  0.2394 -0.2550
  255MPD2    C1 3915   1.112   2.803  10.260 -0.0747  0.1847 -0.0449
  255MPD2    C2 3916   1.044   2.842  10.146  0.4665  1.1353  0.6148
  255MPD2    C3 3917   1.108   2.912  10.049 -0.5144  0.5441  0.2316
  255MPD2    C4 3918   1.241   2.944  10.068  0.2711  0.0257 -0.5623
  255MPD2    C5 3919   1.306   2.896  10.179 -0.0912  0.6933  0.0134
  255MPD2     H 3920   0.938   2.824  10.137  0.6905 -0.0721  0.3299
  255MPD2    H1 3921   1.293   3.008   9.998 -2.0099  1.7920 -0.6512
  255MPD2    H2 3922   1.299   2.810  10.365 -0.1958 -3.2419 -0.8836
  255MPD2    H3 3923   1.413   2.903  10.196  0.2512 -0.9175 -1.4734
  255MPD2     N 3924   1.030   2.952   9.937 -0.2250  1.1491 -0.6590
  255MPD2    H5 3925   0.931   2.927   9.932 -0.9288  3.8027  0.2799
  255MPD2    N1 3926   1.043   2.742  10.367 -0.2290  0.7095 -0.0360
  255MPD2    H7 3927   1.094   2.720  10.452  1.1943  1.4905 -0.7034
  256TMC3    C1 3928   0.848   2.664  10.482  1.1450 -0.0819 -0.6337
  256TMC3    C2 3929   0.805   2.788  10.514 -0.0480 -0.4382 -0.4418
  256TMC3    C3 3930   0.673   2.812  10.531 -0.9187 -0.0280 -0.6052
  256TMC3    C4 3931   0.767   2.551  10.478 -0.3845  0.6042 -0.4564
  256TMC3    C5 3932   0.637   2.580  10.509 -0.3521 -0.0514  0.1248
  256TMC3    C6 3933   0.583   2.706  10.542  0.2027 -0.0200  0.7644
  256TMC3     C 3934   0.917   2.681  10.358  0.2865  0.5027 -0.2174
  256TMC3     O 3935   0.843   2.675  10.260 -0.1931  0.3136 -0.5439
  256TMC3     H 3936   0.887   2.859  10.525  1.1880 -1.4502 -3.1584
  256TMC3    H1 3937   0.807   2.455  10.446  1.7088  1.7172 -1.1792
  256TMC3    H2 3938   0.478   2.727  10.558 -0.0359 -0.3967 -0.2890
  256TMC3    C7 3939   0.536   2.469  10.523 -0.5901  0.4280 -0.0138
  256TMC3    C8 3940   0.622   2.927  10.456 -1.1645 -0.7968 -0.4075
  256TMC3    O1 3941   0.418   2.509  10.522 -0.1499  0.1648  0.5743
  256TMC3    O2 3942   0.501   2.939  10.453  0.1811  0.0779 -0.6089
  257MPD2     C 3943   0.062   4.441  13.274 -0.4844 -0.5737  0.4870
  257MPD2    C1 3944   4.736   4.383  13.166  0.1043 -0.3650 -0.4162
  257MPD2    C2 3945   4.704   4.249  13.165 -0.2145 -0.4363  0.4451
  257MPD2    C3 3946   0.008   4.168  13.271  0.7640 -0.7767 -0.3129
  257MPD2    C4 3947   0.071   4.227  13.377  0.0012 -0.0212 -0.3380
  257MPD2    C5 3948   0.102   4.360  13.376  0.5259 -0.3391  0.1345
  257MPD2     H 3949   4.650   4.208  13.081 -0.3588 -0.6060  0.6173
  257MPD2    H1 3950   0.082   4.159  13.461 -1.1631 -3.5496 -3.0470
  257MPD2    H2 3951   0.080   4.546  13.292 -1.3024 -0.3132 -0.2253
  257MPD2    H3 3952   0.150   4.394  13.466 -0.4714 -1.2992  1.0414
  257MPD2     N 3953   0.007   4.024  13.258 -0.0486  0.0340  0.5148
  257MPD2    H5 3954   4.721   3.999  13.162 -0.8117  0.2652  0.6355
  257MPD2    N1 3955   4.692   4.470  13.059 -0.3349 -0.0406 -0.5130
  257MPD2    H7 3956   0.004   4.559  13.059 -1.9233  0.8333  2.8974
  258TMC3    C1 3957   0.010   3.798  13.307 -0.6176 -0.0963 -0.2404
  258TMC3    C2 3958   4.679   3.772  13.185  0.1936  1.0897  0.8004
  258TMC3    C3 3959   4.658   3.643  13.145 -0.1322 -0.8449 -0.0260
  258TMC3    C4 3960   0.058   3.693  13.387  0.2642  0.5405 -0.1948
  258TMC3    C5 3961   0.058   3.567  13.327 -0.5630  0.4074  0.4862
  258TMC3    C6 3962   4.705   3.538  13.223  0.0044  0.4037 -0.4136
  258TMC3     C 3963   0.025   3.932  13.360 -0.3281 -0.4470 -0.1010
  258TMC3     O 3964   0.057   3.945  13.481 -0.6739  0.2462 -0.1198
  258TMC3     H 3965   4.647   3.850  13.117 -0.5522  1.2408  1.3313
  258TMC3    H1 3966   0.103   3.709  13.484  0.7947 -0.7352 -0.2272
  258TMC3    H2 3967   4.688   3.438  13.187  0.9794  0.3468 -0.7160
  258TMC3    C7 3968   0.138   3.459  13.379  0.4227 -0.1022  0.6871
  258TMC3    C8 3969   4.599   3.624  13.016  0.2142 -0.7218 -0.9365
  258TMC3    O1 3970   0.114   3.344  13.347 -0.8325 -0.0555 -0.1046
  258TMC3    O2 3971   4.556   3.721  12.960 -0.0886  0.7063  0.0329
  259MPD2     C 3972   4.605   0.956   0.264  0.1910 -0.4393  0.4554
  259MPD2    C1 3973   4.644   0.878   0.374  0.1038  0.5042  0.2806
  259MPD2    C2 3974   4.731   0.773   0.353 -0.2668  0.2952 -0.2035
  259MPD2    C3 3975   0.030   0.736   0.226  0.3576  0.1746  0.4690
  259MPD2    C4 3976   4.706   0.800   0.114  0.1648 -0.5900 -0.2214
  259MPD2    C5 3977   4.642   0.920   0.136  0.0700  0.0769 -0.2312
  259MPD2     H 3978   0.021   0.712   0.438  0.9983  1.8507  0.5133
  259MPD2    H1 3979   4.717   0.780   0.009  2.0658 -0.5541 -0.0218
  259MPD2    H2 3980   4.551   1.048   0.277  0.1132 -0.6124  1.3463
  259MPD2    H3 3981   4.605   0.976   0.051  2.6600 -1.0948 -2.1173
  259MPD2     N 3982   0.124   0.627   0.221 -0.9835 -0.6377 -0.0856
  259MPD2    H5 3983   0.149   0.590   0.312  1.1954 -2.2392 -1.3198
  259MPD2    N1 3984   4.599   0.908   0.504 -0.0723 -0.0624  0.1983
  259MPD2    H7 3985   4.531   0.983   0.507 -0.5567 -0.4348 -1.3545
  260TMC3    C1 3986   0.234   0.447   0.139  0.2890  0.1134 -0.0008
  260TMC3    C2 3987   0.248   0.354   0.036 -0.4839 -0.4670  0.3289
  260TMC3    C3 3988   0.279   0.224   0.076 -0.1860  0.5364  0.5869
  260TMC3    C4 3989   0.245   0.408   0.273  1.2849 -0.5180  0.0235
  260TMC3    C5 3990   0.251   0.280   0.303  0.5303 -0.1544  0.6982
  260TMC3    C6 3991   0.270   0.182   0.205 -0.0128  0.4444 -0.5915
  260TMC3     C 3992   0.162   0.565   0.105 -0.0326  0.1375  0.3992
  260TMC3     O 3993   0.145   0.605  17.731 -0.4219  0.6192  0.6603
  260TMC3     H 3994   0.244   0.392  17.680 -1.4177 -0.3635  0.4017
  260TMC3    H1 3995   0.269   0.481   0.349  0.9860  1.7621 -2.0590
  260TMC3    H2 3996   0.288   0.081   0.241  1.0599  1.4428  1.7049
  260TMC3    C7 3997   0.126   0.247   0.367  0.2741 -0.1606  0.0009
  260TMC3    C8 3998   0.237   0.122  17.735  0.1136 -0.1176 -0.0644
  260TMC3    O1 3999   0.079   0.138   0.332  0.2840  0.1116 -0.1530
  260TMC3    O2 4000   0.270   0.122  17.619  0.1417 -0.0123 -0.2902
  261MPD2     C 4001   0.310   4.022  12.009 -0.5312  0.0253  0.1378
  261MPD2    C1 4002   0.402   4.093  12.084 -0.4127 -0.2864  0.4868
  261MPD2    C2 4003   0.478   4.185  12.012 -0.3446  0.6663  0.1862
  261MPD2    C3 4004   0.478   4.201  11.877  0.4063 -0.5568 -0.2234
  261MPD2    C4 4005   0.386   4.124  11.807  0.0317  0.5386 -0.0174
  261MPD2    C5 4006   0.312   4.034  11.875 -0.2615  0.3015 -0.0049
  261MPD2     H 4007   0.541   4.248  12.073 -1.0680  0.5926  1.0024
  261MPD2    H1 4008   0.378   4.133  11.699 -1.6085 -1.1291 -0.0538
  261MPD2    H2 4009   0.243   3.953  12.059  1.6169  1.6668  5.3487
  261MPD2    H3 4010   0.237   3.974  11.825  1.6584 -0.4216 -1.9827
  261MPD2     N 4011   0.562   4.296  11.818  0.1789  0.4374 -0.0427
  261MPD2    H5 4012   0.618   4.354  11.880 -0.6120 -0.8523  1.8682
  261MPD2    N1 4013   0.420   4.080  12.220  0.9958  0.2171 -0.6868
  261MPD2    H7 4014   0.512   4.109  12.253  0.4490  0.2458  0.7942
  262TMC3    C1 4015   0.635   4.457  11.662  0.4658  0.1145 -0.4827
  262TMC3    C2 4016   0.622   4.555  11.753 -0.0718 -0.3711 -0.5229
  262TMC3    C3 4017   0.638   4.685  11.713  0.1834 -0.9517  0.1833
  262TMC3    C4 4018   0.684   4.489  11.541  0.1418  0.3269  0.4316
  262TMC3    C5 4019   0.706   4.620  11.501 -0.9015 -0.0406  0.2401
  262TMC3    C6 4020   0.676   4.721  11.586 -0.3638 -0.1600 -0.2746
  262TMC3     C 4021   0.567   4.329  11.686 -0.6494  1.0931 -0.5066
  262TMC3     O 4022   0.530   4.274  11.584  0.3862  0.1296  0.0491
  262TMC3     H 4023   0.571   4.545  11.849 -1.2240  1.2040 -0.9814
  262TMC3    H1 4024   0.697   4.411  11.466  1.4829 -0.0373  1.0410
  262TMC3    H2 4025   0.692   0.091  11.570 -0.3050 -0.1078  0.1282
  262TMC3    C7 4026   0.700   4.635  11.359  0.6752  0.2631  0.6263
  262TMC3    C8 4027   0.576   0.058  11.784 -0.2527 -0.7970 -0.2058
  262TMC3    O1 4028   0.632   4.553  11.296  0.5287  0.3238  0.2521
  262TMC3    O2 4029   0.643   0.162  11.781  0.0481 -0.1337 -0.2477
  263MPD2     C 4030   2.052   3.134  11.195 -0.1530 -0.2436  0.3817
  263MPD2    C1 4031   2.006   3.232  11.271 -0.0322  0.1681  0.4555
  263MPD2    C2 4032   2.015   3.360  11.220 -0.3851  0.1525  0.6960
  263MPD2    C3 4033   2.087   3.387  11.108 -0.0096  0.2301  0.8909
  263MPD2    C4 4034   2.140   3.280  11.040  0.2391  0.9406 -0.2297
  263MPD2    C5 4035   2.114   3.153  11.074 -0.5271 -0.1134 -0.0030
  263MPD2     H 4036   1.956   3.439  11.265  0.8724  1.4263  0.1139
  263MPD2    H1 4037   2.193   3.291  10.945  1.1507 -0.3343  0.1410
  263MPD2    H2 4038   2.028   3.032  11.219  0.9041 -0.6785 -0.4038
  263MPD2    H3 4039   2.149   3.076  11.006  0.5002 -0.2100  0.6426
  263MPD2     N 4040   2.081   3.520  11.058 -0.4224  0.3941  0.0030
  263MPD2    H5 4041   2.045   3.593  11.119 -2.8981 -0.4110 -0.4919
  263MPD2    N1 4042   1.926   3.194  11.386  0.2533 -0.2009  0.2037
  263MPD2    H7 4043   1.917   3.095  11.402 -1.0936 -0.2427 -0.9061
  264TMC3    C1 4044   2.082   3.706  10.922 -0.0668 -0.5260  0.1255
  264TMC3    C2 4045   1.970   3.749  10.987 -0.9050 -0.1599  0.1204
  264TMC3    C3 4046   1.903   3.860  10.942  0.5901  0.4235  1.1897
  264TMC3    C4 4047   2.129   3.767  10.814 -0.5526  0.0443 -0.5908
  264TMC3    C5 4048   2.062   3.882  10.773  0.4663 -0.6026 -0.2455
  264TMC3    C6 4049   1.949   3.925  10.834 -0.4071 -0.3495  0.1835
  264TMC3     C 4050   2.106   3.561  10.927 -0.0792  0.2156 -0.2959
  264TMC3     O 4051   2.174   3.516  10.837 -0.0613 -0.6243  0.0284
  264TMC3     H 4052   1.932   3.697  11.074  0.4376 -0.9936  0.2027
  264TMC3    H1 4053   2.228   3.742  10.777 -0.3246  1.1347 -0.7060
  264TMC3    H2 4054   1.892   4.001  10.780  2.4904  0.6239 -1.5614
  264TMC3    C7 4055   2.155   3.985  10.732  0.2111 -0.6579 -0.0002
  264TMC3    C8 4056   1.883   3.961  11.048 -0.1799  0.1810 -0.0954
  264TMC3    O1 4057   2.264   3.953  10.688 -0.8029 -0.0273 -0.0577
  264TMC3    O2 4058   1.930   4.069  11.006 -0.3688 -0.2158  0.0912
  265MPD2     C 4059   3.660   3.439  15.528  0.1370  0.7974  1.0223
  265MPD2    C1 4060   3.711   3.538  15.450  0.2349  0.0759  0.0423
  265MPD2    C2 4061   3.744   3.514  15.318  0.2355 -0.6951  0.3567
  265MPD2    C3 4062   3.735   3.381  15.272  0.1962 -0.0447  0.3749
  265MPD2    C4 4063   3.687   3.283  15.354 -0.2247 -0.7594 -1.2752
  265MPD2    C5 4064   3.638   3.316  15.475 -0.7415 -0.3861 -0.6824
  265MPD2     H 4065   3.799   3.591  15.263 -1.4691 -0.3920 -0.9145
  265MPD2    H1 4066   3.686   3.177  15.335 -1.4894 -1.2882  1.8647
  265MPD2    H2 4067   3.618   3.469  15.624  1.0858  0.6169  1.4936
  265MPD2    H3 4068   3.574   3.245  15.526  0.8705 -0.2257  1.5282
  265MPD2     N 4069   3.799   3.327  15.158  0.0580 -0.7150 -0.0398
  265MPD2    H5 4070   3.785   3.227  15.148  0.1190 -0.6768 -0.5352
  265MPD2    N1 4071   3.722   3.665  15.503 -0.1739 -0.3919  0.2694
  265MPD2    H7 4072   3.722   3.742  15.437 -0.6230 -0.7861 -0.1963
  266TMC3    C1 4073   3.768   3.831  15.666  0.5138  0.4387 -0.0507
  266TMC3    C2 4074   3.850   3.859  15.773 -0.4550 -0.7265  0.7982
  266TMC3    C3 4075   3.890   3.987  15.796  1.2013 -0.9200  0.3192
  266TMC3    C4 4076   3.734   3.932  15.583  0.0076  0.2674 -0.4661
  266TMC3    C5 4077   3.774   4.063  15.606  0.3923 -0.1147 -0.5128
  266TMC3    C6 4078   3.857   4.096  15.712  0.1789  0.1636  0.1068
  266TMC3     C 4079   3.744   3.692  15.636 -0.7128 -0.1616  0.3749
  266TMC3     O 4080   3.791   3.620  15.719 -0.2712 -0.0052 -0.3620
  266TMC3     H 4081   3.898   3.779  15.830 -2.6457 -1.6079  1.4009
  266TMC3    H1 4082   3.668   3.910  15.500  1.4629  1.6008 -1.9673
  266TMC3    H2 4083   3.896   4.197  15.723  1.4795 -0.3808  0.4084
  266TMC3    C7 4084   3.720   4.165  15.515 -0.9938  1.0293 -0.3292
  266TMC3    C8 4085   4.001   4.012  15.886 -0.4048 -0.3701  0.4964
  266TMC3    O1 4086   3.661   4.143  15.407  0.1465 -0.0068  0.7111
  266TMC3    O2 4087   4.059   3.914  15.930  0.0917  0.2988 -0.1840
  267MPD2     C 4088   0.890   0.804   0.195 -0.8223 -0.7298 -0.2471
  267MPD2    C1 4089   0.909   0.938   0.218 -0.9683 -1.4351  0.0019
  267MPD2    C2 4090   0.841   1.021   0.132  0.2289  0.4570  0.2585
  267MPD2    C3 4091   0.758   0.972   0.029  0.7862  0.8590  0.6412
  267MPD2    C4 4092   0.743   0.836   0.009 -0.1864 -0.4765 -0.3359
  267MPD2    C5 4093   0.822   0.751   0.086  0.2601  0.7537  0.4216
  267MPD2     H 4094   0.870   1.125   0.137 -0.7899  0.9222 -3.7684
  267MPD2    H1 4095   0.683   0.785  17.679  1.1870 -0.8403 -1.1904
  267MPD2    H2 4096   0.927   0.735   0.270  0.0559 -1.7819 -1.6482
  267MPD2    H3 4097   0.808   0.644   0.080 -1.1296  1.1045 -2.3615
  267MPD2     N 4098   0.723   1.054  17.666 -0.7897  0.1212 -0.8317
  267MPD2    H5 4099   0.710   1.008  17.576 -0.8163 -1.8120  0.1519
  267MPD2    N1 4100   0.997   0.988   0.317 -0.5247 -0.3148  0.2908
  267MPD2    H7 4101   1.066   0.923   0.352 -0.7910 -0.2376  0.9518
  268TMC3    C1 4102   1.143   1.143   0.412 -0.2451  0.4957 -0.2350
  268TMC3    C2 4103   1.214   1.258   0.391  0.1434 -0.0342  1.0026
  268TMC3    C3 4104   1.338   1.268   0.441  0.5938  0.2879  0.5306
  268TMC3    C4 4105   1.193   1.041   0.480 -0.5006 -0.3920 -0.0913
  268TMC3    C5 4106   1.326   1.056   0.529 -0.2378 -0.3482  0.6254
  268TMC3    C6 4107   1.398   1.168   0.518 -0.0227 -0.4164  0.0395
  268TMC3     C 4108   1.011   1.123   0.351  0.1797  0.2832  0.2548
  268TMC3     O 4109   0.950   1.229   0.326  0.1091 -0.1375 -0.2339
  268TMC3     H 4110   1.167   1.327   0.322 -1.9471 -0.7024  1.7753
  268TMC3    H1 4111   1.142   0.950   0.508  0.9946 -1.2686 -0.2014
  268TMC3    H2 4112   1.498   1.179   0.557 -0.9663  0.2207  2.2998
  268TMC3    C7 4113   1.376   0.947   0.614 -0.0096  0.0408  0.3899
  268TMC3    C8 4114   1.430   1.352   0.378 -0.5772 -0.0180  0.5874
  268TMC3    O1 4115   1.290   0.872   0.659  0.0789 -0.2424 -0.7043
  268TMC3    O2 4116   1.534   1.382   0.426 -0.1286  0.0071 -0.1326
  269MPD2     C 4117   2.049   4.528  15.379 -0.3848  0.5516 -0.1390
  269MPD2    C1 4118   1.908   4.539  15.388  0.3206  0.6905 -0.4310
  269MPD2    C2 4119   1.853   4.666  15.380  0.0358  0.2937  0.0943
  269MPD2    C3 4120   1.928   0.048  15.366 -0.2626  0.0811  0.4289
  269MPD2    C4 4121   2.064   0.034  15.363 -0.4801 -0.5485  0.2064
  269MPD2    C5 4122   2.125   4.644  15.362  0.1751 -0.3042  0.4021
  269MPD2     H 4123   1.746   4.684  15.377  0.1149  0.7804  0.0893
  269MPD2    H1 4124   2.137   0.114  15.369 -1.0988 -0.0935  1.7680
  269MPD2    H2 4125   2.092   4.428  15.381 -0.7618  0.4144  1.0109
  269MPD2    H3 4126   2.230   4.633  15.342  0.1653  2.2963 -1.0930
  269MPD2     N 4127   1.857   0.168  15.366 -0.2808  0.3042  0.1302
  269MPD2    H5 4128   1.756   0.173  15.373 -0.1983  1.9090  0.1690
  269MPD2    N1 4129   1.829   4.421  15.398 -0.1122  0.3703 -0.2912
  269MPD2    H7 4130   1.891   4.341  15.400  1.7827  1.9509  3.3432
  270TMC3    C1 4131   1.640   4.285  15.408 -0.6247  0.2503 -0.1336
  270TMC3    C2 4132   1.521   4.276  15.345  0.1722  0.2437 -0.6765
  270TMC3    C3 4133   1.469   4.150  15.334 -0.4215 -0.8915 -0.1468
  270TMC3    C4 4134   1.714   4.187  15.468 -0.1071  0.1467  0.0034
  270TMC3    C5 4135   1.647   4.065  15.466 -0.4316  0.0771  0.1178
  270TMC3    C6 4136   1.531   4.044  15.391  0.5949 -0.1585 -0.0962
  270TMC3     C 4137   1.694   4.418  15.402 -0.8746 -0.2832 -0.0957
  270TMC3     O 4138   1.611   4.504  15.420  0.0924  0.2959  0.5941
  270TMC3     H 4139   1.488   4.359  15.283  1.3831  1.2083 -0.0294
  270TMC3    H1 4140   1.808   4.213  15.516 -0.6712  4.4910 -1.1993
  270TMC3    H2 4141   1.485   3.946  15.390  0.5233 -0.1154 -1.0819
  270TMC3    C7 4142   1.693   3.975  15.563 -0.3856  0.1648 -0.5422
  270TMC3    C8 4143   1.378   4.134  15.225 -0.1259 -0.0569  0.5104
  270TMC3    O1 4144   1.806   3.995  15.595 -0.5027 -0.4118 -0.2771
  270TMC3    O2 4145   1.285   4.211  15.220 -0.5316 -0.4118 -0.7075
  271MPD2     C 4146   0.929   4.427  13.558  0.6438 -0.0247  0.4903
  271MPD2    C1 4147   0.900   4.436  13.690  0.3263  0.4750  0.2020
  271MPD2    C2 4148   0.783   4.495  13.726 -0.7999  1.4876  0.2523
  271MPD2    C3 4149   0.681   4.508  13.636  0.5421  0.2543 -0.7141
  271MPD2    C4 4150   0.705   4.492  13.502  0.0599  0.3773  0.5501
  271MPD2    C5 4151   0.831   4.443  13.469  0.3683 -0.4806  0.6594
  271MPD2     H 4152   0.765   4.510  13.832 -0.2543 -0.4564  0.6139
  271MPD2    H1 4153   0.637   4.506  13.419  2.4929 -1.2503 -1.7034
  271MPD2    H2 4154   1.019   4.391  13.509 -0.0995  1.7340 -2.1835
  271MPD2    H3 4155   0.844   4.410  13.366 -0.3469  0.1431  0.3714
  271MPD2     N 4156   0.545   4.536  13.675  0.4400 -0.4180  0.4839
  271MPD2    H5 4157   0.471   4.550  13.607  1.6661 -1.0746 -0.9679
  271MPD2    N1 4158   0.993   4.406  13.799  0.2008 -0.1982  0.4711
  271MPD2    H7 4159   0.965   4.424  13.894  1.5416  0.9796  0.6489
  272TMC3    C1 4160   1.157   4.287  13.912 -0.9657 -0.6383 -0.3903
  272TMC3    C2 4161   1.268   4.208  13.907 -0.0497  0.8062  0.5611
  272TMC3    C3 4162   1.320   4.164  14.025  0.1073 -1.1587  0.4809
  272TMC3    C4 4163   1.093   4.321  14.028  0.4190  0.0438 -0.2898
  272TMC3    C5 4164   1.146   4.274  14.146  0.1070  0.2060  0.3202
  272TMC3    C6 4165   1.260   4.194  14.145  0.2268  0.6004  0.1993
  272TMC3     C 4166   1.104   4.324  13.789  0.7287 -0.1769  0.4041
  272TMC3     O 4167   1.153   4.264  13.696  0.0770 -1.0003 -0.5192
  272TMC3     H 4168   1.316   4.186  13.813 -0.3075 -1.8754  1.0475
  272TMC3    H1 4169   1.009   4.390  14.034  0.6112  0.0571  1.9699
  272TMC3    H2 4170   1.306   4.167  14.240 -2.0045  0.8344  1.3519
  272TMC3    C7 4171   1.067   4.292  14.260 -0.1105  0.0742 -0.1473
  272TMC3    C8 4172   1.454   4.116  14.022  0.0469  0.0273 -0.1954
  272TMC3    O1 4173   0.948   4.326  14.239  0.4226 -0.7820 -0.1310
  272TMC3    O2 4174   1.522   4.142  13.926 -0.4813 -0.3662 -0.1469
  273MPD2     C 4175   2.522   2.268  11.253  0.0733  0.4754  0.3253
  273MPD2    C1 4176   2.473   2.249  11.383 -0.1001 -0.2909 -0.0261
  273MPD2    C2 4177   2.343   2.214  11.399  0.7461 -0.4830 -0.2541
  273MPD2    C3 4178   2.259   2.207  11.293  0.0172 -0.0358 -0.6273
  273MPD2    C4 4179   2.310   2.218  11.159  0.5344  0.5116 -0.2712
  273MPD2    C5 4180   2.444   2.240  11.140  0.4653  0.1059 -0.6150
  273MPD2     H 4181   2.300   2.217  11.499  1.1066 -1.2793 -0.0702
  273MPD2    H1 4182   2.239   2.184  11.085  0.2479  2.8878 -1.0888
  273MPD2    H2 4183   2.617   2.306  11.217 -0.5136  2.0249  0.4581
  273MPD2    H3 4184   2.489   2.252  11.042 -1.0437 -0.7319 -1.4050
  273MPD2     N 4185   2.119   2.204  11.301 -0.0433 -0.6749  0.5349
  273MPD2    H5 4186   2.080   2.189  11.208  0.3084 -0.6196  0.3799
  273MPD2    N1 4187   2.566   2.279  11.489  0.4706 -0.0447  0.0857
  273MPD2    H7 4188   2.655   2.319  11.462 -1.6910  3.9085 -1.1415
  274TMC3    C1 4189   1.898   2.211  11.388 -0.2455  0.2949  0.1701
  274TMC3    C2 4190   1.854   2.213  11.259  0.5488 -0.3966 -0.4544
  274TMC3    C3 4191   1.711   2.211  11.239  0.6786  0.3995  1.0369
  274TMC3    C4 4192   1.823   2.211  11.499  0.4016  0.3660  0.4242
  274TMC3    C5 4193   1.689   2.226  11.479 -0.3340 -0.1609 -0.8230
  274TMC3    C6 4194   1.634   2.222  11.352  0.1277  0.7141  0.3492
  274TMC3     C 4195   2.042   2.214  11.413  0.3671  0.5732  1.1226
  274TMC3     O 4196   2.081   2.243  11.525  0.7768  0.0770  0.1137
  274TMC3     H 4197   1.921   2.186  11.179 -0.3672  1.0391 -1.7188
  274TMC3    H1 4198   1.867   2.213  11.598 -0.6958 -1.4688  0.9590
  274TMC3    H2 4199   1.529   2.248  11.359 -0.1866 -1.0397  2.0716
  274TMC3    C7 4200   1.633   2.349  11.544  0.2543  0.1215  0.5190
  274TMC3    C8 4201   1.664   2.280  11.116 -0.1675 -0.0713  0.4138
  274TMC3    O1 4202   1.570   2.423  11.475  0.5705 -0.0170 -0.2971
  274TMC3    O2 4203   1.738   2.268  11.022 -0.1082 -0.5367 -0.0092
  275MPD2     C 4204   2.446   0.731  14.219  0.3113 -0.7186  0.3791
  275MPD2    C1 4205   2.453   0.696  14.352  0.4658  0.0911  0.3778
  275MPD2    C2 4206   2.343   0.631  14.412  0.6168  0.1992 -0.2178
  275MPD2    C3 4207   2.220   0.625  14.346 -0.4881 -0.4872 -0.0338
  275MPD2    C4 4208   2.217   0.658  14.211  0.6652 -0.4261  0.1271
  275MPD2    C5 4209   2.325   0.716  14.153 -0.0721  0.4239  0.1360
  275MPD2     H 4210   2.357   0.584  14.509  0.0254 -0.8158 -0.6318
  275MPD2    H1 4211   2.126   0.658  14.151 -1.3246 -0.4195  3.1525
  275MPD2    H2 4212   2.532   0.779  14.174 -0.1322 -1.3852 -1.1719
  275MPD2    H3 4213   2.307   0.758  14.054  0.5605  0.0860 -0.1228
  275MPD2     N 4214   2.101   0.575  14.394 -0.0099  0.1263 -0.0869
  275MPD2    H5 4215   2.024   0.566  14.329 -0.7051 -0.1488  0.7730
  275MPD2    N1 4216   2.574   0.715  14.421 -0.0703 -0.1329  0.3828
  275MPD2    H7 4217   2.575   0.670  14.511  1.2897  1.4956  1.1771
  276TMC3    C1 4218   2.751   0.843  14.508  0.3948 -0.0741 -0.1076
  276TMC3    C2 4219   2.772   0.749  14.614 -0.0363  0.5253 -0.1321
  276TMC3    C3 4220   2.825   0.798  14.737 -0.0693  0.1887  0.6714
  276TMC3    C4 4221   2.777   0.975  14.535  0.3287  0.2918  0.2053
  276TMC3    C5 4222   2.840   1.021  14.653  0.3380 -0.3525 -0.7106
  276TMC3    C6 4223   2.863   0.929  14.755 -0.5064  0.4954 -0.4836
  276TMC3     C 4224   2.665   0.813  14.393  0.3722 -0.4446  0.2875
  276TMC3     O 4225   2.665   0.894  14.305 -0.0348 -0.8047 -0.0855
  276TMC3     H 4226   2.760   0.645  14.586  0.9984  0.1027  0.9625
  276TMC3    H1 4227   2.743   1.044  14.459  0.4078 -0.4464 -0.5041
  276TMC3    H2 4228   2.897   0.965  14.852 -0.2655  1.0474 -0.7744
  276TMC3    C7 4229   2.829   1.163  14.691 -0.0061  0.3985  0.2517
  276TMC3    C8 4230   2.828   0.712  14.848  0.2093 -0.3623  0.6592
  276TMC3    O1 4231   2.806   1.186  14.807  0.6522 -0.2814 -0.1383
  276TMC3    O2 4232   2.897   0.746  14.941  0.3891  0.7420  0.4448
  277MPD2     C 4233   4.182   4.307  13.537  0.3075  0.0209  0.0645
  277MPD2    C1 4234   4.051   4.274  13.495  0.2606  0.3851  0.9724
  277MPD2    C2 4235   3.997   4.162  13.558  0.2142  0.9943  0.0220
  277MPD2    C3 4236   4.072   4.092  13.657 -0.3815 -0.0040 -0.3445
  277MPD2    C4 4237   4.185   4.151  13.711 -0.4325  0.4348  0.0500
  277MPD2    C5 4238   4.247   4.251  13.639  0.2397  0.4520 -0.0170
  277MPD2     H 4239   3.902   4.124  13.523 -0.1795  1.8174  0.1923
  277MPD2    H1 4240   4.237   4.099  13.791 -1.4745 -1.2247 -0.3597
  277MPD2    H2 4241   4.230   4.396  13.498 -0.1551 -0.3627 -1.4101
  277MPD2    H3 4242   4.340   4.298  13.670  0.3443 -0.0931  0.4843
  277MPD2     N 4243   4.010   3.975  13.723 -0.1149 -0.5102  0.4332
  277MPD2    H5 4244   4.040   3.959  13.818 -2.2808  0.5757  1.3075
  277MPD2    N1 4245   3.989   4.339  13.388  0.3297 -0.5610  0.8461
  277MPD2    H7 4246   4.040   4.420  13.355 -2.1673  0.8122  0.3727
  278TMC3    C1 4247   3.862   3.788  13.752 -0.1437 -0.1823 -0.5433
  278TMC3    C2 4248   3.771   3.696  13.694  0.0829  0.0615  0.3241
  278TMC3    C3 4249   3.739   3.599  13.785 -0.3494  0.5565  0.0260
  278TMC3    C4 4250   3.905   3.788  13.881 -0.3539 -0.2599  0.1585
  278TMC3    C5 4251   3.855   3.694  13.967  0.3240  0.5326  0.9246
  278TMC3    C6 4252   3.780   3.597  13.912  0.3484  0.5485 -0.0242
  278TMC3     C 4253   3.928   3.889  13.660  0.7414 -0.4189  0.0542
  278TMC3     O 4254   3.909   3.887  13.538  0.2149  0.4830 -0.3627
  278TMC3     H 4255   3.754   3.690  13.588  1.5071 -1.2318  0.1555
  278TMC3    H1 4256   3.968   3.865  13.923  1.5197 -1.2710 -0.7895
  278TMC3    H2 4257   3.729   3.528  13.979 -1.4590  0.0659 -1.8975
  278TMC3    C7 4258   3.796   3.762  14.075 -0.3792  0.1266  0.1001
  278TMC3    C8 4259   3.629   3.508  13.757  0.1894  0.1606  0.1323
  278TMC3    O1 4260   3.864   3.839  14.137  0.2345 -0.4655 -0.3550
  278TMC3    O2 4261   3.613   3.422  13.840  0.4209 -0.1676 -0.5181
  279MPD2     C 4262   3.557   3.875  17.679  0.2216 -0.7936 -0.5836
  279MPD2    C1 4263   3.500   3.996  17.677 -0.1098 -0.5240  0.1531
  279MPD2    C2 4264   3.503   4.086  17.575 -0.2984 -0.4227  0.4964
  279MPD2    C3 4265   3.576   4.059  17.464 -0.7704 -0.1151 -0.0461
  279MPD2    C4 4266   3.635   3.934  17.456 -0.0503  0.3972  0.0134
  279MPD2    C5 4267   3.629   3.848  17.568 -0.5609 -0.0080 -0.2981
  279MPD2     H 4268   3.457   4.184  17.591  0.7046  0.3038 -1.0905
  279MPD2    H1 4269   3.690   3.917  17.364 -0.3208 -2.1524  0.3325
  279MPD2    H2 4270   3.554   3.801   0.013  0.9236  0.9179  1.0485
  279MPD2    H3 4271   3.680   3.752  17.567 -0.0295  0.2759 -0.2326
  279MPD2     N 4272   3.589   4.154  17.359 -0.0398 -0.4210  0.0345
  279MPD2    H5 4273   3.632   4.123  17.272  1.9284 -0.6141  1.0745
  279MPD2    N1 4274   3.420   4.034   0.041  0.0561  0.6315 -0.0522
  279MPD2    H7 4275   3.368   4.122   0.037 -2.5300 -0.7508  3.4314
  280TMC3    C1 4276   3.250   3.997   0.203 -0.0846 -0.6455 -0.1025
  280TMC3    C2 4277   3.156   3.905   0.165  0.0789 -0.1913  0.1934
  280TMC3    C3 4278   3.031   3.952   0.148  0.2106 -0.4447 -0.0858
  280TMC3    C4 4279   3.227   4.128   0.215 -1.0795  0.3178  0.6059
  280TMC3    C5 4280   3.097   4.167   0.198  0.1303  0.7639  0.4183
  280TMC3    C6 4281   2.998   4.082   0.167 -0.5982 -0.5887  0.1107
  280TMC3     C 4282   3.371   3.954   0.140  0.2682 -0.2029  0.9279
  280TMC3     O 4283   3.398   3.836   0.170 -0.0030 -0.0267  0.7700
  280TMC3     H 4284   3.174   3.799   0.158  0.0642 -0.2173  0.6056
  280TMC3    H1 4285   3.300   4.205   0.235 -0.7530  0.3109 -0.5471
  280TMC3    H2 4286   2.895   4.114   0.158  0.3243  2.4081  0.0494
  280TMC3    C7 4287   3.079   4.307   0.207 -0.3252 -0.2429  0.1439
  280TMC3    C8 4288   2.923   3.865   0.110  0.2817 -0.0963  0.1173
  280TMC3    O1 4289   3.141   4.361   0.298 -0.3535 -0.2050  0.0623
  280TMC3    O2 4290   2.812   3.878   0.161  0.3708 -0.0221  0.3180
  281TMC3    C1 4291   2.142   4.509  13.531 -0.4952  0.5989  0.5881
  281TMC3    C2 4292   2.008   4.534  13.531  0.0900 -0.1243 -0.6078
  281TMC3    C3 4293   1.927   4.429  13.484 -0.1339 -1.0213 -0.2286
  281TMC3    C4 4294   2.187   4.384  13.500 -0.0309 -0.1315  0.2627
  281TMC3    C5 4295   2.106   4.285  13.457  0.1101  0.1312  0.5573
  281TMC3    C6 4296   1.970   4.304  13.446 -0.5882 -0.4768  0.1804
  281TMC3     C 4297   2.242   4.609  13.552 -0.3344 -0.6364  0.1591
  281TMC3     O 4298   2.357   4.569  13.534  0.0802 -0.1404  0.2680
  281TMC3     H 4299   1.973   4.633  13.557 -1.3276 -1.2403  1.7662
  281TMC3    H1 4300   2.290   4.353  13.509  1.1974  3.9644  0.1043
  281TMC3    H2 4301   1.913   4.225  13.398 -0.1690  0.6918 -2.2626
  281TMC3    C7 4302   2.174   4.187  13.378 -0.2899 -0.0016  1.5375
  281TMC3    C8 4303   1.811   4.473  13.409 -1.0787  0.6367 -0.1424
  281TMC3    O1 4304   2.284   4.212  13.327 -0.1711  0.1698  0.3089
  281TMC3    O2 4305   1.743   4.381  13.355  0.0361 -0.1527  0.1282
  282MPD2     C 4306   3.887   0.888  15.339  0.0319  0.4038  0.3637
  282MPD2    C1 4307   3.772   0.964  15.336 -0.9303  0.4081 -0.0247
  282MPD2    C2 4308   3.703   0.980  15.215 -0.0354  0.1029 -0.6898
  282MPD2    C3 4309   3.754   0.915  15.107  0.3761  0.0857  0.4126
  282MPD2    C4 4310   3.868   0.840  15.109  0.2509  0.7207 -0.0245
  282MPD2    C5 4311   3.940   0.837  15.224 -0.5947 -0.9749 -0.0155
  282MPD2     H 4312   3.610   1.034  15.224  0.6732  1.1021  0.6597
  282MPD2    H1 4313   3.904   0.789  15.020 -1.3662 -1.4218  0.5590
  282MPD2    H2 4314   3.947   0.861  15.426  1.1630  1.9146  0.0585
  282MPD2    H3 4315   4.029   0.777  15.238 -0.6026 -0.2538  3.0622
  282MPD2     N 4316   3.690   0.940  14.991  0.9811 -0.2926  0.6848
  282MPD2    H5 4317   3.617   1.009  15.007  1.3284  0.6769 -1.8838
  282MPD2    N1 4318   3.726   1.029  15.455  0.0568  0.0005  0.4369
  282MPD2    H7 4319   3.645   1.088  15.442 -0.2523 -0.8104 -1.2975
  283TMC3    C1 4320   3.703   1.119  15.662 -0.3896  0.4437 -0.1776
  283TMC3    C2 4321   3.778   1.182  15.758  0.1706  0.1354 -0.6472
  283TMC3    C3 4322   3.728   1.297  15.809  1.2910  0.3209  0.6633
  283TMC3    C4 4323   3.580   1.165  15.631 -0.2889  0.5920 -0.0706
  283TMC3    C5 4324   3.530   1.279  15.685 -0.7350  0.1824 -0.1958
  283TMC3    C6 4325   3.605   1.355  15.766  0.4997 -0.0248 -0.6048
  283TMC3     C 4326   3.783   1.035  15.580 -0.0004 -0.5770 -0.4999
  283TMC3     O 4327   3.885   0.991  15.628 -0.1835 -0.0261 -0.6744
  283TMC3     H 4328   3.879   1.150  15.779  0.2690 -0.1845 -1.5953
  283TMC3    H1 4329   3.520   1.097  15.571 -0.2099  0.5882 -0.1451
  283TMC3    H2 4330   3.573   1.455  15.792 -0.9846  0.0814 -2.7452
  283TMC3    C7 4331   3.379   1.304  15.666  0.2497 -0.3924 -0.2487
  283TMC3    C8 4332   3.830   1.383  15.865 -0.4044  0.1895 -0.1980
  283TMC3    O1 4333   3.329   1.396  15.730 -0.1856  0.2587 -0.4145
  283TMC3    O2 4334   3.910   1.335  15.939  0.2315 -0.2142 -0.1180
  284MPD2     C 4335   1.405   0.348  12.433  0.3619  0.6889  0.3824
  284MPD2    C1 4336   1.541   0.330  12.434  0.2671  0.2227 -0.3020
  284MPD2    C2 4337   1.602   0.250  12.534  0.1492  0.4109 -0.0666
  284MPD2    C3 4338   1.527   0.185  12.629 -0.0122 -0.1956 -0.4484
  284MPD2    C4 4339   1.394   0.205  12.628 -0.1414 -0.9284 -0.0569
  284MPD2    C5 4340   1.335   0.280  12.533 -0.2048  0.0566  0.5403
  284MPD2     H 4341   1.710   0.236  12.536  0.2472  1.5022  1.9420
  284MPD2    H1 4342   1.331   0.170  12.710  0.9160 -0.4676  0.9484
  284MPD2    H2 4343   1.355   0.402  12.353  0.9960  2.9571  1.5058
  284MPD2    H3 4344   1.228   0.292  12.537 -0.0885  0.9755  0.9035
  284MPD2     N 4345   1.593   0.121  12.730  0.3305  0.2963 -0.1071
  284MPD2    H5 4346   1.695   0.119  12.727  0.4312  4.5865  0.0464
  284MPD2    N1 4347   1.632   0.375  12.332  0.1228  0.0137 -0.2964
  284MPD2    H7 4348   1.730   0.350  12.342 -0.6833 -2.9476 -0.0028
  285TMC3    C1 4349   1.699   0.490  12.144 -0.5191  0.1779 -0.1493
  285TMC3    C2 4350   1.790   0.401  12.102  0.4324 -0.3084 -0.5794
  285TMC3    C3 4351   1.889   0.443  12.019 -0.3497 -0.7470 -0.0899
  285TMC3    C4 4352   1.704   0.622  12.111 -0.0505 -0.4650 -0.8103
  285TMC3    C5 4353   1.805   0.660  12.028 -1.1196  1.0196  0.4072
  285TMC3    C6 4354   1.904   0.574  11.984 -0.3664  0.4200 -0.2824
  285TMC3     C 4355   1.591   0.453  12.228 -0.2357 -0.0704  0.7222
  285TMC3     O 4356   1.491   0.522  12.211 -0.2248  0.1364  0.1724
  285TMC3     H 4357   1.789   0.297  12.132 -0.7017 -0.2766 -0.5029
  285TMC3    H1 4358   1.636   0.697  12.149  1.5619  0.7342 -0.3222
  285TMC3    H2 4359   1.977   0.607  11.911 -0.4672 -1.3954 -1.2086
  285TMC3    C7 4360   1.803   0.794  11.970  0.1486 -0.0759 -0.1997
  285TMC3    C8 4361   1.979   0.341  11.979  0.4549  0.2542 -0.1456
  285TMC3    O1 4362   1.909   0.850  11.953 -0.1941 -0.0721 -0.8624
  285TMC3    O2 4363   1.954   0.217  11.980  0.7431  0.3023  0.1685
  286MPD2     C 4364   2.891   4.306   1.364 -0.2640 -0.4508 -0.7551
  286MPD2    C1 4365   2.790   4.260   1.284 -0.4313  0.5425 -0.1762
  286MPD2    C2 4366   2.805   4.134   1.228 -0.7095  0.0957  0.0393
  286MPD2    C3 4367   2.914   4.050   1.254 -0.3243  0.0215 -0.3767
  286MPD2    C4 4368   3.007   4.104   1.337  0.1453 -0.9003  0.1598
  286MPD2    C5 4369   2.998   4.230   1.389 -0.2165 -0.0327  0.6214
  286MPD2     H 4370   2.722   4.103   1.165  1.0829 -0.1263 -2.1855
  286MPD2    H1 4371   3.094   4.046   1.368  0.3964 -0.7901 -0.3399
  286MPD2    H2 4372   2.889   4.406   1.405 -1.6744 -1.1616  0.8941
  286MPD2    H3 4373   3.080   4.272   1.445  1.8799 -2.3687 -0.7338
  286MPD2     N 4374   2.926   3.916   1.211  0.0867 -0.9060  0.1533
  286MPD2    H5 4375   3.001   3.870   1.262 -0.1571  0.1482  1.4630
  286MPD2    N1 4376   2.682   4.346   1.246 -0.4746  0.2086  0.2427
  286MPD2    H7 4377   2.625   4.309   1.170  0.4762  0.8698 -0.7767
  287TMC3    C1 4378   2.939   3.727   1.073  0.4168 -0.1474 -0.6123
  287TMC3    C2 4379   2.929   3.681   0.945  0.6937  0.0333  0.2611
  287TMC3    C3 4380   3.030   3.596   0.907  0.4386  0.0963  0.8811
  287TMC3    C4 4381   3.040   3.688   1.159  0.3440 -0.4728  0.7682
  287TMC3    C5 4382   3.139   3.598   1.116 -0.5231 -0.0721 -0.1028
  287TMC3    C6 4383   3.129   3.551   0.988 -0.8313 -0.0500  0.0403
  287TMC3     C 4384   2.873   3.853   1.102 -0.3029 -0.3492  0.2893
  287TMC3     O 4385   2.778   3.888   1.033  0.6862 -0.2848  0.4240
  287TMC3     H 4386   2.862   3.734   0.877 -1.6994 -1.1164  1.6984
  287TMC3    H1 4387   3.038   3.717   1.263 -1.6101 -0.3480  0.6964
  287TMC3    H2 4388   3.200   3.481   0.946  1.9785  1.2238  2.6781
  287TMC3    C7 4389   3.270   3.617   1.177 -0.1448 -0.2419 -0.8836
  287TMC3    C8 4390   3.024   3.551   0.767  0.2539  0.6610 -0.1017
  287TMC3    O1 4391   3.273   3.713   1.253 -0.0766  0.5259  0.5100
  287TMC3    O2 4392   2.908   3.547   0.715  0.8086 -0.0511  0.0569
  288TMC3    C1 4393   3.573   2.951  14.606  0.4599 -0.0826  0.1517
  288TMC3    C2 4394   3.520   3.022  14.708  0.6397 -0.5194  0.3983
  288TMC3    C3 4395   3.600   3.115  14.767  0.2269  0.7150  1.4957
  288TMC3    C4 4396   3.705   2.970  14.570  0.3402 -0.0108 -0.0961
  288TMC3    C5 4397   3.775   3.080  14.606 -0.0110  0.4755  0.0712
  288TMC3    C6 4398   3.721   3.149  14.714 -0.3537  0.8204  0.0803
  288TMC3     C 4399   3.484   2.891  14.508  0.6807  0.2805  0.2748
  288TMC3     O 4400   3.514   2.898  14.389  0.0692 -0.1857 -0.2243
  288TMC3     H 4401   3.415   3.017  14.737  0.7939 -0.3405  0.9927
  288TMC3    H1 4402   3.751   2.906  14.496 -0.7275 -0.1078 -0.6766
  288TMC3    H2 4403   3.787   3.214  14.770  1.1848  0.2866 -1.1398
  288TMC3    C7 4404   3.834   3.163  14.510 -0.2420 -0.8692  0.0055
  288TMC3    C8 4405   3.560   3.164  14.900  0.1706 -0.1243 -0.0789
  288TMC3    O1 4406   3.864   3.273  14.553 -0.2068  0.6104  0.5509
  288TMC3    O2 4407   3.633   3.256  14.943 -0.4548  0.9078 -0.1537
  289MPD2     C 4408   4.209   2.711  14.574 -0.9166  0.5771  0.4969
  289MPD2    C1 4409   4.164   2.804  14.483 -0.0213 -0.1777 -0.1077
  289MPD2    C2 4410   4.041   2.789  14.421 -0.3019  0.5813 -0.0060
  289MPD2    C3 4411   3.965   2.674  14.441 -0.1771 -0.1471  0.2407
  289MPD2    C4 4412   4.012   2.589  14.537 -0.8539 -0.7027 -0.0813
  289MPD2    C5 4413   4.131   2.601  14.602  0.1099 -0.0987  0.1971
  289MPD2     H 4414   4.013   2.860  14.345  0.9954 -1.5615 -2.4879
  289MPD2    H1 4415   3.953   2.500  14.552 -1.4804 -0.4287 -0.9327
  289MPD2    H2 4416   4.292   2.722  14.644 -1.1220 -0.4897  0.9098
  289MPD2    H3 4417   4.160   2.526  14.675  2.6757 -0.5265 -1.2424
  289MPD2     N 4418   3.847   2.645  14.374  0.2525 -0.0808 -0.5473
  289MPD2    H5 4419   3.800   2.558  14.399  0.5964  0.1715  0.9497
  289MPD2    N1 4420   4.247   2.918  14.472  0.6161 -0.0143  0.0154
  289MPD2    H7 4421   4.333   2.932  14.523  1.4596 -2.1966 -0.8250
  290TMC3    C1 4422   3.655   2.667  14.230 -0.2962  0.2147  0.0493
  290TMC3    C2 4423   3.615   2.711  14.108  0.4484  0.0265 -0.4280
  290TMC3    C3 4424   3.483   2.696  14.075 -0.5327 -0.5226 -0.7266
  290TMC3    C4 4425   3.579   2.586  14.305  0.3967 -0.0165  0.5855
  290TMC3    C5 4426   3.450   2.567  14.264 -0.0280 -0.8574 -0.5198
  290TMC3    C6 4427   3.397   2.620  14.145  0.6265 -0.1877 -0.1453
  290TMC3     C 4428   3.777   2.723  14.274 -0.2281 -0.4769  0.3990
  290TMC3     O 4429   3.803   2.835  14.241  1.0362 -0.1859  0.1661
  290TMC3     H 4430   3.679   2.779  14.053  2.6945 -0.8496  1.1042
  290TMC3    H1 4431   3.603   2.575  14.410 -1.0175  1.6083  1.0942
  290TMC3    H2 4432   3.289   2.613  14.139  0.5636 -0.3551  1.1135
  290TMC3    C7 4433   3.368   2.477  14.346 -0.0709 -0.3768  0.9382
  290TMC3    C8 4434   3.414   2.814  14.022 -0.4567  0.0917 -0.4997
  290TMC3    O1 4435   3.252   2.462  14.317  0.5718 -0.0526 -0.4755
  290TMC3    O2 4436   3.306   2.802  13.969 -0.2636 -0.1258  0.0867
  291MPD2     C 4437   3.691   3.017  17.726  0.1068 -0.6360  0.2714
  291MPD2    C1 4438   3.727   2.934   0.085  0.5074 -0.1920  0.3513
  291MPD2    C2 4439   3.793   2.991   0.196 -0.2625 -0.1036 -0.1785
  291MPD2    C3 4440   3.835   3.123   0.190 -0.0053  0.1560  0.3980
  291MPD2    C4 4441   3.789   3.208   0.090  0.3784 -0.2231  0.3735
  291MPD2    C5 4442   3.718   3.152  17.733  0.0104  0.4594  0.1582
  291MPD2     H 4443   3.810   2.934   0.286 -1.0889  1.1130  0.7382
  291MPD2    H1 4444   3.802   3.315   0.087  0.1037 -0.2072 -0.1907
  291MPD2    H2 4445   3.636   2.986  17.637 -1.1238  1.0878  0.4274
  291MPD2    H3 4446   3.702   3.209  17.643 -1.9478  0.1032  0.2937
  291MPD2     N 4447   3.912   3.187   0.288  0.3499  0.1281  0.1412
  291MPD2    H5 4448   3.922   3.287   0.273  0.6199  0.5229  3.0166
  291MPD2    N1 4449   3.681   2.800   0.086 -0.0107  0.1549  0.1496
  291MPD2    H7 4450   3.694   2.756   0.176 -0.5578 -2.2564 -0.9355
  292TMC3    C1 4451   3.601   2.591   0.013 -0.1927 -0.3999  0.0662
  292TMC3    C2 4452   3.580   2.570   0.142 -0.4355  0.1502  0.7783
  292TMC3    C3 4453   3.569   2.440   0.184  0.1515 -0.0790  0.5239
  292TMC3    C4 4454   3.598   2.488  17.665  0.0296  0.2731  0.2225
  292TMC3    C5 4455   3.589   2.364  17.710 -0.0437 -0.1364  0.1937
  292TMC3    C6 4456   3.574   2.338   0.098  0.8044 -0.5280 -0.4692
  292TMC3     C 4457   3.637   2.727  17.728  0.4845 -1.6795  0.1334
  292TMC3     O 4458   3.623   2.759  17.612  0.0582  0.1288 -0.1908
  292TMC3     H 4459   3.542   2.651   0.205  1.8117  1.7820  0.0115
  292TMC3    H1 4460   3.619   2.506  17.560  2.6816 -0.1405  0.6742
  292TMC3    H2 4461   3.569   2.234   0.128  0.7599 -0.4364 -0.1574
  292TMC3    C7 4462   3.543   2.258  17.619 -0.2085  0.3004 -0.2577
  292TMC3    C8 4463   3.503   2.433   0.309 -0.7321 -0.3913 -0.0583
  292TMC3    O1 4464   3.551   2.144  17.657  0.1969 -0.3746 -0.0759
  292TMC3    O2 4465   3.543   2.511   0.397 -0.0842  0.1096 -0.2436
  293MPD2     C 4466   0.200   4.363  12.765  0.6761 -0.0204 -0.6608
  293MPD2    C1 4467   0.154   4.256  12.832 -0.5639  0.1941 -0.4526
  293MPD2    C2 4468   0.200   4.224  12.954  0.0880 -0.8534 -0.6358
  293MPD2    C3 4469   0.309   4.299  13.003 -0.6449  0.3072 -0.3758
  293MPD2    C4 4470   0.360   4.409  12.929 -0.0097  0.1473 -0.2880
  293MPD2    C5 4471   0.298   4.441  12.810 -0.5632 -0.4412  0.0526
  293MPD2     H 4472   0.170   4.135  13.007 -3.2265 -0.7051 -2.3077
  293MPD2    H1 4473   0.448   4.465  12.958 -0.2070  0.1227  0.3488
  293MPD2    H2 4474   0.155   4.382  12.669  0.9049  1.1587 -0.5316
  293MPD2    H3 4475   0.342   4.522  12.752  1.2635 -1.1573  0.4244
  293MPD2     N 4476   0.370   4.261  13.124  0.0303  0.3134  0.0291
  293MPD2    H5 4477   0.345   4.171  13.166  1.0070  0.7483  1.5426
  293MPD2    N1 4478   0.053   4.176  12.772  0.6688  0.2058 -0.7278
  293MPD2    H7 4479   0.033   4.199  12.675 -0.0799  0.9221 -0.4096
  294TMC3    C1 4480   4.615   4.014  12.741  1.3586  0.5285  1.0819
  294TMC3    C2 4481   4.641   3.888  12.686  0.3213  0.3775  0.0819
  294TMC3    C3 4482   4.594   3.863  12.561  0.0215  0.2856 -0.2082
  294TMC3    C4 4483   4.561   4.118  12.663  0.4023 -0.4022  0.1260
  294TMC3    C5 4484   4.517   4.086  12.536  0.3579 -0.4046 -0.2135
  294TMC3    C6 4485   4.532   3.958  12.481 -0.5923 -0.0266 -0.6326
  294TMC3     C 4486   4.719   4.066  12.826  0.5382  0.5357 -0.3156
  294TMC3     O 4487   4.731   4.001  12.932  0.3192  0.1411 -0.1031
  294TMC3     H 4488   4.692   3.813  12.746 -1.3919 -0.3188  0.6795
  294TMC3    H1 4489   4.553   4.218  12.705 -0.9234 -0.9224  1.0869
  294TMC3    H2 4490   4.507   3.944  12.376 -2.8831 -0.9813  0.0243
  294TMC3    C7 4491   4.452   4.186  12.460 -0.3433  0.0511 -0.2448
  294TMC3    C8 4492   4.667   3.760  12.489 -0.5088 -0.2340 -0.0341
  294TMC3    O1 4493   4.402   4.280  12.524  0.2060 -0.1394 -0.2850
  294TMC3    O2 4494   0.038   3.720  12.524  0.0483  0.1663  0.3215
  295MPD2     C 4495   0.651   2.809   0.885  0.0522 -0.2638 -0.3206
  295MPD2    C1 4496   0.703   2.917   0.810 -0.4100 -0.2364 -0.0667
  295MPD2    C2 4497   0.675   3.049   0.842 -0.2644  0.3332 -0.1085
  295MPD2    C3 4498   0.589   3.079   0.946  0.3186 -0.0629 -0.5289
  295MPD2    C4 4499   0.543   2.972   1.025 -0.0640 -0.2921  0.0217
  295MPD2    C5 4500   0.574   2.841   0.994 -0.3662 -0.3054  0.2853
  295MPD2     H 4501   0.705   3.125   0.770 -1.3022  2.2251  1.4694
  295MPD2    H1 4502   0.494   2.983   1.121 -2.0858  0.7140 -1.1455
  295MPD2    H2 4503   0.681   2.705   0.876  1.8533  0.2892 -0.7293
  295MPD2    H3 4504   0.556   2.763   1.067 -0.3180 -1.2216 -0.6787
  295MPD2     N 4505   0.556   3.215   0.990 -0.2613 -0.2205 -0.1427
  295MPD2    H5 4506   0.493   3.217   1.070 -0.7939  1.8619 -0.6048
  295MPD2    N1 4507   0.786   2.901   0.695  0.2654 -0.2540 -0.1250
  295MPD2    H7 4508   0.828   2.984   0.655  1.3619 -0.3058  0.9136
  296TMC3    C1 4509   0.563   3.443   1.013 -0.1397  0.9990  0.0233
  296TMC3    C2 4510   0.644   3.553   1.011  0.5323  0.2755 -0.1217
  296TMC3    C3 4511   0.592   3.677   1.018  0.6762  0.3260  0.6359
  296TMC3    C4 4512   0.431   3.458   1.048  0.2826  0.2158  0.4869
  296TMC3    C5 4513   0.386   3.580   1.076 -1.1348 -0.1269 -0.8381
  296TMC3    C6 4514   0.468   3.691   1.062 -0.7023  0.5451  0.7115
  296TMC3     C 4515   0.612   3.327   0.950 -0.0770  0.0249  0.1911
  296TMC3     O 4516   0.708   3.339   0.873 -0.1723  0.8608 -1.2276
  296TMC3     H 4517   0.747   3.534   0.983 -0.5183 -3.1081 -1.6946
  296TMC3    H1 4518   0.366   3.373   1.035 -1.8414  2.2349 -2.1519
  296TMC3    H2 4519   0.436   3.789   1.096 -0.9957  0.8078 -0.3370
  296TMC3    C7 4520   0.255   3.604   1.133  0.3540  0.2053  0.4690
  296TMC3    C8 4521   0.693   3.786   1.026  0.2183 -0.6358 -0.4118
  296TMC3    O1 4522   0.196   3.710   1.108 -0.0199  0.0012  0.1704
  296TMC3    O2 4523   0.812   3.754   1.037  0.1458 -0.2021  0.3656
  297MPD2     C 4524   2.953   0.021  16.087  0.6157  0.0942  0.5572
  297MPD2    C1 4525   2.961   0.162  16.082 -0.6801  0.3206  0.7333
  297MPD2    C2 4526   3.079   0.226  16.079 -0.5991  0.0399  0.5712
  297MPD2    C3 4527   3.200   0.161  16.092  0.3665  0.4454 -0.2909
  297MPD2    C4 4528   3.191   0.025  16.094  0.6128  0.8799 -0.3930
  297MPD2    C5 4529   3.071   4.695  16.097 -0.4232  0.0732 -0.9828
  297MPD2     H 4530   3.066   0.334  16.072 -1.0282 -0.0296  0.3544
  297MPD2    H1 4531   3.278   4.697  16.092 -0.2054 -0.2927  1.8901
  297MPD2    H2 4532   2.860   4.703  16.082  0.8910 -0.2841 -0.5059
  297MPD2    H3 4533   3.069   4.588  16.083  0.6113  0.0002 -0.5719
  297MPD2     N 4534   3.330   0.222  16.090 -0.3856  0.0728 -0.3249
  297MPD2    H5 4535   3.404   0.158  16.066  0.4713  0.7659  0.4710
  297MPD2    N1 4536   2.840   0.235  16.056 -0.1143  0.2443 -0.0588
  297MPD2    H7 4537   2.841   0.335  16.039  2.2017  0.4096  1.0265
  298TMC3    C1 4538   2.622   0.285  16.028 -0.2301 -0.2722 -0.2826
  298TMC3    C2 4539   2.663   0.365  15.929  0.2238 -0.1156 -0.3901
  298TMC3    C3 4540   2.585   0.473  15.896  0.6537  0.1620 -0.8190
  298TMC3    C4 4541   2.511   0.310  16.105  0.5648  0.6097  0.3203
  298TMC3    C5 4542   2.422   0.414  16.072  0.0592  0.9417 -0.7344
  298TMC3    C6 4543   2.462   0.497  15.968  0.1160  0.0427  0.1102
  298TMC3     C 4544   2.711   0.187  16.084 -0.5834 -0.7623  0.0955
  298TMC3     O 4545   2.667   0.078  16.127  0.2745 -0.2265 -0.0585
  298TMC3     H 4546   2.738   0.336  15.856  0.2254 -1.5150  0.1668
  298TMC3    H1 4547   2.492   0.245  16.189  0.5119  0.4408  0.1796
  298TMC3    H2 4548   2.396   0.575  15.931 -0.8752 -1.8814 -2.1404
  298TMC3    C7 4549   2.317   0.453  16.163  0.2294  0.9112 -0.0294
  298TMC3    C8 4550   2.620   0.553  15.778  0.0960  0.0105  0.3905
  298TMC3    O1 4551   2.319   0.417  16.282 -0.6824 -0.3942  0.1009
  298TMC3    O2 4552   2.740   0.567  15.765  0.5987 -0.4539 -0.2899
  299MPD2     C 4553   3.608   0.199  10.669  0.5770  0.7144 -0.1488
  299MPD2    C1 4554   3.545   0.132  10.773 -0.2804 -0.2952 -0.2307
  299MPD2    C2 4555   3.409   0.104  10.754  0.1640 -0.7937 -0.4246
  299MPD2    C3 4556   3.336   0.156  10.650 -0.6380 -0.0483  0.8777
  299MPD2    C4 4557   3.401   0.230  10.550  1.1460  0.1690  0.2052
  299MPD2    C5 4558   3.534   0.259  10.568 -0.5334  0.1032 -0.5200
  299MPD2     H 4559   3.348   0.053  10.828 -0.9720 -0.4435 -1.1267
  299MPD2    H1 4560   3.344   0.268  10.466 -1.9245  0.3220  2.3673
  299MPD2    H2 4561   3.716   0.205  10.676  0.8605 -1.8080 -2.4413
  299MPD2    H3 4562   3.584   0.307  10.484 -2.3544  1.9390 -0.5642
  299MPD2     N 4563   3.196   0.119  10.639 -0.4371 -1.1571  0.2232
  299MPD2    H5 4564   3.159   0.054  10.707 -2.1480  0.0883  0.4885
  299MPD2    N1 4565   3.623   0.099  10.884  0.5156  0.4973  0.0329
  299MPD2    H7 4566   3.722   0.120  10.882  0.2411  2.0546  2.2526
  300TMC3    C1 4567   2.985   0.122  10.588  0.0339 -0.7265  0.1973
  300TMC3    C2 4568   2.878   0.210  10.593  0.2911 -0.4238 -0.0345
  300TMC3    C3 4569   2.766   0.176  10.665  0.2234  0.1021  0.1033
  300TMC3    C4 4570   2.978   0.005  10.663  0.0637 -0.3146  0.5395
  300TMC3    C5 4571   2.856   4.702  10.717 -0.3955 -0.9031 -0.0145
  300TMC3    C6 4572   2.749   0.051  10.723  0.0959 -0.2479  0.0061
  300TMC3     C 4573   3.111   0.176  10.549 -0.7838 -0.0613  0.0714
  300TMC3     O 4574   3.112   0.268  10.467 -0.1101 -0.3235  0.3000
  300TMC3     H 4575   2.901   0.305  10.547 -2.0975  0.5917  0.8966
  300TMC3    H1 4576   3.059   4.670  10.663  1.0042  0.7338 -0.6249
  300TMC3    H2 4577   2.652   0.025  10.764  0.4772 -2.2271 -0.3959
  300TMC3    C7 4578   2.865   4.577  10.792 -0.4353 -0.2720 -0.9292
  300TMC3    C8 4579   2.728   0.292  10.743 -0.5981  0.0434 -0.3585
  300TMC3    O1 4580   2.922   4.482  10.739  0.1293 -0.0769  0.3005
  300TMC3    O2 4581   2.792   0.393  10.732 -0.1694  0.6302 -0.2381
  301MPD2     C 4582   1.165   1.668   0.645  0.3450 -1.2025 -0.1487
  301MPD2    C1 4583   1.049   1.616   0.603 -0.4494 -0.0776  0.0304
  301MPD2    C2 4584   1.017   1.488   0.646  0.6803 -0.6944  0.0849
  301MPD2    C3 4585   1.110   1.402   0.711 -0.0910  1.0656 -0.0199
  301MPD2    C4 4586   1.228   1.460   0.746 -0.3123 -0.2217  0.4391
  301MPD2    C5 4587   1.257   1.587   0.707 -0.0143  0.2186  0.2530
  301MPD2     H 4588   0.920   1.452   0.614  1.2113 -1.9407 -0.1204
  301MPD2    H1 4589   1.304   1.406   0.800  2.6655  2.1545 -1.3709
  301MPD2    H2 4590   1.210   1.758   0.604 -2.3579  0.2072 -0.0279
  301MPD2    H3 4591   1.352   1.626   0.743 -0.5911  0.0494  1.9594
  301MPD2     N 4592   1.090   1.263   0.742 -0.3326 -0.3052  0.3279
  301MPD2    H5 4593   1.168   1.217   0.788 -0.2282  0.0829  0.5467
  301MPD2    N1 4594   0.957   1.683   0.517  0.5117 -0.5205  0.0152
  301MPD2    H7 4595   0.881   1.628   0.478  0.2452  0.1584 -0.4210
  302TMC3    C1 4596   0.973   1.053   0.762 -0.6513 -0.6929  0.0264
  302TMC3    C2 4597   1.052   1.004   0.860  0.2816  0.5456 -0.4242
  302TMC3    C3 4598   1.071   0.869   0.861 -0.5059  0.1045  0.1124
  302TMC3    C4 4599   0.912   0.968   0.676  0.1355  0.9231  0.0337
  302TMC3    C5 4600   0.932   0.831   0.676 -0.0787 -0.3567  0.9629
  302TMC3    C6 4601   1.017   0.780   0.775  0.0544 -0.2274 -0.8202
  302TMC3     C 4602   0.987   1.185   0.706 -0.2633 -0.0637 -0.3753
  302TMC3     O 4603   0.893   1.221   0.637  0.7641 -0.0644 -0.4262
  302TMC3     H 4604   1.105   1.076   0.921  0.7168 -1.7968  1.9644
  302TMC3    H1 4605   0.844   1.007   0.600  0.2482 -1.5543 -1.3462
  302TMC3    H2 4606   1.028   0.674   0.792  0.7819  0.0790  0.5850
  302TMC3    C7 4607   0.861   0.728   0.615  0.3564  0.7028 -0.3012
  302TMC3    C8 4608   1.160   0.812   0.963  0.0900 -0.3537  0.1543
  302TMC3    O1 4609   0.898   0.613   0.607 -0.3256 -0.6772  0.4038
  302TMC3    O2 4610   1.155   0.692   0.978  0.0198 -0.1993  0.4865
  303MPD2     C 4611   0.799   3.021  10.754 -0.3951 -0.9796 -0.5640
  303MPD2    C1 4612   0.689   3.100  10.746 -0.0745 -0.0990 -0.1326
  303MPD2    C2 4613   0.707   3.224  10.682  0.4741  0.4875  0.2343
  303MPD2    C3 4614   0.829   3.268  10.624 -0.2213  0.0068  0.1217
  303MPD2    C4 4615   0.935   3.179  10.634  0.2385 -0.4114  0.8926
  303MPD2    C5 4616   0.921   3.061  10.704 -0.2382 -0.5548  0.4389
  303MPD2     H 4617   0.629   3.298  10.668  1.3604  1.3686 -0.1070
  303MPD2    H1 4618   1.033   3.201  10.592 -1.7930  2.6309 -2.2449
  303MPD2    H2 4619   0.807   2.924  10.803  2.1777 -1.7350 -2.4820
  303MPD2    H3 4620   1.004   2.996  10.731  1.2775  0.9124 -0.7167
  303MPD2     N 4621   0.851   3.387  10.549 -0.0429  0.4885  0.4582
  303MPD2    H5 4622   0.949   3.404  10.530  0.2783  2.2234  3.6704
  303MPD2    N1 4623   0.564   3.062  10.805 -0.4260  0.1260 -0.6178
  303MPD2    H7 4624   0.557   2.967  10.839 -2.7019  0.7786  0.6700
  304TMC3    C1 4625   0.331   3.067  10.819 -0.0843  0.0654  0.1908
  304TMC3    C2 4626   0.222   3.132  10.862  0.8976 -0.0008  0.1702
  304TMC3    C3 4627   0.099   3.086  10.863  0.5752 -0.0765  0.1760
  304TMC3    C4 4628   0.319   2.940  10.770  0.0936 -0.1506 -0.3863
  304TMC3    C5 4629   0.190   2.886  10.773 -0.1571  0.4232  0.2695
  304TMC3    C6 4630   0.079   2.959  10.823 -0.5116 -0.7454  0.6556
  304TMC3     C 4631   0.456   3.141  10.806 -0.3400  0.1694  0.4906
  304TMC3     O 4632   0.448   3.261  10.799 -0.3472  0.6528  0.4784
  304TMC3     H 4633   0.240   3.232  10.900 -1.9663  0.6444 -0.2067
  304TMC3    H1 4634   0.395   2.898  10.706  1.4781 -0.0445  1.1777
  304TMC3    H2 4635   4.718   2.914  10.833 -1.5369  1.4897  0.7588
  304TMC3    C7 4636   0.147   2.813  10.649 -0.4143 -0.2067 -0.3856
  304TMC3    C8 4637   0.002   3.166  10.793  1.2374 -0.0788  0.1029
  304TMC3    O1 4638   0.236   2.750  10.601  0.8342 -0.7809  0.4510
  304TMC3    O2 4639   4.670   3.107  10.710 -0.1398  0.5286 -0.2926
  305MPD2     C 4640   4.005   1.480  14.475  0.3327  0.3243 -0.0556
  305MPD2    C1 4641   3.954   1.356  14.467  0.4353 -0.3476 -0.2246
  305MPD2    C2 4642   3.922   1.303  14.343 -0.5068  0.3074 -0.0129
  305MPD2    C3 4643   3.926   1.391  14.233  0.0286  0.4561 -0.7234
  305MPD2    C4 4644   3.983   1.517  14.244  0.2735 -0.6407  0.2040
  305MPD2    C5 4645   4.024   1.560  14.367  0.2154  0.6087  0.8113
  305MPD2     H 4646   3.876   1.206  14.328  0.2233  0.1974 -1.5118
  305MPD2    H1 4647   3.991   1.587  14.161  0.9156  0.3916  1.1254
  305MPD2    H2 4648   4.048   1.513  14.568  1.0288  0.6167 -0.4801
  305MPD2    H3 4649   4.059   1.661  14.381  0.8713  0.6541 -1.1138
  305MPD2     N 4650   3.898   1.355  14.102  0.0348 -0.2901  0.4212
  305MPD2    H5 4651   3.928   1.420  14.030 -1.5794  0.5741  0.5158
  305MPD2    N1 4652   3.951   1.279  14.588  0.4192  0.3493 -0.3130
  305MPD2    H7 4653   3.990   1.318  14.674  2.6607  0.5835 -1.4418
  306TMC3    C1 4654   3.920   1.105  14.728 -0.6209 -0.2594 -0.1547
  306TMC3    C2 4655   3.986   0.984  14.741  0.2645  0.7030  0.0911
  306TMC3    C3 4656   4.062   0.967  14.854 -0.2250  0.3684 -0.1513
  306TMC3    C4 4657   3.913   1.204  14.822 -0.5321  0.0300  0.2845
  306TMC3    C5 4658   3.983   1.169  14.937  0.7847 -0.0483  0.3254
  306TMC3    C6 4659   4.059   1.057  14.953 -0.6472 -0.1689 -0.4539
  306TMC3     C 4660   3.895   1.151  14.596 -0.1137 -0.4972 -0.1942
  306TMC3     O 4661   3.847   1.076  14.517  0.0642  0.3082  0.1089
  306TMC3     H 4662   3.979   0.907  14.665 -0.9400 -0.1934  1.1017
  306TMC3    H1 4663   3.845   1.288  14.815 -1.3532 -0.5932  0.9404
  306TMC3    H2 4664   4.115   1.042  15.044  0.5241 -0.3366 -1.2012
  306TMC3    C7 4665   3.929   1.232  15.057  0.1342 -1.2223  0.7190
  306TMC3    C8 4666   4.127   0.836  14.865 -0.2994 -0.3273  0.1062
  306TMC3    O1 4667   3.813   1.268  15.057  0.1232 -0.3870  0.0764
  306TMC3    O2 4668   4.096   0.746  14.793 -0.1021  0.3295  0.3443
  307MPD2     C 4669   2.144   4.572   0.369 -0.5009  0.3335 -0.9707
  307MPD2    C1 4670   2.085   4.685   0.432  0.1131 -0.5463 -0.1547
  307MPD2    C2 4671   2.018   4.668   0.551  0.5820  0.0967 -0.2781
  307MPD2    C3 4672   2.020   4.547   0.616 -0.2061 -0.1471 -0.5832
  307MPD2    C4 4673   2.081   4.439   0.563  0.1280 -0.6844 -0.4929
  307MPD2    C5 4674   2.145   4.450   0.438  0.0353  0.5969 -0.2240
  307MPD2     H 4675   1.970   0.019   0.592  0.3402  0.0424 -0.4486
  307MPD2    H1 4676   2.064   4.339   0.600 -2.0252 -0.8068 -1.8133
  307MPD2    H2 4677   2.195   4.573   0.273  4.4123 -0.5042  1.6303
  307MPD2    H3 4678   2.200   4.369   0.392  2.6708  0.9880  2.1995
  307MPD2     N 4679   1.958   4.517   0.746 -0.8257  0.5909  0.0704
  307MPD2    H5 4680   1.972   4.422   0.777  2.7989  0.7975 -0.8865
  307MPD2    N1 4681   2.071   0.070   0.365 -0.2089 -0.1648 -0.1340
  307MPD2    H7 4682   2.013   0.144   0.404 -0.6952 -0.5906 -0.0445
  308TMC3    C1 4683   1.581   4.479   0.850 -0.1410 -0.6941 -0.1586
  308TMC3    C2 4684   1.531   4.584   0.920 -0.0429 -0.1713  0.6506
  308TMC3    C3 4685   1.626   4.650   1.000  0.5481  0.0066 -0.2385
  308TMC3    C4 4686   1.716   4.454   0.837 -1.1249 -0.1303  0.2476
  308TMC3    C5 4687   1.806   4.529   0.908  0.3273 -0.6307 -0.5458
  308TMC3    C6 4688   1.754   4.616   1.002  0.6835  0.2700 -0.1698
  308TMC3     C 4689   1.486   4.378   0.802  0.1218 -0.3853  0.3064
  308TMC3     O 4690   1.537   4.269   0.767 -0.9152 -0.3815  0.2840
  308TMC3     H 4691   1.426   4.610   0.932  0.4601  1.9499  0.5012
  308TMC3    H1 4692   1.746   4.387   0.757  0.6328 -0.5491  1.2592
  308TMC3    H2 4693   1.832   4.657   1.064  0.3715 -0.3413  0.6260
  308TMC3    C7 4694   1.888   4.607   0.818  0.1451 -0.4105 -0.1122
  308TMC3    C8 4695   1.601   0.045   1.055  0.2939 -0.4198 -0.2790
  308TMC3    O1 4696   1.875   4.728   0.815 -0.4796  0.0500  0.5288
  308TMC3    O2 4697   1.693   0.089   1.126  0.3591  0.1756  0.3293
  309MPD2     C 4698   1.105   0.137  17.199  0.3658 -0.0405  0.3509
  309MPD2    C1 4699   1.050   0.116  17.074 -0.1169  0.2892 -0.2212
  309MPD2    C2 4700   0.924   0.077  17.063  0.6162 -0.4512 -0.3541
  309MPD2    C3 4701   0.848   0.053  17.176  0.4681  0.1622  0.1764
  309MPD2    C4 4702   0.904   0.071  17.300  0.0232  0.3992  0.4488
  309MPD2    C5 4703   1.033   0.107  17.314 -0.2464  0.2766 -0.1188
  309MPD2     H 4704   0.880   0.069  16.964 -0.7334 -0.9445  0.2883
  309MPD2    H1 4705   0.843   0.065  17.389  0.2821 -3.8245  0.3371
  309MPD2    H2 4706   1.209   0.157  17.223  0.5163 -0.1714 -0.2048
  309MPD2    H3 4707   1.073   0.127  17.413  0.8408 -3.1771  0.1392
  309MPD2     N 4708   0.710   4.734  17.178  0.0670  0.1459  0.3009
  309MPD2    H5 4709   0.672   4.732  17.272 -1.2124 -0.4798 -0.2369
  309MPD2    N1 4710   1.132   0.136  16.957  0.5031  0.3048  0.4996
  309MPD2    H7 4711   1.081   0.136  16.868  3.4154  0.3506 -1.1688
  310TMC3    C1 4712   1.321   0.150  16.819  0.2472 -0.4116  0.1924
  310TMC3    C2 4713   1.267   0.239  16.735  1.0672  0.9062 -0.3651
  310TMC3    C3 4714   1.317   0.264  16.610 -0.2271 -0.0160  0.7185
  310TMC3    C4 4715   1.443   0.084  16.788 -1.0567 -0.5826 -1.0022
  310TMC3    C5 4716   1.485   0.107  16.659  0.8444  0.0150  0.0048
  310TMC3    C6 4717   1.426   0.192  16.568 -0.6206 -0.0256 -0.2753
  310TMC3     C 4718   1.269   0.141  16.949 -0.2569 -0.6595 -0.0644
  310TMC3     O 4719   1.352   0.121  17.042 -0.3005  0.6456 -0.1463
  310TMC3     H 4720   1.177   0.293  16.761  0.5613  0.1336 -0.5241
  310TMC3    H1 4721   1.487   0.015  16.858 -1.1361 -0.3311 -0.7032
  310TMC3    H2 4722   1.477   0.204  16.473 -1.3013  1.6375 -0.4317
  310TMC3    C7 4723   1.568   0.002  16.611 -0.4981  0.4834 -0.1047
  310TMC3    C8 4724   1.217   0.288  16.508 -0.1633 -0.0051  0.5530
  310TMC3    O1 4725   1.626   4.672  16.691  0.5258 -0.2580 -0.5554
  310TMC3    O2 4726   1.106   0.237  16.533  0.2797  0.0136 -0.2433
  311MPD2     C 4727   3.066   1.100  13.397  0.0814 -0.2343 -0.2227
  311MPD2    C1 4728   3.031   1.180  13.288  0.4556 -0.1411  0.5100
  311MPD2    C2 4729   2.896   1.196  13.260 -0.3594  0.2141 -0.1893
  311MPD2    C3 4730   2.801   1.145  13.342  0.1306  0.5307 -0.4833
  311MPD2    C4 4731   2.837   1.070  13.455 -0.5722 -0.2217  0.2098
  311MPD2    C5 4732   2.967   1.038  13.465 -0.0458  0.3185  0.7644
  311MPD2     H 4733   2.864   1.250  13.171 -2.4025 -2.3873 -1.0338
  311MPD2    H1 4734   2.769   1.020  13.523 -1.8509  0.9945 -0.1910
  311MPD2    H2 4735   3.168   1.075  13.424  0.4527  1.3748 -0.1491
  311MPD2    H3 4736   2.998   0.972  13.546 -0.4627 -0.5402  0.2338
  311MPD2     N 4737   2.660   1.187  13.318  0.1269 -0.2216  0.6481
  311MPD2    H5 4738   2.636   1.241  13.235  1.1767  0.1914  0.6088
  311MPD2    N1 4739   3.128   1.241  13.203  0.1117  0.0800  0.1320
  311MPD2    H7 4740   3.092   1.299  13.128  1.8650  0.7905 -0.1429
  312TMC3    C1 4741   2.455   1.261  13.370 -0.1485  0.2601  0.9512
  312TMC3    C2 4742   2.331   1.213  13.400 -0.3684  0.6051  0.1795
  312TMC3    C3 4743   2.227   1.304  13.412  0.5967 -0.4925 -0.6220
  312TMC3    C4 4744   2.489   1.392  13.352  0.2833 -0.7016 -0.0597
  312TMC3    C5 4745   2.384   1.473  13.363 -0.1066  0.3644  0.5953
  312TMC3    C6 4746   2.258   1.434  13.391  0.9440  0.1895  0.0493
  312TMC3     C 4747   2.559   1.173  13.409  0.0174 -0.4534  0.6421
  312TMC3     O 4748   2.546   1.103  13.511 -0.6966 -0.1470  0.0647
  312TMC3     H 4749   2.322   1.105  13.403 -0.1849  0.5758 -0.3787
  312TMC3    H1 4750   2.595   1.410  13.342  0.2515 -0.7731 -0.5627
  312TMC3    H2 4751   2.188   1.510  13.425 -0.3985 -1.5286  1.1527
  312TMC3    C7 4752   2.410   1.605  13.426 -0.9853 -0.1888 -0.3336
  312TMC3    C8 4753   2.094   1.253  13.413 -0.0426  0.5979  0.2533
  312TMC3    O1 4754   2.334   1.700  13.418 -0.4191 -0.1567 -0.3132
  312TMC3    O2 4755   2.067   1.140  13.448  0.0889  0.0133  0.0919
  313MPD2     C 4756   1.676   0.538  11.716 -0.4619  0.8687  0.0787
  313MPD2    C1 4757   1.667   0.583  11.585 -0.3932 -0.7326 -0.3699
  313MPD2    C2 4758   1.623   0.502  11.486 -0.1721 -0.7502 -0.0634
  313MPD2    C3 4759   1.587   0.366  11.511 -0.1316 -0.3348 -0.0013
  313MPD2    C4 4760   1.603   0.325  11.643 -0.2270  0.1452 -0.0810
  313MPD2    C5 4761   1.641   0.416  11.744  0.3415  0.7812  0.1698
  313MPD2     H 4762   1.626   0.538  11.384  0.0658  1.5069  0.7454
  313MPD2    H1 4763   1.575   0.229  11.685 -0.4617  0.8802  1.4244
  313MPD2    H2 4764   1.712   0.599  11.797  0.4347  1.8830 -1.0748
  313MPD2    H3 4765   1.648   0.382  11.847  3.4884 -1.7254 -0.8647
  313MPD2     N 4766   1.547   0.286  11.410  0.0967 -0.0443 -0.4827
  313MPD2    H5 4767   1.557   0.317  11.313 -3.3956 -1.1371 -1.1907
  313MPD2    N1 4768   1.720   0.712  11.549 -0.5399  0.0913 -0.5974
  313MPD2    H7 4769   1.711   0.726  11.449 -3.2347  4.7262  0.3182
  314TMC3    C1 4770   1.858   0.900  11.567  0.6322  0.4236 -0.0662
  314TMC3    C2 4771   1.981   0.941  11.524 -0.2579 -0.2808 -0.4087
  314TMC3    C3 4772   1.988   1.058  11.445 -0.9845 -0.1962 -0.5707
  314TMC3    C4 4773   1.742   0.968  11.534  0.1257 -0.4801  0.5563
  314TMC3    C5 4774   1.760   1.072  11.449  0.1067 -0.0006  0.6346
  314TMC3    C6 4775   1.878   1.123  11.403  0.3487 -0.9510  0.0815
  314TMC3     C 4776   1.831   0.768  11.608  0.0887  0.4248  0.1344
  314TMC3     O 4777   1.916   0.715  11.678  0.1034  0.3710  0.0953
  314TMC3     H 4778   2.067   0.875  11.522 -1.4874 -1.9602  2.9693
  314TMC3    H1 4779   1.640   0.947  11.566  0.5342 -1.4424  1.1966
  314TMC3    H2 4780   1.885   1.206  11.333 -0.5557 -0.2679  0.7974
  314TMC3    C7 4781   1.652   1.087  11.353 -0.1373 -0.9791 -0.2397
  314TMC3    C8 4782   2.119   1.124  11.420 -0.0739  0.1215  0.2293
  314TMC3    O1 4783   1.540   1.099  11.400 -0.3264 -0.2013 -0.5990
  314TMC3    O2 4784   2.127   1.200  11.322 -0.1146 -0.2665  0.1244
  315MPD2     C 4785   2.109   4.112  17.390 -0.1151 -0.2855  0.3999
  315MPD2    C1 4786   2.196   4.138  17.500  0.3728 -0.4075 -0.2469
  315MPD2    C2 4787   2.236   4.267  17.509 -0.5181  0.8917 -0.6028
  315MPD2    C3 4788   2.204   4.371  17.428 -0.1701 -0.1729  0.0347
  315MPD2    C4 4789   2.121   4.354  17.326  0.6306 -0.3323  0.0056
  315MPD2    C5 4790   2.072   4.220  17.314 -0.2417 -0.0049 -0.5915
  315MPD2     H 4791   2.291   4.293  17.599 -1.8416 -2.1841  1.1015
  315MPD2    H1 4792   2.088   4.432  17.257 -0.2650 -0.9451 -0.2706
  315MPD2    H2 4793   2.074   4.013  17.365  1.4084 -0.9589  0.9417
  315MPD2    H3 4794   2.004   4.196  17.233 -0.5266 -1.3758  0.0568
  315MPD2     N 4795   2.258   4.495  17.463 -0.2625 -0.6239 -0.8211
  315MPD2    H5 4796   2.337   4.488  17.525 -1.2947  0.2426  0.5903
  315MPD2    N1 4797   2.246   4.044  17.596  0.5181 -0.2954 -0.1979
  315MPD2    H7 4798   2.304   4.085  17.669  0.1067  2.6626 -1.5367
  316TMC3    C1 4799   2.323   4.724  17.444  0.2726  0.1931  0.3801
  316TMC3    C2 4800   2.433   4.694  17.527 -0.6658  0.0548  0.5119
  316TMC3    C3 4801   2.520   0.057  17.565  0.5892 -0.3524 -0.0567
  316TMC3    C4 4802   2.303   0.108  17.391  0.0647  0.1419 -0.2722
  316TMC3    C5 4803   2.394   0.210  17.425  0.7255 -0.1042 -0.0017
  316TMC3    C6 4804   2.503   0.184  17.506  0.3174 -1.2552  0.0491
  316TMC3     C 4805   2.224   4.620  17.416 -0.8641 -0.4213  0.1557
  316TMC3     O 4806   2.129   4.658  17.347 -0.1021  0.0679  0.0052
  316TMC3     H 4807   2.445   4.596  17.572  2.8502 -0.5502 -1.8149
  316TMC3    H1 4808   2.227   0.130  17.318 -1.2603 -0.0823  1.0473
  316TMC3    H2 4809   2.558   0.259  17.560  0.4679 -1.1163 -0.3023
  316TMC3    C7 4810   2.360   0.348  17.406 -0.0180 -0.1970  0.1407
  316TMC3    C8 4811   2.612   0.050  17.681  0.4052  0.9142  0.3813
  316TMC3    O1 4812   2.446   0.425  17.447  0.5267 -0.5703 -0.3531
  316TMC3    O2 4813   2.649   0.161  17.717 -0.0074 -0.2963 -0.0574
  317MPD2     C 4814   3.573   3.267  13.266 -1.0715 -0.0704 -0.4557
  317MPD2    C1 4815   3.581   3.149  13.192  0.0246  0.2687 -0.1701
  317MPD2    C2 4816   3.659   3.048  13.241 -0.6519 -0.3765  0.0619
  317MPD2    C3 4817   3.726   3.058  13.363  0.7298  0.0657 -0.2023
  317MPD2    C4 4818   3.710   3.164  13.440  0.1932 -0.0736 -0.4031
  317MPD2    C5 4819   3.639   3.274  13.388 -0.5185 -0.4460  0.6708
  317MPD2     H 4820   3.664   2.955  13.186 -0.3997 -0.7473  0.7031
  317MPD2    H1 4821   3.752   3.173  13.539 -1.3279 -1.2981  0.3584
  317MPD2    H2 4822   3.506   3.348  13.238  0.3230  1.9042  1.9495
  317MPD2    H3 4823   3.620   3.359  13.453 -0.9788  0.3062 -0.4512
  317MPD2     N 4824   3.805   2.943  13.398  0.1082  0.1499  0.4632
  317MPD2    H5 4825   3.808   2.871  13.326  1.1128  0.3066  0.3508
  317MPD2    N1 4826   3.521   3.128  13.067  0.6510  0.2609 -0.6275
  317MPD2    H7 4827   3.564   3.050  13.018  0.6693 -0.4031  0.4551
  318TMC3    C1 4828   3.923   2.791  13.524  0.8074 -0.0537 -0.3297
  318TMC3    C2 4829   3.829   2.704  13.473 -0.7342  0.5925  0.0972
  318TMC3    C3 4830   3.864   2.571  13.471  0.1724  0.0502 -0.5365
  318TMC3    C4 4831   4.045   2.758  13.570  0.2313  0.0265 -0.0061
  318TMC3    C5 4832   4.078   2.624  13.574  0.4841 -0.9226 -0.4296
  318TMC3    C6 4833   3.988   2.535  13.518 -0.1679  0.0646 -0.6660
  318TMC3     C 4834   3.889   2.929  13.509  0.0048 -0.3074 -0.4248
  318TMC3     O 4835   3.932   3.015  13.584 -0.0302 -0.0137 -0.3163
  318TMC3     H 4836   3.726   2.734  13.464 -0.9088 -0.0327  0.0213
  318TMC3    H1 4837   4.107   2.840  13.605  0.1978 -0.3374  0.9142
  318TMC3    H2 4838   4.020   2.434  13.495 -3.3780 -1.2091  0.5833
  318TMC3    C7 4839   4.207   2.570  13.616  0.3612  0.3850  0.0050
  318TMC3    C8 4840   3.777   2.462  13.431 -0.0806  0.7324  0.2424
  318TMC3    O1 4841   4.216   2.451  13.643  0.0897  0.1088  0.2061
  318TMC3    O2 4842   3.811   2.355  13.480  0.2438 -0.2428  0.0614
  319MPD2     C 4843   0.414   3.709  16.280  0.2379 -0.1950  0.1012
  319MPD2    C1 4844   0.307   3.674  16.362  0.0460 -0.4316 -0.3135
  319MPD2    C2 4845   0.196   3.624  16.301  0.1916 -0.2819  0.3516
  319MPD2    C3 4846   0.192   3.627  16.163  0.0227 -1.0173 -0.2528
  319MPD2    C4 4847   0.302   3.649  16.086 -0.3308 -0.1779 -0.0990
  319MPD2    C5 4848   0.421   3.678  16.153 -0.4230 -0.5258  0.5383
  319MPD2     H 4849   0.110   3.599  16.363  0.3492 -0.7209  0.3917
  319MPD2    H1 4850   0.293   3.636  15.979 -0.4659  1.6457 -0.3051
  319MPD2    H2 4851   0.509   3.749  16.315  0.1757  0.6237 -0.6659
  319MPD2    H3 4852   0.507   3.700  16.090  0.1063 -2.4657  0.5913
  319MPD2     N 4853   0.077   3.590  16.089 -0.7559  0.0461  0.1420
  319MPD2    H5 4854   0.080   3.598  15.987 -0.2057  2.4339  0.3572
  319MPD2    N1 4855   0.301   3.706  16.503 -0.0562  0.3229  0.3404
  319MPD2    H7 4856   0.224   3.677  16.563 -0.7001 -1.1551 -1.1929
  320TMC3    C1 4857   4.621   3.488  16.046 -0.6227  0.4184  0.1376
  320TMC3    C2 4858   4.603   3.577  15.947  0.5670  0.1120 -0.3912
  320TMC3    C3 4859   4.516   3.547  15.849  0.0542 -0.3767  0.0777
  320TMC3    C4 4860   4.558   3.366  16.054 -0.3014  0.0437  0.5163
  320TMC3    C5 4861   4.487   3.327  15.947  0.0898  0.1205 -0.5976
  320TMC3    C6 4862   4.464   3.416  15.844  0.5900 -0.8564  0.0332
  320TMC3     C 4863   4.714   3.520  16.148  0.0786  0.6239  0.5970
  320TMC3     O 4864   4.715   3.461  16.256  0.0147  0.0167  0.2064
  320TMC3     H 4865   4.641   3.678  15.954 -0.2217  0.2248  2.1598
  320TMC3    H1 4866   4.599   3.285  16.112  2.4783 -1.0097 -2.9512
  320TMC3    H2 4867   4.396   3.398  15.761  0.7997  2.8273 -0.9547
  320TMC3    C7 4868   4.451   3.181  15.918 -0.5585 -0.5449  0.3900
  320TMC3    C8 4869   4.477   3.657  15.764  0.0136 -0.1883  0.5838
  320TMC3    O1 4870   4.425   3.153  15.803  0.2117 -0.1124  0.3098
  320TMC3    O2 4871   4.556   3.745  15.755 -0.3068  0.3043  0.4841
  321TMC3    C1 4872   0.352   3.830  16.693 -0.6081  0.1410 -0.2772
  321TMC3    C2 4873   0.302   3.740  16.781  0.1204  0.0078 -0.0152
  321TMC3    C3 4874   0.295   3.779  16.913 -0.1097 -0.6142 -0.3025
  321TMC3    C4 4875   0.396   3.949  16.742  0.3153  0.2308 -0.0356
  321TMC3    C5 4876   0.379   3.988  16.869 -0.0227 -0.4952 -0.7201
  321TMC3    C6 4877   0.314   3.907  16.954 -0.2396 -0.2123 -0.1992
  321TMC3     C 4878   0.382   3.803  16.555 -0.8015 -0.2396 -0.8397
  321TMC3     O 4879   0.473   3.867  16.502 -0.1143 -0.5045  0.0133
  321TMC3     H 4880   0.282   3.637  16.756 -1.9642  0.8736 -1.8914
  321TMC3    H1 4881   0.466   4.011  16.686  0.4483  0.4426  0.3623
  321TMC3    H2 4882   0.304   3.925  17.061 -1.4192 -2.2876  0.0368
  321TMC3    C7 4883   0.499   4.028  16.936  0.3144  0.1916 -0.1519
  321TMC3    C8 4884   0.360   3.683  17.006  0.5796  0.3824  0.4074
  321TMC3    O1 4885   0.604   3.986  16.883  0.8395  0.7952 -0.0512
  321TMC3    O2 4886   0.361   3.723  17.119  0.1333  0.4314  0.1467
  322MPD2     C 4887   3.567   0.648  13.894  0.0005  0.2373  0.4715
  322MPD2    C1 4888   3.615   0.548  13.978 -0.0691 -0.5860  0.4545
  322MPD2    C2 4889   3.635   0.425  13.917 -0.4165  0.2997  0.3176
  322MPD2    C3 4890   3.630   0.403  13.783  0.4519  1.1015  0.3798
  322MPD2    C4 4891   3.582   0.503  13.703  0.5883 -0.0920 -0.2654
  322MPD2    C5 4892   3.543   0.620  13.760 -0.1325 -0.5610 -0.4748
  322MPD2     H 4893   3.678   0.343  13.973 -0.9259  1.0429  1.7770
  322MPD2    H1 4894   3.564   0.491  13.597 -0.7186  1.4480 -0.2302
  322MPD2    H2 4895   3.543   0.745  13.936 -0.1344  0.2917  0.2636
  322MPD2    H3 4896   3.517   0.704  13.696  0.3675  0.3001  0.4645
  322MPD2     N 4897   3.668   0.277  13.735  0.4070  0.0650  0.4410
  322MPD2    H5 4898   3.688   0.202  13.800 -0.2086 -0.7106 -0.2694
  322MPD2    N1 4899   3.637   0.588  14.113  0.2724  0.1535  0.2831
  322MPD2    H7 4900   3.633   0.686  14.139 -2.1515 -0.5236  2.3883
  323TMC3    C1 4901   3.730   0.566  14.321 -0.0959  0.1732 -0.4438
  323TMC3    C2 4902   3.818   0.666  14.308  0.1766  0.0130  0.6137
  323TMC3    C3 4903   3.885   0.712  14.420 -0.4311 -0.7755  0.5448
  323TMC3    C4 4904   3.714   0.503  14.439 -0.4176 -0.0179 -0.5154
  323TMC3    C5 4905   3.769   0.558  14.555 -0.4545 -0.0674  0.0331
  323TMC3    C6 4906   3.864   0.659  14.542  0.3617  1.4035  0.3380
  323TMC3     C 4907   3.682   0.500  14.205 -0.7981  0.0321 -0.0571
  323TMC3     O 4908   3.677   0.380  14.198 -0.7745  0.0006 -0.6124
  323TMC3     H 4909   3.833   0.699  14.206 -2.5508 -1.3719 -0.2310
  323TMC3    H1 4910   3.645   0.420  14.442 -0.2658 -0.1451 -0.5592
  323TMC3    H2 4911   3.928   0.696  14.622 -0.1701  0.2172  1.3094
  323TMC3    C7 4912   3.802   0.466  14.655 -0.2419 -0.0176 -0.9236
  323TMC3    C8 4913   3.994   0.806  14.404 -0.8979  0.2751  0.2629
  323TMC3    O1 4914   3.741   0.362  14.638  0.4858  0.2171  0.0669
  323TMC3    O2 4915   4.089   0.802  14.477 -0.2329 -0.2594  0.1657
  324MPD2     C 4916   0.924   1.355  14.091 -0.9199  0.4277  0.6592
  324MPD2    C1 4917   0.890   1.484  14.105  0.1754  1.0196 -0.0812
  324MPD2    C2 4918   0.760   1.513  14.157 -0.0317  0.3478  0.2978
  324MPD2    C3 4919   0.661   1.412  14.177  0.3375  0.1474 -0.2481
  324MPD2    C4 4920   0.700   1.281  14.155 -0.0192  0.7320  0.3821
  324MPD2    C5 4921   0.826   1.251  14.109 -0.8132 -0.1769 -0.3880
  324MPD2     H 4922   0.745   1.619  14.177 -1.5327  0.0475  0.8385
  324MPD2    H1 4923   0.637   1.195  14.175 -0.3810  1.0593  0.6491
  324MPD2    H2 4924   1.019   1.318  14.053 -1.0269 -0.2639  1.0678
  324MPD2    H3 4925   0.853   1.147  14.102  1.7050  0.5803 -1.8490
  324MPD2     N 4926   0.526   1.425  14.232  0.2250  0.6424  0.2440
  324MPD2    H5 4927   0.472   1.339  14.239  0.4634  0.3056 -1.8347
  324MPD2    N1 4928   0.978   1.583  14.071 -0.3084 -0.2670 -0.1613
  324MPD2    H7 4929   0.943   1.678  14.083 -2.0903 -0.9228 -0.2363
  325TMC3    C1 4930   0.328   1.547  14.276  0.2727  0.3169  0.5893
  325TMC3    C2 4931   0.253   1.461  14.203  0.0363 -0.0967  0.2647
  325TMC3    C3 4932   0.118   1.481  14.186  0.2598 -0.6787 -0.8615
  325TMC3    C4 4933   0.277   1.656  14.332  0.0018  0.7095 -0.9116
  325TMC3    C5 4934   0.143   1.678  14.321 -0.0636 -0.0549  0.1198
  325TMC3    C6 4935   0.061   1.590  14.248  0.2223  0.3343 -0.6388
  325TMC3     C 4936   0.468   1.549  14.251 -0.1177  0.0252 -0.4415
  325TMC3     O 4937   0.520   1.659  14.243 -0.6705 -0.0822 -0.3642
  325TMC3     H 4938   0.299   1.393  14.132 -0.2657 -1.0513  0.9713
  325TMC3    H1 4939   0.341   1.721  14.390  0.8196 -1.8490  1.0808
  325TMC3    H2 4940   4.695   1.619  14.229 -0.1120  1.3755  2.7900
  325TMC3    C7 4941   0.111   1.818  14.334  0.4585 -0.4425 -0.1309
  325TMC3    C8 4942   0.041   1.382  14.124  0.5702 -0.5564  0.6139
  325TMC3    O1 4943   0.201   1.900  14.310  0.5963 -0.1040  0.4016
  325TMC3    O2 4944   0.102   1.296  14.062 -0.3098 -0.0585  0.9041
  326MPD2     C 4945   2.179   2.797  10.863 -0.4165 -0.1796  0.0846
  326MPD2    C1 4946   2.172   2.829  10.731  0.1905 -0.1052 -0.9149
  326MPD2    C2 4947   2.259   2.933  10.694 -0.2496  0.1929 -0.5924
  326MPD2    C3 4948   2.354   2.981  10.773 -0.5161 -0.1766 -0.3187
  326MPD2    C4 4949   2.360   2.931  10.903 -0.1040 -0.3933  0.0261
  326MPD2    C5 4950   2.277   2.835  10.947  0.6434 -0.1575 -0.7029
  326MPD2     H 4951   2.256   2.955  10.588 -2.0363 -1.5068 -0.8875
  326MPD2    H1 4952   2.442   2.955  10.970  1.6132 -0.4987 -1.9958
  326MPD2    H2 4953   2.104   2.727  10.898 -0.6605 -0.3223 -0.7136
  326MPD2    H3 4954   2.280   2.809  11.052 -1.4163  1.6420 -0.2009
  326MPD2     N 4955   2.440   3.087  10.743 -0.0069 -0.4484 -0.0055
  326MPD2    H5 4956   2.498   3.126  10.817  1.3855 -0.8545 -0.8672
  326MPD2    N1 4957   2.080   2.789  10.633  0.5695  0.2792 -0.8410
  326MPD2    H7 4958   2.090   2.836  10.545  3.1928  0.3768 -0.4774
  327TMC3    C1 4959   1.872   2.714  10.551  0.0823  0.4301 -0.7380
  327TMC3    C2 4960   1.872   2.823  10.471 -0.0637 -0.4989 -0.0990
  327TMC3    C3 4961   1.756   2.845  10.403  0.7886  0.0287  0.3643
  327TMC3    C4 4962   1.768   2.626  10.558 -0.2991  0.2154  0.1757
  327TMC3    C5 4963   1.650   2.659  10.505  0.5848 -0.5147 -0.1052
  327TMC3    C6 4964   1.644   2.767  10.420 -0.5499  0.3117 -0.7579
  327TMC3     C 4965   1.975   2.703  10.652  0.4967 -0.6816 -0.4153
  327TMC3     O 4966   1.951   2.633  10.752 -0.2158 -0.3260  0.1988
  327TMC3     H 4967   1.941   2.907  10.476  0.8235 -1.2459  0.2607
  327TMC3    H1 4968   1.784   2.535  10.615 -1.2787  0.7434  1.2906
  327TMC3    H2 4969   1.555   2.788  10.362 -0.7262 -1.1747 -1.0211
  327TMC3    C7 4970   1.537   2.654  10.594 -1.1708 -0.0209  0.3317
  327TMC3    C8 4971   1.727   2.986  10.412  0.0880 -0.6242 -0.8378
  327TMC3    O1 4972   1.455   2.745  10.582  0.4217 -0.0597  0.1764
  327TMC3    O2 4973   1.804   3.062  10.355 -0.1791 -0.2656  0.1688
  328MPD2     C 4974   0.020   3.054  17.360 -0.4188  0.3314  0.0592
  328MPD2    C1 4975   4.696   2.934  17.346 -0.4854 -0.3771 -0.5082
  328MPD2    C2 4976   4.625   2.913  17.233  0.3392 -0.7293  0.0904
  328MPD2    C3 4977   4.615   3.007  17.125  0.2180 -0.1089 -0.8635
  328MPD2    C4 4978   4.690   3.118  17.142 -0.5750  0.3318 -0.3194
  328MPD2    C5 4979   0.019   3.139  17.257 -0.2459 -0.0391 -0.0216
  328MPD2     H 4980   4.567   2.822  17.222  3.8579 -3.1042  1.0514
  328MPD2    H1 4981   4.675   3.202  17.074 -1.3113 -0.2349 -0.8508
  328MPD2    H2 4982   0.070   3.083  17.452  0.8451  0.0968 -0.5557
  328MPD2    H3 4983   0.069   3.234  17.273 -0.7160  0.0441  1.0002
  328MPD2     N 4984   4.519   3.000  17.024  0.0139  0.4939 -0.2012
  328MPD2    H5 4985   4.512   3.079  16.961  1.2343  2.2644  1.8903
  328MPD2    N1 4986   4.710   2.860  17.463  0.0511 -0.5314  0.0051
  328MPD2    H7 4987   0.008   2.911  17.545 -0.0329  1.0615 -0.9484
  329TMC3    C1 4988   4.660   2.681  17.605 -0.0230  0.7516 -0.4700
  329TMC3    C2 4989   4.730   2.737  17.709  0.5660 -0.2512  0.0252
  329TMC3    C3 4990   4.671   2.733   0.091 -0.9514  0.5052  0.3402
  329TMC3    C4 4991   4.535   2.629  17.628 -1.1347 -0.0484 -0.1930
  329TMC3    C5 4992   4.489   2.624   0.013 -0.4857  0.1271  0.2045
  329TMC3    C6 4993   4.556   2.670   0.125 -0.0624 -0.0808 -0.1861
  329TMC3     C 4994   4.664   2.735  17.472 -0.2756  0.3979  0.0448
  329TMC3     O 4995   4.615   2.666  17.385  0.6669 -0.5287  0.4447
  329TMC3     H 4996   0.079   2.795  17.680  0.0055  1.1814  1.2632
  329TMC3    H1 4997   4.467   2.591  17.553 -1.7077 -1.2562  0.9258
  329TMC3    H2 4998   4.527   2.663   0.230  1.8703  1.2247  0.4449
  329TMC3    C7 4999   4.358   2.563   0.025  0.2465  0.2330 -0.0537
  329TMC3    C8 5000   4.727   2.822   0.193 -0.2687  0.0446  0.2012
  329TMC3    O1 5001   4.333   2.470  17.698  0.5398  0.5321 -0.2221
  329TMC3    O2 5002   0.109   2.854   0.200 -0.6704  0.3365  0.2705
  330TMC3    C1 5003   2.179   1.765   9.651 -0.1278  0.7945  0.6762
  330TMC3    C2 5004   2.136   1.714   9.766 -0.1731  0.5770 -0.6880
  330TMC3    C3 5005   2.226   1.727   9.871 -0.6351  0.1297  0.5153
  330TMC3    C4 5006   2.308   1.805   9.633 -0.4259 -0.4282  0.0175
  330TMC3    C5 5007   2.401   1.786   9.737  0.8734 -0.4007 -0.7276
  330TMC3    C6 5008   2.360   1.753   9.862  0.2235  0.1278 -0.1427
  330TMC3     C 5009   2.084   1.789   9.541 -0.1931 -0.1525  0.2409
  330TMC3     O 5010   2.119   1.826   9.433  0.0918 -0.2240  0.2922
  330TMC3     H 5011   2.036   1.675   9.783  0.0349  0.1231 -0.5244
  330TMC3    H1 5012   2.344   1.842   9.538  1.4942  0.8994  1.2701
  330TMC3    H2 5013   2.427   1.735   9.946 -0.2606  2.2421  0.6983
  330TMC3    C7 5014   2.540   1.774   9.693  0.6737  0.0948 -0.7523
  330TMC3    C8 5015   2.205   1.654   9.996  0.3485 -0.9241  0.3935
  330TMC3    O1 5016   2.584   1.832   9.593 -0.5573  0.1428 -0.2623
  330TMC3    O2 5017   2.271   1.685  10.093 -0.1415  0.2456 -0.1291
  331MPD2     C 5018   4.571   1.318  12.856 -0.3291 -0.5301 -0.0174
  331MPD2    C1 5019   4.678   1.333  12.765 -0.5223 -0.3192  1.1256
  331MPD2    C2 5020   0.025   1.224  12.756  0.5826 -0.2649  0.2508
  331MPD2    C3 5021   0.014   1.110  12.826 -0.1338  0.0019  0.6392
  331MPD2    C4 5022   4.636   1.093  12.909 -0.2648 -0.3506  0.0457
  331MPD2    C5 5023   4.559   1.207  12.928 -0.2495  0.0662 -0.3052
  331MPD2     H 5024   0.116   1.236  12.698  0.2367 -1.4966 -0.5422
  331MPD2    H1 5025   4.614   0.998  12.955 -0.7458  1.4540  3.5485
  331MPD2    H2 5026   4.503   1.400  12.878 -2.2125 -2.2097  0.3717
  331MPD2    H3 5027   4.479   1.210  13.001 -0.2236 -3.3632 -0.1485
  331MPD2     N 5028   0.121   1.021  12.818 -0.5297  0.1625  0.3734
  331MPD2    H5 5029   0.178   1.040  12.736 -1.0679  0.0374 -0.0306
  331MPD2    N1 5030   4.692   1.457  12.696 -0.2769  0.5548 -0.2322
  331MPD2    H7 5031   4.629   1.531  12.724 -0.9533 -0.0937 -0.0484
  332TMC3    C1 5032   0.241   0.827  12.833  0.4418  0.3391 -0.4776
  332TMC3    C2 5033   0.283   0.857  12.709  0.1574 -0.1167  0.4108
  332TMC3    C3 5034   0.408   0.826  12.676  1.0010 -0.4740  0.2772
  332TMC3    C4 5035   0.321   0.765  12.926 -0.5627  0.3112  0.6776
  332TMC3    C5 5036   0.443   0.728  12.874 -0.4287 -0.6302 -0.3423
  332TMC3    C6 5037   0.495   0.761  12.753  0.4190  0.0269 -0.5763
  332TMC3     C 5038   0.143   0.910  12.893  0.7775 -0.1216  0.3602
  332TMC3     O 5039   0.116   0.884  13.010 -0.9322 -0.1914  0.3749
  332TMC3     H 5040   0.213   0.879  12.629 -0.2348 -0.5545  0.6315
  332TMC3    H1 5041   0.277   0.725  13.017 -0.4885 -3.0173 -0.7795
  332TMC3    H2 5042   0.588   0.727  12.710  0.5587  1.2231 -1.2106
  332TMC3    C7 5043   0.523   0.635  12.949  0.0424  0.3274 -0.5752
  332TMC3    C8 5044   0.442   0.830  12.531  0.1344 -0.4606  0.1620
  332TMC3    O1 5045   0.452   0.552  13.007 -0.5358 -0.1847  0.4702
  332TMC3    O2 5046   0.544   0.888  12.496  0.5139  0.0974 -0.4123
  333MPD2     C 5047   0.380   1.370  11.449 -0.2999  0.4306 -0.2301
  333MPD2    C1 5048   0.431   1.269  11.378 -0.2359  0.4230  0.5982
  333MPD2    C2 5049   0.423   1.142  11.435  0.3702  0.1451 -0.3086
  333MPD2    C3 5050   0.346   1.112  11.536  0.8274  0.5244 -0.0585
  333MPD2    C4 5051   0.279   1.214  11.596  0.6204  0.2791 -0.0639
  333MPD2    C5 5052   0.305   1.343  11.554  0.4907 -1.0520 -0.0688
  333MPD2     H 5053   0.460   1.058  11.377  1.3952  1.0047 -0.9113
  333MPD2    H1 5054   0.211   1.209  11.681  0.8861  3.1301  0.3022
  333MPD2    H2 5055   0.385   1.476  11.428  0.0519  0.6115  0.7833
  333MPD2    H3 5056   0.266   1.428  11.609  2.1071 -0.1127 -0.3574
  333MPD2     N 5057   0.343   0.980  11.583  0.4234  0.3423  0.0102
  333MPD2    H5 5058   0.383   0.902  11.532  0.1572  0.1834  0.0437
  333MPD2    N1 5059   0.495   1.300  11.259  1.0854 -0.8102  0.1056
  333MPD2    H7 5060   0.496   1.400  11.246  0.7860 -0.9665 -1.0769
  334TMC3    C1 5061   0.652   1.291  11.090  0.1487  0.2525 -0.2270
  334TMC3    C2 5062   0.786   1.261  11.092  0.2452  0.2111  0.2546
  334TMC3    C3 5063   0.873   1.340  11.025  0.2791  0.5061  0.6740
  334TMC3    C4 5064   0.599   1.405  11.033 -0.5955  0.0975  0.5560
  334TMC3    C5 5065   0.692   1.490  10.975 -0.2539  0.6331  0.3245
  334TMC3    C6 5066   0.828   1.459  10.972  0.0754  0.1315 -0.2636
  334TMC3     C 5067   0.579   1.221  11.189 -0.3001  0.2178  0.1645
  334TMC3     O 5068   0.588   1.097  11.197 -0.6599  0.0119  0.0799
  334TMC3     H 5069   0.824   1.186  11.161 -0.5871  1.6045  2.2320
  334TMC3    H1 5070   0.493   1.426  11.035 -1.2623 -3.2963  0.0360
  334TMC3    H2 5071   0.903   1.534  10.951 -0.6150  1.2357  1.1162
  334TMC3    C7 5072   0.656   1.625  10.954 -0.4836 -0.4106  0.5368
  334TMC3    C8 5073   1.012   1.336  11.070 -0.6545 -0.3069  0.4302
  334TMC3    O1 5074   0.744   1.706  10.980 -0.3876 -0.1792 -0.7773
  334TMC3    O2 5075   1.040   1.266  11.168 -0.7818 -0.2586 -0.5782
  335TMC3    C1 5076   0.258   2.483  17.444  0.4322 -0.4126 -0.5529
  335TMC3    C2 5077   0.172   2.505  17.338  1.1327 -0.7871  0.3055
  335TMC3    C3 5078   0.222   2.550  17.219  0.0332 -0.2939 -0.3701
  335TMC3    C4 5079   0.394   2.501  17.429  0.9817 -0.1708  0.1297
  335TMC3    C5 5080   0.438   2.545  17.305  0.5494 -0.2063 -0.5103
  335TMC3    C6 5081   0.357   2.572  17.199  0.4367 -0.4416 -0.2327
  335TMC3     C 5082   0.201   2.434  17.568 -0.3531 -0.2754 -0.5169
  335TMC3     O 5083   0.081   2.433  17.584 -0.4914 -0.0393  0.1367
  335TMC3     H 5084   0.063   2.505  17.346  0.9699  0.2187 -2.0920
  335TMC3    H1 5085   0.464   2.457  17.499  0.8212 -0.1613  0.2981
  335TMC3    H2 5086   0.398   2.603  17.104 -0.4872 -2.2065 -1.2212
  335TMC3    C7 5087   0.575   2.584  17.281  0.4909 -0.3133  0.6588
  335TMC3    C8 5088   0.145   2.556  17.098 -0.5960 -0.0629  0.1585
  335TMC3    O1 5089   0.611   2.583  17.163  0.3568 -0.1188  0.0523
  335TMC3    O2 5090   0.194   2.627  17.014  0.5856 -0.5051  0.1449
  336MPD2     C 5091   0.223   0.154  16.191 -0.5541  0.7603  0.1840
  336MPD2    C1 5092   0.221   0.110  16.061  0.5070 -0.4324 -0.5211
  336MPD2    C2 5093   0.266   4.713  16.039  0.8015  0.3981 -0.0014
  336MPD2    C3 5094   0.309   4.624  16.134  0.5182 -0.5126  0.1697
  336MPD2    C4 5095   0.305   4.671  16.263 -0.3276 -0.0493 -0.4586
  336MPD2    C5 5096   0.264   0.063  16.287  0.1315  1.0328  0.3050
  336MPD2     H 5097   0.253   4.665  15.943 -0.4526  0.5845  0.0830
  336MPD2    H1 5098   0.333   4.605  16.345 -0.5880  0.6614  0.2083
  336MPD2    H2 5099   0.203   0.257  16.221 -0.2485  1.5153 -2.2021
  336MPD2    H3 5100   0.282   0.095  16.389 -0.2080 -1.6656  1.2100
  336MPD2     N 5101   0.349   4.485  16.115 -0.1988 -0.6559 -0.1754
  336MPD2    H5 5102   0.367   4.434  16.200  0.4161  0.3611  0.3109
  336MPD2    N1 5103   0.181   0.186  15.946 -1.0598 -0.1766 -0.7992
  336MPD2    H7 5104   0.204   0.150  15.853  3.6016 -0.2070  0.3482
  337TMC3    C1 5105   0.113   0.386  15.841  0.4489 -0.2877  1.2404
  337TMC3    C2 5106   0.004   0.458  15.801  0.0732  0.0834 -0.3668
  337TMC3    C3 5107   0.024   0.579  15.731 -0.0065 -0.5298 -0.3364
  337TMC3    C4 5108   0.241   0.422  15.804 -0.4958  0.5624 -0.0893
  337TMC3    C5 5109   0.258   0.531  15.723 -0.5557 -0.2678  0.0066
  337TMC3    C6 5110   0.149   0.613  15.685  1.0773 -0.5247 -0.5178
  337TMC3     C 5111   0.107   0.302  15.957 -1.1013  0.7819 -0.1180
  337TMC3     O 5112   0.019   0.328  16.040  0.1812 -0.1505 -0.3485
  337TMC3     H 5113   4.642   0.415  15.815  0.4278 -0.5472  0.2436
  337TMC3    H1 5114   0.321   0.358  15.840  0.5997  0.0356 -3.3933
  337TMC3    H2 5115   0.156   0.689  15.608  0.6584  0.1130  0.0808
  337TMC3    C7 5116   0.386   0.571  15.672  0.1369 -0.5986 -0.4951
  337TMC3    C8 5117   4.655   0.656  15.664 -0.3207  1.0051 -0.6622
  337TMC3    O1 5118   0.380   0.662  15.585 -0.3071  0.1717  0.1174
  337TMC3    O2 5119   4.668   0.776  15.668 -0.0948 -0.3302 -0.2599
  338MPD2     C 5120   0.697   0.332   0.701  0.1594  0.0994  0.0074
  338MPD2    C1 5121   0.581   0.270   0.650  0.1110  0.0190 -0.4091
  338MPD2    C2 5122   0.458   0.318   0.691  0.3968 -0.5113  0.1322
  338MPD2    C3 5123   0.446   0.408   0.798 -0.1377  0.4498 -0.1597
  338MPD2    C4 5124   0.562   0.458   0.856 -0.0145  0.0622 -0.9847
  338MPD2    C5 5125   0.683   0.425   0.800  0.2423  0.3728  0.2593
  338MPD2     H 5126   0.376   0.266   0.643  0.1276  1.2042 -1.2394
  338MPD2    H1 5127   0.562   0.524   0.942  0.6441 -1.3501  0.0956
  338MPD2    H2 5128   0.801   0.320   0.673  0.4021  1.1552  0.4275
  338MPD2    H3 5129   0.771   0.467   0.848  0.2874 -1.1181  1.5030
  338MPD2     N 5130   0.318   0.428   0.849 -0.3589 -0.0271 -0.3708
  338MPD2    H5 5131   0.237   0.388   0.803 -0.3399 -1.4450  0.8570
  338MPD2    N1 5132   0.587   0.164   0.559  0.5108  0.0347 -0.1790
  338MPD2    H7 5133   0.503   0.115   0.531  0.9002  0.1715 -1.5798
  339TMC3    C1 5134   0.169   0.490   1.014  0.2233  0.7347  0.4923
  339TMC3    C2 5135   0.155   0.491   1.150  0.2009  0.7824 -1.6149
  339TMC3    C3 5136   0.025   0.475   1.197  0.1532  0.4455 -0.0474
  339TMC3    C4 5137   0.066   0.481   0.925  0.0052  0.3201  0.1546
  339TMC3    C5 5138   4.676   0.479   0.978  0.7136  0.3330  0.3560
  339TMC3    C6 5139   4.654   0.465   1.113  0.1168 -0.2010  1.0412
  339TMC3     C 5140   0.299   0.498   0.966  0.9209  0.3257  0.5874
  339TMC3     O 5141   0.378   0.553   1.039  0.4683 -0.4375 -0.0631
  339TMC3     H 5142   0.236   0.499   1.221 -0.0998 -0.4047 -1.1213
  339TMC3    H1 5143   0.072   0.479   0.817 -1.2060  0.2456  0.0904
  339TMC3    H2 5144   4.559   0.429   1.148  0.6687 -0.3332  2.3987
  339TMC3    C7 5145   4.576   0.434   0.884  0.3068 -0.1393 -0.1902
  339TMC3    C8 5146   0.010   0.472   1.345 -0.3212  0.1313  0.0693
  339TMC3    O1 5147   4.610   0.367   0.787  0.0781 -0.2731  0.4256
  339TMC3    O2 5148   0.111   0.458   1.411  0.0260 -0.0812  0.5650
  340MPD2     C 5149   0.406   2.007  10.377 -0.0727 -0.5285 -1.0087
  340MPD2    C1 5150   0.346   2.134  10.354 -0.6914 -0.6212 -0.6345
  340MPD2    C2 5151   0.407   2.241  10.400  0.2991  0.3753 -0.1775
  340MPD2    C3 5152   0.525   2.231  10.479 -0.4488  0.5026 -1.0532
  340MPD2    C4 5153   0.591   2.116  10.487 -0.1906 -0.3900 -0.3158
  340MPD2    C5 5154   0.530   2.007  10.438  0.0202 -0.3028  0.1549
  340MPD2     H 5155   0.363   2.335  10.367  0.3233 -0.6243 -3.0880
  340MPD2    H1 5156   0.676   2.099  10.551  0.5165 -0.0709 -1.1657
  340MPD2    H2 5157   0.361   1.916  10.340  0.6002 -0.4996 -1.8907
  340MPD2    H3 5158   0.579   1.911  10.446  1.1158  0.1391 -1.4249
  340MPD2     N 5159   0.590   2.348  10.522  0.3957  0.0969  0.1882
  340MPD2    H5 5160   0.690   2.339  10.535  0.2220 -1.3843  0.5229
  340MPD2    N1 5161   0.217   2.137  10.287 -0.2328 -0.6143  0.2198
  340MPD2    H7 5162   0.180   2.048  10.256 -1.4974  0.5249 -1.5874
  341TMC3    C1 5163   0.022   2.218  10.163 -0.2751  0.2446  0.2530
  341TMC3    C2 5164   4.732   2.094  10.124 -0.2145  0.1245  0.9463
  341TMC3    C3 5165   4.624   2.077  10.041 -0.1715  0.3489  0.3479
  341TMC3    C4 5166   4.675   2.322  10.125  0.1797  0.7822  0.9799
  341TMC3    C5 5167   4.559   2.298  10.060  0.2243  0.5779 -0.1125
  341TMC3    C6 5168   4.532   2.172  10.011  0.0089  0.4997  0.0868
  341TMC3     C 5169   0.135   2.245  10.250 -0.5407  0.4682  0.2107
  341TMC3     O 5170   0.165   2.359  10.277 -0.1497  0.1950 -0.0136
  341TMC3     H 5171   0.065   2.011  10.131  0.0817  0.3175  0.3302
  341TMC3    H1 5172   4.708   2.421  10.156 -1.2492  1.2573  0.9799
  341TMC3    H2 5173   4.443   2.140   9.959  0.1627 -1.4741  1.0011
  341TMC3    C7 5174   4.481   2.414  10.023  0.0399 -0.0491 -0.4660
  341TMC3    C8 5175   4.586   1.941  10.002 -0.9629  0.1808  0.1409
  341TMC3    O1 5176   4.512   2.523  10.068 -0.0040  0.0555 -0.1093
  341TMC3    O2 5177   4.475   1.901  10.029 -0.0527 -0.5301 -0.1636
  342MPD2     C 5178   3.760   0.986  17.445 -0.2310 -0.2591 -0.4565
  342MPD2    C1 5179   3.687   0.974  17.330 -0.5168  0.3159 -0.1357
  342MPD2    C2 5180   3.620   1.087  17.287 -0.3029  0.0691  0.2159
  342MPD2    C3 5181   3.641   1.209  17.346 -0.3961 -0.3285  0.1315
  342MPD2    C4 5182   3.708   1.217  17.464  0.4421 -0.2089  0.1039
  342MPD2    C5 5183   3.757   1.098  17.520 -1.0900  0.3620  0.9123
  342MPD2     H 5184   3.562   1.088  17.196 -0.1009 -1.3622  0.0665
  342MPD2    H1 5185   3.712   1.312  17.515  1.6191  0.8091 -1.9202
  342MPD2    H2 5186   3.807   0.902  17.496  2.0428 -0.8594 -3.5246
  342MPD2    H3 5187   3.790   1.090  17.623  0.2406  1.0555  0.5384
  342MPD2     N 5188   3.588   1.327  17.295 -0.0947 -0.0703  1.0377
  342MPD2    H5 5189   3.608   1.416  17.340  1.0964  2.0315 -3.6524
  342MPD2    N1 5190   3.680   0.855  17.248 -0.6199 -0.4648 -0.3517
  342MPD2    H7 5191   3.632   0.847  17.159  0.2912 -1.5613 -0.7411
  343TMC3    C1 5192   3.731   0.629  17.195 -0.1471  0.0810  0.3525
  343TMC3    C2 5193   3.836   0.545  17.180  0.4512  0.3757 -0.5565
  343TMC3    C3 5194   3.815   0.417  17.133 -0.5818  0.1967 -0.6441
  343TMC3    C4 5195   3.602   0.591  17.165 -0.0751 -0.6821 -0.1938
  343TMC3    C5 5196   3.581   0.466  17.129  0.1007  0.6025 -0.0742
  343TMC3    C6 5197   3.684   0.379  17.105  0.7583 -0.4392 -0.6342
  343TMC3     C 5198   3.756   0.748  17.279 -0.5519 -0.0024 -0.8839
  343TMC3     O 5199   3.839   0.728  17.365  0.4592  0.1840  0.7106
  343TMC3     H 5200   3.933   0.572  17.219 -0.6691 -0.2961  2.6836
  343TMC3    H1 5201   3.522   0.664  17.171 -0.7478 -1.3921 -0.5325
  343TMC3    H2 5202   3.660   0.277  17.078  0.3896 -0.5924  0.2618
  343TMC3    C7 5203   3.440   0.424  17.125  0.6502 -0.6269  0.5815
  343TMC3    C8 5204   3.936   0.340  17.131  0.9597 -0.0962 -0.1677
  343TMC3    O1 5205   3.427   0.328  17.047  0.0714 -0.3900  0.2247
  343TMC3    O2 5206   4.019   0.369  17.217  0.3125 -0.1926 -0.0762
  344MPD2     C 5207   4.161   0.431  11.214 -0.1457 -0.2185 -0.0721
  344MPD2    C1 5208   4.038   0.440  11.149  0.2180  0.7541 -0.4462
  344MPD2    C2 5209   4.020   0.532  11.044  0.1234 -0.1988 -0.0906
  344MPD2    C3 5210   4.127   0.615  11.004  0.7590 -0.2696 -0.1488
  344MPD2    C4 5211   4.241   0.611  11.075  0.1367 -0.5453  0.6900
  344MPD2    C5 5212   4.257   0.516  11.175  0.1323  0.3747  0.2029
  344MPD2     H 5213   3.925   0.543  10.993 -0.0522  0.0001  0.2832
  344MPD2    H1 5214   4.316   0.678  11.036 -0.4697  0.2347  0.8722
  344MPD2    H2 5215   4.177   0.362  11.296 -0.3818 -0.9702 -0.6514
  344MPD2    H3 5216   4.350   0.512  11.232  0.4775 -0.6124 -0.4348
  344MPD2     N 5217   4.122   0.691  10.883 -0.4458  0.0841  0.0544
  344MPD2    H5 5218   4.212   0.731  10.859  0.8541 -2.3842  0.7146
  344MPD2    N1 5219   3.927   0.353  11.166  0.6072 -0.6772  0.2856
  344MPD2    H7 5220   3.853   0.350  11.098  0.1119 -1.4355  0.8658
  345TMC3    C1 5221   4.053   0.740  10.657 -0.0371 -0.3400 -1.4864
  345TMC3    C2 5222   4.184   0.717  10.607 -0.5989 -0.5171 -0.5099
  345TMC3    C3 5223   4.228   0.797  10.508 -0.6614 -0.0306  0.2830
  345TMC3    C4 5224   3.966   0.809  10.578  0.6750 -0.0698 -0.2518
  345TMC3    C5 5225   4.014   0.861  10.464  0.1669 -0.1429  0.3974
  345TMC3    C6 5226   4.145   0.869  10.435 -0.7174  0.0544 -0.0439
  345TMC3     C 5227   4.017   0.693  10.789 -0.9239 -0.2768  0.4035
  345TMC3     O 5228   3.901   0.664  10.808  0.7870 -0.2714  0.0736
  345TMC3     H 5229   4.255   0.659  10.664 -0.0370  0.6758 -0.0144
  345TMC3    H1 5230   3.863   0.819  10.609  0.3828 -0.2384 -1.1506
  345TMC3    H2 5231   4.177   0.926  10.349 -1.1909  1.1102  0.4770
  345TMC3    C7 5232   3.924   0.967  10.411  0.3156  0.4399 -0.3435
  345TMC3    C8 5233   4.370   0.827  10.514  0.7942 -1.1247 -0.5773
  345TMC3    O1 5234   3.976   1.072  10.384  0.3178 -0.1133 -0.5244
  345TMC3    O2 5235   4.445   0.726  10.522  0.0412  0.6146 -0.2564
  346MPD2     C 5236   3.416   1.912  14.173 -1.0029 -0.2625 -0.2098
  346MPD2    C1 5237   3.529   1.937  14.105 -0.2104 -0.1999 -0.0767
  346MPD2    C2 5238   3.644   1.942  14.175 -0.4126 -0.7500 -0.2228
  346MPD2    C3 5239   3.643   1.938  14.319  0.3451  0.7778  0.3912
  346MPD2    C4 5240   3.519   1.932  14.378 -0.7884  0.1180  0.0566
  346MPD2    C5 5241   3.407   1.917  14.310 -0.4163 -0.1913  0.4075
  346MPD2     H 5242   3.736   1.961  14.122 -0.3624 -0.3891 -0.0010
  346MPD2    H1 5243   3.505   1.933  14.485 -3.4742 -0.1590 -0.2716
  346MPD2    H2 5244   3.322   1.895  14.122 -1.7989  0.3583  1.0277
  346MPD2    H3 5245   3.307   1.903  14.351  0.0942 -2.0199  1.0132
  346MPD2     N 5246   3.760   1.974  14.390 -0.3228  0.0326  0.1054
  346MPD2    H5 5247   3.847   1.988  14.339 -0.0829 -0.6099  0.3446
  346MPD2    N1 5248   3.536   1.948  13.962 -0.7225 -0.2649  0.3216
  346MPD2    H7 5249   3.625   1.977  13.924 -1.0856  2.3238  1.4235
  347TMC3    C1 5250   3.892   2.041  14.576 -0.8904  0.4910  0.3430
  347TMC3    C2 5251   4.005   1.995  14.511  0.1982  0.6786  0.0292
  347TMC3    C3 5252   4.122   2.056  14.554 -0.6457 -0.0938  0.6429
  347TMC3    C4 5253   3.889   2.124  14.684 -0.1597  0.1933  0.2258
  347TMC3    C5 5254   4.005   2.194  14.710 -0.7883 -0.0444 -0.3399
  347TMC3    C6 5255   4.128   2.159  14.645 -0.9103  0.5973 -0.8642
  347TMC3     C 5256   3.761   2.003  14.525 -0.1350  0.0149 -0.0634
  347TMC3     O 5257   3.672   2.007  14.609  0.7404  0.4714 -0.2692
  347TMC3     H 5258   4.017   1.922  14.432  0.5459  0.8375 -0.0614
  347TMC3    H1 5259   3.798   2.155  14.734  0.2227  0.8250  0.5372
  347TMC3    H2 5260   4.226   2.196  14.671 -0.7801 -1.9179  2.3046
  347TMC3    C7 5261   4.001   2.250  14.845  0.4516 -0.0938  0.6393
  347TMC3    C8 5262   4.245   2.015  14.481 -0.0020 -0.1812  0.1018
  347TMC3    O1 5263   3.893   2.247  14.914  0.7185 -0.6647 -0.0213
  347TMC3    O2 5264   4.253   1.897  14.441  0.2237  0.1813 -0.3196
  348MPD2     C 5265   2.369   1.845  12.112  0.0387  0.0881 -0.6089
  348MPD2    C1 5266   2.481   1.800  12.052  0.0340  0.5563  0.8474
  348MPD2    C2 5267   2.496   1.813  11.918  0.2887 -0.2865 -0.3144
  348MPD2    C3 5268   2.399   1.879  11.843  0.4550  0.4294 -0.0504
  348MPD2    C4 5269   2.283   1.920  11.903  0.8313 -0.8195 -0.1888
  348MPD2    C5 5270   2.266   1.898  12.038 -0.3302 -0.3579  0.2647
  348MPD2     H 5271   2.586   1.771  11.876 -0.0402 -1.3826  0.0839
  348MPD2    H1 5272   2.201   1.967  11.848  0.2554  0.1676  1.5180
  348MPD2    H2 5273   2.366   1.822  12.218  2.3325 -0.1447 -0.5875
  348MPD2    H3 5274   2.171   1.925  12.081 -1.6241 -0.5802 -2.4274
  348MPD2     N 5275   2.425   1.887  11.702  0.1044  0.2678  0.6125
  348MPD2    H5 5276   2.518   1.864  11.669 -0.7754 -2.8932  0.3301
  348MPD2    N1 5277   2.585   1.730  12.119  0.0059  0.7766  0.6266
  348MPD2    H7 5278   2.657   1.692  12.059 -1.4598  1.6727 -1.6929
  349TMC3    C1 5279   2.689   1.587  12.270 -0.1784 -0.2966  0.5518
  349TMC3    C2 5280   2.674   1.507  12.382 -0.3837  0.2290 -0.0518
  349TMC3    C3 5281   2.703   1.374  12.374  0.7985  0.7801  0.2055
  349TMC3    C4 5282   2.755   1.543  12.160 -0.1702  0.0651 -0.4418
  349TMC3    C5 5283   2.775   1.407  12.144  0.3064  0.7053 -0.4312
  349TMC3    C6 5284   2.752   1.321  12.252 -0.0344  0.1495  0.5311
  349TMC3     C 5285   2.589   1.690  12.255 -0.4473  0.1060 -0.2512
  349TMC3     O 5286   2.513   1.720  12.349 -0.3166  0.4685  0.5069
  349TMC3     H 5287   2.638   1.551  12.474 -3.3715 -3.0725  0.3570
  349TMC3    H1 5288   2.796   1.603  12.079  0.4300 -0.6876 -0.6945
  349TMC3    H2 5289   2.770   1.214  12.245  0.1773  0.1756  0.6955
  349TMC3    C7 5290   2.696   1.371  12.026 -0.6795 -0.5031 -0.2491
  349TMC3    C8 5291   2.734   1.287  12.493  0.8390  0.2000  1.1078
  349TMC3    O1 5292   2.590   1.313  12.050 -0.7226 -0.1710 -0.0351
  349TMC3    O2 5293   2.823   1.206  12.482  0.5808 -0.8940 -0.5147
  350MPD2     C 5294   2.262   0.025  11.047 -0.1831  0.1926 -0.7375
  350MPD2    C1 5295   2.172   4.714  10.952 -0.7438 -0.0897  0.4357
  350MPD2    C2 5296   2.039   4.705  10.990 -0.3561  0.8311 -0.7360
  350MPD2    C3 5297   1.993   0.008  11.117 -0.4168 -0.1075  0.6649
  350MPD2    C4 5298   2.089   0.047  11.209  0.2989  0.1873  0.3563
  350MPD2    C5 5299   2.224   0.050  11.177 -0.6732 -0.1308 -0.0491
  350MPD2     H 5300   1.968   4.665  10.920  0.1086  1.4918 -1.5823
  350MPD2    H1 5301   2.054   0.078  11.307 -1.7490 -1.5403  0.1677
  350MPD2    H2 5302   2.366   0.018  11.016 -0.7946 -2.8283 -2.1591
  350MPD2    H3 5303   2.302   0.071  11.249  0.5205  2.6326 -2.1624
  350MPD2     N 5304   1.862   0.018  11.156  0.0507  0.2362 -0.2845
  350MPD2    H5 5305   1.851   0.051  11.252 -1.5083 -0.1317 -0.3267
  350MPD2    N1 5306   2.215   4.688  10.815  1.0193  0.6303 -0.2090
  350MPD2    H7 5307   2.146   4.640  10.758  0.6496 -1.5009  2.0772
  351TMC3    C1 5308   2.335   4.714  10.609  0.0984  0.0165 -0.1365
  351TMC3    C2 5309   2.277   4.609  10.553 -0.8812  0.0056  1.3003
  351TMC3    C3 5310   2.307   4.596  10.421 -0.2859  0.8776 -0.0289
  351TMC3    C4 5311   2.407   0.071  10.541 -0.2409 -0.1209 -0.4105
  351TMC3    C5 5312   2.413   0.059  10.407  0.9128  0.4487 -0.8428
  351TMC3    C6 5313   2.374   4.687  10.344 -0.8435 -0.1361  0.0038
  351TMC3     C 5314   2.332   4.729  10.753  0.3619  0.3290 -0.1442
  351TMC3     O 5315   2.430   0.044  10.800 -0.2193  0.3791  0.7833
  351TMC3     H 5316   2.233   4.530  10.613  0.3509 -0.1138  2.0508
  351TMC3    H1 5317   2.465   0.139  10.602 -0.6129  0.8522 -1.1478
  351TMC3    H2 5318   2.374   4.682  10.236  0.3279  0.1551 -0.0079
  351TMC3    C7 5319   2.525   0.123  10.333  0.7476 -0.0199 -0.1379
  351TMC3    C8 5320   2.292   4.475  10.362  0.2102 -0.4159 -0.3672
  351TMC3    O1 5321   2.553   0.078  10.222  0.3348 -0.1005 -0.3345
  351TMC3    O2 5322   2.348   4.464  10.253  0.1214  0.0735  0.5623
  352MPD2     C 5323   0.496   2.371   0.794  0.6606 -0.0680 -0.4826
  352MPD2    C1 5324   0.426   2.280   0.715 -0.1371 -1.2803  0.4789
  352MPD2    C2 5325   0.496   2.227   0.604  0.4634 -0.4728  0.2407
  352MPD2    C3 5326   0.630   2.253   0.584 -0.6933 -0.1256  0.1820
  352MPD2    C4 5327   0.696   2.342   0.667 -0.1851 -0.6624  0.9880
  352MPD2    C5 5328   0.626   2.406   0.770 -0.2985  0.1104  1.0174
  352MPD2     H 5329   0.442   2.152   0.546 -1.1239  0.0377  1.0594
  352MPD2    H1 5330   0.801   2.368   0.657 -0.5427  1.2462  2.1225
  352MPD2    H2 5331   0.456   2.414   0.885 -1.5541 -3.6491  0.2250
  352MPD2    H3 5332   0.683   2.473   0.834 -0.4786  1.0857  0.1665
  352MPD2     N 5333   0.702   2.202   0.475  0.6264  0.2687 -1.0533
  352MPD2    H5 5334   0.801   2.224   0.479  0.8838 -0.6950 -2.0805
  352MPD2    N1 5335   0.294   2.256   0.745 -0.2693 -0.3272 -0.0630
  352MPD2    H7 5336   0.264   2.287   0.836 -1.1183 -0.5807 -0.2566
  353TMC3    C1 5337   0.752   2.043   0.307 -0.1038  0.3074  0.3771
  353TMC3    C2 5338   0.846   1.995   0.394  0.0255  0.8089 -0.0658
  353TMC3    C3 5339   0.890   1.867   0.370  0.1006  0.3830 -0.0181
  353TMC3    C4 5340   0.702   1.956   0.208 -0.7482  0.0529 -0.2417
  353TMC3    C5 5341   0.747   1.830   0.207 -0.8580 -0.1494  0.5082
  353TMC3    C6 5342   0.837   1.775   0.292 -0.0877  0.3423 -0.7762
  353TMC3     C 5343   0.651   2.116   0.378 -0.9009 -0.2138 -0.0175
  353TMC3     O 5344   0.534   2.104   0.339  0.3357  0.1065  0.0782
  353TMC3     H 5345   0.886   2.052   0.477  0.9648  0.5182 -0.3231
  353TMC3    H1 5346   0.618   1.996   0.153 -0.0453 -0.2510 -1.5173
  353TMC3    H2 5347   0.889   1.685   0.263  1.6666  0.8271  0.8192
  353TMC3    C7 5348   0.676   1.731   0.125  0.1161 -0.2655 -0.4773
  353TMC3    C8 5349   0.970   1.817   0.486  0.6676 -0.0365  0.3944
  353TMC3    O1 5350   0.688   1.616   0.164  0.2911 -0.2797 -0.4563
  353TMC3    O2 5351   1.047   1.898   0.541  0.2479 -0.3224 -0.5495
  354TMC3    C1 5352   1.677   3.130  13.159  0.0031  0.5499  0.2844
  354TMC3    C2 5353   1.559   3.198  13.172 -1.1451 -0.3132 -0.2028
  354TMC3    C3 5354   1.495   3.233  13.058 -0.5733  0.5121 -0.6810
  354TMC3    C4 5355   1.727   3.079  13.040 -0.4968  0.4455  0.8316
  354TMC3    C5 5356   1.658   3.121  12.929  0.2249 -0.0655  0.5712
  354TMC3    C6 5357   1.551   3.206  12.937  1.0904  0.0651 -0.0026
  354TMC3     C 5358   1.742   3.086  13.283  0.5775 -0.0608 -0.8454
  354TMC3     O 5359   1.673   3.102  13.378  0.0953  0.2826  0.0224
  354TMC3     H 5360   1.522   3.242  13.264  1.8060 -1.8124  1.6750
  354TMC3    H1 5361   1.781   2.986  13.052 -0.8414 -0.2924 -3.3181
  354TMC3    H2 5362   1.497   3.242  12.850 -1.7838  0.5938  1.9882
  354TMC3    C7 5363   1.725   3.096  12.800 -0.1447 -0.5209 -0.5930
  354TMC3    C8 5364   1.394   3.330  13.076 -0.5518 -0.2223 -0.2269
  354TMC3    O1 5365   1.660   3.120  12.700 -0.4209  0.0043  0.2214
  354TMC3    O2 5366   1.411   3.415  13.163 -0.1379 -0.0057 -0.0486
  355MPD2     C 5367   1.972   3.583  11.796 -0.9240  0.0165  0.6018
  355MPD2    C1 5368   2.055   3.635  11.697  0.5840 -0.4094  0.1052
  355MPD2    C2 5369   2.166   3.710  11.739  0.2938  0.1576  0.5721
  355MPD2    C3 5370   2.189   3.727  11.873  0.3636 -0.5129 -0.4564
  355MPD2    C4 5371   2.099   3.681  11.968 -0.0708  0.1828  0.5730
  355MPD2    C5 5372   1.996   3.607  11.929 -0.0473 -0.2129 -0.3311
  355MPD2     H 5373   2.228   3.767  11.672 -0.9829 -0.9666 -1.5418
  355MPD2    H1 5374   2.111   3.697  12.074  0.8256 -0.7214  0.6107
  355MPD2    H2 5375   1.876   3.538  11.773 -0.2446 -1.1249  0.0052
  355MPD2    H3 5376   1.921   3.592  12.006  1.7175 -0.1020  1.4391
  355MPD2     N 5377   2.302   3.802  11.909  0.5739  0.3892  0.3255
  355MPD2    H5 5378   2.366   3.842  11.841  1.0160 -2.5015 -0.9317
  355MPD2    N1 5379   2.016   3.621  11.561  0.7051  0.6241  0.0250
  355MPD2    H7 5380   1.959   3.538  11.554  2.8707 -0.9377  0.8028
  356TMC3    C1 5381   2.452   3.942  12.038  0.3654 -0.2193  0.1212
  356TMC3    C2 5382   2.488   4.008  11.918 -0.3323 -0.6017  0.5199
  356TMC3    C3 5383   2.562   4.123  11.939 -0.1626  0.6642  0.2797
  356TMC3    C4 5384   2.469   4.009  12.152 -0.8589 -0.4163 -0.1918
  356TMC3    C5 5385   2.535   4.129  12.170  1.0749  0.1204 -0.4497
  356TMC3    C6 5386   2.581   4.189  12.057  0.1199 -0.1187 -0.1050
  356TMC3     C 5387   2.340   3.847  12.036 -0.5046 -0.4688 -0.6151
  356TMC3     O 5388   2.278   3.842  12.142 -0.3243 -0.2546 -0.5100
  356TMC3     H 5389   2.470   3.970  11.818  0.5330 -0.2794  0.2371
  356TMC3    H1 5390   2.445   3.959  12.246 -1.1755  1.9093  0.9723
  356TMC3    H2 5391   2.606   4.294  12.057  0.0714 -0.1044  1.1048
  356TMC3    C7 5392   2.516   4.204  12.293 -0.4424  0.0085  0.0446
  356TMC3    C8 5393   2.619   4.186  11.817  0.0698 -0.3790  0.2458
  356TMC3    O1 5394   2.429   4.163  12.365  0.1046 -0.2307 -0.2515
  356TMC3    O2 5395   2.609   4.125  11.708  0.4637 -0.2413  0.3361
  357MPD2     C 5396   1.802   4.261   0.497 -0.4296  0.0296 -0.4265
  357MPD2    C1 5397   1.822   4.129   0.486 -0.1292 -0.3652 -0.5965
  357MPD2    C2 5398   1.762   4.064   0.377 -0.2255  0.1792 -0.2932
  357MPD2    C3 5399   1.700   4.138   0.277 -0.0894 -0.2026  0.0829
  357MPD2    C4 5400   1.693   4.267   0.285  0.0173  0.0771 -0.1435
  357MPD2    C5 5401   1.744   4.330   0.395  0.1473  0.2736  0.5974
  357MPD2     H 5402   1.771   3.957   0.363 -0.3899  0.2108 -0.6226
  357MPD2    H1 5403   1.657   4.328   0.203  2.6681  0.4683 -1.0444
  357MPD2    H2 5404   1.838   4.322   0.578 -3.2261 -0.1857  0.9961
  357MPD2    H3 5405   1.743   4.439   0.395  1.2881  0.2823  0.7118
  357MPD2     N 5406   1.655   4.090   0.150  0.5838  0.5677 -0.2495
  357MPD2    H5 5407   1.617   4.162   0.089  0.4986  0.8870  0.1797
  357MPD2    N1 5408   1.896   4.056   0.577  0.4017 -0.6289  0.4432
  357MPD2    H7 5409   1.907   3.957   0.559  0.5433 -0.5211 -0.0526
  358TMC3    C1 5410   2.032   3.988   0.752 -0.4840 -0.7748 -0.1788
  358TMC3    C2 5411   2.082   3.881   0.676 -0.2288 -0.2269 -0.7557
  358TMC3    C3 5412   2.186   3.807   0.725  0.7435 -0.6459 -0.3264
  358TMC3    C4 5413   2.075   4.017   0.881  0.6194 -0.0873 -0.8564
  358TMC3    C5 5414   2.174   3.936   0.927 -0.0590  0.1327 -0.1643
  358TMC3    C6 5415   2.235   3.836   0.855  0.3158 -0.1874  0.3779
  358TMC3     C 5416   1.958   4.097   0.688  0.4461  0.2875  0.2349
  358TMC3     O 5417   1.932   4.193   0.759  0.5134 -0.1275  0.2779
  358TMC3     H 5418   2.063   3.873   0.570 -3.3717  1.4602 -0.3362
  358TMC3    H1 5419   2.045   4.108   0.931  2.4391 -0.5375  1.0593
  358TMC3    H2 5420   2.288   3.759   0.910  1.7937 -1.2254 -2.5018
  358TMC3    C7 5421   2.256   3.983   1.043 -0.4470  0.5566 -0.7183
  358TMC3    C8 5422   2.239   3.701   0.636 -0.8160 -1.0042  0.5703
  358TMC3    O1 5423   2.362   3.927   1.050 -0.3053 -0.7094  0.0219
  358TMC3    O2 5424   2.164   3.674   0.541 -0.1965  0.5189  0.0162
  359MPD2     C 5425   2.339   2.633  12.149 -0.1010 -0.0539  0.0466
  359MPD2    C1 5426   2.349   2.505  12.113  0.2627 -0.4261 -0.2466
  359MPD2    C2 5427   2.249   2.416  12.149 -0.8938  0.0822 -0.0220
  359MPD2    C3 5428   2.139   2.460  12.226  0.8086 -0.0487 -0.7872
  359MPD2    C4 5429   2.128   2.595  12.245  0.1317 -0.4591 -0.1506
  359MPD2    C5 5430   2.231   2.679  12.206  0.5594  0.0044 -0.1404
  359MPD2     H 5431   2.263   2.312  12.123  0.8543  0.1059  0.8108
  359MPD2    H1 5432   2.053   2.637  12.312  1.3309 -0.9917  1.5408
  359MPD2    H2 5433   2.401   2.719  12.125 -2.1587  1.3017 -0.4713
  359MPD2    H3 5434   2.230   2.787  12.217 -1.9413 -0.3460  3.0765
  359MPD2     N 5435   2.037   2.378  12.275 -0.0341 -0.2915 -0.1573
  359MPD2    H5 5436   1.959   2.417  12.327  0.2756  0.2656 -0.1105
  359MPD2    N1 5437   2.461   2.450  12.050 -1.0767  0.3032  0.3543
  359MPD2    H7 5438   2.456   2.352  12.026 -1.3837  0.5941 -0.8167
  360TMC3    C1 5439   2.657   2.429  11.911 -0.3663 -0.2697 -0.2310
  360TMC3    C2 5440   2.769   2.490  11.863  0.0245 -0.1396 -0.1142
  360TMC3    C3 5441   2.814   2.468  11.738  0.4429  0.4474 -0.3280
  360TMC3    C4 5442   2.590   2.337  11.837 -0.3015  0.4260  0.2271
  360TMC3    C5 5443   2.637   2.322  11.708  0.4817 -0.4675  0.3959
  360TMC3    C6 5444   2.745   2.389  11.652  0.0575  0.2068  0.4922
  360TMC3     C 5445   2.581   2.507  12.006  0.1049  0.0183 -0.3961
  360TMC3     O 5446   2.630   2.619  12.026  0.0651  0.5934  0.6691
  360TMC3     H 5447   2.814   2.571  11.919 -0.6503 -1.5825  2.5133
  360TMC3    H1 5448   2.494   2.297  11.868 -1.2021  3.1616  0.9624
  360TMC3    H2 5449   2.770   2.388  11.547 -0.5361 -2.2261  0.3783
  360TMC3    C7 5450   2.549   2.252  11.620 -0.8022 -0.1118 -0.0116
  360TMC3    C8 5451   2.883   2.585  11.685  0.8357  0.3722  0.4789
  360TMC3    O1 5452   2.451   2.197  11.670  0.1673  0.8224  0.0562
  360TMC3    O2 5453   2.825   2.692  11.692 -0.6150  0.0857  0.2611
  361MPD2     C 5454   4.299   1.289  16.324 -0.3173 -0.7801 -0.5457
  361MPD2    C1 5455   4.206   1.254  16.414  0.5075 -0.6707  0.6026
  361MPD2    C2 5456   4.246   1.160  16.504 -0.1297  0.2443 -0.7968
  361MPD2    C3 5457   4.366   1.095  16.504  0.3949  0.1857  0.0860
  361MPD2    C4 5458   4.456   1.141  16.409 -0.7861 -0.0076 -0.2372
  361MPD2    C5 5459   4.422   1.236  16.321 -0.4597 -0.3441 -0.4300
  361MPD2     H 5460   4.171   1.133  16.578 -0.2595 -0.9191 -1.3566
  361MPD2    H1 5461   4.559   1.109  16.417 -0.7208  0.3590  0.3676
  361MPD2    H2 5462   4.296   1.367  16.249  2.0551  1.2940  1.5280
  361MPD2    H3 5463   4.495   1.286  16.257 -0.6155 -0.8991 -1.0457
  361MPD2     N 5464   4.407   0.991  16.588 -0.0604  0.0159  0.2269
  361MPD2    H5 5465   4.504   0.963  16.579  0.1382  1.0204 -0.7488
  361MPD2    N1 5466   4.085   1.321  16.429 -0.0674  0.3479 -0.7073
  361MPD2    H7 5467   4.020   1.290  16.501 -0.4903  1.9870 -0.3874
  362TMC3    C1 5468   3.947   1.511  16.422 -0.1497 -0.1752  0.1651
  362TMC3    C2 5469   3.973   1.557  16.543  0.0082 -0.1818  0.2745
  362TMC3    C3 5470   3.914   1.671  16.589  0.8568 -0.3240 -0.4595
  362TMC3    C4 5471   3.856   1.583  16.340  0.3360  0.0185 -0.0238
  362TMC3    C5 5472   3.793   1.692  16.395  0.4327 -0.2465 -0.2980
  362TMC3    C6 5473   3.823   1.743  16.518  1.0333 -0.1510 -0.0469
  362TMC3     C 5474   4.044   1.432  16.352 -0.6812  0.3888 -0.9765
  362TMC3     O 5475   4.089   1.483  16.247  0.2839 -0.0084 -0.1269
  362TMC3     H 5476   4.047   1.508  16.606 -1.0916 -0.6214  1.2173
  362TMC3    H1 5477   3.845   1.557  16.236 -0.2858 -1.5027  0.4289
  362TMC3    H2 5478   3.786   1.836  16.559  3.7787 -0.2186  2.6034
  362TMC3    C7 5479   3.709   1.777  16.313  0.5632 -0.3731 -0.3286
  362TMC3    C8 5480   4.009   1.756  16.651  0.2059 -0.1549 -0.3666
  362TMC3    O1 5481   3.721   1.900  16.324 -0.0243  0.1546  0.2729
  362TMC3    O2 5482   4.125   1.764  16.607  0.1646  0.2606 -0.1045
  363TMC3    C1 5483   2.520   4.259   9.659 -0.0342  0.5331 -0.0305
  363TMC3    C2 5484   2.493   4.174   9.764 -0.5886 -0.1031  0.8770
  363TMC3    C3 5485   2.514   4.213   9.892 -0.2488  0.8683  0.2301
  363TMC3    C4 5486   2.557   4.390   9.685 -0.2836  0.0944  0.2466
  363TMC3    C5 5487   2.578   4.425   9.817  0.1728  1.0342 -0.4461
  363TMC3    C6 5488   2.559   4.338   9.919  0.6928  0.2373 -0.3007
  363TMC3     C 5489   2.469   4.216   9.527  0.7814  0.7162 -0.1777
  363TMC3     O 5490   2.469   4.089   9.518  0.0226 -0.8494 -0.0964
  363TMC3     H 5491   2.426   4.093   9.740 -0.6506 -0.5278  2.4887
  363TMC3    H1 5492   2.578   4.460   9.605  1.1370  0.4083  0.9054
  363TMC3    H2 5493   2.561   4.381  10.019  4.2175  0.4095 -0.4714
  363TMC3    C7 5494   2.606   4.558   9.861 -0.2463 -0.3991 -0.5550
  363TMC3    C8 5495   2.484   4.121   9.999  0.5567 -0.7565  0.1325
  363TMC3    O1 5496   2.640   4.579   9.975 -0.0741  0.2503  0.0325
  363TMC3    O2 5497   2.463   4.164  10.111 -0.0297 -0.4429 -0.0291
  364MPD2     C 5498   1.486   3.404  10.607  0.1332 -0.1999 -0.2999
  364MPD2    C1 5499   1.572   3.390  10.505  0.5162  1.0046 -0.7662
  364MPD2    C2 5500   1.615   3.268  10.460 -0.2483 -0.1451 -0.6875
  364MPD2    C3 5501   1.588   3.153  10.532  0.2884  0.5243 -0.1802
  364MPD2    C4 5502   1.496   3.166  10.635  0.4751  0.5870 -0.6876
  364MPD2    C5 5503   1.445   3.290  10.670  0.6204 -0.0177  0.6918
  364MPD2     H 5504   1.681   3.274  10.374 -0.2379 -0.1857 -0.6827
  364MPD2    H1 5505   1.462   3.075  10.683  0.2567  0.1938 -1.5860
  364MPD2    H2 5506   1.444   3.496  10.647  0.4473 -0.8916  1.6024
  364MPD2    H3 5507   1.366   3.290  10.744 -0.7113 -0.7469 -0.7347
  364MPD2     N 5508   1.627   3.017  10.494  0.1401  0.5812  0.6420
  364MPD2    H5 5509   1.591   2.943  10.554 -0.9752 -0.3967 -1.2289
  364MPD2    N1 5510   1.596   3.516  10.438 -0.8661 -0.1657  0.5259
  364MPD2    H7 5511   1.552   3.598  10.479  0.2145  1.5047 -1.6335
  365TMC3    C1 5512   1.684   3.683  10.295 -0.1305 -0.3373  0.0585
  365TMC3    C2 5513   1.655   3.730  10.169  0.1967 -0.3036  0.6100
  365TMC3    C3 5514   1.625   3.865  10.146 -0.4942  0.1204  1.2465
  365TMC3    C4 5515   1.668   3.764  10.398  0.0214 -0.2470 -0.3703
  365TMC3    C5 5516   1.653   3.899  10.371  0.0139  0.5239 -0.4019
  365TMC3    C6 5517   1.631   3.951  10.246  0.6386  0.7702 -0.4497
  365TMC3     C 5518   1.669   3.539  10.319  0.4902  0.7390  0.0093
  365TMC3     O 5519   1.713   3.462  10.233 -0.0360  0.3519 -0.6294
  365TMC3     H 5520   1.636   3.652  10.096 -1.2534  0.0659  0.6068
  365TMC3    H1 5521   1.668   3.737  10.503  0.5209 -0.2125 -0.3637
  365TMC3    H2 5522   1.594   4.053  10.243  0.2783  0.6644  0.3072
  365TMC3    C7 5523   1.620   3.984  10.484  0.1236  0.3596  0.1223
  365TMC3    C8 5524   1.631   3.909  10.013 -0.0071  0.0264  0.4812
  365TMC3    O1 5525   1.696   4.081  10.511 -0.3163 -0.6763 -0.3368
  365TMC3    O2 5526   1.613   4.028   9.993  0.2696 -0.3450 -0.4895
  366MPD2     C 5527   4.705   3.811  15.134  0.1219 -0.7039 -0.0141
  366MPD2    C1 5528   0.074   3.898  15.162  0.8115 -0.6796  0.0495
  366MPD2    C2 5529   0.184   3.904  15.077 -0.4074  0.3111  0.1167
  366MPD2    C3 5530   0.203   3.812  14.969  0.2894  0.6091 -0.0363
  366MPD2    C4 5531   0.098   3.721  14.955  0.1243 -0.1679 -0.8766
  366MPD2    C5 5532   4.724   3.719  15.035  0.1904  0.1813 -0.3142
  366MPD2     H 5533   0.258   3.981  15.098  0.6536 -1.1955  1.9012
  366MPD2    H1 5534   0.111   3.639  14.886 -2.1042 -0.9337 -0.3898
  366MPD2    H2 5535   4.608   3.807  15.183  0.8947  0.4288  1.6410
  366MPD2    H3 5536   4.647   3.646  15.017  0.9558 -0.7927  0.3090
  366MPD2     N 5537   0.316   3.810  14.887  0.3189 -0.7200 -0.5300
  366MPD2    H5 5538   0.329   3.716  14.851  0.6477 -0.2611 -1.6011
  366MPD2    N1 5539   0.064   3.995  15.264 -0.4603  0.3056  0.4679
  366MPD2    H7 5540   0.137   4.064  15.279  0.3422 -0.6161  0.7939
  367TMC3    C1 5541   4.682   4.153  15.400 -0.6597  0.0792 -0.4255
  367TMC3    C2 5542   0.058   4.233  15.384  1.0001 -0.0317 -0.8665
  367TMC3    C3 5543   0.050   4.367  15.352  0.4388 -0.3433  0.0129
  367TMC3    C4 5544   4.558   4.211  15.386  0.0440  0.1236 -0.1535
  367TMC3    C5 5545   4.556   4.343  15.353  0.3000 -0.7283  0.2564
  367TMC3    C6 5546   4.662   4.422  15.325 -0.2497 -0.9502 -0.1407
  367TMC3     C 5547   4.692   4.015  15.345  0.6623 -0.5205  0.0765
  367TMC3     O 5548   4.591   3.955  15.355 -0.1827 -0.7907  0.0449
  367TMC3     H 5549   0.156   4.192  15.408  0.0194 -0.5837  2.2694
  367TMC3    H1 5550   4.471   4.156  15.419 -0.7020  1.9451  0.9261
  367TMC3    H2 5551   4.647   4.527  15.304  1.8588 -0.6202  0.0158
  367TMC3    C7 5552   4.430   4.410  15.345 -0.1440 -0.2219  0.0942
  367TMC3    C8 5553   0.140   4.445  15.430  0.6757  0.1161 -0.0794
  367TMC3    O1 5554   4.431   4.530  15.365 -0.1206  0.4682 -0.1802
  367TMC3    O2 5555   0.192   4.386  15.523 -0.3080 -0.4096  0.8643
  368MPD2     C 5556   0.710   1.590  13.268  0.0866 -0.1887  0.6159
  368MPD2    C1 5557   0.756   1.714  13.221 -0.1521  0.2619 -1.0046
  368MPD2    C2 5558   0.888   1.744  13.252  0.4376  0.2897  0.5981
  368MPD2    C3 5559   0.974   1.660  13.311  0.3240 -0.1431  0.3810
  368MPD2    C4 5560   0.929   1.530  13.340  0.2198  0.8867 -1.1975
  368MPD2    C5 5561   0.803   1.495  13.307  0.2856  0.7206  0.4806
  368MPD2     H 5562   0.910   1.846  13.223  1.4292  0.0399  0.4710
  368MPD2    H1 5563   0.993   1.450  13.374 -2.4778 -0.5151  0.5147
  368MPD2    H2 5564   0.608   1.561  13.242  0.7336 -2.9111  1.1441
  368MPD2    H3 5565   0.762   1.397  13.329 -1.1694  1.1329 -0.4006
  368MPD2     N 5566   1.115   1.695  13.326  0.4986  0.0907 -0.8230
  368MPD2    H5 5567   1.180   1.618  13.338 -0.3861 -0.6035 -0.5120
  368MPD2    N1 5568   0.664   1.806  13.185 -0.3480 -0.0475 -0.4291
  368MPD2    H7 5569   0.570   1.768  13.178  0.6984 -2.4928 -1.1334
  369TMC3    C1 5570   0.559   1.999  13.083  0.5205  0.1778 -0.2017
  369TMC3    C2 5571   0.571   2.090  12.982 -0.1573  0.2796  0.4683
  369TMC3    C3 5572   0.464   2.146  12.923  0.1980  0.0524  0.8972
  369TMC3    C4 5573   0.436   1.951  13.112  0.3593  0.3251 -0.0596
  369TMC3    C5 5574   0.327   1.988  13.041  0.5098 -0.3507  0.5785
  369TMC3    C6 5575   0.335   2.091  12.950  0.2246 -0.5092 -0.2545
  369TMC3     C 5576   0.679   1.931  13.125  0.3688 -0.1243 -0.0720
  369TMC3     O 5577   0.786   1.983  13.097 -0.2800 -0.3475 -0.0078
  369TMC3     H 5578   0.672   2.126  12.974  1.0309 -3.0571  0.3933
  369TMC3    H1 5579   0.427   1.873  13.187 -2.4917  1.1629  0.4583
  369TMC3    H2 5580   0.247   2.123  12.895  1.2294 -1.8851 -2.7037
  369TMC3    C7 5581   0.201   1.918  13.064 -0.4329  0.1413 -0.5720
  369TMC3    C8 5582   0.475   2.241  12.819 -0.0290  0.3103  0.1061
  369TMC3    O1 5583   0.205   1.841  13.157  0.9649  0.5441 -0.0785
  369TMC3    O2 5584   0.585   2.249  12.765  0.8131  0.0510  0.1686
  370TMC3    C1 5585   0.479   2.267  15.917 -0.4645  0.3372  0.3058
  370TMC3    C2 5586   0.376   2.207  15.990  0.2269  1.0866 -0.0560
  370TMC3    C3 5587   0.315   2.095  15.937 -0.4709 -0.0127 -0.2891
  370TMC3    C4 5588   0.533   2.209  15.805  0.2141 -0.0802  0.0670
  370TMC3    C5 5589   0.484   2.084  15.778 -0.0528  0.0183 -0.1661
  370TMC3    C6 5590   0.369   2.025  15.831 -0.1459 -0.1683 -0.1898
  370TMC3     C 5591   0.526   2.392  15.968 -0.7324  0.3880  0.9969
  370TMC3     O 5592   0.504   2.420  16.080 -0.1361 -0.6480  0.3882
  370TMC3     H 5593   0.343   2.254  16.081 -1.7553 -1.1837  0.3956
  370TMC3    H1 5594   0.620   2.243  15.750 -0.7052  1.0350 -0.6948
  370TMC3    H2 5595   0.331   1.929  15.798  1.4254 -0.5889 -0.7479
  370TMC3    C7 5596   0.541   2.032  15.659 -0.2601 -0.6421  0.1046
  370TMC3    C8 5597   0.219   2.029  16.014 -0.4173  0.0062 -0.3200
  370TMC3    O1 5598   0.545   2.111  15.563 -0.1381 -0.0605 -0.3950
  370TMC3    O2 5599   0.187   1.910  15.997 -0.0563 -0.5781 -0.1006
  371TMC3    C1 5600   1.828   0.401  15.290 -0.4513 -0.4069 -0.5133
  371TMC3    C2 5601   1.727   0.418  15.375  0.5129 -0.4340  1.0443
  371TMC3    C3 5602   1.647   0.527  15.391 -0.1756 -0.0488 -0.4853
  371TMC3    C4 5603   1.848   0.511  15.209 -0.0765 -0.1244 -0.0898
  371TMC3    C5 5604   1.768   0.620  15.226 -0.5536 -0.2585  0.1399
  371TMC3    C6 5605   1.657   0.631  15.306  0.4232  0.1412 -0.1151
  371TMC3     C 5606   1.910   0.282  15.305  0.7445  0.2484  0.8638
  371TMC3     O 5607   2.026   0.297  15.264  0.2240 -0.8055 -0.2617
  371TMC3     H 5608   1.712   0.333  15.440  1.7126 -0.5423  1.1887
  371TMC3    H1 5609   1.937   0.505  15.149 -0.7500  1.5873 -1.2613
  371TMC3    H2 5610   1.597   0.721  15.313 -1.3040 -0.9339 -1.1029
  371TMC3    C7 5611   1.796   0.738  15.150 -0.0355 -0.0834  0.0386
  371TMC3    C8 5612   1.544   0.517  15.499 -0.1932 -0.3089 -0.2030
  371TMC3    O1 5613   1.709   0.820  15.121 -0.0940  0.4314 -0.2818
  371TMC3    O2 5614   1.530   0.410  15.556  0.5288  0.1528  0.4881
  372MPD2     C 5615   1.141   1.882  13.667  0.7536 -0.2921 -0.1818
  372MPD2    C1 5616   1.252   1.801  13.651 -0.8716 -0.1144 -0.2282
  372MPD2    C2 5617   1.228   1.669  13.639  0.7585  0.4294  0.2239
  372MPD2    C3 5618   1.105   1.611  13.664 -0.4076 -0.1019 -0.2696
  372MPD2    C4 5619   0.999   1.690  13.701 -0.4495 -0.4405  0.8791
  372MPD2    C5 5620   1.023   1.825  13.694  0.1248  0.1461  0.2744
  372MPD2     H 5621   1.316   1.608  13.618  0.1723  0.7604 -3.2967
  372MPD2    H1 5622   0.898   1.655  13.719 -0.5274 -0.8710 -0.3643
  372MPD2    H2 5623   1.144   1.990  13.658  1.3813 -0.2705  0.2985
  372MPD2    H3 5624   0.930   1.881  13.691  0.0528  0.1635  3.0758
  372MPD2     N 5625   1.088   1.472  13.660  0.1171  0.6795  0.0563
  372MPD2    H5 5626   1.166   1.414  13.631 -1.8726 -0.9837 -1.9441
  372MPD2    N1 5627   1.385   1.846  13.625 -0.5679  0.4058 -0.5118
  372MPD2    H7 5628   1.450   1.781  13.582 -1.0574 -1.6755  1.8910
  373TMC3    C1 5629   0.986   1.254  13.656  0.2757 -0.2560 -0.1032
  373TMC3    C2 5630   0.894   1.176  13.709 -0.6244  0.6124  0.3407
  373TMC3    C3 5631   0.907   1.043  13.710 -0.2196  0.0284 -0.1859
  373TMC3    C4 5632   1.090   1.204  13.587  0.2077 -1.1063  0.5634
  373TMC3    C5 5633   1.095   1.066  13.576 -0.1599  0.2624 -1.5854
  373TMC3    C6 5634   1.001   0.983  13.627  0.2569  0.3007  0.3491
  373TMC3     C 5635   0.973   1.394  13.691 -0.5194  0.1006  0.1967
  373TMC3     O 5636   0.862   1.427  13.730 -0.1622  0.2880 -0.6262
  373TMC3     H 5637   0.809   1.218  13.762 -0.6468  0.8048  0.1528
  373TMC3    H1 5638   1.167   1.267  13.543 -1.8970 -0.1763 -1.7367
  373TMC3    H2 5639   1.004   0.875  13.617  0.6155  0.2758  0.6989
  373TMC3    C7 5640   1.222   1.000  13.550  0.3071  0.5897 -0.6498
  373TMC3    C8 5641   0.820   0.958  13.799 -0.3663 -0.3027  0.6485
  373TMC3    O1 5642   1.323   1.066  13.559 -0.0767 -0.2819  0.2920
  373TMC3    O2 5643   0.705   1.000  13.817  0.0474 -0.1869 -0.3208
  374TMC3    C1 5644   1.566   2.101   9.707  0.1573  0.0058 -0.8677
  374TMC3    C2 5645   1.694   2.083   9.675  0.8266 -0.3625 -0.1726
  374TMC3    C3 5646   1.751   2.158   9.575 -0.1747 -0.2786 -0.1065
  374TMC3    C4 5647   1.484   2.197   9.645 -0.6107  0.1697  0.2676
  374TMC3    C5 5648   1.549   2.283   9.558  0.4117  0.6564 -0.6283
  374TMC3    C6 5649   1.683   2.264   9.522  0.0481 -0.2425  0.6510
  374TMC3     C 5650   1.508   2.020   9.816  0.1309  0.8698 -0.1777
  374TMC3     O 5651   1.558   1.907   9.841 -0.5000  0.0382 -0.3413
  374TMC3     H 5652   1.749   2.002   9.723 -0.2799 -0.2411  1.3146
  374TMC3    H1 5653   1.378   2.220   9.648 -0.4554  0.9423 -0.2100
  374TMC3    H2 5654   1.738   2.338   9.465 -0.6553 -0.0574  0.2020
  374TMC3    C7 5655   1.485   2.400   9.510 -0.1222  0.2982 -0.6818
  374TMC3    C8 5656   1.900   2.170   9.571 -0.4861  0.7327  0.4845
  374TMC3    O1 5657   1.386   2.443   9.571 -0.4781 -0.8605 -0.0081
  374TMC3    O2 5658   1.943   2.254   9.492  0.2515 -0.4894 -0.0432
  375MPD2     C 5659   1.852   2.157  16.982 -0.4544 -0.0350  0.5382
  375MPD2    C1 5660   1.775   2.181  16.871 -0.2825  0.1510  0.6159
  375MPD2    C2 5661   1.824   2.144  16.745 -0.1575  0.5282 -0.1361
  375MPD2    C3 5662   1.947   2.074  16.730 -0.0708 -0.1785  0.6401
  375MPD2    C4 5663   2.017   2.048  16.843  0.0447 -1.1850 -0.1092
  375MPD2    C5 5664   1.979   2.101  16.964 -0.7056 -0.3849  0.3000
  375MPD2     H 5665   1.761   2.178  16.664  1.2041  1.2425 -0.9021
  375MPD2    H1 5666   2.112   1.995  16.847  0.6701 -0.2952 -2.6012
  375MPD2    H2 5667   1.820   2.192  17.080 -1.3400  2.7348 -0.7442
  375MPD2    H3 5668   2.034   2.080  17.055 -1.7067 -2.6220  0.3898
  375MPD2     N 5669   1.998   2.021  16.610  0.2442 -0.8482  0.3463
  375MPD2    H5 5670   2.085   1.969  16.605  1.8165  1.6058  2.1785
  375MPD2    N1 5671   1.638   2.231  16.879  0.6602  0.4650  0.1891
  375MPD2    H7 5672   1.577   2.215  16.799  2.2153  0.5944 -1.0392
  376TMC3    C1 5673   2.039   2.046  16.385 -0.2621 -0.1633  0.1641
  376TMC3    C2 5674   2.168   2.101  16.409  0.2763  0.4024 -0.3430
  376TMC3    C3 5675   2.241   2.153  16.305 -0.4561  0.5073 -0.4200
  376TMC3    C4 5676   1.979   2.052  16.264 -0.2379  0.8207 -0.1242
  376TMC3    C5 5677   2.042   2.127  16.168  0.5197  0.0478  0.2010
  376TMC3    C6 5678   2.170   2.173  16.190 -0.1820 -0.6397 -0.1124
  376TMC3     C 5679   1.943   2.066  16.493 -0.2349  0.4155 -0.4849
  376TMC3     O 5680   1.846   2.131  16.464 -0.2235  0.1442 -0.1777
  376TMC3     H 5681   2.224   2.094  16.501 -2.8569 -2.1160  1.3371
  376TMC3    H1 5682   1.877   2.017  16.259  0.3199 -0.6928 -0.9122
  376TMC3    H2 5683   2.226   2.217  16.108 -2.4555 -0.0729 -1.3377
  376TMC3    C7 5684   1.977   2.169  16.039 -0.5742  0.4007 -0.2610
  376TMC3    C8 5685   2.360   2.227  16.333 -0.5141 -0.3210 -0.5345
  376TMC3    O1 5686   2.042   2.244  15.966 -0.3724 -0.0848  0.4722
  376TMC3    O2 5687   2.396   2.296  16.241  0.0097  0.3012  0.4392
  377MPD2     C 5688   4.126   2.277  12.356  0.5318  0.2377  0.4835
  377MPD2    C1 5689   4.190   2.262  12.474 -0.1453 -0.0260  0.3268
  377MPD2    C2 5690   4.114   2.235  12.587 -0.3249 -0.0869 -0.0605
  377MPD2    C3 5691   3.980   2.224  12.577 -0.2680  0.3254 -0.5901
  377MPD2    C4 5692   3.914   2.240  12.460 -0.4477 -0.3232  0.3863
  377MPD2    C5 5693   3.985   2.279  12.353  0.1067  0.6378 -0.3694
  377MPD2     H 5694   4.165   2.222  12.681 -1.3680 -1.0766  0.3631
  377MPD2    H1 5695   3.809   2.216  12.464 -1.0536  2.0139 -1.5413
  377MPD2    H2 5696   4.178   2.311  12.268  0.2408 -0.0337  0.2041
  377MPD2    H3 5697   3.936   2.280  12.257 -1.2875  0.3562  0.3499
  377MPD2     N 5698   3.903   2.193  12.686 -0.2399  0.4499  0.1621
  377MPD2    H5 5699   3.805   2.179  12.667 -0.3906  0.9809  0.5548
  377MPD2    N1 5700   4.328   2.281  12.476 -0.1940 -0.1263  0.0081
  377MPD2    H7 5701   4.376   2.292  12.387  0.5783  0.5247  0.5086
  378TMC3    C1 5702   4.707   2.414  12.437 -0.1836  0.2302  0.6633
  378TMC3    C2 5703   4.576   2.403  12.484 -0.0162  0.0786  0.1280
  378TMC3    C3 5704   4.550   2.295  12.562 -0.7745  0.1383 -0.6338
  378TMC3    C4 5705   0.068   2.324  12.471  0.0156 -0.2285  0.4957
  378TMC3    C5 5706   0.036   2.222  12.553 -0.5500 -0.1295 -0.7677
  378TMC3    C6 5707   4.650   2.213  12.606  0.2060 -0.2296 -1.0289
  378TMC3     C 5708   0.015   2.525  12.363 -0.6811  0.0361 -0.1626
  378TMC3     O 5709   0.097   2.496  12.278  0.7313 -0.0897  0.1936
  378TMC3     H 5710   4.495   2.470  12.458  1.6584  0.7538 -3.4146
  378TMC3    H1 5711   0.170   2.334  12.437 -0.7681 -0.1721 -1.8262
  378TMC3    H2 5712   4.621   2.127  12.666 -0.7396  2.0564  1.7879
  378TMC3    C7 5713   0.138   2.133  12.602 -0.2566  0.2529 -0.5479
  378TMC3    C8 5714   4.411   2.254  12.585 -1.0850  0.7737 -0.6903
  378TMC3    O1 5715   0.109   2.061  12.695 -0.2312  0.6950 -0.0034
  378TMC3    O2 5716   4.398   2.214  12.700 -0.3478 -0.1592  0.1594
  379MPD2     C 5717   1.075   0.334  16.021  0.2091  0.2463 -0.5025
  379MPD2    C1 5718   1.023   0.253  16.122 -0.0078  0.4018  0.0112
  379MPD2    C2 5719   1.079   0.261  16.249  0.5527  0.0430 -0.4126
  379MPD2    C3 5720   1.194   0.338  16.268 -0.3229  0.0073  0.6545
  379MPD2    C4 5721   1.242   0.422  16.166  0.3193  0.4684 -0.3560
  379MPD2    C5 5722   1.184   0.418  16.045 -0.4366  0.3841  0.0519
  379MPD2     H 5723   1.039   0.201  16.330  0.3780  1.8671  0.8602
  379MPD2    H1 5724   1.324   0.489  16.186  0.8583  0.2978 -2.0301
  379MPD2    H2 5725   1.026   0.343  15.924 -0.2692 -0.0257 -0.2861
  379MPD2    H3 5726   1.232   0.482  15.972 -1.1015  0.1151 -0.6297
  379MPD2     N 5727   1.264   0.337  16.392 -0.0160 -0.1684 -0.4205
  379MPD2    H5 5728   1.354   0.383  16.384 -0.0157 -0.0251  0.4219
  379MPD2    N1 5729   0.909   0.173  16.095 -0.0946 -0.0435  0.0214
  379MPD2    H7 5730   0.868   0.171  16.002 -1.0108  0.4852  0.4201
  380TMC3    C1 5731   0.773   4.727  16.103  0.0253  0.5004 -0.4588
  380TMC3    C2 5732   0.820   4.604  16.069 -0.1249 -0.1036  0.5789
  380TMC3    C3 5733   0.769   4.553  15.948 -0.2224 -0.3349  0.1251
  380TMC3    C4 5734   0.667   0.043  16.033  0.0232  0.0959  0.2436
  380TMC3    C5 5735   0.610   4.724  15.920  0.0295  0.6834  0.0020
  380TMC3    C6 5736   0.656   4.600  15.884 -0.3299  0.2375  0.3147
  380TMC3     C 5737   0.862   0.072  16.178 -0.4715 -0.0084 -0.0482
  380TMC3     O 5738   0.915   0.017  16.271 -0.6790 -0.0179 -0.0638
  380TMC3     H 5739   0.911   4.558  16.105  1.0361  2.2913  0.6974
  380TMC3    H1 5740   0.639   0.141  16.070  1.3292 -0.1608  1.8944
  380TMC3    H2 5741   0.627   4.548  15.793  3.6527 -1.3432 -0.0290
  380TMC3    C7 5742   0.519   0.066  15.841  0.2728  0.5163 -1.0158
  380TMC3    C8 5743   0.871   4.488  15.866  0.5063  0.1708  0.2947
  380TMC3    O1 5744   0.513   0.188  15.854 -0.1806 -0.1402 -0.0274
  380TMC3    O2 5745   0.929   4.390  15.910 -0.0975 -0.2884 -0.4964
  381TMC3    C1 5746   0.142   1.486  15.848  0.0320 -0.3636 -0.1006
  381TMC3    C2 5747   0.253   1.566  15.836 -0.2256  0.7608 -0.3811
  381TMC3    C3 5748   0.323   1.600  15.949 -0.8952  1.0808  0.4994
  381TMC3    C4 5749   0.091   1.443  15.970 -0.4947  0.0771 -0.0525
  381TMC3    C5 5750   0.155   1.495  16.086 -0.2944 -0.1558  0.3534
  381TMC3    C6 5751   0.276   1.568  16.072 -0.0186 -0.2297 -0.4760
  381TMC3     C 5752   0.096   1.406  15.726  0.1373 -0.0252 -0.0135
  381TMC3     O 5753   4.710   1.386  15.718 -0.3841 -0.2316 -0.5955
  381TMC3     H 5754   0.275   1.599  15.736  3.1186  0.6922  0.3162
  381TMC3    H1 5755   0.004   1.379  15.975 -0.1812 -0.0571  4.0795
  381TMC3    H2 5756   0.323   1.595  16.166 -1.8564 -0.5354  0.5479
  381TMC3    C7 5757   0.127   1.439  16.213  1.1337 -0.0309 -0.3066
  381TMC3    C8 5758   0.442   1.678  15.941 -0.4346  0.5437 -0.0849
  381TMC3    O1 5759   0.215   1.361  16.250 -0.4575 -0.5908  0.4518
  381TMC3    O2 5760   0.502   1.664  15.835 -0.7850 -0.3375  0.1414
  382MPD2     C 5761   0.027   3.955  16.519  0.8211 -0.2583  0.0391
  382MPD2    C1 5762   0.012   4.004  16.648 -0.2445  0.5544 -0.4552
  382MPD2    C2 5763   4.727   3.918  16.756  0.4095  0.1013  0.1526
  382MPD2    C3 5764   4.699   3.782  16.730 -0.3781 -0.2521  0.4309
  382MPD2    C4 5765   4.697   3.743  16.591 -0.1237  0.2081  0.2218
  382MPD2    C5 5766   4.727   3.826  16.487 -0.3907  0.4378 -0.2568
  382MPD2     H 5767   4.723   3.957  16.858 -0.9361 -0.0467  0.1555
  382MPD2    H1 5768   4.667   3.642  16.563 -1.7993  1.0480 -0.9832
  382MPD2    H2 5769   0.044   4.023  16.437 -3.5859  2.0869  1.0563
  382MPD2    H3 5770   4.724   3.781  16.389 -0.4197  3.0070 -1.4499
  382MPD2     N 5771   4.663   3.687  16.828  0.4081 -0.1951 -0.3790
  382MPD2    H5 5772   4.631   3.597  16.793  2.0580 -1.5741  1.6880
  382MPD2    N1 5773   0.024   4.137  16.687 -0.2719  0.1641 -0.4566
  382MPD2    H7 5774   0.013   4.153  16.787 -0.7619 -0.6456 -0.3807
  383TMC3    C1 5775   4.637   3.603  17.043 -0.2073 -0.5782 -0.2396
  383TMC3    C2 5776   4.541   3.516  17.006  0.4146 -0.5322 -0.6641
  383TMC3    C3 5777   4.480   3.438  17.097  1.1015 -0.2518 -0.3911
  383TMC3    C4 5778   4.657   3.623  17.173  0.9177  0.1152 -0.6530
  383TMC3    C5 5779   4.587   3.547  17.267 -0.6979  0.0508  0.8703
  383TMC3    C6 5780   4.495   3.462  17.237 -0.2666  0.2062  0.0404
  383TMC3     C 5781   4.662   3.722  16.955 -0.0041 -0.2518  0.1292
  383TMC3     O 5782   4.710   3.817  17.017  0.2615 -0.3743 -0.3471
  383TMC3     H 5783   4.521   3.502  16.901 -0.5185 -0.4664 -0.4952
  383TMC3    H1 5784   4.715   3.707  17.211  0.3484  0.2565 -0.1008
  383TMC3    H2 5785   4.421   3.419  17.304 -0.8552 -0.9565 -1.3527
  383TMC3    C7 5786   4.605   3.582  17.411  0.2374 -0.4240  0.1632
  383TMC3    C8 5787   4.377   3.348  17.042 -0.2970 -0.0883  0.8365
  383TMC3    O1 5788   4.511   3.555  17.480 -0.5840  0.2880 -0.1067
  383TMC3    O2 5789   4.387   3.316  16.922  0.1953 -1.2848 -0.1727
  384MPD2     C 5790   1.022   0.117  11.757 -0.8263  0.4794 -0.8688
  384MPD2    C1 5791   0.955   0.025  11.832 -0.1234  0.0609 -0.2465
  384MPD2    C2 5792   0.979   4.628  11.809  0.2016  0.2846  0.4972
  384MPD2    C3 5793   1.084   4.594  11.725  0.0228 -0.2000 -0.3276
  384MPD2    C4 5794   1.161   4.688  11.662  0.0692  0.7948  0.0919
  384MPD2    C5 5795   1.125   0.080  11.673  0.1315 -0.8549  0.4617
  384MPD2     H 5796   0.925   4.556  11.868 -0.8817 -0.1060 -0.9823
  384MPD2    H1 5797   1.230   4.674  11.580  1.6285 -0.5193  1.6469
  384MPD2    H2 5798   0.992   0.222  11.755 -0.8849  0.4474 -1.6404
  384MPD2    H3 5799   1.170   0.155  11.610 -1.0743 -0.8637 -0.4244
  384MPD2     N 5800   1.130   4.463  11.698 -0.2877  0.3380 -0.0044
  384MPD2    H5 5801   1.213   4.438  11.646  0.3724  1.0587  0.7062
  384MPD2    N1 5802   0.879   0.073  11.944  0.2102 -0.1094 -0.0449
  384MPD2    H7 5803   0.873   0.173  11.961  0.4021 -0.0447 -0.3579
  385TMC3    C1 5804   1.148   4.242  11.769 -0.2923  0.4129  0.2837
  385TMC3    C2 5805   1.070   4.131  11.782 -0.1435  0.1153  0.0138
  385TMC3    C3 5806   1.080   4.066  11.901  0.2414 -0.0865  0.2903
  385TMC3    C4 5807   1.224   4.288  11.878  0.3093  0.5579 -0.9509
  385TMC3    C5 5808   1.225   4.224  11.996 -0.0802 -0.1738 -0.1161
  385TMC3    C6 5809   1.149   4.105  12.012  0.2962  0.4339  0.2180
  385TMC3     C 5810   1.063   4.348  11.733 -0.3524 -0.3957 -0.1010
  385TMC3     O 5811   0.947   4.324  11.771  0.0438  0.3597  0.7560
  385TMC3     H 5812   0.995   4.100  11.711 -1.8515  0.4086  1.6865
  385TMC3    H1 5813   1.281   4.380  11.875  1.2642 -0.0979 -3.4180
  385TMC3    H2 5814   1.148   4.038  12.097 -1.4882  0.7752  0.4583
  385TMC3    C7 5815   1.239   4.304  12.112 -0.1864 -0.6486  0.3058
  385TMC3    C8 5816   1.024   3.936  11.901  0.8357 -0.5984  0.5060
  385TMC3    O1 5817   1.246   4.425  12.099 -0.1039  0.0455 -0.2630
  385TMC3    O2 5818   0.966   3.894  12.002  0.1585  0.4785 -0.3654
  386TMC3    C1 5819   1.507   1.890  11.485 -0.6280  0.0360  0.7854
  386TMC3    C2 5820   1.503   1.919  11.352 -0.9349  0.1114  0.7215
  386TMC3    C3 5821   1.385   1.967  11.303 -0.5354  0.0273 -0.0841
  386TMC3    C4 5822   1.403   1.911  11.573 -0.4894  0.0116  0.0078
  386TMC3    C5 5823   1.285   1.943  11.519  0.1445  0.6377  0.6059
  386TMC3    C6 5824   1.275   1.971  11.384 -0.4271  0.0406  0.1912
  386TMC3     C 5825   1.641   1.860  11.543 -0.2298 -0.7355  0.0078
  386TMC3     O 5826   1.739   1.878  11.477 -0.1130 -0.1521 -0.7409
  386TMC3     H 5827   1.576   1.877  11.283  0.4622  0.5234  1.9532
  386TMC3    H1 5828   1.428   1.903  11.678  1.4761 -1.0741 -0.5404
  386TMC3    H2 5829   1.179   2.003  11.346 -0.8178 -0.4819  0.7491
  386TMC3    C7 5830   1.172   1.957  11.622  0.7160 -0.3491 -0.3573
  386TMC3    C8 5831   1.381   2.030  11.169 -0.3424 -0.0189  0.2461
  386TMC3    O1 5832   1.076   2.021  11.582  0.3211  0.3084 -0.4237
  386TMC3    O2 5833   1.490   2.048  11.118  0.4004  0.5198  0.0017
  387MPD2     C 5834   3.335   2.393  10.060 -0.1297 -0.2765 -0.0635
  387MPD2    C1 5835   3.443   2.360  10.135  0.5341 -0.7355  0.9376
  387MPD2    C2 5836   3.480   2.233  10.136  0.0045 -0.2224  0.4446
  387MPD2    C3 5837   3.414   2.132  10.070 -0.6512 -0.6379 -0.1271
  387MPD2    C4 5838   3.297   2.157  10.001 -0.4078  0.3446 -0.0386
  387MPD2    C5 5839   3.263   2.292   9.994  0.6134 -0.3771 -0.6507
  387MPD2     H 5840   3.576   2.212  10.183  0.9546  2.6725 -0.1889
  387MPD2    H1 5841   3.240   2.086   9.941 -0.3767  1.2734 -1.1771
  387MPD2    H2 5842   3.294   2.493  10.059 -0.3843 -0.3661  1.9993
  387MPD2    H3 5843   3.177   2.321   9.935 -0.2814 -0.4142  0.6264
  387MPD2     N 5844   3.480   2.010  10.078  0.2619  0.2164 -0.0665
  387MPD2    H5 5845   3.569   2.017  10.125 -0.3548  0.2653  1.0943
  387MPD2    N1 5846   3.525   2.456  10.204 -0.7475  0.2942  0.0453
  387MPD2    H7 5847   3.603   2.420  10.257 -3.4294 -1.4676  2.7968
  388TMC3    C1 5848   3.657   2.640  10.218  0.1838  0.1195  0.0025
  388TMC3    C2 5849   3.674   2.767  10.255 -0.0604 -0.5428 -0.0679
  388TMC3    C3 5850   3.801   2.807  10.287 -0.6292  0.9180  0.8984
  388TMC3    C4 5851   3.764   2.551  10.214  0.0640  0.2503 -0.2705
  388TMC3    C5 5852   3.887   2.591  10.258  0.0174  1.0684  0.2811
  388TMC3    C6 5853   3.913   2.724  10.287  0.6377 -0.5158 -0.3365
  388TMC3     C 5854   3.527   2.591  10.194  0.2833  0.1563 -0.6681
  388TMC3     O 5855   3.439   2.661  10.149  0.0401 -0.9669  0.3489
  388TMC3     H 5856   3.584   2.828  10.257  0.3719  0.0493  1.3792
  388TMC3    H1 5857   3.750   2.451  10.175 -1.1542  0.1818  0.3657
  388TMC3    H2 5858   4.012   2.760  10.313 -1.1180  1.4003  3.7028
  388TMC3    C7 5859   3.992   2.489  10.277  0.3323  0.4506  0.0837
  388TMC3    C8 5860   3.821   2.938  10.335 -0.0764 -0.2003  0.6792
  388TMC3    O1 5861   4.112   2.516  10.284  0.4018  0.2481 -0.2019
  388TMC3    O2 5862   3.913   2.959  10.411 -0.1154  0.4967 -0.1254
  389MPD2     C 5863   3.169   0.514  11.907 -0.0448 -0.0164 -0.0730
  389MPD2    C1 5864   3.089   0.436  11.826 -0.3578 -0.0408  0.2185
  389MPD2    C2 5865   2.985   0.358  11.884 -0.2641  0.7596  0.1987
  389MPD2    C3 5866   2.980   0.337  12.021 -0.5844  0.1337  0.2548
  389MPD2    C4 5867   3.068   0.413  12.103  0.1152 -0.4560 -0.5367
  389MPD2    C5 5868   3.155   0.501  12.042  0.5203  0.4581  0.3731
  389MPD2     H 5869   2.921   0.301  11.817 -0.6092  0.3112  0.9118
  389MPD2    H1 5870   3.068   0.409  12.211  0.1068 -1.8334 -0.5849
  389MPD2    H2 5871   3.242   0.588  11.876 -2.2645  2.3302  0.3662
  389MPD2    H3 5872   3.222   0.561  12.103 -0.9423  0.9649  1.4787
  389MPD2     N 5873   2.883   0.256  12.085  0.5102 -0.3804  0.4105
  389MPD2    H5 5874   2.889   0.246  12.186 -0.2525 -0.2637  0.4689
  389MPD2    N1 5875   3.096   0.445  11.686  0.8568  0.1598 -0.3855
  389MPD2    H7 5876   3.029   0.390  11.633  1.6148 -0.1928 -0.9746
  390TMC3    C1 5877   2.706   0.099  12.097  0.1077 -0.8585 -0.6179
  390TMC3    C2 5878   2.641   4.736  12.031  0.5402  0.1109  0.1197
  390TMC3    C3 5879   2.564   4.655  12.110  0.2914 -0.0288 -0.4740
  390TMC3    C4 5880   2.678   0.138  12.221  0.1375 -0.3898  0.3649
  390TMC3    C5 5881   2.582   0.065  12.291  0.1692  0.0337 -1.0017
  390TMC3    C6 5882   2.530   4.690  12.233  0.2705 -0.2749 -0.6058
  390TMC3     C 5883   2.798   0.181  12.016  0.5849  1.2017 -1.0046
  390TMC3     O 5884   2.789   0.157  11.897  0.3565 -0.1723 -0.1811
  390TMC3     H 5885   2.680   4.702  11.936 -0.7133  1.4551 -0.8928
  390TMC3    H1 5886   2.724   0.224  12.268  1.8168 -0.6395 -0.8180
  390TMC3    H2 5887   2.484   4.615  12.296 -0.4019  1.0094  0.4349
  390TMC3    C7 5888   2.545   0.126  12.412  0.0048  0.1039 -0.2088
  390TMC3    C8 5889   2.504   4.544  12.038  0.0652  0.2253 -0.8577
  390TMC3    O1 5890   2.596   0.235  12.439  0.4414 -0.0424 -0.3637
  390TMC3    O2 5891   2.553   4.517  11.929 -0.7178 -0.2213  0.0219
  391MPD2     C 5892   1.984   1.924  11.039  0.4700 -0.3398 -0.4099
  391MPD2    C1 5893   2.122   1.907  11.025  0.2297  0.0438 -0.4135
  391MPD2    C2 5894   2.180   1.937  10.906  0.4911 -0.7812 -0.5452
  391MPD2    C3 5895   2.103   1.977  10.798  0.4235  0.2883  0.7465
  391MPD2    C4 5896   1.964   1.996  10.808  0.2066 -0.2344  0.3615
  391MPD2    C5 5897   1.911   1.968  10.932 -0.4388 -0.3421  0.6717
  391MPD2     H 5898   2.287   1.926  10.895  0.8115  1.3088  0.5734
  391MPD2    H1 5899   1.903   2.020  10.722  0.4624 -0.7403  0.0350
  391MPD2    H2 5900   1.932   1.915  11.134 -0.2886  2.7036 -0.5326
  391MPD2    H3 5901   1.804   1.961  10.941 -0.4673 -0.6210  0.0516
  391MPD2     N 5902   2.185   2.001  10.687 -0.3722 -0.0417  0.4582
  391MPD2    H5 5903   2.285   2.005  10.700 -0.4227 -1.8974  1.4058
  391MPD2    N1 5904   2.199   1.872  11.137 -0.3070  0.2902  0.4375
  391MPD2    H7 5905   2.156   1.871  11.230 -1.0732  0.6652  0.0933
  392TMC3    C1 5906   2.240   2.065  10.468 -0.3869  0.1771 -0.5889
  392TMC3    C2 5907   2.218   2.021  10.343 -0.3098  0.0420  0.0399
  392TMC3    C3 5908   2.307   2.049  10.242  0.0350 -1.1887  0.6149
  392TMC3    C4 5909   2.347   2.145  10.498 -0.0908  0.1782  0.0101
  392TMC3    C5 5910   2.427   2.183  10.393  0.7850 -0.3048 -0.4187
  392TMC3    C6 5911   2.411   2.129  10.267 -0.1192 -0.2225  0.6128
  392TMC3     C 5912   2.139   2.043  10.566 -0.1353  0.0107  0.2079
  392TMC3     O 5913   2.026   2.033  10.513  0.6933  0.0778  0.3724
  392TMC3     H 5914   2.133   1.955  10.330 -0.7178  0.3154  1.2979
  392TMC3    H1 5915   2.360   2.192  10.595 -0.0206  2.2881 -1.0284
  392TMC3    H2 5916   2.487   2.156  10.193 -1.8489  0.0038 -1.0896
  392TMC3    C7 5917   2.542   2.265  10.422  0.1245  0.1387  0.2415
  392TMC3    C8 5918   2.235   2.057  10.114 -0.0975  0.1619  0.0279
  392TMC3    O1 5919   2.594   2.253  10.535 -0.3854 -0.1193 -0.1412
  392TMC3    O2 5920   2.114   2.072  10.117  0.4266  0.3730  0.0418
  393TMC3    C1 5921   0.949   4.242  10.436 -0.2739 -0.0690  0.0049
  393TMC3    C2 5922   0.851   4.165  10.383 -0.6406 -0.2100  0.1620
  393TMC3    C3 5923   0.762   4.111  10.466 -0.0370 -0.1491 -0.9208
  393TMC3    C4 5924   0.952   4.267  10.571 -0.2562 -0.1565  0.9713
  393TMC3    C5 5925   0.862   4.203  10.656  0.0198 -0.4110  0.6210
  393TMC3    C6 5926   0.773   4.120  10.601  0.0023 -0.0505 -0.2150
  393TMC3     C 5927   1.039   4.309  10.351 -0.2014 -0.1372 -0.0188
  393TMC3     O 5928   1.069   4.260  10.242 -0.0829  0.3013 -0.1380
  393TMC3     H 5929   0.843   4.148  10.277 -2.0049 -1.1600  0.4148
  393TMC3    H1 5930   1.026   4.326  10.624  0.9501 -0.7772 -0.0034
  393TMC3    H2 5931   0.705   4.062  10.663 -0.3666  1.5695  0.8831
  393TMC3    C7 5932   0.854   4.222  10.802 -0.1444 -0.6193  0.5428
  393TMC3    C8 5933   0.662   4.030  10.399 -0.0107 -0.1306  0.6715
  393TMC3    O1 5934   0.759   4.177  10.861 -0.4794  0.5361  0.3649
  393TMC3    O2 5935   0.629   4.065  10.290 -0.7140 -0.4596  0.8597
  394TMC3    C1 5936   3.118   0.563  11.488 -0.3503 -0.5047 -0.3044
  394TMC3    C2 5937   2.981   0.569  11.476  0.6839 -0.2455  0.2828
  394TMC3    C3 5938   2.926   0.610  11.361 -0.1671 -0.3910  0.3203
  394TMC3    C4 5939   3.202   0.602  11.392 -0.4212  0.5001  0.1253
  394TMC3    C5 5940   3.140   0.656  11.279  0.1402 -0.2441  0.2252
  394TMC3    C6 5941   3.005   0.655  11.261  0.8600  0.5444  0.4342
  394TMC3     C 5942   3.179   0.532  11.618 -0.3105 -0.4076  0.0215
  394TMC3     O 5943   3.287   0.584  11.643 -0.2036  0.2825  0.5187
  394TMC3     H 5944   2.920   0.530  11.557 -1.2357  0.3569 -0.8843
  394TMC3    H1 5945   3.306   0.622  11.416  0.5589 -1.0434 -2.8284
  394TMC3    H2 5946   2.965   0.707  11.175  1.6769 -1.2931 -1.0396
  394TMC3    C7 5947   3.223   0.713  11.172 -0.3501 -1.0062 -0.1749
  394TMC3    C8 5948   2.789   0.578  11.330 -0.1601  0.3712  0.6939
  394TMC3    O1 5949   3.192   0.688  11.055  0.0619  0.0961 -0.3400
  394TMC3    O2 5950   2.715   0.549  11.426  0.4605 -0.2400  0.0214
  395TMC3    C1 5951   2.063   2.563  14.657 -0.0061 -0.1031 -0.3555
  395TMC3    C2 5952   1.980   2.622  14.748 -0.5458 -0.4303  0.0517
  395TMC3    C3 5953   2.048   2.694  14.850 -0.2499 -0.3609  0.4992
  395TMC3    C4 5954   2.201   2.573  14.648 -0.3955 -0.2406  0.5693
  395TMC3    C5 5955   2.252   2.658  14.741  0.0115  0.9282 -1.0169
  395TMC3    C6 5956   2.182   2.717  14.845 -0.2425  0.2145 -0.1270
  395TMC3     C 5957   2.011   2.433  14.637  0.6474 -0.9086  0.0135
  395TMC3     O 5958   1.931   2.407  14.726  0.0410 -0.2009 -0.2012
  395TMC3     H 5959   1.872   2.614  14.758 -0.6266 -1.0053 -1.3776
  395TMC3    H1 5960   2.274   2.529  14.581  0.5122  1.0758  0.7043
  395TMC3    H2 5961   2.232   2.748  14.936  0.6618 -1.3154 -0.0940
  395TMC3    C7 5962   2.390   2.642  14.780 -0.3152 -0.7500  0.3087
  395TMC3    C8 5963   2.002   2.673  14.987  1.2628  0.4658  0.2791
  395TMC3    O1 5964   2.449   2.747  14.802  0.4238  0.1742  0.4166
  395TMC3    O2 5965   2.048   2.748  15.071  0.1162 -0.2547  0.0336
  396MPD2     C 5966   2.921   3.233  16.983 -0.5244  0.1886  0.0084
  396MPD2    C1 5967   3.030   3.322  16.968 -1.0750 -0.5037 -0.4779
  396MPD2    C2 5968   3.011   3.448  16.899  0.7159 -0.0630 -0.3583
  396MPD2    C3 5969   2.885   3.478  16.854 -0.3511 -0.4325 -0.1758
  396MPD2    C4 5970   2.782   3.391  16.874 -0.4033  0.9004  0.2428
  396MPD2    C5 5971   2.798   3.273  16.944 -0.9154 -0.8117  0.2010
  396MPD2     H 5972   3.092   3.510  16.863  1.6372  0.0719  1.9320
  396MPD2    H1 5973   2.683   3.392  16.830  0.0441 -0.4226 -0.7563
  396MPD2    H2 5974   2.940   3.130  17.008 -3.7324  0.0273  1.7203
  396MPD2    H3 5975   2.716   3.203  16.936 -1.1348 -0.6477  0.9825
  396MPD2     N 5976   2.864   3.604  16.786  0.3818  0.2890  0.2383
  396MPD2    H5 5977   2.950   3.658  16.782 -0.2107  1.1421 -0.8129
  396MPD2    N1 5978   3.156   3.269  17.009  0.1942 -0.3846  0.2075
  396MPD2    H7 5979   3.149   3.174  17.046  2.8413 -0.5020  0.3707
  397TMC3    C1 5980   3.366   3.199  16.976 -0.2240 -0.2173  0.1226
  397TMC3    C2 5981   3.405   3.179  16.845  0.3181 -0.0392 -0.0421
  397TMC3    C3 5982   3.359   3.065  16.781  0.5199  0.6803  0.4448
  397TMC3    C4 5983   3.323   3.091  17.044  0.0957  0.0304 -0.9555
  397TMC3    C5 5984   3.313   2.968  16.989 -0.1401 -0.1275  0.0798
  397TMC3    C6 5985   3.333   2.955  16.855  0.1305 -0.8008  0.4771
  397TMC3     C 5986   3.280   3.314  16.982 -0.3090 -0.3320  0.0903
  397TMC3     O 5987   3.315   3.423  16.941 -0.4388 -0.3018 -0.2144
  397TMC3     H 5988   3.407   3.265  16.780 -2.5914 -1.0369 -1.4380
  397TMC3    H1 5989   3.297   3.111  17.147 -1.4515  1.1144 -1.5383
  397TMC3    H2 5990   3.318   2.860  16.805  3.2779  0.2092 -2.3956
  397TMC3    C7 5991   3.211   2.884  17.045  0.2864 -0.7754 -0.1446
  397TMC3    C8 5992   3.253   3.092  16.684  0.0842  0.6113 -0.3073
  397TMC3    O1 5993   3.155   2.814  16.964  0.7269 -0.5214 -0.0819
  397TMC3    O2 5994   3.264   3.189  16.617 -0.2416 -0.2422 -0.1039
  398MPD2     C 5995   0.750   0.002  17.741  0.3727  0.7018 -0.1032
  398MPD2    C1 5996   0.850   4.684   0.074 -0.1576  0.4417  0.4563
  398MPD2    C2 5997   0.930   0.022   0.158  0.0876  0.0980 -0.5194
  398MPD2    C3 5998   0.908   0.160   0.160  0.6759 -0.2801  0.8350
  398MPD2    C4 5999   0.802   0.213   0.081 -0.8418 -0.5626  0.7064
  398MPD2    C5 6000   0.726   0.134   0.002 -0.3840  0.0670 -0.1360
  398MPD2     H 6001   1.006   4.711   0.219 -1.4523 -1.4223  0.2202
  398MPD2    H1 6002   0.770   0.316   0.070  1.1316 -0.1420 -1.2138
  398MPD2    H2 6003   0.673   4.682  17.689  1.7174 -0.7455 -0.4968
  398MPD2    H3 6004   0.657   0.190  17.686  2.5081 -1.1075 -4.4631
  398MPD2     N 6005   0.973   0.241   0.253 -0.1446 -0.2715 -0.6662
  398MPD2    H5 6006   1.036   0.193   0.316  0.0582 -0.6651 -1.1648
  398MPD2    N1 6007   0.875   4.542   0.069  0.5302 -0.2330 -0.0958
  398MPD2    H7 6008   0.943   4.507   0.136  0.8868 -0.3257 -0.5107
  399TMC3    C1 6009   0.843   4.317   0.048  0.3040 -0.4476 -0.0775
  399TMC3    C2 6010   0.963   4.288   0.103 -0.6772 -0.5226  0.5728
  399TMC3    C3 6011   0.975   4.167   0.168 -0.2245  0.0426 -0.1999
  399TMC3    C4 6012   0.742   4.220   0.048  0.0778 -0.3159  0.0084
  399TMC3    C5 6013   0.764   4.095   0.100  0.1967 -0.3541 -0.2510
  399TMC3    C6 6014   0.880   4.071   0.158  0.3578 -0.2311  0.4686
  399TMC3     C 6015   0.809   4.450   0.000  0.1182  0.1331 -0.4159
  399TMC3     O 6016   0.716   4.449  17.668 -0.9864  0.4329 -0.0882
  399TMC3     H 6017   1.045   4.357   0.088  0.1824 -1.8930 -1.0924
  399TMC3    H1 6018   0.644   4.248   0.010 -0.2926  0.2478  1.4039
  399TMC3    H2 6019   0.900   3.979   0.212 -3.3112  0.2663  2.6735
  399TMC3    C7 6020   0.686   3.976   0.068 -0.5774  0.6981 -0.4828
  399TMC3    C8 6021   1.108   4.138   0.218  0.6528 -0.0164 -1.0570
  399TMC3    O1 6022   0.709   3.882   0.145 -0.4829 -0.0363 -0.0980
  399TMC3    O2 6023   1.177   4.236   0.227 -0.1742 -0.1143  0.3221
  400TMC3    C1 6024   4.349   2.929  16.869 -0.1889 -0.5823  0.3260
  400TMC3    C2 6025   4.268   2.830  16.831  0.1605  0.2875  0.8064
  400TMC3    C3 6026   4.213   2.824  16.711  0.4362  0.5232 -0.5203
  400TMC3    C4 6027   4.386   3.033  16.787 -0.3356 -0.0363 -0.2474
  400TMC3    C5 6028   4.324   3.030  16.659 -0.2968  0.0886 -0.1323
  400TMC3    C6 6029   4.240   2.922  16.622  0.0805  0.3096 -0.1414
  400TMC3     C 6030   4.435   2.893  16.983  0.0128 -0.0879 -0.3005
  400TMC3     O 6031   4.429   2.781  17.037 -0.2766  0.0519 -0.3676
  400TMC3     H 6032   4.256   2.752  16.905 -0.1254  0.8643  1.3657
  400TMC3    H1 6033   4.472   3.094  16.815  0.7233 -1.2915 -0.7706
  400TMC3    H2 6034   4.201   2.916  16.521 -0.5170 -2.2897  0.2347
  400TMC3    C7 6035   4.307   3.156  16.594 -0.2989  0.7992  0.2236
  400TMC3    C8 6036   4.099   2.734  16.705  0.0114 -0.4000  0.3694
  400TMC3    O1 6037   4.284   3.146  16.472 -0.1837 -1.0461 -0.1893
  400TMC3    O2 6038   4.056   2.698  16.815 -0.3024  0.0832  0.2185
  401MPD2     C 6039   2.884   1.801  17.630  0.1890  0.2652  1.1576
  401MPD2    C1 6040   2.850   1.749   0.007 -0.1507  0.0880 -0.6337
  401MPD2    C2 6041   2.876   1.616   0.033  0.4082 -0.1918  0.9180
  401MPD2    C3 6042   2.946   1.540  17.687  0.2737 -0.0975 -0.0560
  401MPD2    C4 6043   2.983   1.593  17.570 -0.5249 -0.1345  0.0020
  401MPD2    C5 6044   2.957   1.725  17.547  0.1003  0.1828  0.5293
  401MPD2     H 6045   2.842   1.580   0.129 -0.9291 -1.2886  0.0388
  401MPD2    H1 6046   3.039   1.547  17.489  1.8110 -0.7610  1.9807
  401MPD2    H2 6047   2.862   1.901  17.595 -2.8305 -1.2664 -1.3103
  401MPD2    H3 6048   2.990   1.769  17.454 -1.4203  1.2313  0.4852
  401MPD2     N 6049   2.976   1.409  17.727 -0.3089 -0.2326  0.2060
  401MPD2    H5 6050   2.949   1.381   0.076 -1.2042  0.4922  0.1656
  401MPD2    N1 6051   2.784   1.825   0.105  0.3923  0.2141  0.1511
  401MPD2    H7 6052   2.752   1.776   0.188  0.9451 -0.1495  0.1464
  402TMC3    C1 6053   3.071   1.191  17.726 -0.3153  0.2069  0.9285
  402TMC3    C2 6054   3.122   1.226   0.103 -0.4795  0.7022  0.1253
  402TMC3    C3 6055   3.153   1.120   0.178  0.1899  0.6012 -0.8150
  402TMC3    C4 6056   3.027   1.068  17.683  0.0423 -0.0673  0.0137
  402TMC3    C5 6057   3.058   0.971   0.031  0.3753 -0.7192 -0.6355
  402TMC3    C6 6058   3.129   0.991   0.146  0.1773  0.0307  0.5000
  402TMC3     C 6059   3.026   1.307  17.646 -0.0103  0.0263  0.4840
  402TMC3     O 6060   3.040   1.310  17.525  0.4450 -0.4673  0.0972
  402TMC3     H 6061   3.168   1.322   0.121  0.2785 -0.0222  1.9963
  402TMC3    H1 6062   2.981   1.048  17.587  0.6851 -0.4248 -0.2178
  402TMC3    H2 6063   3.158   0.913   0.216 -1.8128 -1.1269  0.0245
  402TMC3    C7 6064   3.036   0.830  17.738 -0.6401 -0.0992 -0.3640
  402TMC3    C8 6065   3.206   1.135   0.313  1.1404  0.4613  0.7490
  402TMC3    O1 6066   2.932   0.806  17.682 -0.8580  0.2658  0.7087
  402TMC3    O2 6067   3.289   1.054   0.347 -0.1769  0.3668  0.4834
  403MPD2     C 6068   0.980   3.740  13.379  0.3997 -0.3265  0.2006
  403MPD2    C1 6069   0.966   3.872  13.413  0.5690  0.9039  0.2879
  403MPD2    C2 6070   1.071   3.937  13.475 -0.0495 -0.8780  0.6497
  403MPD2    C3 6071   1.197   3.877  13.502  0.3962 -0.2839 -0.2933
  403MPD2    C4 6072   1.202   3.747  13.469  0.2609 -0.9900  0.5280
  403MPD2    C5 6073   1.104   3.687  13.400  0.1360 -0.3646  0.6094
  403MPD2     H 6074   1.055   4.042  13.500 -0.2608 -0.2657 -1.9921
  403MPD2    H1 6075   1.299   3.700  13.484 -0.6764 -2.0684  3.2345
  403MPD2    H2 6076   0.902   3.684  13.329  0.3531 -1.4436  1.5076
  403MPD2    H3 6077   1.125   3.584  13.373 -3.3591 -1.1682  1.0172
  403MPD2     N 6078   1.303   3.956  13.555  0.2253 -0.4956 -0.9778
  403MPD2    H5 6079   1.281   4.054  13.568 -1.6227 -0.8630 -1.2278
  403MPD2    N1 6080   0.840   3.937  13.410 -0.6637 -0.2498  0.6141
  403MPD2    H7 6081   0.754   3.883  13.414  0.0404 -1.4473 -0.5231
  404TMC3    C1 6082   0.691   4.118  13.391  0.2337 -0.3483  0.1390
  404TMC3    C2 6083   0.609   4.076  13.492 -0.2087  0.0790 -0.2054
  404TMC3    C3 6084   0.483   4.122  13.494 -0.2358  0.0541  0.5019
  404TMC3    C4 6085   0.646   4.198  13.292  0.3628 -0.0176 -0.1452
  404TMC3    C5 6086   0.522   4.244  13.297 -0.4769  0.3813  0.2409
  404TMC3    C6 6087   0.433   4.203  13.395  0.4359 -0.2437 -0.4859
  404TMC3     C 6088   0.825   4.068  13.377  0.8552  0.2487 -0.3985
  404TMC3     O 6089   0.906   4.156  13.338  0.2137  0.1054 -0.1278
  404TMC3     H 6090   0.639   4.003  13.566 -0.9819 -0.4971 -0.4540
  404TMC3    H1 6091   0.709   4.205  13.204  0.6074 -0.6038 -0.0223
  404TMC3    H2 6092   0.336   4.252  13.403  0.5373 -0.6122  3.0760
  404TMC3    C7 6093   0.472   4.319  13.182 -0.3290  0.7187  0.1528
  404TMC3    C8 6094   0.405   4.119  13.620  0.0345  0.9698  0.1879
  404TMC3    O1 6095   0.550   4.400  13.132 -0.6302  0.5729 -0.8461
  404TMC3    O2 6096   0.282   4.121  13.617 -0.0271 -0.2915  0.1049
  405MPD2     C 6097   1.037   0.677  14.915  0.4424 -0.5327 -0.0563
  405MPD2    C1 6098   1.010   0.545  14.910 -1.0878 -0.5210  0.0999
  405MPD2    C2 6099   0.880   0.506  14.917  0.7042  0.7774  0.2635
  405MPD2    C3 6100   0.779   0.594  14.924 -0.4838  0.0380  0.4472
  405MPD2    C4 6101   0.802   0.728  14.937 -0.0778 -0.3863  0.4812
  405MPD2    C5 6102   0.936   0.766  14.937  0.1313 -0.2373  0.2576
  405MPD2     H 6103   0.850   0.403  14.902  1.7485  0.4235  0.5669
  405MPD2    H1 6104   0.731   0.810  14.949 -0.2326 -0.6554  1.4222
  405MPD2    H2 6105   1.142   0.700  14.909 -0.0245  1.8616  0.8831
  405MPD2    H3 6106   0.966   0.870  14.946 -0.5863  0.0042 -0.1675
  405MPD2     N 6107   0.650   0.537  14.921  0.2317  0.4080 -0.0185
  405MPD2    H5 6108   0.637   0.439  14.942 -1.0062  0.3264 -1.1805
  405MPD2    N1 6109   1.112   0.451  14.889  0.6640  0.3000  0.3763
  405MPD2    H7 6110   1.197   0.492  14.850  0.1390 -0.1687 -1.2661
  406TMC3    C1 6111   0.214   0.527  14.765 -0.8461 -1.1354  0.7192
  406TMC3    C2 6112   0.227   0.392  14.729  0.0137  0.3579  0.1403
  406TMC3    C3 6113   0.340   0.332  14.776 -0.4364  0.4235  0.2066
  406TMC3    C4 6114   0.295   0.579  14.858 -0.3227 -0.1689  0.0477
  406TMC3    C5 6115   0.410   0.515  14.898  1.0564 -0.4849  0.0514
  406TMC3    C6 6116   0.437   0.387  14.856  0.0520 -0.4776 -1.0166
  406TMC3     C 6117   0.108   0.603  14.710 -0.7907 -0.2683  0.1340
  406TMC3     O 6118   0.100   0.721  14.750 -0.0617  0.2022  0.3381
  406TMC3     H 6119   0.157   0.334  14.669  1.1899  0.6257 -1.4802
  406TMC3    H1 6120   0.279   0.684  14.881 -2.8246 -0.4712 -0.3749
  406TMC3    H2 6121   0.500   0.319  14.913 -0.2561  0.3076  0.2593
  406TMC3    C7 6122   0.525   0.602  14.911 -0.9630  0.1827  0.0159
  406TMC3    C8 6123   0.372   0.219  14.685 -0.5434  0.0276  0.7500
  406TMC3    O1 6124   0.510   0.725  14.891 -0.1647 -0.0903  0.1613
  406TMC3    O2 6125   0.282   0.158  14.632  0.0371 -0.3841 -0.1836
  407MPD2     C 6126   2.855   1.959  10.292 -0.2194  0.2879 -0.6129
  407MPD2    C1 6127   2.986   1.967  10.241  0.2104 -0.2740 -0.4843
  407MPD2    C2 6128   3.058   2.073  10.290 -0.5985  0.2305  0.1972
  407MPD2    C3 6129   3.001   2.164  10.374  0.9817  0.0102  0.4381
  407MPD2    C4 6130   2.876   2.158  10.424 -0.3568 -0.2133  0.4137
  407MPD2    C5 6131   2.809   2.048  10.381 -0.0552  0.1824 -0.2246
  407MPD2     H 6132   3.153   2.095  10.243 -1.1104  1.5081 -0.2447
  407MPD2    H1 6133   2.834   2.233  10.490  0.4686 -1.8781  2.8124
  407MPD2    H2 6134   2.785   1.881  10.263 -1.0769  0.7873  0.1143
  407MPD2    H3 6135   2.709   2.026  10.415  0.2163 -0.5846  0.0782
  407MPD2     N 6136   3.075   2.277  10.423  0.6816 -0.2631 -0.1501
  407MPD2    H5 6137   3.020   2.348  10.470 -0.7269 -1.0106 -0.6679
  407MPD2    N1 6138   3.039   1.885  10.137  0.6700 -0.1482 -0.1548
  407MPD2    H7 6139   3.126   1.924  10.101 -0.6034  1.6628 -1.2925
  408TMC3    C1 6140   3.037   1.736   9.958 -0.4524 -0.1828  0.1291
  408TMC3    C2 6141   3.106   1.624   9.958 -0.1668 -0.0783 -0.2867
  408TMC3    C3 6142   3.189   1.603   9.844 -0.2340 -0.1114  0.2190
  408TMC3    C4 6143   3.032   1.826   9.855 -0.2260 -1.0563 -0.2102
  408TMC3    C5 6144   3.106   1.803   9.742 -0.8743 -0.5532 -0.9686
  408TMC3    C6 6145   3.189   1.690   9.742 -0.5114 -0.5788  0.2204
  408TMC3     C 6146   2.980   1.775  10.086  0.1550  0.1831  0.4042
  408TMC3     O 6147   2.896   1.708  10.136  0.5497 -0.0159 -0.5195
  408TMC3     H 6148   3.116   1.574  10.054 -1.2085  1.2616  0.5005
  408TMC3    H1 6149   2.964   1.908   9.873  3.2165  2.0230 -1.1971
  408TMC3    H2 6150   3.239   1.654   9.653 -0.4765  0.6490 -0.2620
  408TMC3    C7 6151   3.155   1.919   9.674  0.1446  0.6362 -0.1031
  408TMC3    C8 6152   3.300   1.514   9.862  0.1002 -0.6909  0.1333
  408TMC3    O1 6153   3.271   1.917   9.637  0.2234 -0.2718  0.1722
  408TMC3    O2 6154   3.277   1.413   9.928  0.0285 -0.4730 -0.8633
  409MPD2     C 6155   3.359   2.522  16.567 -1.1080  0.3725 -0.2538
  409MPD2    C1 6156   3.420   2.579  16.679 -0.7328  0.1361 -0.0103
  409MPD2    C2 6157   3.493   2.697  16.662  0.3278  0.2288  0.2137
  409MPD2    C3 6158   3.496   2.756  16.535  0.5474  0.4329 -0.0676
  409MPD2    C4 6159   3.415   2.714  16.432 -0.4330  0.2139 -1.3080
  409MPD2    C5 6160   3.350   2.589  16.447  0.0876 -0.0130 -0.0935
  409MPD2     H 6161   3.549   2.742  16.743 -1.5927 -0.6701  2.0223
  409MPD2    H1 6162   3.404   2.778  16.345  1.3647  1.5655 -0.5359
  409MPD2    H2 6163   3.306   2.428  16.577  0.2200 -0.5883 -2.4376
  409MPD2    H3 6164   3.293   2.539  16.370 -0.7677  0.8543 -0.0320
  409MPD2     N 6165   3.578   2.868  16.505 -0.0166  0.2592  0.3140
  409MPD2    H5 6166   3.563   2.912  16.414  0.2199 -0.0662  0.1183
  409MPD2    N1 6167   3.403   2.517  16.803 -0.5799  0.5199  0.2038
  409MPD2    H7 6168   3.377   2.419  16.801 -4.2612  1.5190 -0.2439
  410TMC3    C1 6169   3.730   3.045  16.519  0.6558  0.7514 -0.5755
  410TMC3    C2 6170   3.849   3.080  16.585  0.4582 -0.1764 -0.0080
  410TMC3    C3 6171   3.858   3.208  16.621  0.3619  0.0422 -0.2878
  410TMC3    C4 6172   3.623   3.136  16.496  0.4329 -0.2432 -0.0743
  410TMC3    C5 6173   3.646   3.270  16.527  0.4673  1.4620 -0.2901
  410TMC3    C6 6174   3.763   3.309  16.593  0.3176 -0.0857  0.0361
  410TMC3     C 6175   3.686   2.924  16.577 -0.2175 -0.3777  0.4922
  410TMC3     O 6176   3.737   2.888  16.680  0.2716 -0.2685  0.1090
  410TMC3     H 6177   3.928   3.007  16.596  0.1811 -0.0589  3.0055
  410TMC3    H1 6178   3.522   3.111  16.467  0.9430 -0.6038 -1.5173
  410TMC3    H2 6179   3.788   3.411  16.619  2.4872 -0.0658 -2.1498
  410TMC3    C7 6180   3.582   3.357  16.436 -0.1149 -0.4236 -0.4787
  410TMC3    C8 6181   3.933   3.233  16.740  0.4886 -0.5062  1.3031
  410TMC3    O1 6182   3.524   3.303  16.341 -0.3002 -0.0489 -0.2929
  410TMC3    O2 6183   3.960   3.348  16.774  0.1596  0.1163  0.7146
  411MPD2     C 6184   3.063   2.986  14.871 -0.5948  0.7323 -0.3265
  411MPD2    C1 6185   3.010   3.043  14.756 -1.1561 -0.4442  0.4888
  411MPD2    C2 6186   2.895   2.978  14.699  0.2635 -0.6172 -0.0926
  411MPD2    C3 6187   2.826   2.872  14.758 -0.8192  0.3601 -0.4447
  411MPD2    C4 6188   2.878   2.823  14.880 -0.5183 -0.0462  0.7132
  411MPD2    C5 6189   3.000   2.874  14.925  0.4282 -0.1271 -0.8492
  411MPD2     H 6190   2.848   3.004  14.605  1.4355  1.0867 -0.2005
  411MPD2    H1 6191   2.845   2.733  14.930  0.0524 -0.9331 -0.5076
  411MPD2    H2 6192   3.154   3.033  14.905  0.0652 -0.9865  0.3222
  411MPD2    H3 6193   3.055   2.834  15.009 -1.7907 -0.6792  0.3540
  411MPD2     N 6194   2.723   2.809  14.692 -0.0678 -0.2293  0.0023
  411MPD2    H5 6195   2.693   2.719  14.730 -0.0161 -0.6701 -0.9930
  411MPD2    N1 6196   3.066   3.144  14.681  0.7278 -0.2159  0.2919
  411MPD2    H7 6197   3.028   3.158  14.588  0.5569 -1.0008  0.2426
  412TMC3    C1 6198   2.550   2.779  14.531 -0.0969  0.7093  0.0496
  412TMC3    C2 6199   2.445   2.839  14.465  0.0949 -0.2025 -0.6241
  412TMC3    C3 6200   2.389   2.768  14.360  0.1362  0.6861  0.4519
  412TMC3    C4 6201   2.596   2.651  14.507  0.6200  0.1006 -0.7077
  412TMC3    C5 6202   2.528   2.583  14.404 -0.0502 -0.8767  0.4136
  412TMC3    C6 6203   2.427   2.641  14.336  0.0798  0.0976 -0.5725
  412TMC3     C 6204   2.646   2.864  14.595 -0.9897 -0.7089 -0.6722
  412TMC3     O 6205   2.636   2.987  14.576  0.1358 -0.9768 -0.1552
  412TMC3     H 6206   2.432   2.945  14.481 -0.0798 -0.3231  0.0404
  412TMC3    H1 6207   2.687   2.608  14.548  1.8572  1.1210 -2.3626
  412TMC3    H2 6208   2.373   2.597  14.253 -2.7709 -0.7245  1.7058
  412TMC3    C7 6209   2.610   2.504  14.318  0.5088  0.2602  0.3865
  412TMC3    C8 6210   2.379   2.843  14.234 -0.0808  0.4895  0.7146
  412TMC3    O1 6211   2.592   2.530  14.197  0.5698  0.1947 -0.4777
  412TMC3    O2 6212   2.272   2.893  14.206 -0.3542  0.5403  0.6951
  413MPD2     C 6213   0.278   1.851  15.400 -0.7739 -0.3329  0.0442
  413MPD2    C1 6214   0.208   1.737  15.372  0.4743 -0.5048  0.3540
  413MPD2    C2 6215   0.265   1.632  15.304  0.1220 -0.1291  0.1144
  413MPD2    C3 6216   0.396   1.640  15.257 -0.4353  0.3897  0.0986
  413MPD2    C4 6217   0.463   1.751  15.290 -0.1710 -0.4966  0.1246
  413MPD2    C5 6218   0.405   1.856  15.349  0.4382  0.3503 -0.5640
  413MPD2     H 6219   0.206   1.542  15.291 -0.6023  0.2204  1.0324
  413MPD2    H1 6220   0.561   1.781  15.252 -0.3850 -1.0699 -0.8696
  413MPD2    H2 6221   0.240   1.935  15.457 -2.0271 -1.6748  1.1634
  413MPD2    H3 6222   0.462   1.949  15.352  0.2261  0.5121 -1.3149
  413MPD2     N 6223   0.455   1.529  15.180  0.5055  0.0444 -0.4422
  413MPD2    H5 6224   0.397   1.452  15.151 -0.6506  0.7964 -0.1060
  413MPD2    N1 6225   0.075   1.716  15.420  0.1256  0.7578  0.4102
  413MPD2    H7 6226   0.024   1.634  15.390  3.2272 -0.6869 -0.9306
  414TMC3    C1 6227   0.610   1.398  15.072 -0.4641 -0.0781 -0.5644
  414TMC3    C2 6228   0.693   1.304  15.124 -0.2535 -0.7437  0.7751
  414TMC3    C3 6229   0.670   1.174  15.092  0.6067 -0.7512  0.1716
  414TMC3    C4 6230   0.514   1.372  14.982 -0.3522  0.7991 -1.3665
  414TMC3    C5 6231   0.504   1.239  14.937 -0.1576  0.2235  0.4709
  414TMC3    C6 6232   0.580   1.142  14.991  0.4538 -0.4198  0.0738
  414TMC3     C 6233   0.590   1.525  15.144  0.1373  0.0556  0.4626
  414TMC3     O 6234   0.679   1.604  15.168 -0.0159  0.1375 -0.2669
  414TMC3     H 6235   0.754   1.343  15.205  0.3370  0.4188 -0.2379
  414TMC3    H1 6236   0.461   1.455  14.938 -1.9473  0.6561  0.3462
  414TMC3    H2 6237   0.568   1.036  14.970  1.8748 -0.2095 -1.7432
  414TMC3    C7 6238   0.424   1.224  14.822 -0.3498  0.4683  0.7163
  414TMC3    C8 6239   0.753   1.063  15.133  0.6454  0.5138  0.8859
  414TMC3    O1 6240   0.308   1.278  14.823 -0.0869  0.1587  0.3290
  414TMC3    O2 6241   0.693   0.957  15.142 -0.1510 -0.1491  0.2639
  415TMC3    C1 6242   0.803   3.574  10.410  0.0992 -0.3567  0.2619
  415TMC3    C2 6243   0.917   3.656  10.448 -0.8252 -0.4567  0.6837
  415TMC3    C3 6244   0.955   3.753  10.356  0.6760 -0.7831  0.2379
  415TMC3    C4 6245   0.734   3.588  10.292  0.6643 -0.1594 -0.4177
  415TMC3    C5 6246   0.775   3.689  10.203  0.0622 -0.7726 -0.4106
  415TMC3    C6 6247   0.883   3.766  10.238 -0.2155 -0.2015  0.0671
  415TMC3     C 6248   0.752   3.466  10.491 -0.3473 -0.6065 -0.4924
  415TMC3     O 6249   0.633   3.435  10.474 -0.1160  0.0194  0.3563
  415TMC3     H 6250   0.978   3.633  10.534 -0.8782 -0.0913  0.8185
  415TMC3    H1 6251   0.664   3.512  10.258 -0.7014  1.9215 -2.1873
  415TMC3    H2 6252   0.915   3.840  10.165 -0.9562  0.6118  0.5731
  415TMC3    C7 6253   0.693   3.710  10.080  0.5786  0.4009 -0.3860
  415TMC3    C8 6254   1.047   3.853  10.387 -0.7998  0.1348  0.3931
  415TMC3    O1 6255   0.752   3.751   9.979 -0.0180  0.2520  0.3201
  415TMC3    O2 6256   1.090   3.942  10.313  0.2783 -0.4060  0.2599
  416MPD2     C 6257   1.865   2.721  11.793 -0.1603 -0.6893 -0.2942
  416MPD2    C1 6258   1.750   2.733  11.718  0.5690 -0.0129 -0.2093
  416MPD2    C2 6259   1.694   2.615  11.673 -0.0553  0.3733 -0.1502
  416MPD2    C3 6260   1.745   2.494  11.713 -0.4241  0.1500 -0.1278
  416MPD2    C4 6261   1.858   2.485  11.791 -0.6634  0.4776  0.0125
  416MPD2    C5 6262   1.913   2.599  11.833 -0.1148  0.1278  0.6202
  416MPD2     H 6263   1.622   2.614  11.591 -0.4843  0.6087  0.2253
  416MPD2    H1 6264   1.901   2.392  11.827  0.8380  1.1403 -0.0682
  416MPD2    H2 6265   1.917   2.807  11.834  2.3562 -2.6950  0.7869
  416MPD2    H3 6266   1.995   2.590  11.903 -1.0587  3.2737  2.1242
  416MPD2     N 6267   1.698   2.368  11.663 -0.3416  0.5821 -0.5247
  416MPD2    H5 6268   1.745   2.283  11.692  1.5577  1.3590 -1.3811
  416MPD2    N1 6269   1.701   2.862  11.691 -0.1535  0.1538  0.2786
  416MPD2    H7 6270   1.752   2.936  11.737 -0.3322  1.3358 -1.4131
  417TMC3    C1 6271   1.594   3.042  11.584 -0.3945 -0.4234 -0.5564
  417TMC3    C2 6272   1.496   3.119  11.643  0.2173  0.1805  0.0727
  417TMC3    C3 6273   1.541   3.250  11.662 -0.2845 -0.4395 -0.4964
  417TMC3    C4 6274   1.718   3.089  11.541  1.0116 -0.2510  0.1165
  417TMC3    C5 6275   1.748   3.222  11.547  0.3225 -0.2521 -1.0143
  417TMC3    C6 6276   1.661   3.309  11.608 -0.4886 -0.1791  0.4614
  417TMC3     C 6277   1.592   2.903  11.615  0.3161  0.0267  0.5422
  417TMC3     O 6278   1.493   2.840  11.573 -0.2580  0.4070  0.0513
  417TMC3     H 6279   1.399   3.074  11.664  0.4148 -1.0789 -1.7388
  417TMC3    H1 6280   1.774   3.016  11.484  0.4536  1.2429 -2.3393
  417TMC3    H2 6281   1.681   3.415  11.599  0.2486 -0.5676 -2.6616
  417TMC3    C7 6282   1.862   3.278  11.470  0.4118 -0.3347 -0.6243
  417TMC3    C8 6283   1.455   3.320  11.756  0.1599 -0.4602  0.0888
  417TMC3    O1 6284   1.875   3.400  11.477  0.0431 -0.0958  0.4738
  417TMC3    O2 6285   1.385   3.253  11.828 -0.1650 -0.2054  0.2714
  418TMC3    C1 6286   1.173   0.627   0.424  0.8712 -0.2591  0.3936
  418TMC3    C2 6287   1.102   0.557   0.334 -0.3273  0.9525 -0.0092
  418TMC3    C3 6288   1.046   0.435   0.361 -0.2335 -0.2076 -0.9597
  418TMC3    C4 6289   1.207   0.561   0.544 -0.7922 -0.6517 -0.3565
  418TMC3    C5 6290   1.143   0.444   0.568 -0.7925 -0.0830 -0.1930
  418TMC3    C6 6291   1.059   0.373   0.480  0.5877 -0.9640 -0.1854
  418TMC3     C 6292   1.265   0.719   0.358 -0.4296 -0.3070  0.1593
  418TMC3     O 6293   1.222   0.809   0.287  0.1991 -0.4317  0.1367
  418TMC3     H 6294   1.087   0.613   0.242 -0.8069  1.1560  0.1922
  418TMC3    H1 6295   1.281   0.603   0.611  2.6104 -1.7537 -3.4568
  418TMC3    H2 6296   1.004   0.284   0.508  2.0747 -2.1183 -0.9780
  418TMC3    C7 6297   1.172   0.384   0.695 -0.2946 -0.4948  0.8193
  418TMC3    C8 6298   0.972   0.374   0.254 -0.5580  0.5077 -0.4212
  418TMC3    O1 6299   1.152   0.265   0.703  0.0420  0.1378  0.1296
  418TMC3    O2 6300   0.936   0.454   0.167 -0.3423  0.4703  0.6120
  419MPD2     C 6301   4.031   2.949  12.231  0.1310  0.5194  0.0978
  419MPD2    C1 6302   4.017   3.082  12.225  0.2950 -0.0175 -0.3787
  419MPD2    C2 6303   3.980   3.153  12.333  0.3963  0.4610 -0.1411
  419MPD2    C3 6304   3.961   3.093  12.461 -0.7296 -0.1265  0.7186
  419MPD2    C4 6305   3.962   2.954  12.459 -0.4025 -0.9052 -0.2243
  419MPD2    C5 6306   4.003   2.886  12.349  0.0686 -0.1247  0.2624
  419MPD2     H 6307   3.968   3.260  12.335  0.9108  0.5361 -0.8952
  419MPD2    H1 6308   3.952   2.903  12.554 -1.5534 -0.4786 -0.1117
  419MPD2    H2 6309   4.062   2.887  12.147 -0.7465 -0.9614  0.8589
  419MPD2    H3 6310   4.016   2.778  12.356 -3.2176 -0.4732  1.0749
  419MPD2     N 6311   3.943   3.171  12.574  0.3743 -0.1336  0.0369
  419MPD2    H5 6312   3.948   3.270  12.550  0.1979 -0.1482 -0.0555
  419MPD2    N1 6313   4.039   3.160  12.113 -0.4152 -0.4346 -0.9245
  419MPD2    H7 6314   4.017   3.259  12.105  0.4199  0.0111  2.1202
  420TMC3    C1 6315   3.923   3.239  12.800 -0.6841  0.1748 -0.6048
  420TMC3    C2 6316   3.814   3.324  12.781 -0.3970 -0.1326  0.5776
  420TMC3    C3 6317   3.757   3.374  12.895 -0.1625 -0.6575  0.0870
  420TMC3    C4 6318   3.972   3.214  12.922 -0.5308 -0.0749  0.1635
  420TMC3    C5 6319   3.921   3.282  13.024 -0.6740 -0.0264 -0.2980
  420TMC3    C6 6320   3.810   3.357  13.019  0.5877 -0.0431 -0.2165
  420TMC3     C 6321   3.946   3.131  12.708 -0.4461  0.5859  0.7789
  420TMC3     O 6322   3.960   3.023  12.758  0.3246 -0.0544 -0.1677
  420TMC3     H 6323   3.759   3.322  12.688 -1.0826  0.9315  0.9448
  420TMC3    H1 6324   4.055   3.145  12.937 -1.0395 -0.8657 -0.6985
  420TMC3    H2 6325   3.771   3.397  13.111  0.3372 -0.0779 -0.3086
  420TMC3    C7 6326   3.985   3.276  13.150  0.2123  0.2612  0.9662
  420TMC3    C8 6327   3.669   3.490  12.880  0.1258 -0.0501 -0.3208
  420TMC3    O1 6328   4.025   3.164  13.184  0.0109 -0.1386 -0.1290
  420TMC3    O2 6329   3.661   3.533  12.769 -0.6403  0.0042  0.4443
  421TMC3    C1 6330   1.530   4.021  13.586  0.0752  0.3389 -0.5371
  421TMC3    C2 6331   1.493   4.150  13.609 -0.0387 -0.0545  0.1649
  421TMC3    C3 6332   1.599   4.229  13.638  0.4488  0.3620 -0.8195
  421TMC3    C4 6333   1.656   3.969  13.584 -0.0028  0.2139  0.4513
  421TMC3    C5 6334   1.759   4.053  13.629 -0.3390 -0.2038 -0.2979
  421TMC3    C6 6335   1.725   4.177  13.658 -0.3488 -0.6595 -0.4737
  421TMC3     C 6336   1.434   3.915  13.580 -0.4544 -0.5321 -0.6819
  421TMC3     O 6337   1.472   3.797  13.598 -1.0501  0.2435 -0.5952
  421TMC3     H 6338   1.391   4.186  13.607 -0.0229 -0.0527 -0.6134
  421TMC3    H1 6339   1.670   3.871  13.539  2.2570  0.7918 -0.1126
  421TMC3    H2 6340   1.805   4.245  13.684 -2.7076  1.4809  1.1987
  421TMC3    C7 6341   1.893   4.002  13.646  0.5299  0.1650 -1.0244
  421TMC3    C8 6342   1.564   4.362  13.681 -0.9526 -0.7370  0.3050
  421TMC3    O1 6343   1.983   4.082  13.641 -0.2172  0.2009  0.0761
  421TMC3    O2 6344   1.638   4.423  13.761 -0.1872 -0.1525 -0.2086
  422TMC3    C1 6345   3.494   1.353  12.943 -0.2301  0.5922 -0.0601
  422TMC3    C2 6346   3.434   1.469  12.898  0.0937 -0.3845  0.1568
  422TMC3    C3 6347   3.323   1.508  12.967  0.6110  0.1696  0.1695
  422TMC3    C4 6348   3.437   1.265  13.035  0.9485  0.0974 -0.1567
  422TMC3    C5 6349   3.324   1.306  13.097  0.2687  0.1605  0.5546
  422TMC3    C6 6350   3.267   1.427  13.070  0.2490  0.5245 -0.1419
  422TMC3     C 6351   3.631   1.327  12.887  0.5234  0.2955  0.0148
  422TMC3     O 6352   3.684   1.423  12.838 -0.2144  0.2074 -0.6224
  422TMC3     H 6353   3.488   1.537  12.833 -2.1535  1.6313  0.3985
  422TMC3    H1 6354   3.496   1.184  13.075 -0.1829  0.2795  1.8561
  422TMC3    H2 6355   3.180   1.461  13.124 -1.8802 -3.6262 -0.9541
  422TMC3    C7 6356   3.266   1.223  13.198 -0.1248 -0.3035  1.3265
  422TMC3    C8 6357   3.233   1.611  12.914 -0.3087  0.1110  0.0366
  422TMC3    O1 6358   3.329   1.137  13.255 -0.0392  0.1076 -0.2360
  422TMC3    O2 6359   3.167   1.672  12.998 -0.8492  0.3846 -0.0910
  423MPD2     C 6360   4.313   1.910   0.413  0.3087 -0.1727  0.6583
  423MPD2    C1 6361   4.445   1.932   0.386  0.2486 -0.3369 -0.5430
  423MPD2    C2 6362   4.504   1.871   0.275  0.2657  0.0773  0.2096
  423MPD2    C3 6363   4.426   1.801   0.189 -0.2930 -0.3190 -0.1636
  423MPD2    C4 6364   4.302   1.774   0.224  0.6572 -0.4227 -0.0471
  423MPD2    C5 6365   4.242   1.826   0.335  0.4960 -0.1398  0.2426
  423MPD2     H 6366   4.610   1.888   0.259 -0.0612  0.9719 -0.9725
  423MPD2    H1 6367   4.227   1.721   0.167 -0.1911 -0.3335  1.0035
  423MPD2    H2 6368   4.257   1.940   0.501 -0.6854  2.3691 -0.8564
  423MPD2    H3 6369   4.140   1.806   0.367  0.2260  0.2495 -0.3799
  423MPD2     N 6370   4.481   1.733   0.074 -0.4895  0.0175 -0.2508
  423MPD2    H5 6371   4.415   1.687   0.013 -0.0240 -0.3350 -0.4893
  423MPD2    N1 6372   4.525   2.015   0.473 -0.4746 -0.4008 -0.3338
  423MPD2    H7 6373   4.620   2.034   0.445  0.4144 -1.0930  2.2027
  424TMC3    C1 6374   4.585   2.159   0.650 -0.2895  0.4239 -0.4686
  424TMC3    C2 6375   4.713   2.116   0.642 -0.1296 -0.6360 -0.5364
  424TMC3    C3 6376   0.064   2.190   0.711  0.3039 -0.3105 -0.8477
  424TMC3    C4 6377   4.544   2.264   0.720  0.1330  0.3601 -0.4306
  424TMC3    C5 6378   4.635   2.345   0.778 -0.5295 -0.1003  0.2288
  424TMC3    C6 6379   0.034   2.309   0.773 -0.3680  0.2313 -0.2411
  424TMC3     C 6380   4.483   2.081   0.585 -0.2904  0.0548  0.4738
  424TMC3     O 6381   4.370   2.087   0.635  0.3667  0.9727 -0.7821
  424TMC3     H 6382   0.001   2.021   0.596  1.4515 -1.2218  1.4912
  424TMC3    H1 6383   4.439   2.289   0.717 -0.0235 -0.4777 -2.3980
  424TMC3    H2 6384   0.114   2.379   0.796 -0.2156 -0.5815  1.7096
  424TMC3    C7 6385   4.599   2.451   0.861  0.0176 -0.9160  0.5139
  424TMC3    C8 6386   0.209   2.165   0.684 -0.2346 -0.1541  0.9218
  424TMC3    O1 6387   4.686   2.518   0.907  0.2980 -0.4509 -0.5778
  424TMC3    O2 6388   0.227   2.093   0.585 -0.1860  0.3776  0.0189
  425MPD2     C 6389   4.078   1.279  16.850 -0.2200 -0.5016 -0.4229
  425MPD2    C1 6390   3.967   1.207  16.874  0.4973  0.0217  0.6015
  425MPD2    C2 6391   3.846   1.281  16.896 -0.0422  0.2571  0.1791
  425MPD2    C3 6392   3.842   1.418  16.884  0.2262 -0.4332  0.0273
  425MPD2    C4 6393   3.956   1.489  16.862 -0.2775 -0.1027 -0.1949
  425MPD2    C5 6394   4.070   1.416  16.843  0.5098  0.1069  1.6398
  425MPD2     H 6395   3.756   1.229  16.925  0.6969 -0.8011  0.6071
  425MPD2    H1 6396   3.954   1.596  16.880 -0.5437 -0.0969 -0.2549
  425MPD2    H2 6397   4.173   1.230  16.839  0.1527  0.0406  0.3741
  425MPD2    H3 6398   4.158   1.479  16.832  0.7196 -1.0027 -2.9809
  425MPD2     N 6399   3.707   1.472  16.910  0.3252  0.6242  0.2637
  425MPD2    H5 6400   3.646   1.403  16.952  0.5761  2.2993  3.4109
  425MPD2    N1 6401   3.982   1.069  16.889 -0.2625  0.2268 -0.0741
  425MPD2    H7 6402   4.080   1.044  16.890 -0.2875  0.0914 -0.8138
  426TMC3    C1 6403   3.941   0.843  16.925  0.4530 -0.7305  0.2306
  426TMC3    C2 6404   3.887   0.733  16.857  0.0078 -0.5209 -0.0673
  426TMC3    C3 6405   3.967   0.619  16.856 -0.3413  0.7341 -0.2261
  426TMC3    C4 6406   4.054   0.839  17.006 -0.5346  0.0469 -0.3445
  426TMC3    C5 6407   4.115   0.720  17.008 -0.2347 -0.0455 -0.1322
  426TMC3    C6 6408   4.086   0.617  16.924 -0.1578 -0.2969  0.2639
  426TMC3     C 6409   3.885   0.972  16.900 -0.1085  0.9070  0.5504
  426TMC3     O 6410   3.766   0.993  16.895 -0.2153 -0.0917 -0.2860
  426TMC3     H 6411   3.793   0.736  16.802  0.7297  0.7883 -1.2381
  426TMC3    H1 6412   4.084   0.920  17.071  3.3116  0.0830 -2.1859
  426TMC3    H2 6413   4.139   0.523  16.922  2.4217  1.1927 -0.3728
  426TMC3    C7 6414   4.198   0.676  17.122 -0.6685 -0.0340 -0.0567
  426TMC3    C8 6415   3.953   0.526  16.747 -0.3961  0.5464 -0.0724
  426TMC3    O1 6416   4.256   0.570  17.107 -0.8066  0.8959 -0.2448
  426TMC3    O2 6417   4.056   0.469  16.713  0.0088  0.0484  0.5270
  427MPD2     C 6418   2.575   3.419  14.566  0.4602 -0.8224  0.4173
  427MPD2    C1 6419   2.504   3.368  14.677 -0.0726 -0.4760  0.4322
  427MPD2    C2 6420   2.362   3.384  14.675  0.4698  0.1451 -0.0322
  427MPD2    C3 6421   2.295   3.443  14.570 -0.5309 -0.1846  0.3231
  427MPD2    C4 6422   2.368   3.493  14.461  0.6137 -1.1914 -0.0511
  427MPD2    C5 6423   2.505   3.472  14.461 -0.2916 -0.5527 -0.5945
  427MPD2     H 6424   2.304   3.347  14.760  1.6865 -1.1124  0.2564
  427MPD2    H1 6425   2.328   3.532  14.368 -0.7836 -1.4911  0.4190
  427MPD2    H2 6426   2.680   3.398  14.548  1.0936 -0.8140  3.9754
  427MPD2    H3 6427   2.560   3.482  14.368 -0.3725  2.0725 -0.3389
  427MPD2     N 6428   2.156   3.461  14.556  0.1821 -0.6334 -0.5985
  427MPD2    H5 6429   2.118   3.495  14.469  0.5978  2.0869  0.3004
  427MPD2    N1 6430   2.573   3.309  14.788  0.7445 -0.1630  0.2170
  427MPD2    H7 6431   2.509   3.275  14.860 -1.1113  2.3799 -0.2458
  428TMC3    C1 6432   2.748   3.244  14.928  0.0268  0.7499  0.0725
  428TMC3    C2 6433   2.670   3.149  14.996  0.1153 -0.0979  0.1576
  428TMC3    C3 6434   2.722   3.115  15.118 -0.0767  0.5673 -0.3986
  428TMC3    C4 6435   2.850   3.315  14.983 -0.4965 -0.5803 -0.8052
  428TMC3    C5 6436   2.886   3.282  15.113  0.4685  0.4410 -0.1111
  428TMC3    C6 6437   2.824   3.185  15.178 -0.2643 -0.7886 -0.4886
  428TMC3     C 6438   2.709   3.296  14.801 -0.0380 -0.4625 -0.7065
  428TMC3     O 6439   2.799   3.339  14.735 -0.6179 -0.0331  0.2706
  428TMC3     H 6440   2.589   3.101  14.943 -1.0778  1.0197  0.9885
  428TMC3    H1 6441   2.906   3.391  14.930 -0.6737  0.3267  0.3062
  428TMC3    H2 6442   2.858   3.147  15.274  0.7654 -0.6725 -0.8063
  428TMC3    C7 6443   2.981   3.363  15.188  0.1107 -0.2616 -0.7759
  428TMC3    C8 6444   2.687   2.993  15.179 -0.6478  0.1786 -0.1972
  428TMC3    O1 6445   2.951   3.387  15.303 -0.4177 -0.1001  1.2735
  428TMC3    O2 6446   2.669   2.891  15.119 -0.0115  0.4930 -0.4134
  429MPD2     C 6447   4.007   3.671   0.006  0.0327  0.1342  0.3901
  429MPD2    C1 6448   4.049   3.591  17.651  0.1333  0.5254 -0.7322
  429MPD2    C2 6449   4.076   3.642  17.526 -0.6174  0.8961  0.0940
  429MPD2    C3 6450   4.061   3.771  17.492  0.0989  0.3803 -0.5139
  429MPD2    C4 6451   4.020   3.860  17.594  0.4258  0.5853 -0.9066
  429MPD2    C5 6452   3.993   3.804  17.716 -0.0620  0.4615  0.1225
  429MPD2     H 6453   4.099   3.572  17.447 -0.9709 -0.8262  1.5197
  429MPD2    H1 6454   4.026   3.968  17.588  1.5031  0.7046  2.3396
  429MPD2    H2 6455   3.992   3.649   0.111 -1.2104 -0.8308  0.0152
  429MPD2    H3 6456   3.974   3.872   0.053  1.1453 -0.1353  0.8909
  429MPD2     N 6457   4.072   3.806  17.357 -0.1735  0.0490  0.6448
  429MPD2    H5 6458   4.114   3.740  17.292  0.6093 -1.3183  2.5564
  429MPD2    N1 6459   4.065   3.451  17.667 -0.0648  0.1221 -0.0115
  429MPD2    H7 6460   4.089   3.394  17.587  0.2238  1.5499 -0.9530
  430TMC3    C1 6461   4.103   3.963  17.177  0.4676 -0.1235  0.2150
  430TMC3    C2 6462   4.070   4.074  17.106 -0.4133 -0.1385 -0.5721
  430TMC3    C3 6463   4.104   4.080  16.976 -0.0009 -0.2822  0.0274
  430TMC3    C4 6464   4.164   3.857  17.107 -0.2111 -0.5145  0.1656
  430TMC3    C5 6465   4.205   3.869  16.978  0.1455 -0.0763 -0.2165
  430TMC3    C6 6466   4.165   3.980  16.909 -0.1825 -0.1606  0.4107
  430TMC3     C 6467   4.041   3.935  17.312 -0.1248 -0.0793 -0.2189
  430TMC3     O 6468   4.002   4.033  17.375 -0.2192  0.6214 -0.1274
  430TMC3     H 6469   4.009   4.150  17.154  2.3977  1.9324 -0.3043
  430TMC3    H1 6470   4.207   3.772  17.159  0.2248 -0.0682  0.5442
  430TMC3    H2 6471   4.207   3.992  16.809  0.3718  2.4755  0.9542
  430TMC3    C7 6472   4.251   3.746  16.912  0.3886 -0.0209  0.2221
  430TMC3    C8 6473   4.040   4.187  16.901 -0.1972  0.1926 -0.9289
  430TMC3    O1 6474   4.236   3.648  16.978 -0.0849  0.1536 -0.1702
  430TMC3    O2 6475   3.997   4.158  16.786  0.1090 -0.1384 -0.4743
  431MPD2     C 6476   0.032   3.700  12.212  0.5553  0.2359 -0.5687
  431MPD2    C1 6477   4.643   3.690  12.248  0.2272 -0.5799 -0.1593
  431MPD2    C2 6478   4.544   3.649  12.162  0.0483 -0.1243 -0.5898
  431MPD2    C3 6479   4.568   3.596  12.041  0.4865  0.4708 -0.1588
  431MPD2    C4 6480   4.693   3.612  12.003  0.0791 -0.4805  0.1575
  431MPD2    C5 6481   0.056   3.663  12.081 -0.0714 -1.5000  0.5790
  431MPD2     H 6482   4.445   3.636  12.205  1.5413 -3.2148  1.9361
  431MPD2    H1 6483   4.718   3.586  11.901  2.0781  0.3689  0.4456
  431MPD2    H2 6484   0.113   3.727  12.279 -1.3594 -0.3222  1.9860
  431MPD2    H3 6485   0.155   3.678  12.039 -0.9374  0.9874 -0.5608
  431MPD2     N 6486   4.472   3.526  11.958 -0.0538  0.3233  0.1905
  431MPD2    H5 6487   4.514   3.465  11.888  1.9116  0.8112  0.9433
  431MPD2    N1 6488   4.599   3.727  12.376 -0.7445  0.4366 -0.8480
  431MPD2    H7 6489   4.499   3.713  12.392 -0.3647 -2.0616 -0.6237
  432TMC3    C1 6490   4.280   3.395  11.912 -0.0995 -0.7045  0.4272
  432TMC3    C2 6491   4.324   3.358  11.787  0.4449  0.0965  0.4195
  432TMC3    C3 6492   4.276   3.246  11.726 -0.1598  0.3252 -0.7471
  432TMC3    C4 6493   4.181   3.323  11.972 -0.4157 -0.5935 -0.3815
  432TMC3    C5 6494   4.131   3.215  11.905 -0.7793  0.6011 -0.1556
  432TMC3    C6 6495   4.179   3.167  11.786 -0.1268 -0.1283 -0.1727
  432TMC3     C 6496   4.336   3.502  11.996  0.0595  0.0572  0.1187
  432TMC3     O 6497   4.268   3.549  12.089 -0.2371  0.0080  0.1427
  432TMC3     H 6498   4.374   3.435  11.729 -0.3584  0.7718  0.6279
  432TMC3    H1 6499   4.138   3.366  12.062  1.2463 -1.6281  0.9208
  432TMC3    H2 6500   4.143   3.078  11.735 -0.1459 -0.8441  1.0969
  432TMC3    C7 6501   4.095   3.107  11.999 -0.3133  0.5103  0.8850
  432TMC3    C8 6502   4.309   3.216  11.590 -0.1184  0.2627  0.6685
  432TMC3    O1 6503   4.131   2.994  11.967 -0.4505 -0.0734  0.1441
  432TMC3    O2 6504   4.219   3.148  11.536 -0.1080  0.3179 -0.2763
  433MPD2     C 6505   3.145   2.053  10.744  0.6779 -0.0589 -0.5200
  433MPD2    C1 6506   3.251   1.974  10.797 -0.0225  0.3458 -0.2323
  433MPD2    C2 6507   3.360   2.043  10.856  0.1893  0.0795 -0.3298
  433MPD2    C3 6508   3.353   2.179  10.876  0.7591  0.9917  0.2073
  433MPD2    C4 6509   3.246   2.250  10.823 -0.6128 -0.0768  0.4673
  433MPD2    C5 6510   3.146   2.190  10.749 -1.0110  0.0102  0.6113
  433MPD2     H 6511   3.448   1.997  10.901  0.2207 -0.6282 -1.1080
  433MPD2    H1 6512   3.239   2.358  10.827  0.9946  0.0798 -0.7587
  433MPD2    H2 6513   3.064   1.996  10.699  0.1919  1.5320 -1.6817
  433MPD2    H3 6514   3.069   2.241  10.692 -0.4841 -1.0959 -1.1140
  433MPD2     N 6515   3.459   2.243  10.946  0.3175 -0.7088  0.4719
  433MPD2    H5 6516   3.515   2.178  11.000 -0.2407 -0.2014  1.6771
  433MPD2    N1 6517   3.248   1.834  10.777  0.3887  0.4459  0.2925
  433MPD2    H7 6518   3.169   1.789  10.731 -0.0371  2.8495 -1.3399
  434TMC3    C1 6519   3.318   1.609  10.806 -0.2081  0.5816 -0.1236
  434TMC3    C2 6520   3.410   1.521  10.858 -0.0777  0.4141  0.5799
  434TMC3    C3 6521   3.368   1.397  10.903 -0.0277 -0.3077 -0.8125
  434TMC3    C4 6522   3.192   1.572  10.775  0.3512 -0.2164 -0.3148
  434TMC3    C5 6523   3.156   1.442  10.807  0.0021  0.4341 -0.1063
  434TMC3    C6 6524   3.241   1.357  10.876 -0.5194  0.0513  0.2355
  434TMC3     C 6525   3.349   1.751  10.821 -0.0621 -0.2360  0.2616
  434TMC3     O 6526   3.446   1.777  10.895 -0.2008 -0.0285 -0.2279
  434TMC3     H 6527   3.515   1.542  10.875 -0.0920 -1.2462  2.8226
  434TMC3    H1 6528   3.122   1.641  10.730  0.3830  1.2952  1.9426
  434TMC3    H2 6529   3.197   1.261  10.901 -3.4620  1.0542 -1.0948
  434TMC3    C7 6530   3.020   1.415  10.779  0.1806 -0.4433 -0.6530
  434TMC3    C8 6531   3.447   1.346  11.009  0.3144 -0.3064 -0.3840
  434TMC3    O1 6532   2.973   1.463  10.677 -0.1336  0.3524  0.0733
  434TMC3    O2 6533   3.571   1.352  10.998  0.2240  0.7710  0.2446
  435MPD2     C 6534   0.773   2.246  15.160  0.3196  0.6431 -0.0328
  435MPD2    C1 6535   0.720   2.221  15.286 -0.6666 -1.4022  0.7369
  435MPD2    C2 6536   0.805   2.177  15.385  0.0625  0.9029 -0.0585
  435MPD2    C3 6537   0.936   2.156  15.376 -0.0397 -0.0225  0.0201
  435MPD2    C4 6538   0.992   2.186  15.259  0.0265 -0.2783  0.0185
  435MPD2    C5 6539   0.915   2.228  15.148  0.1460  0.7032 -0.1490
  435MPD2     H 6540   0.760   2.161  15.482  0.9205  0.0148  0.2011
  435MPD2    H1 6541   1.098   2.167  15.245  0.0624  0.8216 -1.1953
  435MPD2    H2 6542   0.708   2.285  15.082  2.2221  1.4354 -1.2039
  435MPD2    H3 6543   0.979   2.258  15.065 -0.1711 -0.1835 -0.7226
  435MPD2     N 6544   0.989   2.108  15.498 -0.1870 -0.9103 -0.3989
  435MPD2    H5 6545   0.926   2.101  15.577  0.2062 -0.2318 -0.0264
  435MPD2    N1 6546   0.583   2.242  15.318 -0.2052 -0.8068 -0.6104
  435MPD2    H7 6547   0.560   2.227  15.416 -1.4572 -0.8474 -0.9070
  436TMC3    C1 6548   0.223   2.298  15.507  0.7792 -0.1382 -0.3294
  436TMC3    C2 6549   0.345   2.301  15.439  0.6164 -0.0400  0.1633
  436TMC3    C3 6550   0.344   2.257  15.312  0.6919  0.0916 -0.5193
  436TMC3    C4 6551   0.111   2.262  15.453  0.1270 -0.3450  0.9372
  436TMC3    C5 6552   0.113   2.227  15.323  0.2574  0.0181  0.5222
  436TMC3    C6 6553   0.227   2.218  15.251 -0.1453  0.1229 -0.7275
  436TMC3     C 6554   0.232   2.379  15.620  0.2786 -0.6629  0.0576
  436TMC3     O 6555   0.317   2.464  15.625  0.6791  0.0526 -0.3069
  436TMC3     H 6556   0.434   2.342  15.486  0.6968  0.3121 -0.2945
  436TMC3    H1 6557   0.012   2.278  15.495 -1.0458 -1.5979 -1.3273
  436TMC3    H2 6558   0.230   2.182  15.149 -0.0432  1.3411 -1.1586
  436TMC3    C7 6559   0.008   2.143  15.277 -0.0818  0.4369 -0.1484
  436TMC3    C8 6560   0.469   2.253  15.237 -0.4151 -0.0126  0.7562
  436TMC3    O1 6561   0.011   2.114  15.163 -0.3634 -0.2976 -0.5191
  436TMC3    O2 6562   0.476   2.266  15.116 -0.1166  0.1560 -0.2812
  437TMC3    C1 6563   3.825   3.835  13.081 -0.2614  0.4976 -0.0443
  437TMC3    C2 6564   3.764   3.820  13.200 -0.4949 -0.0457  0.6059
  437TMC3    C3 6565   3.695   3.924  13.251 -0.1317  0.3776  0.0852
  437TMC3    C4 6566   3.797   3.945  13.002  0.3792 -0.2326  1.0172
  437TMC3    C5 6567   3.719   4.042  13.055 -0.4602  0.3936 -0.1631
  437TMC3    C6 6568   3.663   4.038  13.180 -0.0151  0.4750  0.6999
  437TMC3     C 6569   3.910   3.725  13.031  0.5486  0.0144 -0.2599
  437TMC3     O 6570   3.951   3.650  13.116 -0.0059  0.0135  0.0926
  437TMC3     H 6571   3.797   3.736  13.259 -1.7972 -0.6236  0.5048
  437TMC3    H1 6572   3.828   3.958  12.899  3.0109 -0.3929  1.7662
  437TMC3    H2 6573   3.594   4.114  13.215 -1.3605 -0.5428  0.2583
  437TMC3    C7 6574   3.712   4.162  12.976 -0.2080  0.3418  1.1086
  437TMC3    C8 6575   3.645   3.899  13.389  0.1264 -0.1282  0.2899
  437TMC3    O1 6576   3.618   4.238  12.975  0.0447 -0.1111 -0.2026
  437TMC3    O2 6577   3.614   3.782  13.422  0.2244  0.2239 -0.1008
  438MPD2     C 6578   1.604   0.385  16.814 -0.3785  0.1508 -0.4582
  438MPD2    C1 6579   1.727   0.328  16.836 -0.1008  0.2797 -0.0831
  438MPD2    C2 6580   1.773   0.304  16.970  0.1148  0.1282 -0.2364
  438MPD2    C3 6581   1.682   0.319  17.071  0.6448 -0.1976 -0.0856
  438MPD2    C4 6582   1.563   0.374  17.051  0.2380 -0.2342  0.5992
  438MPD2    C5 6583   1.522   0.393  16.923  0.1207  0.3772 -0.0883
  438MPD2     H 6584   1.873   0.269  16.993  0.1963 -0.4097 -1.3973
  438MPD2    H1 6585   1.487   0.392  17.126 -0.4052  3.4673 -0.9418
  438MPD2    H2 6586   1.575   0.406  16.711  2.8765 -2.2933 -1.8790
  438MPD2    H3 6587   1.420   0.424  16.902 -0.1890 -0.2541  0.4954
  438MPD2     N 6588   1.720   0.282  17.203 -0.6044  0.5591 -0.2639
  438MPD2    H5 6589   1.679   0.321  17.287 -0.4019 -2.0044  1.0236
  438MPD2    N1 6590   1.821   0.291  16.735  0.5015  0.4701  0.0323
  438MPD2    H7 6591   1.911   0.257  16.767  0.3757  2.3427  2.3674
  439TMC3    C1 6592   1.924   0.267  16.528  0.0754  0.5597 -0.0804
  439TMC3    C2 6593   1.903   0.240  16.396  0.6408 -0.5236 -0.2673
  439TMC3    C3 6594   2.014   0.202  16.318  0.6385  0.0940  0.8550
  439TMC3    C4 6595   2.052   0.276  16.591  0.3750 -0.6647 -0.1476
  439TMC3    C5 6596   2.155   0.248  16.506  0.2436 -0.4646 -0.2532
  439TMC3    C6 6597   2.137   0.213  16.380 -0.5351 -0.2067  0.1184
  439TMC3     C 6598   1.798   0.299  16.602 -1.6199  0.1334  1.1443
  439TMC3     O 6599   1.707   0.344  16.533  0.4669  0.1291 -0.0431
  439TMC3     H 6600   1.805   0.244  16.350  0.9690 -0.8218 -0.9863
  439TMC3    H1 6601   2.062   0.295  16.697 -1.0240  1.3677 -0.3772
  439TMC3    H2 6602   2.220   0.173  16.322  1.4722  2.6625  1.0310
  439TMC3    C7 6603   2.281   0.221  16.580 -0.7794 -0.2173 -0.7232
  439TMC3    C8 6604   2.003   0.162  16.181 -0.5777  0.6680  0.2702
  439TMC3    O1 6605   2.282   0.134  16.667  0.1492  0.2395 -0.2990
  439TMC3    O2 6606   2.104   0.124  16.130  0.4794  1.4710 -0.5749
  440MPD2     C 6607   0.276   0.359  15.194  0.7175  0.2644 -0.1770
  440MPD2    C1 6608   0.340   0.467  15.264 -0.1554 -0.0892  0.1075
  440MPD2    C2 6609   0.476   0.459  15.290  0.6157 -0.1257  0.2730
  440MPD2    C3 6610   0.545   0.344  15.264  0.1252 -0.0353 -0.3686
  440MPD2    C4 6611   0.477   0.234  15.214 -0.4913 -0.1196 -0.5126
  440MPD2    C5 6612   0.346   0.239  15.174 -0.2292 -0.0506 -0.0932
  440MPD2     H 6613   0.527   0.546  15.329 -2.6113  1.1327  1.6706
  440MPD2    H1 6614   0.528   0.138  15.213  1.5921  0.9761 -0.4422
  440MPD2    H2 6615   0.170   0.350  15.174  1.1291  1.1926 -2.7068
  440MPD2    H3 6616   0.308   0.148  15.129  1.3101 -1.4070  1.3534
  440MPD2     N 6617   0.686   0.349  15.273  0.1281  0.3087  0.2412
  440MPD2    H5 6618   0.732   0.437  15.292  0.1799  0.3903 -0.2777
  440MPD2    N1 6619   0.278   0.585  15.301 -0.1383 -0.0545  0.3604
  440MPD2    H7 6620   0.325   0.654  15.358 -0.5998  0.7600 -0.2423
  441TMC3    C1 6621   0.915   0.295  15.257  0.1932  0.1411 -0.2195
  441TMC3    C2 6622   0.963   0.425  15.253 -0.6101 -0.0610 -0.3930
  441TMC3    C3 6623   1.100   0.438  15.281  0.3353  1.0099  0.7159
  441TMC3    C4 6624   0.998   0.191  15.278  0.4794  0.4709 -0.5511
  441TMC3    C5 6625   1.132   0.207  15.302 -0.0848  0.3184  0.3474
  441TMC3    C6 6626   1.180   0.336  15.318  0.5712  0.4134  0.0566
  441TMC3     C 6627   0.776   0.250  15.260  0.0537 -0.4587 -0.4583
  441TMC3     O 6628   0.756   0.130  15.268 -0.2036  1.0277 -0.0451
  441TMC3     H 6629   0.890   0.499  15.223 -0.4292  0.6623  0.9784
  441TMC3    H1 6630   0.968   0.087  15.276 -0.2843  0.6892 -0.5133
  441TMC3    H2 6631   1.272   0.359  15.370 -0.1801  1.0515  1.1145
  441TMC3    C7 6632   1.165   0.116  15.407 -0.8396  0.1661  0.1536
  441TMC3    C8 6633   1.155   0.575  15.287 -0.5712 -0.1088 -0.1742
  441TMC3    O1 6634   1.187   0.167  15.516  0.0708  0.2821 -0.0733
  441TMC3    O2 6635   1.276   0.583  15.301 -0.0626  0.8908 -0.4294
  442MPD2     C 6636   3.917   0.989  16.546 -0.1749 -0.0658  0.3065
  442MPD2    C1 6637   3.781   0.972  16.528  0.0522 -0.0485 -0.2916
  442MPD2    C2 6638   3.737   0.863  16.463  0.2381  0.2446 -0.0463
  442MPD2    C3 6639   3.822   0.765  16.419  0.3602 -0.0515 -0.1892
  442MPD2    C4 6640   3.955   0.771  16.447  0.4044  0.0886  0.0511
  442MPD2    C5 6641   4.004   0.884  16.511  0.0328  0.5231  0.5013
  442MPD2     H 6642   3.630   0.848  16.455  0.4704 -2.0382  0.8804
  442MPD2    H1 6643   4.030   0.709  16.400 -0.5867 -0.0561 -1.3138
  442MPD2    H2 6644   3.965   1.075  16.591  0.2038  0.9690 -2.0842
  442MPD2    H3 6645   4.109   0.906  16.519  0.6503 -2.9366  1.7484
  442MPD2     N 6646   3.776   0.656  16.339  0.0145  0.1174 -0.0236
  442MPD2    H5 6647   3.844   0.608  16.281 -0.8590 -1.6640  0.4256
  442MPD2    N1 6648   3.692   1.073  16.573  0.1862 -0.0470  0.4643
  442MPD2    H7 6649   3.592   1.058  16.570  0.1559  0.8353 -2.7618
  443TMC3    C1 6650   3.621   1.275  16.658 -0.5403  0.2331 -0.4675
  443TMC3    C2 6651   3.596   1.394  16.602 -1.1979  0.0463  0.1231
  443TMC3    C3 6652   3.467   1.436  16.604  0.4537  0.2231  0.4265
  443TMC3    C4 6653   3.533   1.201  16.726 -0.2206  0.0586  0.7832
  443TMC3    C5 6654   3.405   1.249  16.737  0.6408 -0.6281  0.4772
  443TMC3    C6 6655   3.369   1.360  16.663 -0.0128  0.0187 -0.3990
  443TMC3     C 6656   3.735   1.203  16.601 -0.6857  1.2748  0.6465
  443TMC3     O 6657   3.842   1.253  16.569  0.0689 -0.3227  0.6767
  443TMC3     H 6658   3.665   1.454  16.544 -1.3996 -0.2544 -0.4237
  443TMC3    H1 6659   3.564   1.113  16.782 -2.2053  0.4471  2.4750
  443TMC3    H2 6660   3.263   1.386  16.668  0.0196  0.1144 -0.2049
  443TMC3    C7 6661   3.299   1.178  16.817 -0.2632  0.3832  0.2506
  443TMC3    C8 6662   3.433   1.537  16.506  0.0152  0.7644 -0.1075
  443TMC3    O1 6663   3.189   1.203  16.771  0.6219 -0.4387  0.2906
  443TMC3    O2 6664   3.510   1.633  16.501  0.6537 -0.3655  0.5348
  444MPD2     C 6665   4.099   0.104  17.140  0.5086  0.0729 -0.2097
  444MPD2    C1 6666   4.022   0.140  17.032  0.2008 -0.2403  0.2259
  444MPD2    C2 6667   4.038   0.071  16.912 -0.3369 -0.6231 -1.1056
  444MPD2    C3 6668   4.125   4.699  16.903 -0.6128  0.2232  0.4220
  444MPD2    C4 6669   4.198   4.662  17.014 -0.2039  0.3622 -0.2135
  444MPD2    C5 6670   4.180   4.728  17.133 -0.5954 -0.7263  0.5172
  444MPD2     H 6671   3.983   0.093  16.821  0.4776 -1.5307 -1.8108
  444MPD2    H1 6672   4.272   4.583  17.007  0.0425  0.5970 -0.2646
  444MPD2    H2 6673   4.086   0.154  17.235 -0.3990  0.1587 -0.3829
  444MPD2    H3 6674   4.234   4.699  17.223 -2.4452  1.1265  2.2298
  444MPD2     N 6675   4.130   4.624  16.782  0.0273 -0.3881 -0.4609
  444MPD2    H5 6676   4.065   4.655  16.710 -0.9380 -2.1655 -0.3669
  444MPD2    N1 6677   3.926   0.234  17.038 -0.5157 -0.1290 -0.6708
  444MPD2    H7 6678   3.846   0.235  16.976 -0.7967 -0.1564 -0.3085
  445TMC3    C1 6679   4.189   4.453  16.625 -0.5827 -0.1002 -0.3961
  445TMC3    C2 6680   4.065   4.418  16.584  0.4340  0.3707 -0.2146
  445TMC3    C3 6681   4.049   4.328  16.486  0.5041 -0.2379 -0.1422
  445TMC3    C4 6682   4.304   4.399  16.577  0.0788 -0.5444 -0.0735
  445TMC3    C5 6683   4.289   4.297  16.479 -1.0833 -0.3519  0.4307
  445TMC3    C6 6684   4.162   4.272  16.431  0.0240  0.5424  0.0276
  445TMC3     C 6685   4.207   4.515  16.755 -1.1511  0.0635  0.0135
  445TMC3     O 6686   4.293   4.461  16.825  0.1601 -0.6976 -0.8831
  445TMC3     H 6687   3.979   4.472  16.625  1.1922  1.2563  0.2172
  445TMC3    H1 6688   4.396   4.422  16.629  0.8183 -1.3253 -1.0345
  445TMC3    H2 6689   4.157   4.201  16.349  0.2531 -0.3819  0.8259
  445TMC3    C7 6690   4.405   4.253  16.419 -0.5107 -0.3199 -0.1100
  445TMC3    C8 6691   3.927   4.321  16.417 -0.1088 -0.7476 -0.3469
  445TMC3    O1 6692   4.508   4.314  16.445 -0.2336 -0.4539  1.2310
  445TMC3    O2 6693   3.836   4.388  16.469 -0.0320 -0.3281 -0.1627
  446MPD2     C 6694   3.231   1.586  11.398 -0.2243  0.4489 -0.6498
  446MPD2    C1 6695   3.206   1.657  11.283 -0.7240 -0.2363 -0.2317
  446MPD2    C2 6696   3.317   1.686  11.199 -0.2520 -0.3243  0.0943
  446MPD2    C3 6697   3.445   1.668  11.239 -0.0641  0.1048  0.6123
  446MPD2    C4 6698   3.467   1.624  11.369 -0.0634 -0.0023 -0.2143
  446MPD2    C5 6699   3.359   1.583  11.443  0.3846 -0.5100 -0.3045
  446MPD2     H 6700   3.286   1.732  11.106 -0.4764  1.1724  0.9123
  446MPD2    H1 6701   3.565   1.603  11.410 -0.2718 -0.6421 -0.0519
  446MPD2    H2 6702   3.155   1.526  11.447  0.5700 -0.1203 -0.1192
  446MPD2    H3 6703   3.381   1.536  11.538  4.2783  0.5234 -0.6929
  446MPD2     N 6704   3.550   1.696  11.151  0.2442 -0.6968 -0.7368
  446MPD2    H5 6705   3.517   1.742  11.066 -3.7780 -1.2477  0.5743
  446MPD2    N1 6706   3.074   1.670  11.231  0.5115  0.2501 -0.0621
  446MPD2    H7 6707   3.062   1.702  11.136 -2.5998  0.0378  0.2653
  447TMC3    C1 6708   3.769   1.726  11.076  0.4503 -0.8700 -0.5759
  447TMC3    C2 6709   3.748   1.850  11.025  0.2507  0.3649  0.3914
  447TMC3    C3 6710   3.839   1.897  10.934 -0.7621 -0.3969 -0.3063
  447TMC3    C4 6711   3.892   1.657  11.053  0.6489  0.1991  0.4855
  447TMC3    C5 6712   3.983   1.717  10.971 -0.7655 -1.0762  0.2819
  447TMC3    C6 6713   3.955   1.834  10.904  0.2416 -0.2348  0.1861
  447TMC3     C 6714   3.684   1.657  11.173 -0.0788 -0.1606 -0.2271
  447TMC3     O 6715   3.730   1.566  11.242 -0.4319 -0.5342  0.4921
  447TMC3     H 6716   3.669   1.916  11.061  0.9413  1.4311 -0.0548
  447TMC3    H1 6717   3.913   1.559  11.094  0.4318  0.0820  0.3122
  447TMC3    H2 6718   4.031   1.870  10.836  0.6438  0.3984  0.9727
  447TMC3    C7 6719   4.108   1.639  10.942 -0.0297  0.1567  0.1656
  447TMC3    C8 6720   3.808   2.019  10.867  0.2178 -0.1682 -0.6274
  447TMC3    O1 6721   4.119   1.522  10.975  0.1064 -0.3354 -0.6676
  447TMC3    O2 6722   3.696   2.055  10.889  0.3607 -0.0979  0.2984
  448TMC3    C1 6723   1.160   1.654  17.149  0.0207  0.0134  0.9748
  448TMC3    C2 6724   1.210   1.554  17.077 -0.2253 -0.3177 -0.3047
  448TMC3    C3 6725   1.296   1.468  17.143  0.4113 -0.3160  0.7913
  448TMC3    C4 6726   1.199   1.684  17.271  0.1845  0.2416 -0.0430
  448TMC3    C5 6727   1.272   1.591  17.342 -0.0786 -0.5123 -0.4908
  448TMC3    C6 6728   1.325   1.481  17.277 -0.2422 -0.0342  0.4501
  448TMC3     C 6729   1.062   1.732  17.088 -0.2689 -0.3514  0.8059
  448TMC3     O 6730   1.075   1.760  16.968  0.5000 -0.1034  0.1853
  448TMC3     H 6731   1.181   1.540  16.973  0.6621 -0.6094 -0.5135
  448TMC3    H1 6732   1.181   1.780  17.318  3.8230  1.1424 -0.5187
  448TMC3    H2 6733   1.388   1.411  17.329  1.5869 -0.1225 -1.8823
  448TMC3    C7 6734   1.328   1.638  17.461  0.2984  0.6833 -0.3635
  448TMC3    C8 6735   1.324   1.327  17.095  0.1437 -0.0654  0.5436
  448TMC3    O1 6736   1.384   1.748  17.452 -0.0163 -0.5094 -0.0348
  448TMC3    O2 6737   1.408   1.256  17.152 -0.2716  0.3683 -0.0318
  449MPD2     C 6738   3.371   4.605  14.249 -0.4167 -0.3200 -0.4738
  449MPD2    C1 6739   3.258   4.664  14.220 -0.6053 -0.2587 -0.3770
  449MPD2    C2 6740   3.140   4.598  14.229  0.0401 -1.2442 -0.3603
  449MPD2    C3 6741   3.141   4.463  14.271 -0.5210  0.6100  0.7305
  449MPD2    C4 6742   3.261   4.400  14.310  0.0837 -0.0528  0.1133
  449MPD2    C5 6743   3.378   4.475  14.295 -0.0862  0.2461 -0.1694
  449MPD2     H 6744   3.051   4.650  14.196  0.3844 -0.6550 -0.3663
  449MPD2    H1 6745   3.263   4.301  14.354 -1.6063  0.4742  1.3892
  449MPD2    H2 6746   3.465   4.660  14.254 -1.7382  1.7732  1.8361
  449MPD2    H3 6747   3.472   4.428  14.321  0.5200  1.7965  0.4605
  449MPD2     N 6748   3.020   4.396  14.257  0.7069 -0.1115  0.3200
  449MPD2    H5 6749   2.942   4.454  14.227  1.8349  1.1397 -0.1571
  449MPD2    N1 6750   3.241   0.056  14.165  0.2621  0.2568  0.0821
  449MPD2    H7 6751   3.146   0.093  14.159  0.6341  1.1970 -0.0463
  450TMC3    C1 6752   3.293   0.272  14.082 -0.0612  0.2982  0.1823
  450TMC3    C2 6753   3.324   0.297  13.950 -0.3430 -0.6270  0.8025
  450TMC3    C3 6754   3.231   0.364  13.874 -0.3748 -0.1091 -1.2789
  450TMC3    C4 6755   3.169   0.290  14.128  0.3567 -0.2016 -0.1184
  450TMC3    C5 6756   3.071   0.336  14.046  0.1696 -0.5928 -0.2459
  450TMC3    C6 6757   3.114   0.388  13.924  0.5404  0.3925  0.6747
  450TMC3     C 6758   3.343   0.141  14.129 -0.2434  0.5798  0.9285
  450TMC3     O 6759   3.465   0.112  14.122  0.0551  0.0503  0.1626
  450TMC3     H 6760   3.421   0.265  13.913  0.9221  2.2609  1.5681
  450TMC3    H1 6761   3.147   0.286  14.234  0.1958  0.6164 -0.1221
  450TMC3    H2 6762   3.039   0.435  13.861 -0.3281 -1.1012  0.5947
  450TMC3    C7 6763   2.975   0.234  14.043 -0.6864 -0.3056  0.5815
  450TMC3    C8 6764   3.246   0.381  13.732  0.3013 -0.7997 -0.0789
  450TMC3    O1 6765   3.001   0.137  14.115  0.0211  0.0898 -0.1109
  450TMC3    O2 6766   3.173   0.468  13.681 -0.7062 -0.0841  0.1960
  451MPD2     C 6767   0.294   3.466   0.727 -0.7546  0.8607 -0.3462
  451MPD2    C1 6768   0.194   3.402   0.794 -0.4108 -0.0836  0.2107
  451MPD2    C2 6769   0.206   3.262   0.814  0.8194  0.1612  0.2520
  451MPD2    C3 6770   0.309   3.191   0.766 -0.0926 -0.1228  0.3403
  451MPD2    C4 6771   0.403   3.264   0.693  0.6433 -0.4226  0.1873
  451MPD2    C5 6772   0.397   3.398   0.670 -0.8782 -0.1121 -0.3682
  451MPD2     H 6773   0.129   3.204   0.863  1.9805 -1.9016 -0.3909
  451MPD2    H1 6774   0.489   3.209   0.657  2.5365  1.4580  1.8050
  451MPD2    H2 6775   0.302   3.574   0.728 -0.0245  0.7915  0.7233
  451MPD2    H3 6776   0.484   3.439   0.619  0.8617 -0.6365  2.1948
  451MPD2     N 6777   0.325   3.047   0.771  0.1068 -0.1210 -0.4841
  451MPD2    H5 6778   0.397   3.008   0.711 -0.3842 -3.0907  0.8617
  451MPD2    N1 6779   0.090   3.483   0.843 -0.7909  0.0168 -0.0066
  451MPD2    H7 6780   0.083   3.577   0.805 -2.7606  0.2844  1.0179
  452TMC3    C1 6781   0.275   2.830   0.791  0.1071 -0.4819 -0.5151
  452TMC3    C2 6782   0.167   2.758   0.754 -0.1689  0.0955 -0.2951
  452TMC3    C3 6783   0.168   2.677   0.645  0.4301  0.5404  0.6992
  452TMC3    C4 6784   0.388   2.815   0.714  0.6151  0.3788 -0.0813
  452TMC3    C5 6785   0.397   2.713   0.622  0.2925  0.4290  0.9357
  452TMC3    C6 6786   0.289   2.638   0.592  0.8522 -0.6557  0.0679
  452TMC3     C 6787   0.252   2.962   0.844 -0.0913  1.0034  0.8615
  452TMC3     O 6788   0.149   2.981   0.908 -0.6056  0.1537  0.2541
  452TMC3     H 6789   0.072   2.778   0.802  1.6051 -1.1579  3.7376
  452TMC3    H1 6790   0.480   2.871   0.727 -1.4790  3.7174  0.2935
  452TMC3    H2 6791   0.288   2.572   0.506 -1.4427  0.2131 -0.5740
  452TMC3    C7 6792   0.467   2.750   0.503 -0.2000 -0.2665  0.2475
  452TMC3    C8 6793   0.044   2.634   0.579 -0.1074  0.0341 -0.4268
  452TMC3    O1 6794   0.466   2.871   0.481 -0.2532 -0.4864 -0.5751
  452TMC3    O2 6795   0.053   2.526   0.527  0.2485  0.0541 -0.0730
  453TMC3    C1 6796   0.769   0.668  12.441  0.2713 -0.8300  0.3949
  453TMC3    C2 6797   0.697   0.554  12.446  0.7180 -0.0260  0.0646
  453TMC3    C3 6798   0.645   0.515  12.325  0.3017  0.0157 -0.2491
  453TMC3    C4 6799   0.788   0.752  12.333  0.4314  0.0092 -0.7989
  453TMC3    C5 6800   0.731   0.708  12.216 -0.4528 -0.6330 -1.0716
  453TMC3    C6 6801   0.667   0.589  12.210 -0.2584 -0.5840  0.4517
  453TMC3     C 6802   0.855   0.696  12.551 -0.2547 -0.3106 -0.1836
  453TMC3     O 6803   0.903   0.810  12.564  0.4480  0.2898 -0.5932
  453TMC3     H 6804   0.677   0.507  12.542  1.2762 -2.4945 -1.0554
  453TMC3    H1 6805   0.842   0.843  12.355 -1.6272  0.6299  1.6874
  453TMC3    H2 6806   0.621   0.568  12.114  0.7929  0.4345 -0.2771
  453TMC3    C7 6807   0.793   0.765  12.095  0.0583  0.6981  0.6237
  453TMC3    C8 6808   0.548   0.409  12.331 -0.2956 -0.2567  0.1185
  453TMC3    O1 6809   0.791   0.695  11.993 -0.2093  0.2137 -0.2421
  453TMC3    O2 6810   0.494   0.376  12.436 -0.1775 -0.1504 -0.4546
  454MPD2     C 6811   4.718   4.479  16.109  0.0872 -0.4686 -0.4933
  454MPD2    C1 6812   4.637   4.580  16.060  0.4574  0.2305 -0.2614
  454MPD2    C2 6813   4.595   4.686  16.143 -1.3574 -0.3014  0.6383
  454MPD2    C3 6814   4.620   4.679  16.277  0.8179 -0.2128 -0.0994
  454MPD2    C4 6815   4.689   4.573  16.331 -0.4117 -0.1108  0.4538
  454MPD2    C5 6816   0.000   4.479  16.246 -0.2993  0.3050 -0.3745
  454MPD2     H 6817   4.533   0.029  16.101 -1.2636 -0.0254  1.0212
  454MPD2    H1 6818   4.705   4.564  16.438 -0.9551  1.6330  0.6758
  454MPD2    H2 6819   0.015   4.398  16.045 -0.0477 -1.6825  0.9738
  454MPD2    H3 6820   0.043   4.397  16.303 -0.5013 -1.3325 -2.5484
  454MPD2     N 6821   4.571   0.039  16.370  0.0003 -0.0328 -0.6190
  454MPD2    H5 6822   4.618   0.039  16.459  0.4955 -3.8271 -0.8465
  454MPD2    N1 6823   4.576   4.580  15.932 -0.3861 -0.5388  0.1019
  454MPD2    H7 6824   4.521   4.657  15.897  0.1928 -0.6662 -1.1047
  455TMC3    C1 6825   4.360   0.112  16.287  0.0002 -0.7789 -0.5014
  455TMC3    C2 6826   4.278   0.219  16.238  0.2758  0.5793 -0.1434
  455TMC3    C3 6827   4.145   0.182  16.218 -0.0150 -0.3572 -0.0697
  455TMC3    C4 6828   4.320   4.715  16.295  0.8117  0.0016  0.4227
  455TMC3    C5 6829   4.189   4.687  16.262 -0.4525  0.1674  0.3440
  455TMC3    C6 6830   4.096   0.052  16.234  0.3249  0.2448 -0.0225
  455TMC3     C 6831   4.487   0.145  16.349  0.0306  0.3662 -0.0775
  455TMC3     O 6832   4.490   0.266  16.380 -0.5074  0.3582 -0.4193
  455TMC3     H 6833   4.305   0.323  16.227 -0.0494  0.6540 -0.2278
  455TMC3    H1 6834   4.374   4.633  16.340 -0.1952 -1.4488 -1.0307
  455TMC3    H2 6835   3.998   0.033  16.192 -0.4501  2.7120  0.6302
  455TMC3    C7 6836   4.153   4.559  16.218  0.1498 -0.6366  0.6719
  455TMC3    C8 6837   4.065   0.281  16.290 -1.3022 -0.4500  0.7973
  455TMC3    O1 6838   4.031   4.529  16.214 -0.2097  0.1174  0.1634
  455TMC3    O2 6839   4.109   0.392  16.311  0.2765 -0.3193  0.0053
  456MPD2     C 6840   1.987   0.560  16.039 -0.6242  0.7794 -0.1154
  456MPD2    C1 6841   2.085   0.536  16.133  0.1199  0.2467 -0.6981
  456MPD2    C2 6842   2.062   0.556  16.270 -0.0938  0.3315 -0.4456
  456MPD2    C3 6843   1.936   0.590  16.313 -0.7450  0.1513  0.7971
  456MPD2    C4 6844   1.836   0.604  16.213  0.1214 -0.1527 -0.6743
  456MPD2    C5 6845   1.864   0.592  16.077  0.1709 -0.3515 -0.3558
  456MPD2     H 6846   2.147   0.555  16.337 -1.9548 -1.0578  1.9071
  456MPD2    H1 6847   1.732   0.624  16.235  0.2153  0.8096 -1.0931
  456MPD2    H2 6848   1.999   0.548  15.932  1.2873  2.7794 -0.1166
  456MPD2    H3 6849   1.779   0.581  16.011  0.8979  2.8037 -1.8199
  456MPD2     N 6850   1.905   0.606  16.451 -0.6321  0.6415 -0.2795
  456MPD2    H5 6851   1.983   0.601  16.515  0.9370 -0.6310 -2.2954
  456MPD2    N1 6852   2.213   0.495  16.082  0.4288  0.4387  0.0536
  456MPD2    H7 6853   2.228   0.492  15.982 -3.2737 -1.8813 -0.4351
  457TMC3    C1 6854   1.800   0.698  16.641  0.1658  0.0847  0.3351
  457TMC3    C2 6855   1.705   0.789  16.673  0.1537  0.8999 -0.1470
  457TMC3    C3 6856   1.688   0.817  16.808  0.1110  0.0207  0.8662
  457TMC3    C4 6857   1.885   0.637  16.727 -0.4322  0.3291  0.4002
  457TMC3    C5 6858   1.865   0.664  16.858 -0.6747  0.8683 -0.7996
  457TMC3    C6 6859   1.768   0.754  16.897 -1.0014 -0.5211  0.5364
  457TMC3     C 6860   1.786   0.650  16.504 -0.2526 -0.8584  0.5014
  457TMC3     O 6861   1.676   0.685  16.455 -0.6685  0.2488  0.3429
  457TMC3     H 6862   1.638   0.833  16.600 -2.5887 -1.4121  0.9332
  457TMC3    H1 6863   1.943   0.552  16.695 -1.9189  0.1220 -1.7025
  457TMC3    H2 6864   1.737   0.759  17.001 -1.1787  1.7014  0.3861
  457TMC3    C7 6865   1.961   0.612  16.954  0.4617 -0.2876 -0.4222
  457TMC3    C8 6866   1.593   0.909  16.863 -0.0953  0.3316  0.6464
  457TMC3    O1 6867   2.014   0.507  16.918 -0.5327  0.1832 -0.2507
  457TMC3    O2 6868   1.616   0.965  16.970  0.0140  0.6357 -0.4931
  458MPD2     C 6869   3.964   4.487  12.647  0.7772 -0.2218  0.1020
  458MPD2    C1 6870   4.049   4.426  12.737  0.1272  0.2205 -0.2000
  458MPD2    C2 6871   4.012   4.332  12.828  0.0993 -0.2013 -0.0298
  458MPD2    C3 6872   3.879   4.297  12.848  0.2798 -0.0500  0.2254
  458MPD2    C4 6873   3.791   4.365  12.769 -0.3119 -0.0709 -0.2371
  458MPD2    C5 6874   3.829   4.447  12.664  0.3792 -0.2607 -0.0556
  458MPD2     H 6875   4.081   4.284  12.898  2.0020  3.9807  0.9550
  458MPD2    H1 6876   3.686   4.340  12.777  0.0494 -0.5035  2.9832
  458MPD2    H2 6877   3.991   4.562  12.574 -0.7132  0.2867  0.0752
  458MPD2    H3 6878   3.761   4.490  12.591  0.2162  0.7289  0.6826
  458MPD2     N 6879   3.840   4.196  12.937 -0.0500 -0.7807  0.2672
  458MPD2    H5 6880   3.919   4.138  12.965  0.2681 -0.3596  0.2572
  458MPD2    N1 6881   4.182   4.468  12.745  0.6931 -0.2581  0.2593
  458MPD2    H7 6882   4.243   4.407  12.798  0.6599 -0.4926  0.0260
  459TMC3    C1 6883   4.391   4.568  12.713 -0.2213 -0.8522  0.0135
  459TMC3    C2 6884   4.489   4.626  12.633  0.4734  0.1128 -0.4619
  459TMC3    C3 6885   4.613   4.636  12.684  0.2608  0.0651  1.0303
  459TMC3    C4 6886   4.426   4.525  12.840  0.4973  0.1753  0.4855
  459TMC3    C5 6887   4.551   4.542  12.885 -0.2429 -0.2877  0.2054
  459TMC3    C6 6888   4.647   4.588  12.809  0.0391 -0.1143 -0.0097
  459TMC3     C 6889   4.248   4.569  12.683  0.6476  0.2114  0.3504
  459TMC3     O 6890   4.195   4.665  12.625  0.1522 -0.6108 -0.1595
  459TMC3     H 6891   4.458   4.661  12.535  0.3666 -2.9767 -1.5283
  459TMC3    H1 6892   4.352   4.493  12.912 -0.0438  0.0786 -0.1081
  459TMC3    H2 6893   0.014   4.572  12.837 -0.3078 -0.4237  1.1043
  459TMC3    C7 6894   4.588   4.438  12.971  0.0905  0.4833 -0.4323
  459TMC3    C8 6895   4.721   4.658  12.594 -0.1917 -0.1304 -0.2790
  459TMC3    O1 6896   4.517   4.340  12.953 -0.3937  0.1172  0.0199
  459TMC3    O2 6897   0.089   4.707  12.641 -0.3092  0.3677  0.0032
  460MPD2     C 6898   3.999   2.286  10.696 -0.0112  0.9079 -0.1580
  460MPD2    C1 6899   3.892   2.229  10.753  0.0142  0.3634 -0.0382
  460MPD2    C2 6900   3.764   2.283  10.738  0.3780  0.2153  0.6431
  460MPD2    C3 6901   3.749   2.396  10.671  1.0890  0.1503  0.6175
  460MPD2    C4 6902   3.859   2.458  10.617  0.0070  0.5335  0.3150
  460MPD2    C5 6903   3.983   2.399  10.621  0.6193 -0.4891  0.8596
  460MPD2     H 6904   3.678   2.235  10.784 -0.2744  1.1562  0.3870
  460MPD2    H1 6905   3.853   2.555  10.571  1.3289 -0.1173 -1.2101
  460MPD2    H2 6906   4.100   2.249  10.712  0.4587  2.4185  0.3283
  460MPD2    H3 6907   4.071   2.450  10.585  0.5820  0.8077  2.5920
  460MPD2     N 6908   3.622   2.452  10.672  0.1010 -0.2513  0.8868
  460MPD2    H5 6909   3.546   2.391  10.701 -2.4532  3.2518  1.5422
  460MPD2    N1 6910   3.912   2.104  10.826  0.3146 -0.2067 -0.7434
  460MPD2    H7 6911   4.009   2.079  10.840  0.1723  0.0035  0.5887
  461TMC3    C1 6912   3.443   2.543  10.560 -0.1068  0.0303  0.3439
  461TMC3    C2 6913   3.384   2.423  10.537 -0.0520 -0.1601  0.2227
  461TMC3    C3 6914   3.264   2.420  10.478  0.2379  0.3245 -0.1321
  461TMC3    C4 6915   3.382   2.663  10.519  0.0454 -0.3171 -0.0403
  461TMC3    C5 6916   3.259   2.658  10.459 -0.6208  0.0701  0.1785
  461TMC3    C6 6917   3.201   2.534  10.441 -0.7002 -0.0366  0.6005
  461TMC3     C 6918   3.582   2.561  10.600  0.0502 -0.6281 -0.6807
  461TMC3     O 6919   3.645   2.650  10.546 -0.0327 -0.6130  0.1662
  461TMC3     H 6920   3.426   2.331  10.577  2.1577  1.1435  0.8752
  461TMC3    H1 6921   3.431   2.759  10.526 -1.5062  0.5159 -0.5779
  461TMC3    H2 6922   3.115   2.525  10.375  0.4911  0.6728 -1.0682
  461TMC3    C7 6923   3.194   2.765  10.383  0.7849  0.0228  0.0380
  461TMC3    C8 6924   3.215   2.287  10.430 -0.0415 -0.2409  0.2465
  461TMC3    O1 6925   3.111   2.730  10.300  0.0516 -0.0740  0.0816
  461TMC3    O2 6926   3.302   2.202  10.404  0.2688  0.4228 -0.6961
  462TMC3    C1 6927   4.069   3.455   0.519 -0.4065 -0.2562  0.5200
  462TMC3    C2 6928   4.176   3.417   0.595  0.6955 -0.5241 -0.1048
  462TMC3    C3 6929   4.208   3.281   0.617  0.2215 -0.1293 -0.2114
  462TMC3    C4 6930   3.990   3.363   0.467 -0.0409  0.7886 -0.0302
  462TMC3    C5 6931   4.015   3.232   0.496 -0.8053  0.2322  0.2403
  462TMC3    C6 6932   4.119   3.187   0.577  0.4501  0.3377 -0.8028
  462TMC3     C 6933   4.021   3.588   0.525  0.3094  0.1434  0.1702
  462TMC3     O 6934   4.040   3.648   0.628  0.0717  0.5092  0.0236
  462TMC3     H 6935   4.239   3.497   0.632  0.7687 -0.0600 -1.2353
  462TMC3    H1 6936   3.890   3.389   0.433 -0.4048 -0.7711 -0.1397
  462TMC3    H2 6937   4.151   3.084   0.569  0.3359  0.2806 -0.5339
  462TMC3    C7 6938   3.955   3.133   0.407  0.1878  0.0870 -0.1026
  462TMC3    C8 6939   4.352   3.255   0.643 -0.3420  0.1052 -0.1138
  462TMC3    O1 6940   3.930   3.028   0.455 -0.2819 -0.0925  0.2107
  462TMC3    O2 6941   4.431   3.344   0.670 -0.6315  0.0580  0.1495
  463MPD2     C 6942   0.223   2.597   1.096 -0.1080  0.1243 -0.0994
  463MPD2    C1 6943   0.137   2.525   1.180 -0.0051 -0.0393 -0.0316
  463MPD2    C2 6944   0.061   2.601   1.278 -0.1065 -0.2532  0.4196
  463MPD2    C3 6945   0.072   2.737   1.293  0.8337 -0.3406 -0.2624
  463MPD2    C4 6946   0.158   2.803   1.210  0.1943  0.3116  0.1449
  463MPD2    C5 6947   0.235   2.734   1.123  0.5253  0.0816  0.2779
  463MPD2     H 6948   4.734   2.542   1.343  0.2530 -1.0189  0.0853
  463MPD2    H1 6949   0.177   2.909   1.227  1.6507  0.2031 -0.8424
  463MPD2    H2 6950   0.283   2.553   1.017 -0.3972  0.5451 -0.5473
  463MPD2    H3 6951   0.308   2.792   1.068  0.1237  1.8005  1.5543
  463MPD2     N 6952   4.735   2.808   1.386 -0.5949  0.0849  0.3273
  463MPD2    H5 6953   0.011   2.908   1.389 -0.9256  0.0415  3.3478
  463MPD2    N1 6954   0.113   2.383   1.180  0.0538  0.4226 -0.3672
  463MPD2    H7 6955   0.053   2.350   1.255 -0.5800  0.8747 -0.6662
  464TMC3    C1 6956   0.112   2.167   1.115  0.7024 -0.2672 -0.2035
  464TMC3    C2 6957   4.715   2.172   1.119 -0.0550  0.8669 -0.2247
  464TMC3    C3 6958   4.639   2.078   1.058  0.3714 -0.6599  0.1594
  464TMC3    C4 6959   0.175   2.060   1.050 -0.9779 -0.1843  0.1154
  464TMC3    C5 6960   0.093   1.969   0.995 -0.2336 -0.3494 -0.1911
  464TMC3    C6 6961   4.694   1.975   0.985 -0.7414 -0.5235 -0.4271
  464TMC3     C 6962   0.179   2.293   1.107  0.9509  0.0186 -0.5256
  464TMC3     O 6963   0.259   2.313   1.016  0.0270 -0.0623  0.0422
  464TMC3     H 6964   4.665   2.264   1.147  1.9317  2.2765 -1.2927
  464TMC3    H1 6965   0.281   2.064   1.032 -1.3529  3.7071 -1.2579
  464TMC3    H2 6966   4.646   1.889   0.941  0.0190 -0.8604 -0.6089
  464TMC3    C7 6967   0.165   1.875   0.916 -0.0279  0.1186 -0.0299
  464TMC3    C8 6968   4.498   2.095   1.045  0.2284 -0.6061 -0.2660
  464TMC3    O1 6969   0.269   1.913   0.872 -0.2233  0.4652  0.1100
  464TMC3    O2 6970   4.446   2.044   0.945 -0.2470 -0.0533  0.4141
  465MPD2     C 6971   1.329   0.643  16.704 -0.0088  0.0987 -0.0420
  465MPD2    C1 6972   1.198   0.605  16.730 -0.1022  0.1820 -0.7726
  465MPD2    C2 6973   1.114   0.603  16.625 -0.8153 -0.6868 -0.0800
  465MPD2    C3 6974   1.155   0.652  16.497  0.0047 -0.5131 -0.0172
  465MPD2    C4 6975   1.283   0.687  16.469 -0.2548  0.1797  0.0114
  465MPD2    C5 6976   1.370   0.682  16.573 -0.5182  0.6842 -0.0835
  465MPD2     H 6977   1.012   0.569  16.638 -0.7862 -0.1194  1.7375
  465MPD2    H1 6978   1.321   0.702  16.368 -0.1810 -2.2586 -0.3201
  465MPD2    H2 6979   1.408   0.641  16.779 -3.1578  0.0117  3.2526
  465MPD2    H3 6980   1.476   0.703  16.557 -0.8040  0.7998 -1.7607
  465MPD2     N 6981   1.061   0.647  16.388  0.0496  0.4600 -0.6321
  465MPD2    H5 6982   0.967   0.611  16.400  0.4201 -0.5273 -0.7042
  465MPD2    N1 6983   1.150   0.558  16.853  0.4685 -0.7979 -0.1074
  465MPD2    H7 6984   1.059   0.515  16.860  1.3033 -2.0462  2.9046
  466TMC3    C1 6985   0.772   0.616  16.080 -0.2144  0.2266  0.1750
  466TMC3    C2 6986   0.771   0.714  15.983  0.6854  0.5083 -0.0064
  466TMC3    C3 6987   0.878   0.800  15.983  0.2360  0.0744  0.2268
  466TMC3    C4 6988   0.878   0.608  16.173  0.1633 -0.6218 -0.5138
  466TMC3    C5 6989   0.992   0.686  16.158  0.4918 -0.3725 -0.1370
  466TMC3    C6 6990   0.986   0.790  16.065 -0.0577 -0.3960  0.2549
  466TMC3     C 6991   0.655   0.544  16.118 -0.4753 -0.9528  0.1124
  466TMC3     O 6992   0.669   0.463  16.209  0.4565  0.1316 -0.4625
  466TMC3     H 6993   0.688   0.729  15.915 -0.9841 -0.4502  1.8394
  466TMC3    H1 6994   0.880   0.524  16.242  0.1070  0.0176  0.2712
  466TMC3    H2 6995   1.052   0.875  16.079  0.8840 -1.0905 -0.0143
  466TMC3    C7 6996   1.090   0.701  16.264 -0.2811  0.5122  0.6353
  466TMC3    C8 6997   0.851   0.930  15.936  0.3845  0.2431 -0.1238
  466TMC3    O1 6998   1.180   0.776  16.223 -0.2499 -0.0358 -0.0879
  466TMC3    O2 6999   0.936   0.983  15.868  0.0080  0.0732  0.2040
  467TMC3    C1 7000   2.182   3.269  13.592  0.7300  1.1075  0.5449
  467TMC3    C2 7001   2.150   3.348  13.483 -0.3245  0.1720 -0.3217
  467TMC3    C3 7002   2.023   3.403  13.469 -0.7327  0.1104  0.0225
  467TMC3    C4 7003   2.083   3.250  13.684 -0.3207  0.0433  0.0600
  467TMC3    C5 7004   1.954   3.289  13.657  0.7094 -0.4622 -0.2415
  467TMC3    C6 7005   1.920   3.370  13.552  0.4435  0.4481 -0.5631
  467TMC3     C 7006   2.320   3.286  13.642 -0.4445 -0.1576 -0.6007
  467TMC3     O 7007   2.330   3.314  13.763 -0.0516  0.2635 -0.3535
  467TMC3     H 7008   2.230   3.371  13.413  1.1713 -0.8035  1.0677
  467TMC3    H1 7009   2.108   3.182  13.764 -0.1169 -1.1298 -1.0049
  467TMC3    H2 7010   1.820   3.404  13.527  0.8432  1.4831 -0.7401
  467TMC3    C7 7011   1.878   3.298  13.776  0.4110 -0.1529 -0.2358
  467TMC3    C8 7012   2.016   3.542  13.427  0.6675  0.1649 -0.6055
  467TMC3    O1 7013   1.937   3.278  13.881  0.1141  0.0590  0.6901
  467TMC3    O2 7014   1.911   3.599  13.454 -0.0399  0.1201  0.2589
  468MPD2     C 7015   0.351   2.000  10.831  0.5323 -0.4524  0.1249
  468MPD2    C1 7016   0.463   2.006  10.905  0.2977  1.6664 -0.2841
  468MPD2    C2 7017   0.533   1.890  10.924 -0.5810  0.2660  0.9075
  468MPD2    C3 7018   0.480   1.770  10.863 -0.5499 -0.0432 -0.0537
  468MPD2    C4 7019   0.375   1.772  10.779  0.0190  0.3372  0.3304
  468MPD2    C5 7020   0.302   1.890  10.770  0.2150 -0.2076 -0.0097
  468MPD2     H 7021   0.610   1.886  11.000 -0.7756 -0.3427  1.0770
  468MPD2    H1 7022   0.345   1.686  10.720  0.8298  0.4015 -0.1861
  468MPD2    H2 7023   0.287   2.085  10.811  2.8029  0.7643 -1.9883
  468MPD2    H3 7024   0.202   1.887  10.727  0.4672  0.0868 -0.6172
  468MPD2     N 7025   0.542   1.643  10.876  0.4355 -0.4434 -0.2024
  468MPD2    H5 7026   0.507   1.556  10.838 -0.6451 -0.4947  0.9060
  468MPD2    N1 7027   0.512   2.124  10.949  0.5468  0.4060  0.2329
  468MPD2    H7 7028   0.603   2.120  10.994  0.6429 -1.0699 -0.0803
  469TMC3    C1 7029   0.534   2.354  10.966  0.0312 -0.3503  0.2203
  469TMC3    C2 7030   0.650   2.343  10.892 -0.0065 -0.4289  0.5808
  469TMC3    C3 7031   0.718   2.454  10.861  0.6904 -0.0268 -0.6401
  469TMC3    C4 7032   0.481   2.474  11.004 -0.5625  0.1895 -0.6135
  469TMC3    C5 7033   0.549   2.590  10.961  0.4926  0.1597  0.9035
  469TMC3    C6 7034   0.668   2.578  10.889  1.1935  0.6715  0.7028
  469TMC3     C 7035   0.438   2.244  10.962 -0.8479 -0.9336 -0.1128
  469TMC3     O 7036   0.313   2.256  10.959  0.1249  0.3384 -0.2031
  469TMC3     H 7037   0.681   2.249  10.850  0.6791  1.3592 -2.9274
  469TMC3    H1 7038   0.392   2.472  11.064 -1.3715  2.7265 -1.7210
  469TMC3    H2 7039   0.737   2.661  10.880  1.4322  0.1695 -2.3445
  469TMC3    C7 7040   0.515   2.724  10.999 -0.2655 -0.5838  0.5863
  469TMC3    C8 7041   0.864   2.444  10.850 -0.6845  0.0114  0.2946
  469TMC3    O1 7042   0.589   2.814  10.955  0.4336  0.1046 -0.0984
  469TMC3    O2 7043   0.923   2.530  10.779  0.1399  0.6204 -0.8098
  470TMC3    C1 7044   3.282   2.974   0.621  1.4712  0.1331 -0.4048
  470TMC3    C2 7045   3.367   3.043   0.691 -0.7098 -0.1777  0.0092
  470TMC3    C3 7046   3.319   3.106   0.801  0.2719 -0.0749  0.2908
  470TMC3    C4 7047   3.149   2.987   0.641 -0.3162 -1.0084 -0.3916
  470TMC3    C5 7048   3.105   3.064   0.740  0.1074  0.5065 -0.0593
  470TMC3    C6 7049   3.193   3.126   0.824 -0.2338  0.2340  0.2407
  470TMC3     C 7050   3.324   2.919   0.493 -0.4691  0.4078  0.1995
  470TMC3     O 7051   3.438   2.950   0.451  0.0505  0.0163 -0.0645
  470TMC3     H 7052   3.470   3.008   0.688 -1.1168 -1.2754 -1.3556
  470TMC3    H1 7053   3.080   2.946   0.568 -0.5748  0.6790 -1.0894
  470TMC3    H2 7054   3.159   3.149   0.925 -2.6064 -0.5824 -0.3705
  470TMC3    C7 7055   2.963   3.099   0.732 -0.6399 -0.0560 -0.2486
  470TMC3    C8 7056   3.399   3.218   0.851  0.1323 -0.8995 -0.6225
  470TMC3    O1 7057   2.903   3.056   0.636  0.9686 -0.0894 -0.1498
  470TMC3    O2 7058   3.346   3.292   0.930 -0.3741 -0.0119  0.3968
  471MPD2     C 7059   3.721   4.572  16.900  0.1132  0.1521 -0.5491
  471MPD2    C1 7060   3.729   4.456  16.826 -0.0016 -0.6293  0.4370
  471MPD2    C2 7061   3.828   4.368  16.852 -0.2810  0.0347 -0.6331
  471MPD2    C3 7062   3.917   4.393  16.957  0.6708 -0.6311 -0.4169
  471MPD2    C4 7063   3.901   4.495  17.042 -0.5635 -0.2076 -0.5457
  471MPD2    C5 7064   3.810   4.591  17.004 -0.3268 -0.0576  0.3353
  471MPD2     H 7065   3.814   4.273  16.802 -1.7332  0.3073 -0.7592
  471MPD2    H1 7066   3.968   4.512  17.126 -0.8598 -2.7928  0.2286
  471MPD2    H2 7067   3.640   4.641  16.878  0.2935  0.7203  0.5810
  471MPD2    H3 7068   3.824   4.681  17.063  1.6393  0.8773 -1.5895
  471MPD2     N 7069   4.021   4.299  16.977 -0.2757  0.0382 -0.2857
  471MPD2    H5 7070   4.083   4.317  17.056 -0.0840  0.4643 -0.5302
  471MPD2    N1 7071   3.644   4.419  16.723  0.3247  0.3344 -0.1139
  471MPD2    H7 7072   3.682   4.345  16.665  1.9843  1.0501  0.0581
  472TMC3    C1 7073   3.472   4.382  16.587 -0.4568 -0.8697  0.0601
  472TMC3    C2 7074   3.370   4.433  16.511  0.6677 -0.2728  0.6002
  472TMC3    C3 7075   3.312   4.350  16.422 -0.0384 -0.1398 -0.0864
  472TMC3    C4 7076   3.522   4.256  16.564 -0.2637 -0.2893 -0.0346
  472TMC3    C5 7077   3.474   4.184  16.470 -0.2377  0.6908 -0.1976
  472TMC3    C6 7078   3.364   4.224  16.402  0.4435  0.2758  0.3338
  472TMC3     C 7079   3.524   4.477  16.688  0.8105  0.3929  0.0257
  472TMC3     O 7080   3.457   4.576  16.722 -0.3292 -0.1392  0.1970
  472TMC3     H 7081   3.333   4.535  16.523  1.3519 -0.1371  1.5478
  472TMC3    H1 7082   3.591   4.208  16.633 -0.4144 -0.1794  0.1943
  472TMC3    H2 7083   3.317   4.164  16.326  0.2340 -0.3271  0.9382
  472TMC3    C7 7084   3.518   4.038  16.466 -0.0111 -0.2068  0.0422
  472TMC3    C8 7085   3.167   4.373  16.396  0.4889 -0.3447  0.2285
  472TMC3    O1 7086   3.599   3.999  16.549 -0.2959  0.2300 -0.4580
  472TMC3    O2 7087   3.121   4.484  16.400 -0.4151  0.2318 -0.1324
  473MPD2     C 7088   3.582   1.615  13.958  0.4640 -0.1176 -0.2000
  473MPD2    C1 7089   3.475   1.555  14.021  0.0543 -0.1242 -0.2442
  473MPD2    C2 7090   3.484   1.533  14.160 -0.5515 -0.6206  0.3424
  473MPD2    C3 7091   3.593   1.577  14.231 -0.4460 -0.0419  0.0076
  473MPD2    C4 7092   3.703   1.626  14.168  0.4084  0.5607 -0.4088
  473MPD2    C5 7093   3.700   1.636  14.035  0.5618  0.5256  0.0178
  473MPD2     H 7094   3.394   1.496  14.208 -0.7455 -1.3916 -0.5986
  473MPD2    H1 7095   3.784   1.670  14.225  1.3798 -1.4362 -0.2466
  473MPD2    H2 7096   3.589   1.645  13.854  2.1711 -0.1696 -0.1002
  473MPD2    H3 7097   3.780   1.670  13.970 -0.3472  0.8046 -0.9762
  473MPD2     N 7098   3.602   1.584  14.371  0.0984  0.9296  0.0100
  473MPD2    H5 7099   3.674   1.640  14.415 -0.4979  0.8655  1.0658
  473MPD2    N1 7100   3.365   1.506  13.949  0.1347 -0.4186 -0.0396
  473MPD2    H7 7101   3.302   1.442  13.997  0.0748 -1.0602 -0.9746
  474TMC3    C1 7102   3.525   1.618  14.585  0.5792  0.7839 -0.0845
  474TMC3    C2 7103   3.430   1.694  14.644 -0.2751  0.1591 -0.1471
  474TMC3    C3 7104   3.469   1.780  14.744 -0.5137  0.6189  0.0367
  474TMC3    C4 7105   3.656   1.624  14.622  0.5144 -0.0084  0.1572
  474TMC3    C5 7106   3.687   1.711  14.728 -0.6077  0.2061  0.4893
  474TMC3    C6 7107   3.595   1.788  14.792  0.8035 -0.7846 -0.5062
  474TMC3     C 7108   3.506   1.546  14.457  0.2243 -0.0141  0.0310
  474TMC3     O 7109   3.387   1.522  14.442 -0.6201  0.0572 -0.2835
  474TMC3     H 7110   3.327   1.695  14.612  0.1334  2.3497 -1.4295
  474TMC3    H1 7111   3.734   1.563  14.578 -2.2837 -1.4925 -2.7117
  474TMC3    H2 7112   3.622   1.860  14.869 -2.0402  0.9969 -1.1859
  474TMC3    C7 7113   3.829   1.729  14.771  0.0507 -0.1219  0.1097
  474TMC3    C8 7114   3.388   1.895  14.766  0.2005 -0.3218 -0.0029
  474TMC3    O1 7115   3.907   1.680  14.696  0.4406 -0.1336  0.3510
  474TMC3    O2 7116   3.272   1.872  14.785 -0.5158  0.0881 -0.1167
  475MPD2     C 7117   0.985   4.453  11.245 -0.0868  0.1003 -0.5523
  475MPD2    C1 7118   1.100   4.447  11.165  0.4168 -0.2463 -0.1566
  475MPD2    C2 7119   1.096   4.385  11.039 -0.7138  0.2362  0.0129
  475MPD2    C3 7120   0.974   4.337  10.989 -0.3015 -0.4649 -0.7220
  475MPD2    C4 7121   0.862   4.329  11.075  0.1385 -0.4827 -0.2209
  475MPD2    C5 7122   0.868   4.388  11.199  0.0364  0.1694  0.2554
  475MPD2     H 7123   1.181   4.384  10.973 -0.8091 -0.2598 -0.1014
  475MPD2    H1 7124   0.764   4.293  11.047  0.0612 -0.8203  0.4810
  475MPD2    H2 7125   0.975   4.508  11.338 -1.8828 -3.5663  1.4504
  475MPD2    H3 7126   0.776   4.386  11.257 -0.8371 -0.7437 -1.1416
  475MPD2     N 7127   0.964   4.290  10.850 -0.6401 -0.6238 -1.4080
  475MPD2    H5 7128   1.047   4.319  10.799 -2.1037  0.7412 -3.0312
  475MPD2    N1 7129   1.214   4.518  11.209  0.2814 -0.3335  0.3250
  475MPD2    H7 7130   1.193   4.573  11.292 -1.2512 -0.9154  0.3254
  476TMC3    C1 7131   1.431   4.632  11.186  1.0498  0.3912 -0.0551
  476TMC3    C2 7132   1.545   4.642  11.112  0.2480  0.4195  0.1630
  476TMC3    C3 7133   1.634   0.007  11.135 -0.2094  0.3370 -0.8126
  476TMC3    C4 7134   1.407   4.719  11.292 -0.2003 -0.9392 -0.5675
  476TMC3    C5 7135   1.494   0.086  11.301  0.3249 -0.2148  0.7552
  476TMC3    C6 7136   1.605   0.105  11.225 -0.3665 -0.0166 -0.2864
  476TMC3     C 7137   1.337   4.524  11.148  0.3249  0.1545  0.1385
  476TMC3     O 7138   1.369   4.474  11.041 -0.0043 -0.1531 -0.7336
  476TMC3     H 7139   1.579   4.579  11.030  1.6551  0.1063  0.9736
  476TMC3    H1 7140   1.329   4.706  11.367  0.3236 -0.3277  0.0855
  476TMC3    H2 7141   1.687   0.171  11.254  1.5723 -2.2332 -0.7349
  476TMC3    C7 7142   1.494   0.157  11.425 -0.0625 -0.8871  0.4875
  476TMC3    C8 7143   1.761   0.003  11.070 -1.3281 -0.1459 -0.2435
  476TMC3    O1 7144   1.466   0.093  11.527 -0.1995  0.0542 -0.2841
  476TMC3    O2 7145   1.765   4.698  10.951  0.2381  0.1798  0.1270
  477MPD2     C 7146   4.394   1.562  12.052  0.9072 -0.1552 -0.2191
  477MPD2    C1 7147   4.336   1.454  12.009  0.0946 -0.3323 -0.5098
  477MPD2    C2 7148   4.347   1.341  12.092 -0.0020  0.5085  0.7596
  477MPD2    C3 7149   4.409   1.344  12.220  0.6257 -0.3441 -0.1812
  477MPD2    C4 7150   4.448   1.469  12.261  0.0898 -0.0255  0.1256
  477MPD2    C5 7151   4.441   1.572  12.179 -0.5396  0.6032  0.2216
  477MPD2     H 7152   4.306   1.250  12.051 -2.5475  1.4056  1.3047
  477MPD2    H1 7153   4.491   1.487  12.359 -3.3675  0.4170  1.5492
  477MPD2    H2 7154   4.399   1.647  11.984  0.2279 -1.0837 -1.4377
  477MPD2    H3 7155   4.472   1.667  12.220  2.7644  1.1123 -3.4592
  477MPD2     N 7156   4.404   1.238  12.310  0.3096  0.2834 -0.5194
  477MPD2    H5 7157   4.374   1.152  12.265  1.3084 -0.7911  0.8764
  477MPD2    N1 7158   4.259   1.448  11.893  1.0016  0.4349 -0.4764
  477MPD2    H7 7159   4.266   1.531  11.834  4.6314  1.7970  1.8831
  478TMC3    C1 7160   4.081   1.402  11.738  0.0837 -0.8209 -0.3093
  478TMC3    C2 7161   4.129   1.494  11.651  0.1932  0.4315 -0.2037
  478TMC3    C3 7162   4.044   1.533  11.554 -0.1530 -0.1974 -0.4764
  478TMC3    C4 7163   3.952   1.350  11.727  0.4863  0.6292  0.2760
  478TMC3    C5 7164   3.875   1.380  11.615 -0.3825 -0.4903 -0.3016
  478TMC3    C6 7165   3.922   1.483  11.530  0.8303 -0.0170  0.3575
  478TMC3     C 7166   4.164   1.357  11.849  0.4838 -0.2809  0.0281
  478TMC3     O 7167   4.118   1.262  11.910 -0.0598  0.4345 -0.3587
  478TMC3     H 7168   4.221   1.551  11.659  1.1701 -0.8797 -2.0736
  478TMC3    H1 7169   3.920   1.286  11.808 -2.0932  0.1864 -1.1067
  478TMC3    H2 7170   3.868   1.515  11.442 -0.2527 -0.6989  0.7774
  478TMC3    C7 7171   3.739   1.325  11.603 -0.5328 -0.5159  0.1802
  478TMC3    C8 7172   4.096   1.622  11.451 -0.2853  0.3314  0.0735
  478TMC3    O1 7173   3.679   1.309  11.711 -0.1883 -0.3291 -0.4102
  478TMC3    O2 7174   4.214   1.617  11.431  0.0480 -0.0474  0.3114
  479MPD2     C 7175   3.285   3.508  15.052  0.8125  0.2482  0.7395
  479MPD2    C1 7176   3.193   3.475  15.144 -0.1407 -0.2415 -0.8598
  479MPD2    C2 7177   3.203   3.534  15.272 -0.5184 -0.3298 -0.2126
  479MPD2    C3 7178   3.298   3.627  15.298  0.2731 -0.7598  0.9027
  479MPD2    C4 7179   3.393   3.661  15.203 -0.6919 -0.0517 -0.6009
  479MPD2    C5 7180   3.392   3.594  15.081 -0.9109  0.0397 -0.0344
  479MPD2     H 7181   3.146   3.490  15.352 -1.3345  1.8732  0.4091
  479MPD2    H1 7182   3.481   3.717  15.231 -0.2801 -1.8236  1.6836
  479MPD2    H2 7183   3.301   3.452  14.961  0.9165  2.1134 -0.3766
  479MPD2    H3 7184   3.476   3.603  15.012 -2.0786 -0.2419 -1.4897
  479MPD2     N 7185   3.311   3.698  15.422 -0.6439  0.2816  0.3502
  479MPD2    H5 7186   3.396   3.751  15.436 -0.9999  0.6938  0.9637
  479MPD2    N1 7187   3.091   3.384  15.110  0.2963 -0.2232 -0.1871
  479MPD2    H7 7188   3.095   3.337  15.020  1.0109 -0.9384  0.2200
  480TMC3    C1 7189   2.939   3.562  15.686 -0.4342 -0.8225  0.5072
  480TMC3    C2 7190   2.847   3.579  15.593 -0.0993 -0.2722  0.4497
  480TMC3    C3 7191   2.883   3.652  15.482 -0.4916  0.6937  0.3763
  480TMC3    C4 7192   3.063   3.612  15.664  1.0223 -0.2510  0.9514
  480TMC3    C5 7193   3.098   3.660  15.546 -0.6138  0.2858 -0.5793
  480TMC3    C6 7194   3.007   3.694  15.451  0.2606 -0.4143  0.4874
  480TMC3     C 7195   2.904   3.493  15.814  0.3590  0.2578  0.1730
  480TMC3     O 7196   2.994   3.430  15.862  0.2524  0.6238 -0.0207
  480TMC3     H 7197   2.749   3.535  15.605 -0.5809 -0.2750 -3.5915
  480TMC3    H1 7198   3.140   3.595  15.738  0.3252  0.2228  1.7861
  480TMC3    H2 7199   3.025   3.747  15.358 -0.5291  1.9503  1.6728
  480TMC3    C7 7200   3.233   3.707  15.535  0.7211  0.5632 -0.2141
  480TMC3    C8 7201   2.783   3.631  15.371  0.5353 -0.1887 -0.1670
  480TMC3    O1 7202   3.260   3.759  15.641 -0.1967 -0.1250 -0.6854
  480TMC3    O2 7203   2.678   3.576  15.392 -0.1792 -0.8177 -0.4424
  481MPD2     C 7204   0.011   3.063  14.069 -0.2188  0.4482 -0.6218
  481MPD2    C1 7205   4.637   3.004  14.126 -0.7257  0.9940  0.1677
  481MPD2    C2 7206   4.651   2.945  14.255  0.1729 -0.7169  0.3733
  481MPD2    C3 7207   0.039   2.937  14.315 -0.7499  0.1549 -0.1405
  481MPD2    C4 7208   0.153   2.983  14.245  0.1176 -0.0835  0.7344
  481MPD2    C5 7209   0.137   3.051  14.125  0.1511  0.0206  0.1589
  481MPD2     H 7210   4.565   2.903  14.304 -0.2861  1.1256  1.1413
  481MPD2    H1 7211   0.254   2.964  14.279 -1.0954 -3.3332  2.4206
  481MPD2    H2 7212   4.736   3.116  13.976 -1.2080  0.7163 -0.3475
  481MPD2    H3 7213   0.232   3.079  14.079  1.6270 -2.4356  1.6823
  481MPD2     N 7214   0.062   2.880  14.443  0.1644 -0.2401 -0.0436
  481MPD2    H5 7215   0.163   2.881  14.459 -0.2045 -1.8942  2.3847
  481MPD2    N1 7216   4.517   3.018  14.052 -0.2943  0.4566  0.0969
  481MPD2    H7 7217   4.521   3.084  13.975  3.3310  0.6167  0.4310
  482TMC3    C1 7218   4.281   2.990  14.004  0.3744  0.3925  0.0869
  482TMC3    C2 7219   4.167   2.909  14.019 -0.0505  0.2594  0.2784
  482TMC3    C3 7220   4.065   2.941  13.936  0.3383  0.2965 -0.3384
  482TMC3    C4 7221   4.289   3.105  13.930 -0.5524  0.3059  0.2699
  482TMC3    C5 7222   4.179   3.122  13.853 -0.4012  0.2856 -0.3466
  482TMC3    C6 7223   4.070   3.045  13.849  0.1735  0.7345 -0.1139
  482TMC3     C 7224   4.403   2.957  14.077  0.1644  0.3928  0.0209
  482TMC3     O 7225   4.378   2.874  14.166  0.3572 -0.1489 -0.1703
  482TMC3     H 7226   4.163   2.830  14.092 -0.1485  0.5112  0.5453
  482TMC3    H1 7227   4.378   3.168  13.932 -0.3364 -0.0247  0.9524
  482TMC3    H2 7228   3.978   3.077  13.802 -1.9171 -1.7109  2.3140
  482TMC3    C7 7229   4.179   3.241  13.774 -0.4677 -0.7646  0.1438
  482TMC3    C8 7230   3.973   2.832  13.914 -0.1921  0.4415 -0.1926
  482TMC3    O1 7231   4.271   3.326  13.782 -0.5876  0.2090  1.0249
  482TMC3    O2 7232   4.019   2.717  13.925 -0.4800  0.1561  0.1459
  483TMC3    C1 7233   2.712   2.006   0.229  0.0914 -0.0574 -0.2475
  483TMC3    C2 7234   2.743   2.137   0.262 -0.5763 -0.4613  0.6121
  483TMC3    C3 7235   2.716   2.177   0.390 -0.0015  0.5902 -0.0765
  483TMC3    C4 7236   2.667   1.918   0.329 -0.5458 -0.4931 -0.0558
  483TMC3    C5 7237   2.653   1.960   0.457 -0.3250 -0.1691  0.0262
  483TMC3    C6 7238   2.678   2.088   0.488  0.0293 -0.0423  0.1173
  483TMC3     C 7239   2.762   1.955   0.105 -0.3482  0.4509  0.4842
  483TMC3     O 7240   2.802   2.043   0.030 -0.1284  0.7789  0.7866
  483TMC3     H 7241   2.778   2.210   0.190 -4.0128 -0.4357 -1.0163
  483TMC3    H1 7242   2.649   1.814   0.307  1.0254 -0.3395 -2.0814
  483TMC3    H2 7243   2.696   2.122   0.589 -1.3258  2.0451 -0.3457
  483TMC3    C7 7244   2.707   1.869   0.548  0.5432 -0.2084  0.5172
  483TMC3    C8 7245   2.813   2.274   0.453  0.2983 -0.4803  0.2310
  483TMC3    O1 7246   2.752   1.765   0.506  0.7820  0.2174 -0.0695
  483TMC3    O2 7247   2.790   2.319   0.565 -0.2213 -0.4607  0.4490
  484MPD2     C 7248   0.001   4.484  12.275 -0.4549  0.1447  0.1488
  484MPD2    C1 7249   0.055   4.553  12.376  0.1009 -0.5603 -0.4135
  484MPD2    C2 7250   0.188   4.589  12.371 -0.9772 -0.1388  0.5488
  484MPD2    C3 7251   0.262   4.551  12.265  0.1952  0.6222  0.2575
  484MPD2    C4 7252   0.213   4.472  12.170 -0.2323 -0.3229  0.4544
  484MPD2    C5 7253   0.080   4.446  12.170  0.0842  0.2784  0.6409
  484MPD2     H 7254   0.231   4.663  12.438 -0.7815  1.5783 -1.4704
  484MPD2    H1 7255   0.270   4.432  12.087 -2.1964 -3.2408  0.5465
  484MPD2    H2 7256   4.634   4.452  12.280 -0.7094  0.9290 -0.0026
  484MPD2    H3 7257   0.039   4.376  12.098 -1.2457  2.5527 -0.8035
  484MPD2     N 7258   0.404   4.574  12.263  0.3080  0.1676  0.3411
  484MPD2    H5 7259   0.448   4.536  12.179 -0.1109 -2.7790  1.4382
  484MPD2    N1 7260   4.697   4.595  12.477  0.1286  0.1361 -0.0717
  484MPD2    H7 7261   4.603   4.560  12.461  0.1521  0.7006 -1.4784
  485TMC3    C1 7262   0.628   4.655  12.306  0.3445 -0.6124 -0.3810
  485TMC3    C2 7263   0.715   4.691  12.406 -0.0755 -0.2233  0.5702
  485TMC3    C3 7264   0.839   0.012  12.367 -0.1827  0.0552 -0.2439
  485TMC3    C4 7265   0.641   4.698  12.182  0.0599 -0.1165 -0.3628
  485TMC3    C5 7266   0.753   0.038  12.149  0.1726  0.1992  0.6297
  485TMC3    C6 7267   0.847   0.071  12.244 -0.1412  0.2737 -0.2029
  485TMC3     C 7268   0.487   4.649  12.348 -0.2918 -0.4967  0.1901
  485TMC3     O 7269   0.453   4.698  12.455  0.2627  0.4369 -0.4444
  485TMC3     H 7270   0.699   4.658  12.508 -1.1362 -0.8055  0.2123
  485TMC3    H1 7271   0.566   4.696  12.104 -1.3818  0.0833  0.9960
  485TMC3    H2 7272   0.943   0.109  12.210  0.7492  0.6033  2.6841
  485TMC3    C7 7273   0.797   4.726  12.021  0.7457 -0.3107  0.1514
  485TMC3    C8 7274   0.942   4.648  12.363  0.2234  0.8868  0.0593
  485TMC3    O1 7275   0.784   4.604  12.014 -0.2890 -0.0171 -0.4292
  485TMC3    O2 7276   1.044   4.667  12.298 -0.3746  0.9648 -0.9402
  486MPD2     C 7277   2.779   3.374  13.135  0.1480 -0.2357  0.1410
  486MPD2    C1 7278   2.715   3.352  13.009 -0.1584 -0.3691 -0.5425
  486MPD2    C2 7279   2.679   3.466  12.938 -0.0522  1.3204  1.0922
  486MPD2    C3 7280   2.683   3.589  12.999  0.1588  0.1045 -0.5505
  486MPD2    C4 7281   2.731   3.607  13.130  0.0629 -0.5128  0.5784
  486MPD2    C5 7282   2.789   3.501  13.192 -0.1996 -1.0906  1.1263
  486MPD2     H 7283   2.633   3.458  12.840 -0.5322  0.1005  1.4107
  486MPD2    H1 7284   2.730   3.704  13.179  0.8164 -0.5189  0.6103
  486MPD2    H2 7285   2.831   3.294  13.187  1.3203 -0.4650 -1.3725
  486MPD2    H3 7286   2.848   3.513  13.282  0.1134 -0.7719  0.8787
  486MPD2     N 7287   2.621   3.693  12.928  0.0059  0.5412  0.1094
  486MPD2    H5 7288   2.573   3.663  12.843 -1.9916  1.5335  0.8864
  486MPD2    N1 7289   2.705   3.219  12.966 -0.4178  0.0799 -0.0359
  486MPD2    H7 7290   2.747   3.147  13.025 -1.1062 -0.1947  0.1136
  487TMC3    C1 7291   2.661   3.035  12.817 -0.4294 -0.3975 -0.0046
  487TMC3    C2 7292   2.554   2.996  12.741 -0.4057 -0.3874  0.4662
  487TMC3    C3 7293   2.495   2.874  12.774 -0.4209 -0.0093  0.5784
  487TMC3    C4 7294   2.716   2.951  12.911  0.2478 -0.6665 -0.5157
  487TMC3    C5 7295   2.667   2.829  12.932  1.0385 -0.2633  0.0883
  487TMC3    C6 7296   2.556   2.787  12.864 -0.3175  0.1768  0.1385
  487TMC3     C 7297   2.642   3.177  12.848 -0.3960 -0.0879 -0.0662
  487TMC3     O 7298   2.552   3.237  12.787  0.0354  0.1514  0.3106
  487TMC3     H 7299   2.499   3.058  12.670  1.0843  0.2678 -0.1082
  487TMC3    H1 7300   2.804   2.989  12.961 -1.1587 -1.9897  3.0060
  487TMC3    H2 7301   2.500   2.696  12.882  1.7721 -0.9586  0.9150
  487TMC3    C7 7302   2.736   2.735  13.014  0.1905  0.6610 -0.3970
  487TMC3    C8 7303   2.360   2.884  12.790 -0.0787 -0.3129 -0.2452
  487TMC3    O1 7304   2.828   2.781  13.077  0.2015 -0.1013  0.2524
  487TMC3    O2 7305   2.321   2.922  12.897  0.4833 -0.5346  0.4025
  488MPD2     C 7306   2.406   0.920  16.131 -0.1131 -0.2793  0.5063
  488MPD2    C1 7307   2.505   0.984  16.195  0.2391  0.5354 -0.0645
  488MPD2    C2 7308   2.557   0.940  16.319 -0.0556 -0.4951  0.1265
  488MPD2    C3 7309   2.502   0.825  16.379 -0.4797  0.1821 -0.2321
  488MPD2    C4 7310   2.409   0.755  16.307 -0.6161  0.0126 -0.0752
  488MPD2    C5 7311   2.360   0.809  16.191 -0.0498  0.3722 -0.0121
  488MPD2     H 7312   2.624   1.000  16.378  1.0944  0.9443 -2.6575
  488MPD2    H1 7313   2.365   0.661  16.337 -0.0693  0.1860  1.2616
  488MPD2    H2 7314   2.356   0.945  16.038  0.2794 -0.2376  0.3037
  488MPD2    H3 7315   2.275   0.759  16.146 -0.0220  0.2086  0.1175
  488MPD2     N 7316   2.569   0.778  16.494 -0.1358 -0.6945  1.3543
  488MPD2    H5 7317   2.638   0.841  16.533 -1.3811 -0.3785  3.0488
  488MPD2    N1 7318   2.564   1.101  16.144  0.2649  0.0865  0.1894
  488MPD2    H7 7319   2.632   1.146  16.205 -0.4518 -0.2065  1.2102
  489TMC3    C1 7320   2.624   0.657  16.696 -0.1131  0.4158  0.9881
  489TMC3    C2 7321   2.716   0.753  16.722 -0.1833 -0.1703  0.5499
  489TMC3    C3 7322   2.785   0.748  16.844 -0.0108 -0.1136 -0.1079
  489TMC3    C4 7323   2.602   0.555  16.784  0.0530  0.0518  0.1153
  489TMC3    C5 7324   2.689   0.540  16.884 -0.0861  0.1542 -0.6710
  489TMC3    C6 7325   2.777   0.637  16.913  0.0881  0.3032 -0.3797
  489TMC3     C 7326   2.532   0.678  16.584  0.1561 -0.3257 -0.6757
  489TMC3     O 7327   2.443   0.596  16.567  0.6544  0.0345  0.2160
  489TMC3     H 7328   2.720   0.845  16.666  2.1990 -1.7495 -1.8339
  489TMC3    H1 7329   2.537   0.475  16.752  0.4342  0.6995 -2.3192
  489TMC3    H2 7330   2.850   0.609  16.987 -0.6003 -1.2565 -0.2903
  489TMC3    C7 7331   2.684   0.416  16.963 -0.5585 -0.8708 -0.4477
  489TMC3    C8 7332   2.911   0.817  16.858 -0.0772  0.0693  0.3337
  489TMC3    O1 7333   2.792   0.387  17.020 -0.4637  0.1184 -0.1734
  489TMC3    O2 7334   2.963   0.856  16.756 -0.2219 -0.2066 -0.6468
  490MPD2     C 7335   3.572   0.239  17.391  0.4550 -0.3225  0.4023
  490MPD2    C1 7336   3.671   0.148  17.384  0.0724 -0.4521 -0.1098
  490MPD2    C2 7337   3.792   0.175  17.438 -0.0513  0.1377  0.6167
  490MPD2    C3 7338   3.828   0.304  17.479  0.1667  0.2019 -0.2650
  490MPD2    C4 7339   3.734   0.397  17.476 -0.5640 -0.3439  0.0665
  490MPD2    C5 7340   3.603   0.361  17.441 -0.8193  0.7147  0.9625
  490MPD2     H 7341   3.869   0.099  17.424  1.0226  1.4717 -0.6967
  490MPD2    H1 7342   3.751   0.500  17.504 -0.7638 -0.8701  2.1413
  490MPD2    H2 7343   3.473   0.221  17.350  0.2194  2.2370 -0.1714
  490MPD2    H3 7344   3.532   0.442  17.458 -1.0092  0.3221  2.0314
  490MPD2     N 7345   3.957   0.337  17.515  0.0967  0.9078 -0.1104
  490MPD2    H5 7346   3.969   0.436  17.499 -0.1897  0.4769 -2.8661
  490MPD2    N1 7347   3.659   0.028  17.319  0.7227 -0.2246 -0.0022
  490MPD2    H7 7348   3.736   4.699  17.316 -0.4809 -1.6552  0.0759
  491TMC3    C1 7349   3.542   4.593  17.204 -0.1288  0.4130 -0.5452
  491TMC3    C2 7350   3.607   4.499  17.275 -0.2039  0.2600 -0.0809
  491TMC3    C3 7351   3.591   4.366  17.249 -0.7050  0.0949 -0.3781
  491TMC3    C4 7352   3.444   4.559  17.114 -0.0414 -0.1266  0.0431
  491TMC3    C5 7353   3.424   4.430  17.094  0.3504  0.2784  0.0188
  491TMC3    C6 7354   3.497   4.330  17.154 -0.2047  0.4661  0.1670
  491TMC3     C 7355   3.547   4.731  17.243  1.1774 -0.0236  0.2142
  491TMC3     O 7356   3.451   0.061  17.211  0.0755  0.7417  0.2952
  491TMC3     H 7357   3.659   4.529  17.365 -1.5319 -0.8132  1.0284
  491TMC3    H1 7358   3.405   4.639  17.053 -0.8623 -1.4758 -1.2081
  491TMC3    H2 7359   3.479   4.226  17.130 -0.5275  0.3650  0.8561
  491TMC3    C7 7360   3.317   4.384  17.002  0.3799 -0.7644  0.1969
  491TMC3    C8 7361   3.580   4.293  17.370 -0.1593  0.0818 -0.1223
  491TMC3    O1 7362   3.283   4.263  17.009  0.5195  0.3694 -0.4925
  491TMC3    O2 7363   3.547   4.366  17.463 -0.4606 -0.0297  0.0776
  492MPD2     C 7364   3.628   4.710  11.805 -0.3907  0.6324 -0.2241
  492MPD2    C1 7365   3.579   4.664  11.685  0.8100 -0.4382  0.0181
  492MPD2    C2 7366   3.479   4.567  11.692 -0.3442 -0.6583  0.3885
  492MPD2    C3 7367   3.432   4.519  11.810  0.2712 -0.3485  0.2457
  492MPD2    C4 7368   3.497   4.551  11.926  0.3117  0.3004 -0.3641
  492MPD2    C5 7369   3.576   4.658  11.920  0.0791 -0.6248  0.4656
  492MPD2     H 7370   3.436   4.533  11.599  0.8536 -0.3304 -0.2932
  492MPD2    H1 7371   3.472   4.509  12.022  1.5209  0.2218 -0.0812
  492MPD2    H2 7372   3.711   0.043  11.808 -0.7284  1.0129  0.3209
  492MPD2    H3 7373   3.622   4.688  12.014 -0.5474  1.3769  0.1364
  492MPD2     N 7374   3.331   4.421  11.821 -0.1298 -0.3054 -0.0134
  492MPD2    H5 7375   3.320   4.382  11.914 -0.7185 -1.3866 -0.5347
  492MPD2    N1 7376   3.637   4.714  11.566 -0.4543 -0.0780 -0.7646
  492MPD2    H7 7377   3.713   0.044  11.575 -1.2010  0.5638  0.8677
  493TMC3    C1 7378   3.688   4.715  11.333 -0.0986 -0.4849 -0.0807
  493TMC3    C2 7379   3.763   0.093  11.354 -0.2353  0.9661  0.4822
  493TMC3    C3 7380   3.798   0.173  11.247  0.2766  0.3737 -0.1432
  493TMC3    C4 7381   3.638   4.688  11.205 -0.5833 -0.3719  0.8164
  493TMC3    C5 7382   3.671   0.040  11.104 -0.1929 -0.4696 -1.0336
  493TMC3    C6 7383   3.748   0.149  11.125  0.1452 -0.1685 -0.2120
  493TMC3     C 7384   3.598   4.678  11.439  0.0185  0.3286 -0.3594
  493TMC3     O 7385   3.495   4.625  11.406  0.7650  0.1783  0.0255
  493TMC3     H 7386   3.807   0.102  11.452  3.4769  1.0784 -1.1907
  493TMC3    H1 7387   3.557   4.616  11.198 -1.6597  0.9461 -0.2939
  493TMC3    H2 7388   3.771   0.215  11.043 -2.2724  0.9975  0.0549
  493TMC3    C7 7389   3.573   0.046  10.998  0.9259 -0.6199 -0.4081
  493TMC3    C8 7390   3.917   0.254  11.262  0.3176 -0.4911  0.3859
  493TMC3    O1 7391   3.460   0.017  11.029 -0.5344  0.2136 -0.2565
  493TMC3    O2 7392   3.973   0.245  11.371  0.1176  0.3027  0.4613
  494TMC3    C1 7393   3.870   1.590   0.185  0.8578 -0.3628  0.1654
  494TMC3    C2 7394   3.994   1.540   0.211 -0.1243 -0.6204 -0.2087
  494TMC3    C3 7395   4.063   1.481   0.110  0.1273  0.5071 -0.4565
  494TMC3    C4 7396   3.831   1.619   0.054  0.3934  0.2686 -0.2735
  494TMC3    C5 7397   3.901   1.555  17.705 -0.2386  0.1488 -0.0867
  494TMC3    C6 7398   4.008   1.479  17.732 -0.1284 -1.0388  0.0271
  494TMC3     C 7399   3.810   1.670   0.288  0.1373 -0.3991 -0.1444
  494TMC3     O 7400   3.872   1.688   0.392 -0.1488 -0.1857 -0.2887
  494TMC3     H 7401   4.030   1.548   0.312 -2.3179 -1.5383  0.6509
  494TMC3    H1 7402   3.759   1.698   0.039 -0.1092  0.1892  1.7889
  494TMC3    H2 7403   4.060   1.421  17.657  0.3076  0.6222 -0.9428
  494TMC3    C7 7404   3.902   1.609  17.567  0.2566  1.0210 -0.6952
  494TMC3    C8 7405   4.197   1.426   0.125  0.4454  0.4218 -0.6347
  494TMC3    O1 7406   3.975   1.555  17.484 -0.5786  0.3388 -0.2399
  494TMC3    O2 7407   4.241   1.374   0.024 -0.4027 -0.0256 -0.3401
  495TMC3    C1 7408   3.138   3.367  14.649  0.5773 -0.1606  0.3023
  495TMC3    C2 7409   3.094   3.354  14.521  0.3799 -0.1628  0.3187
  495TMC3    C3 7410   3.045   3.467  14.458  0.0926  0.2244 -0.1564
  495TMC3    C4 7411   3.124   3.481  14.728 -0.0031 -0.3738 -0.7297
  495TMC3    C5 7412   3.068   3.589  14.668  0.3909 -0.3444 -0.2754
  495TMC3    C6 7413   3.032   3.582  14.535 -0.0620 -0.6334 -0.2758
  495TMC3     C 7414   3.141   3.246  14.736  0.3629 -0.0580 -0.2944
  495TMC3     O 7415   3.178   3.260  14.854  0.6445 -0.0225 -0.3656
  495TMC3     H 7416   3.113   3.258  14.476  1.9251 -0.0170  0.6769
  495TMC3    H1 7417   3.143   3.480  14.835  0.4043 -0.6693 -0.8078
  495TMC3    H2 7418   2.978   3.659  14.482 -2.6490 -1.5731  1.0036
  495TMC3    C7 7419   2.998   3.677  14.759  0.4344  0.2679  0.4470
  495TMC3    C8 7420   2.950   3.440  14.350  0.5071 -0.2143 -0.3474
  495TMC3    O1 7421   3.075   3.721  14.845  0.2165  0.8102 -0.5247
  495TMC3    O2 7422   2.852   3.514  14.346 -0.2012 -0.0709  0.0739
  496MPD2     C 7423   0.597   3.897  15.219 -0.0139  0.7242  0.3290
  496MPD2    C1 7424   0.616   3.768  15.164 -0.1889  0.2592  0.2152
  496MPD2    C2 7425   0.521   3.668  15.185 -0.5085 -0.3563  0.1454
  496MPD2    C3 7426   0.415   3.695  15.274 -0.0080 -0.8650  0.0916
  496MPD2    C4 7427   0.417   3.809  15.345 -0.2347  0.5181 -0.1743
  496MPD2    C5 7428   0.499   3.910  15.311  0.9388  0.0643 -0.6227
  496MPD2     H 7429   0.522   3.571  15.137  0.1849 -0.3361  0.1100
  496MPD2    H1 7430   0.341   3.835  15.418 -1.0315 -2.5550  0.0716
  496MPD2    H2 7431   0.673   3.974  15.205  0.2850  0.1378 -1.3223
  496MPD2    H3 7432   0.478   4.007  15.355 -0.4443  0.0311 -1.2119
  496MPD2     N 7433   0.316   3.596  15.302  0.1528 -0.2610 -0.7629
  496MPD2    H5 7434   0.246   3.615  15.373 -0.0683 -0.4665 -0.9271
  496MPD2    N1 7435   0.727   3.752  15.086  0.1473 -0.4773 -0.3954
  496MPD2    H7 7436   0.782   3.835  15.066 -0.5633 -0.0599 -0.6105
  497TMC3    C1 7437   0.182   3.420  15.285 -0.2707 -0.4688 -0.8269
  497TMC3    C2 7438   0.074   3.416  15.204 -0.5055  0.3604 -0.4923
  497TMC3    C3 7439   4.684   3.422  15.261 -0.4799 -0.0420  0.7046
  497TMC3    C4 7440   0.161   3.418  15.421 -0.1913  0.3484  0.2297
  497TMC3    C5 7441   0.040   3.422  15.477  0.3638 -0.3012 -0.6787
  497TMC3    C6 7442   4.667   3.429  15.397 -0.3400 -0.4315 -0.6828
  497TMC3     C 7443   0.292   3.483  15.233  0.4256  0.0909 -0.3024
  497TMC3     O 7444   0.331   3.439  15.125  0.4613 -0.1593 -0.4409
  497TMC3     H 7445   0.082   3.416  15.095 -0.2656 -0.9007 -0.4768
  497TMC3    H1 7446   0.249   3.416  15.485  0.8961  4.1556 -1.1475
  497TMC3    H2 7447   4.568   3.422  15.441  0.0596  0.1000  0.2915
  497TMC3    C7 7448   0.023   3.352  15.604 -0.3531  1.3339 -0.4943
  497TMC3    C8 7449   4.566   3.465  15.179  0.2190 -0.2334 -0.6289
  497TMC3    O1 7450   4.649   3.295  15.608 -0.0941 -0.6485  0.1196
  497TMC3    O2 7451   4.563   3.429  15.063  0.6334 -0.5845  0.0476
  498MPD2     C 7452   1.254   4.132  10.782 -0.8038  0.3056 -0.9930
  498MPD2    C1 7453   1.269   4.144  10.647  0.4130 -0.3749 -0.0541
  498MPD2    C2 7454   1.207   4.065  10.554  0.5250 -0.0203  0.0815
  498MPD2    C3 7455   1.136   3.957  10.603  0.0264 -0.6494 -0.5440
  498MPD2    C4 7456   1.129   3.936  10.739 -0.0895 -0.0346  0.3539
  498MPD2    C5 7457   1.181   4.024  10.825  0.0583 -0.1981  0.4073
  498MPD2     H 7458   1.227   4.081  10.449 -0.7337 -0.3003 -0.2070
  498MPD2    H1 7459   1.076   3.851  10.782 -0.8818  0.1166 -0.3245
  498MPD2    H2 7460   1.291   4.204  10.854 -0.1708 -0.4278 -0.5878
  498MPD2    H3 7461   1.167   4.009  10.932 -1.8404 -2.4326 -0.1729
  498MPD2     N 7462   1.068   3.856  10.527  0.6170 -0.4938 -0.3067
  498MPD2    H5 7463   1.010   3.801  10.589  0.5814 -0.1224 -0.0097
  498MPD2    N1 7464   1.330   4.256  10.594 -0.8636 -0.2177 -0.1354
  498MPD2    H7 7465   1.376   4.248  10.504  0.0035  0.4859  0.2434
  499TMC3    C1 7466   1.443   4.462  10.639 -0.5192 -0.0873 -1.2532
  499TMC3    C2 7467   1.419   4.574  10.712 -0.0260  0.1302  0.3855
  499TMC3    C3 7468   1.473   4.694  10.662  0.5240 -0.5265 -0.1323
  499TMC3    C4 7469   1.531   4.461  10.533 -0.6113 -0.2095  0.7712
  499TMC3    C5 7470   1.578   4.581  10.486  1.4627  0.4342 -0.0946
  499TMC3    C6 7471   1.540   4.700  10.545 -0.3575 -0.1804  0.1661
  499TMC3     C 7472   1.337   4.361  10.672  0.2386  0.3219  0.3699
  499TMC3     O 7473   1.246   4.401  10.741 -0.0009 -0.0986 -0.1918
  499TMC3     H 7474   1.359   4.569  10.802 -1.3604  0.0158 -0.5047
  499TMC3    H1 7475   1.547   4.365  10.485  1.2012  1.8441 -2.6640
  499TMC3    H2 7476   1.568   0.058  10.500 -1.7281 -0.4375 -1.2276
  499TMC3    C7 7477   1.663   4.591  10.374  0.6962  0.7083  0.0835
  499TMC3    C8 7478   1.453   0.082  10.732  0.6173  0.1762  0.3293
  499TMC3    O1 7479   1.683   4.702  10.324 -0.2432 -0.1760 -0.5255
  499TMC3    O2 7480   1.536   0.167  10.707 -0.0461 -0.1935 -0.3330
  500MPD2     C 7481   2.065   0.600  11.275 -0.1232 -0.6590 -0.5153
  500MPD2    C1 7482   2.142   0.661  11.183  0.1922 -0.3285 -0.8442
  500MPD2    C2 7483   2.086   0.663  11.054 -0.6250 -0.0356 -0.1739
  500MPD2    C3 7484   1.965   0.608  11.025 -0.2090 -0.3875 -0.1881
  500MPD2    C4 7485   1.889   0.552  11.119 -0.4193 -0.3630  1.1273
  500MPD2    C5 7486   1.949   0.539  11.242  0.3300 -0.0953  0.3494
  500MPD2     H 7487   2.138   0.708  10.971  0.1344 -1.5733 -0.5287
  500MPD2    H1 7488   1.798   0.501  11.091  0.4762 -0.6565 -1.2486
  500MPD2    H2 7489   2.107   0.585  11.373 -1.5661  0.7084  0.3208
  500MPD2    H3 7490   1.898   0.484  11.321 -0.1256  2.4985  1.8545
  500MPD2     N 7491   1.907   0.606  10.898 -0.2453  0.0703  0.3192
  500MPD2    H5 7492   1.816   0.562  10.887 -0.0710 -0.2421  0.1183
  500MPD2    N1 7493   2.270   0.713  11.215  0.5845 -0.0126 -0.3829
  500MPD2    H7 7494   2.332   0.731  11.137  0.2515  2.9742  0.0410
  501TMC3    C1 7495   2.453   0.800  11.345  0.1871 -0.7667  1.1944
  501TMC3    C2 7496   2.498   0.886  11.244  0.4763 -0.3461 -0.0019
  501TMC3    C3 7497   2.615   0.955  11.272 -0.3668 -0.0447 -0.3745
  501TMC3    C4 7498   2.514   0.790  11.470  0.3428 -0.1938 -0.6634
  501TMC3    C5 7499   2.631   0.868  11.494  0.2132 -0.1987 -0.0475
  501TMC3    C6 7500   2.687   0.938  11.391 -0.0718 -0.4379  0.5007
  501TMC3     C 7501   2.321   0.736  11.343  0.1199  0.4039 -0.1726
  501TMC3     O 7502   2.264   0.731  11.449 -0.1361  0.3605  0.1891
  501TMC3     H 7503   2.455   0.885  11.145  1.0270  2.5924 -0.2794
  501TMC3    H1 7504   2.484   0.715  11.542 -1.0306 -1.6909 -2.8181
  501TMC3    H2 7505   2.785   0.985  11.397  0.9015 -2.2708 -0.9629
  501TMC3    C7 7506   2.713   0.832  11.610 -0.4159 -0.8606 -0.0219
  501TMC3    C8 7507   2.676   1.044  11.174 -0.6919  0.0936 -0.4937
  501TMC3    O1 7508   2.651   0.765  11.691 -0.1853 -0.4686 -0.1209
  501TMC3    O2 7509   2.799   1.038  11.166 -0.3608 -0.1349  0.8194
  502TMC3    C1 7510   2.687   4.463  14.969  0.4315  0.4590  0.2444
  502TMC3    C2 7511   2.730   4.593  14.945  0.2463 -0.9339 -0.0418
  502TMC3    C3 7512   2.655   4.659  14.850  0.2649 -0.6154 -0.1516
  502TMC3    C4 7513   2.572   4.411  14.925 -0.0742 -0.1059 -0.0178
  502TMC3    C5 7514   2.497   4.489  14.838 -0.2491  0.2027  0.8122
  502TMC3    C6 7515   2.538   4.613  14.796  0.3145 -0.5936  0.4942
  502TMC3     C 7516   2.739   4.403  15.085  0.0701  0.0215  0.2279
  502TMC3     O 7517   2.860   4.410  15.099  0.0726 -0.0372 -0.0816
  502TMC3     H 7518   2.828   4.629  14.974 -0.2876  0.5748 -0.1231
  502TMC3    H1 7519   2.541   4.312  14.957  1.2778 -0.5360 -0.0276
  502TMC3    H2 7520   2.488   4.670  14.717 -0.2792 -1.2163  0.4215
  502TMC3    C7 7521   2.363   4.451  14.802  0.0677  0.7577 -0.4708
  502TMC3    C8 7522   2.685   0.062  14.830 -0.2730 -0.4641 -0.3611
  502TMC3    O1 7523   2.277   4.537  14.785  0.1453 -0.2068  0.0572
  502TMC3    O2 7524   2.682   0.112  14.718 -0.0261 -0.1685 -0.2811
  503MPD2     C 7525   4.730   0.311  16.580 -0.4645 -0.2802 -0.1489
  503MPD2    C1 7526   4.716   0.340  16.714  1.1281  0.1275 -0.4082
  503MPD2    C2 7527   0.026   0.252  16.813  0.3401 -0.3836 -0.1823
  503MPD2    C3 7528   0.094   0.134  16.772 -0.0709 -0.4404  0.0805
  503MPD2    C4 7529   0.094   0.107  16.638  0.3777 -0.3057 -0.3367
  503MPD2    C5 7530   0.050   0.195  16.544  0.0970 -0.0678 -0.7745
  503MPD2     H 7531   0.026   0.278  16.919 -0.3047  1.7225 -0.6993
  503MPD2    H1 7532   0.112   0.007  16.600  0.1224 -0.3069 -0.4585
  503MPD2    H2 7533   4.690   0.375  16.502 -0.5075 -1.3847 -1.0287
  503MPD2    H3 7534   0.051   0.162  16.441 -0.2768  2.7287 -1.6765
  503MPD2     N 7535   0.152   0.054  16.873 -0.4129  0.8709  0.9127
  503MPD2    H5 7536   0.133   0.085  16.968 -2.5723 -0.9313  1.0454
  503MPD2    N1 7537   4.657   0.462  16.757 -0.1314 -0.1291 -0.1194
  503MPD2    H7 7538   4.648   0.474  16.857 -0.5946 -1.6773  0.0139
  504TMC3    C1 7539   0.297   4.644  16.981  0.3895 -0.1612  0.0126
  504TMC3    C2 7540   0.231   4.647  17.098 -0.0134  0.4339  0.0393
  504TMC3    C3 7541   0.309   4.642  17.216  0.1157 -0.4220 -0.1821
  504TMC3    C4 7542   0.429   4.646  16.971  0.3564  0.9907  0.6052
  504TMC3    C5 7543   0.503   4.650  17.086  0.1535 -0.3194  0.0888
  504TMC3    C6 7544   0.445   4.653  17.210 -1.2978  0.1971  0.0277
  504TMC3     C 7545   0.237   4.685  16.853 -0.5477 -0.0354 -0.3720
  504TMC3     O 7546   0.279   4.648  16.748  0.0050 -0.0114 -0.5479
  504TMC3     H 7547   0.123   4.641  17.108  0.2054 -0.2152  2.1032
  504TMC3    H1 7548   0.468   4.641  16.870  1.0107 -1.8671  1.0138
  504TMC3    H2 7549   0.508   4.645  17.298  2.0490  1.7164 -2.2355
  504TMC3    C7 7550   0.642   4.679  17.063 -0.1583  0.6517 -0.1093
  504TMC3    C8 7551   0.249   4.569  17.323 -0.1815  0.0420 -0.2236
  504TMC3    O1 7552   0.680   4.660  16.948  0.2147 -0.2139 -0.0534
  504TMC3    O2 7553   0.143   4.506  17.302 -1.0431 -0.0259  0.7093
  505MPD2     C 7554   4.669   3.631  10.571  0.2189 -0.9580 -0.0334
  505MPD2    C1 7555   4.637   3.500  10.524  0.4067 -0.3402  0.7784
  505MPD2    C2 7556   4.665   3.386  10.599 -0.2775  0.5779  0.2403
  505MPD2    C3 7557   4.726   3.410  10.725  0.0712 -0.8441 -0.1588
  505MPD2    C4 7558   0.020   3.539  10.764 -0.3806 -0.5485 -0.3217
  505MPD2    C5 7559   4.737   3.648  10.687  0.4174 -0.3931  0.4219
  505MPD2     H 7560   4.654   3.284  10.561 -0.5131  1.0692 -1.0208
  505MPD2    H1 7561   0.067   3.551  10.861  2.2717 -0.3184 -1.6384
  505MPD2    H2 7562   4.656   3.720  10.511  0.4418 -3.1491 -3.3333
  505MPD2    H3 7563   0.030   3.742  10.734 -1.0629  0.7493 -0.9258
  505MPD2     N 7564   0.028   3.302  10.812  0.4568 -0.0257  0.0273
  505MPD2    H5 7565   0.085   3.335  10.888 -0.7426  0.6856  0.6182
  505MPD2    N1 7566   4.587   3.489  10.391  0.4107  0.2106  0.6664
  505MPD2    H7 7567   4.575   3.577  10.342 -1.4313  0.8253  2.2677
  506TMC3    C1 7568   4.521   3.385  10.184 -0.3991 -0.1115  0.8655
  506TMC3    C2 7569   4.623   3.442  10.112  0.0140  0.4379 -0.3417
  506TMC3    C3 7570   4.655   3.389   9.991  0.5859  0.1910 -0.1879
  506TMC3    C4 7571   4.473   3.261  10.144 -0.3976 -0.6811 -0.2534
  506TMC3    C5 7572   4.515   3.201  10.028  0.0933 -0.5766 -0.3122
  506TMC3    C6 7573   4.596   3.272   9.947  0.9257  1.0497 -0.4909
  506TMC3     C 7574   4.548   3.375  10.328  0.5209 -0.1736  0.2919
  506TMC3     O 7575   4.548   3.258  10.363 -0.2217 -0.1964 -0.2947
  506TMC3     H 7576   4.666   3.536  10.145  0.5562  0.6748 -1.7567
  506TMC3    H1 7577   4.403   3.209  10.207 -0.4999  0.6877  0.7546
  506TMC3    H2 7578   4.641   3.228   9.860  0.6525 -0.4034  0.1074
  506TMC3    C7 7579   4.545   3.059  10.054 -0.1402  0.1653  0.0739
  506TMC3    C8 7580   0.030   3.444   9.911 -0.2062 -0.0817  0.1907
  506TMC3    O1 7581   4.580   2.996   9.958 -0.3967  0.7705 -0.9521
  506TMC3    O2 7582   0.020   3.445   9.789  0.2522 -0.2149  0.0197
  507TMC3    C1 7583   1.156   4.728  14.890 -0.3734  0.2480  0.6249
  507TMC3    C2 7584   1.117   4.718  14.759 -0.7525 -0.1944 -0.0533
  507TMC3    C3 7585   1.135   0.100  14.688  0.0190 -0.6911  0.2226
  507TMC3    C4 7586   1.211   0.110  14.939  0.4850  0.0256  0.1852
  507TMC3    C5 7587   1.211   0.226  14.863  0.1737 -0.3065  0.6843
  507TMC3    C6 7588   1.199   0.215  14.731 -0.1498 -0.1842  0.6900
  507TMC3     C 7589   1.058   4.675  14.982  0.8568 -0.5982 -0.0380
  507TMC3     O 7590   1.090   4.658  15.102  0.2146  0.2352 -0.7319
  507TMC3     H 7591   1.099   4.618  14.719  0.7916  0.6092 -2.7182
  507TMC3    H1 7592   1.220   0.130  15.045 -0.7819  1.8735 -0.0553
  507TMC3    H2 7593   1.181   0.309  14.680  1.2917  0.5328  1.4947
  507TMC3    C7 7594   1.101   0.316  14.918 -0.1298  0.5922 -0.7861
  507TMC3    C8 7595   1.022   0.132  14.595  0.6290 -0.3291 -0.4886
  507TMC3    O1 7596   1.012   0.251  14.964  0.8870  0.9186 -0.5183
  507TMC3    O2 7597   0.983   0.249  14.589 -0.0643  0.0538 -0.0262
  508MPD2     C 7598   1.638   2.086  15.913  0.7618 -0.3434 -0.4600
  508MPD2    C1 7599   1.751   2.165  15.930  0.1389  0.3164 -0.3366
  508MPD2    C2 7600   1.771   2.275  15.844 -0.3882  0.4671 -0.0076
  508MPD2    C3 7601   1.672   2.316  15.752  0.1540 -0.3209  0.4547
  508MPD2    C4 7602   1.563   2.231  15.735 -0.2249 -0.0336 -0.3655
  508MPD2    C5 7603   1.551   2.123  15.818  0.7855 -0.5908 -0.0637
  508MPD2     H 7604   1.864   2.330  15.856 -0.3573  1.0363 -2.9759
  508MPD2    H1 7605   1.472   2.244  15.678  0.3419  0.9521 -1.0220
  508MPD2    H2 7606   1.622   2.002  15.979  0.6728 -0.4565 -0.6250
  508MPD2    H3 7607   1.460   2.066  15.801  0.7230 -0.7453  0.7926
  508MPD2     N 7608   1.694   2.433  15.685  0.0980  0.1691  0.8115
  508MPD2    H5 7609   1.780   2.481  15.709  0.8486  0.1882 -1.9387
  508MPD2    N1 7610   1.848   2.127  16.027  0.3512  0.2743 -0.5150
  508MPD2    H7 7611   1.814   2.051  16.085  0.3067  1.7560  1.3930
  509TMC3    C1 7612   1.641   2.736  15.330  0.1661  0.0825 -0.3965
  509TMC3    C2 7613   1.710   2.834  15.394 -0.2445  0.0116 -0.2067
  509TMC3    C3 7614   1.773   2.789  15.508  0.4571 -0.0205  0.0481
  509TMC3    C4 7615   1.611   2.619  15.398 -0.3563 -0.0691 -0.3527
  509TMC3    C5 7616   1.662   2.588  15.516 -0.1370  0.0223  0.5692
  509TMC3    C6 7617   1.758   2.669  15.573 -0.1183 -0.2667  0.1659
  509TMC3     C 7618   1.545   2.780  15.228  0.1944  0.3906 -0.1054
  509TMC3     O 7619   1.428   2.744  15.233 -0.3378  0.2327  0.2531
  509TMC3     H 7620   1.732   2.932  15.355  0.1881 -0.2204 -0.5379
  509TMC3    H1 7621   1.552   2.547  15.344  0.8719 -0.7978 -0.7248
  509TMC3    H2 7622   1.806   2.655  15.669 -1.6812  1.6494  1.2347
  509TMC3    C7 7623   1.606   2.479  15.590  0.5170  0.2973  0.4295
  509TMC3    C8 7624   1.864   2.888  15.563  0.1387  1.0619  0.2471
  509TMC3    O1 7625   1.500   2.441  15.547  0.1615 -0.1124 -0.3828
  509TMC3    O2 7626   1.850   2.999  15.519  0.0739  0.4779  0.9800
  510MPD2     C 7627   4.016   3.584  14.478  0.1292 -0.4598 -0.1534
  510MPD2    C1 7628   4.124   3.535  14.555 -0.6329 -0.0592  0.1207
  510MPD2    C2 7629   4.247   3.585  14.525 -0.5932  0.3100 -0.1134
  510MPD2    C3 7630   4.267   3.663  14.411  1.0843  0.2257 -0.1802
  510MPD2    C4 7631   4.162   3.699  14.333  0.8813 -0.4452 -0.5762
  510MPD2    C5 7632   4.038   3.663  14.366  0.1464 -0.3964 -0.0377
  510MPD2     H 7633   4.330   3.560  14.591  0.2998  0.3253 -1.2346
  510MPD2    H1 7634   4.166   3.760  14.244  0.9725 -1.0043 -0.9590
  510MPD2    H2 7635   3.915   3.549  14.495 -0.1769  0.9806  0.9925
  510MPD2    H3 7636   3.957   3.706  14.309 -0.9269 -3.4679 -0.8009
  510MPD2     N 7637   4.398   3.696  14.365 -0.7159  0.1248 -0.4770
  510MPD2    H5 7638   4.472   3.675  14.431 -1.2095  1.0638  0.3839
  510MPD2    N1 7639   4.093   3.443  14.653 -0.0047  0.2780  0.3563
  510MPD2    H7 7640   3.995   3.437  14.676 -0.5334  0.0896 -1.8971
  511TMC3    C1 7641   4.137   3.297  14.825  0.2350  0.6561 -0.7882
  511TMC3    C2 7642   4.050   3.372  14.910  0.2306 -0.5015  0.0824
  511TMC3    C3 7643   3.963   3.311  14.997  0.3315 -0.7561  0.3302
  511TMC3    C4 7644   4.119   3.163  14.821 -0.2380 -0.0896  0.3277
  511TMC3    C5 7645   4.020   3.103  14.900 -0.0195 -0.0702 -0.6364
  511TMC3    C6 7646   3.940   3.178  14.978 -0.1106 -0.0960  0.2889
  511TMC3     C 7647   4.190   3.360  14.704  0.1510 -0.7721  0.1578
  511TMC3     O 7648   4.312   3.348  14.694  0.2504 -0.1370  0.4003
  511TMC3     H 7649   4.065   3.479  14.915  1.9491 -0.6812 -1.1385
  511TMC3    H1 7650   4.153   3.117  14.729 -2.0499 -2.6465  0.9229
  511TMC3    H2 7651   3.857   3.131  15.030 -1.4348  1.3823 -0.4842
  511TMC3    C7 7652   3.984   2.969  14.863 -0.0129  0.1290  0.0225
  511TMC3    C8 7653   3.892   3.399  15.080  0.4255 -0.3198 -0.7657
  511TMC3    O1 7654   4.032   2.929  14.759  0.0935 -0.8019  0.6490
  511TMC3    O2 7655   3.912   3.520  15.074  0.6648  0.0700  0.0730
  512TMC3    C1 7656   3.081   3.696  12.965  1.1670  0.0416 -0.4908
  512TMC3    C2 7657   3.090   3.644  13.093  0.1904  0.4534  0.5378
  512TMC3    C3 7658   3.100   3.505  13.108  0.2796  0.7042 -0.5667
  512TMC3    C4 7659   3.068   3.619  12.850  0.1531 -0.2504 -0.4338
  512TMC3    C5 7660   3.080   3.481  12.871 -0.0183 -0.9409 -1.2321
  512TMC3    C6 7661   3.102   3.426  12.994  0.1135 -0.0079  0.6491
  512TMC3     C 7662   3.022   3.824  12.965 -0.5752  0.0753 -0.2650
  512TMC3     O 7663   2.970   3.856  13.069  0.1574 -0.4676 -0.3331
  512TMC3     H 7664   3.056   3.696  13.183  0.0854  0.4518  0.4989
  512TMC3    H1 7665   3.028   3.652  12.755 -1.6882  1.4443  0.9410
  512TMC3    H2 7666   3.121   3.320  13.009  0.5805 -0.0680 -0.3667
  512TMC3    C7 7667   3.033   3.389  12.772  0.7958 -0.3558 -0.2753
  512TMC3    C8 7668   3.120   3.431  13.233  0.2811 -0.1784  0.5155
  512TMC3    O1 7669   2.996   3.445  12.669  0.2033 -0.3201 -0.4252
  512TMC3    O2 7670   3.085   3.316  13.241 -0.0943 -0.3791 -0.1988
  513MPD2     C 7671   0.182   3.690  12.867 -0.3204  1.3223 -0.3982
  513MPD2    C1 7672   0.212   3.561  12.824 -0.2994  0.6152  0.0789
  513MPD2    C2 7673   0.266   3.469  12.914 -0.5121 -0.6063  0.4800
  513MPD2    C3 7674   0.327   3.516  13.026 -0.3956 -0.6253 -0.4451
  513MPD2    C4 7675   0.302   3.643  13.068 -0.2786 -0.4889 -1.3695
  513MPD2    C5 7676   0.227   3.730  12.991 -0.1169  0.5697 -0.3254
  513MPD2     H 7677   0.279   3.366  12.881 -0.5064 -0.3319 -0.3857
  513MPD2    H1 7678   0.336   3.681  13.163  0.0456 -2.0385 -0.8755
  513MPD2    H2 7679   0.124   3.764  12.813 -1.1580  1.4288  0.6423
  513MPD2    H3 7680   0.188   3.828  13.016 -1.3921 -0.1746  0.6337
  513MPD2     N 7681   0.406   3.429  13.106 -0.4615  0.4846 -0.2190
  513MPD2    H5 7682   0.408   3.330  13.082  3.8733  0.0265  2.0046
  513MPD2    N1 7683   0.180   3.527  12.693 -0.2467  0.3270  0.4028
  513MPD2    H7 7684   0.130   3.600  12.644  0.0037  2.2537  3.0057
  514TMC3    C1 7685   0.157   3.398  12.499  0.7354 -1.0243  0.0902
  514TMC3    C2 7686   0.221   3.492  12.427  0.2097  0.4983  0.1536
  514TMC3    C3 7687   0.293   3.453  12.314  0.5374 -0.3154  0.0023
  514TMC3    C4 7688   0.166   3.268  12.452  0.1714  0.6336  0.4750
  514TMC3    C5 7689   0.235   3.227  12.341 -0.0254  0.3037 -0.2321
  514TMC3    C6 7690   0.300   3.325  12.267  0.1317 -0.3109 -0.3652
  514TMC3     C 7691   0.174   3.397  12.642 -0.1144 -0.2464 -0.0534
  514TMC3     O 7692   0.216   3.290  12.686  0.6865  0.3390  0.3543
  514TMC3     H 7693   0.239   3.590  12.470  2.1630  0.6644 -1.0302
  514TMC3    H1 7694   0.119   3.192  12.514  0.4963  0.7556  0.8719
  514TMC3    H2 7695   0.372   3.290  12.193 -1.1247  0.5790 -1.9975
  514TMC3    C7 7696   0.329   3.123  12.373  0.6063 -0.0197  0.0168
  514TMC3    C8 7697   0.357   3.556  12.240 -0.0162  1.3399 -0.0319
  514TMC3    O1 7698   0.376   3.056  12.279  0.5713  0.1521 -0.7463
  514TMC3    O2 7699   0.388   3.661  12.294 -0.1594  0.1897 -0.1378
  515MPD2     C 7700   3.197   0.479  15.155  0.2931  0.0740  0.9644
  515MPD2    C1 7701   3.254   0.366  15.117 -0.2210 -0.4514  0.5162
  515MPD2    C2 7702   3.365   0.309  15.179  0.0595 -0.8297 -0.3388
  515MPD2    C3 7703   3.418   0.381  15.285  1.0859  0.2099 -0.2248
  515MPD2    C4 7704   3.364   0.503  15.321  0.8570  0.0097 -0.5941
  515MPD2    C5 7705   3.251   0.555  15.254 -0.7137 -0.3957  0.7069
  515MPD2     H 7706   3.404   0.219  15.133  0.2326 -0.2761 -1.2894
  515MPD2    H1 7707   3.400   0.561  15.406 -3.1100  2.2013 -0.4095
  515MPD2    H2 7708   3.109   0.517  15.104  1.4242  0.0533 -1.0179
  515MPD2    H3 7709   3.184   0.621  15.307 -0.0085 -1.1735  2.5669
  515MPD2     N 7710   3.534   0.337  15.357  0.6019 -0.3748 -0.3512
  515MPD2    H5 7711   3.581   0.408  15.412  0.9969  0.4262 -1.7230
  515MPD2    N1 7712   3.197   0.295  15.008  0.0049 -0.3407  0.5502
  515MPD2    H7 7713   3.233   0.203  14.985 -0.4012 -0.9605  2.3467
  516TMC3    C1 7714   3.090   0.258  14.796  0.0109  0.1929 -0.0804
  516TMC3    C2 7715   3.071   0.313  14.672  0.3088 -0.6234 -0.6107
  516TMC3    C3 7716   3.082   0.228  14.562  0.3412  0.1812 -0.2710
  516TMC3    C4 7717   3.119   0.122  14.810 -0.7540  0.8860  0.1318
  516TMC3    C5 7718   3.129   0.044  14.697  0.0452 -0.3233  0.2237
  516TMC3    C6 7719   3.117   0.096  14.570  0.0428 -0.4208 -0.5212
  516TMC3     C 7720   3.111   0.345  14.910  0.4018  0.1608  0.0862
  516TMC3     O 7721   3.085   0.461  14.880  0.7380 -0.2770 -0.3247
  516TMC3     H 7722   3.024   0.411  14.669  2.5397  0.3378 -4.5566
  516TMC3    H1 7723   3.095   0.076  14.905  0.3382 -0.4904 -0.2625
  516TMC3    H2 7724   3.148   0.046  14.479 -0.7449 -1.1943 -0.3552
  516TMC3    C7 7725   3.082   4.643  14.719  0.0838 -0.2885  0.8217
  516TMC3    C8 7726   2.991   0.254  14.461 -0.2498 -0.2119  0.3722
  516TMC3    O1 7727   3.105   4.581  14.821 -0.3649 -0.3431 -0.2754
  516TMC3    O2 7728   2.933   0.158  14.413  0.8306  0.2153  0.3232
  517MPD2     C 7729   3.350   2.119  17.159  0.1661 -0.3926  0.3661
  517MPD2    C1 7730   3.425   2.043  17.244  0.4631 -0.0040 -0.1593
  517MPD2    C2 7731   3.454   2.095  17.374 -0.3875  0.1850 -0.0706
  517MPD2    C3 7732   3.423   2.232  17.403 -0.9380  0.7765  0.7253
  517MPD2    C4 7733   3.331   2.293  17.319 -0.4850 -0.1034  0.1401
  517MPD2    C5 7734   3.290   2.242  17.200  0.5298  0.2245 -0.6350
  517MPD2     H 7735   3.514   2.040  17.445 -2.4431 -1.0518  0.7100
  517MPD2    H1 7736   3.285   2.389  17.335 -0.2431 -0.0982  0.8075
  517MPD2    H2 7737   3.329   2.086  17.058  1.0373  0.1271  0.0099
  517MPD2    H3 7738   3.234   2.305  17.132 -0.7748 -0.9691 -0.6580
  517MPD2     N 7739   3.467   2.308  17.515 -0.1284  0.0521 -0.3659
  517MPD2    H5 7740   3.432   2.403  17.521 -2.1860 -0.6532 -1.1023
  517MPD2    N1 7741   3.473   1.919  17.195 -0.1184 -0.4197  0.0546
  517MPD2    H7 7742   3.455   1.897  17.097 -1.7719 -0.4853  0.3686
  518TMC3    C1 7743   3.546   1.702  17.187  1.0393 -0.1593 -0.0912
  518TMC3    C2 7744   3.513   1.574  17.239 -0.0657  0.3933 -0.0986
  518TMC3    C3 7745   3.486   1.476  17.149  0.2168  0.9509 -0.3229
  518TMC3    C4 7746   3.560   1.726  17.054  0.6885 -0.6085  0.3588
  518TMC3    C5 7747   3.550   1.625  16.971 -0.1067 -0.3280  0.0909
  518TMC3    C6 7748   3.489   1.512  17.014  0.2563  1.0285 -0.7355
  518TMC3     C 7749   3.528   1.819  17.268 -0.8032 -0.5926 -0.4037
  518TMC3     O 7750   3.517   1.806  17.392 -0.2339  0.0478  0.3712
  518TMC3     H 7751   3.511   1.562  17.347  0.4623 -1.8809 -0.3371
  518TMC3    H1 7752   3.604   1.819  17.020  0.6079  0.0707  2.0791
  518TMC3    H2 7753   3.461   1.435  16.943 -2.5106  0.7037  0.7153
  518TMC3    C7 7754   3.680   1.603  16.902 -0.5357 -0.0487 -0.7746
  518TMC3    C8 7755   3.531   1.341  17.170 -0.7758  0.2158  0.6418
  518TMC3    O1 7756   3.736   1.703  16.864 -0.1343  0.5094  0.0082
  518TMC3    O2 7757   3.536   1.268  17.071 -0.1553 -0.2693  0.2530
  519MPD2     C 7758   0.137   4.365  14.555  0.8360 -0.3670  0.0790
  519MPD2    C1 7759   0.050   4.308  14.466  0.8713 -1.1042  0.3961
  519MPD2    C2 7760   0.064   4.331  14.330 -0.2620  0.2658  0.8265
  519MPD2    C3 7761   0.178   4.394  14.287 -0.3944  0.2896  0.3032
  519MPD2    C4 7762   0.271   4.442  14.377 -0.4700 -0.0044  0.2341
  519MPD2    C5 7763   0.243   4.435  14.513 -0.0550  0.3927  0.2072
  519MPD2     H 7764   4.731   4.294  14.256  0.7944 -1.0725  0.4964
  519MPD2    H1 7765   0.357   4.496  14.340 -0.3605  0.1955  0.7734
  519MPD2    H2 7766   0.123   4.350  14.662 -0.9296  0.0158 -0.0863
  519MPD2    H3 7767   0.302   4.491  14.585 -1.2031  0.4773  1.0875
  519MPD2     N 7768   0.194   4.430  14.148  0.1884 -0.6211 -0.5475
  519MPD2    H5 7769   0.282   4.473  14.123  0.4598 -1.1412 -0.5028
  519MPD2    N1 7770   4.678   4.232  14.517 -0.9029 -0.5188 -0.0599
  519MPD2    H7 7771   4.652   4.246  14.614  2.4658 -2.2705  1.1143
  520TMC3    C1 7772   0.162   4.484  13.930 -0.5444  0.4373  0.2197
  520TMC3    C2 7773   0.075   4.547  13.837  0.1322 -0.5968  0.4847
  520TMC3    C3 7774   0.140   4.612  13.737  0.7129  0.0424 -0.0459
  520TMC3    C4 7775   0.292   4.467  13.912  0.2874 -0.3861  0.3298
  520TMC3    C5 7776   0.353   4.535  13.813 -0.4786 -1.0835 -0.3019
  520TMC3    C6 7777   0.277   4.622  13.730 -0.0981  0.0761  0.6889
  520TMC3     C 7778   0.101   4.431  14.053  0.0713  1.0468 -0.2886
  520TMC3     O 7779   4.716   4.407  14.058 -0.4756 -0.0340  0.4001
  520TMC3     H 7780   4.704   4.535  13.843  0.2412 -1.4396  0.7785
  520TMC3    H1 7781   0.344   4.393  13.971 -0.8868 -1.3155  0.1964
  520TMC3    H2 7782   0.327   4.685  13.658  2.9842 -1.2441  1.6602
  520TMC3    C7 7783   0.501   4.533  13.805 -0.0201  0.7832 -0.4074
  520TMC3    C8 7784   0.072   4.676  13.625  0.1569 -0.3986 -0.0958
  520TMC3    O1 7785   0.557   4.507  13.911  0.5319  0.3159 -1.1059
  520TMC3    O2 7786   0.140   4.700  13.525  0.2988 -0.3627  0.1897
  521MPD2     C 7787   0.837   2.668  17.519  0.1013  0.4920  0.0827
  521MPD2    C1 7788   0.786   2.622  17.400  0.1456  0.1020 -0.2552
  521MPD2    C2 7789   0.872   2.578  17.296 -0.0049 -0.0684 -0.5128
  521MPD2    C3 7790   1.006   2.579  17.320  0.2469 -0.8403  0.0070
  521MPD2    C4 7791   1.053   2.621  17.445 -0.6192 -0.4220  0.4678
  521MPD2    C5 7792   0.974   2.666  17.544 -0.0220  0.1711  0.2533
  521MPD2     H 7793   0.844   2.528  17.204  0.8635 -0.2913 -0.6570
  521MPD2    H1 7794   1.160   2.628  17.460 -0.5817  0.3518 -0.1877
  521MPD2    H2 7795   0.769   2.702  17.596 -0.2372  0.0956 -0.0384
  521MPD2    H3 7796   1.013   2.708  17.636  0.3039 -1.2503  0.7673
  521MPD2     N 7797   1.083   2.536  17.211  0.6567 -0.2658 -0.6513
  521MPD2    H5 7798   1.030   2.498  17.134 -1.0459  0.7057  0.0439
  521MPD2    N1 7799   0.645   2.600  17.395 -0.5918 -0.3609 -0.0187
  521MPD2    H7 7800   0.596   2.599  17.484 -0.4687 -0.7091  0.0482
  522TMC3    C1 7801   1.262   2.457  17.084  0.7940 -0.1389  0.4919
  522TMC3    C2 7802   1.384   2.390  17.093  0.1186 -0.6508 -0.7251
  522TMC3    C3 7803   1.456   2.355  16.981 -0.0388 -0.0628  0.3679
  522TMC3    C4 7804   1.226   2.504  16.959  0.0957 -0.1817  0.1247
  522TMC3    C5 7805   1.294   2.459  16.846 -0.5384 -0.7344  0.9594
  522TMC3    C6 7806   1.409   2.385  16.857 -0.2318  0.5304 -0.3360
  522TMC3     C 7807   1.217   2.521  17.205 -0.1834  0.2498  0.0338
  522TMC3     O 7808   1.298   2.525  17.294 -0.3114 -0.0195  0.3190
  522TMC3     H 7809   1.414   2.350  17.189  0.0171 -0.4744 -0.6193
  522TMC3    H1 7810   1.145   2.575  16.947 -2.2712 -2.4555  2.5554
  522TMC3    H2 7811   1.461   2.372  16.762  0.0280 -1.5470  0.0816
  522TMC3    C7 7812   1.303   2.558  16.741 -0.8372  0.2233 -0.5166
  522TMC3    C8 7813   1.581   2.284  16.993  0.7962  0.4821  0.2475
  522TMC3    O1 7814   1.412   2.597  16.710  0.5863 -0.0173  0.0839
  522TMC3    O2 7815   1.643   2.309  17.099 -0.3185 -0.2204 -0.0868
  523MPD2     C 7816   3.191   3.118  10.463 -0.3821  0.2691 -0.3750
  523MPD2    C1 7817   3.144   3.006  10.408 -0.3548 -0.0757  0.6185
  523MPD2    C2 7818   3.045   3.016  10.308  0.5196  0.9852  0.7464
  523MPD2    C3 7819   2.982   3.140  10.284  0.5990 -0.3567  0.3588
  523MPD2    C4 7820   3.030   3.247  10.353  0.7009  0.1723  0.4067
  523MPD2    C5 7821   3.124   3.235  10.453  0.1497 -0.9482  0.1978
  523MPD2     H 7822   3.008   2.922  10.270 -0.1105  1.3812  0.3893
  523MPD2    H1 7823   2.990   3.346  10.335  1.3451  0.4823  0.6814
  523MPD2    H2 7824   3.277   3.112  10.528 -0.9255  1.3421  0.4510
  523MPD2    H3 7825   3.163   3.321  10.506 -1.8564 -0.8197  1.4739
  523MPD2     N 7826   2.858   3.155  10.214  0.4251 -0.5465 -0.4538
  523MPD2    H5 7827   2.806   3.242  10.215 -1.3295 -1.5703 -0.8904
  523MPD2    N1 7828   3.208   2.884  10.450  0.3834 -0.6230  0.0409
  523MPD2    H7 7829   3.268   2.887  10.532 -0.4704 -1.3744  0.6852
  524TMC3    C1 7830   2.708   3.112  10.048  0.1692  0.7899 -0.4784
  524TMC3    C2 7831   2.728   3.108   9.912 -0.5584 -0.2068 -0.2923
  524TMC3    C3 7832   2.660   3.201   9.833 -0.3487  0.6948  0.2146
  524TMC3    C4 7833   2.621   3.207  10.104  0.4623 -0.8359  0.1351
  524TMC3    C5 7834   2.551   3.279  10.013 -0.0554  0.0761  0.3984
  524TMC3    C6 7835   2.562   3.285   9.882  0.9295  0.1113  0.0396
  524TMC3     C 7836   2.821   3.063  10.121  0.3496 -0.5606  0.4905
  524TMC3     O 7837   2.887   2.967  10.070  0.7048 -0.4181  0.0725
  524TMC3     H 7838   2.811   3.056   9.866 -0.1771  0.9576 -0.9246
  524TMC3    H1 7839   2.589   3.209  10.207 -0.9721  0.2629 -0.3278
  524TMC3    H2 7840   2.493   3.347   9.825  0.0915  0.5902  1.5540
  524TMC3    C7 7841   2.489   3.393  10.090  0.0580 -0.0469  0.5215
  524TMC3    C8 7842   2.697   3.208   9.691 -0.1495 -0.6918 -0.5543
  524TMC3    O1 7843   2.417   3.353  10.181 -0.7053 -0.3962  0.0261
  524TMC3    O2 7844   2.768   3.117   9.653 -0.1941  0.4701 -0.7368
  525MPD2     C 7845   1.365   4.642  14.349 -0.0719  0.3118 -0.2198
  525MPD2    C1 7846   1.489   4.643  14.401  0.0558  0.1724  1.3272
  525MPD2    C2 7847   1.550   0.020  14.442  0.2578  0.9094  0.6819
  525MPD2    C3 7848   1.486   0.140  14.422  1.0289  0.3121  0.3499
  525MPD2    C4 7849   1.356   0.141  14.370 -0.5354  0.5503 -0.1524
  525MPD2    C5 7850   1.291   0.020  14.341  0.4980 -0.5249  0.4039
  525MPD2     H 7851   1.652   0.015  14.479  0.4799 -0.6258 -0.1084
  525MPD2    H1 7852   1.310   0.236  14.346 -1.9762  0.2105  1.2829
  525MPD2    H2 7853   1.323   4.545  14.325  0.2649 -0.1637  1.0893
  525MPD2    H3 7854   1.189   0.021  14.305  1.0968  2.9234 -1.1360
  525MPD2     N 7855   1.550   0.264  14.451  0.2952  0.2042 -0.7452
  525MPD2    H5 7856   1.496   0.350  14.451 -0.4348 -0.2215  3.1812
  525MPD2    N1 7857   1.567   4.524  14.414 -0.4178  0.5086 -0.3043
  525MPD2    H7 7858   1.662   4.537  14.450 -0.2257 -1.6381 -0.0328
  526TMC3    C1 7859   1.619   4.290  14.406 -0.0111 -0.1595  0.1981
  526TMC3    C2 7860   1.570   4.185  14.478 -0.1921  0.0258 -0.3399
  526TMC3    C3 7861   1.653   4.088  14.526  0.3255 -0.0480  0.0652
  526TMC3    C4 7862   1.753   4.307  14.400  0.2212  0.0928 -0.2923
  526TMC3    C5 7863   1.834   4.213  14.449  0.2837  0.0753 -0.4295
  526TMC3    C6 7864   1.789   4.112  14.526  0.2544  0.7284 -0.3240
  526TMC3     C 7865   1.524   4.395  14.383 -1.2243  0.1141  0.0059
  526TMC3     O 7866   1.411   4.351  14.352 -0.3851  0.1808  0.0849
  526TMC3     H 7867   1.463   4.177  14.497 -0.5051  0.9720 -1.7889
  526TMC3    H1 7868   1.791   4.391  14.343 -0.3383  0.5914  0.0717
  526TMC3    H2 7869   1.867   4.052  14.572  0.7976 -1.0044 -3.4582
  526TMC3    C7 7870   1.962   4.204  14.382  0.0278  0.1796 -0.0929
  526TMC3    C8 7871   1.607   4.012  14.647  0.0309 -0.2971 -0.2522
  526TMC3    O1 7872   1.994   4.295  14.305  0.0824  0.3773  0.4869
  526TMC3    O2 7873   1.696   3.992  14.731 -0.3800 -0.1542 -0.0227
  527MPD2     C 7874   4.263   2.691   1.153 -0.0260  0.2294 -0.5280
  527MPD2    C1 7875   4.192   2.610   1.059 -0.4677  0.1364  0.2810
  527MPD2    C2 7876   4.266   2.536   0.971 -0.3172  0.1981  0.0430
  527MPD2    C3 7877   4.403   2.535   0.975  0.0013 -0.1613 -0.3137
  527MPD2    C4 7878   4.470   2.595   1.086  0.6311 -0.2123 -0.6811
  527MPD2    C5 7879   4.398   2.681   1.165 -0.6778 -0.0484  0.0691
  527MPD2     H 7880   4.217   2.479   0.894  1.1682  1.0257 -1.5393
  527MPD2    H1 7881   4.577   2.608   1.095  0.4387 -0.0729  1.4050
  527MPD2    H2 7882   4.207   2.754   1.221  1.5367 -1.5252  2.4118
  527MPD2    H3 7883   4.456   2.754   1.220  0.2630 -2.6612  2.5476
  527MPD2     N 7884   4.468   2.460   0.879 -0.0189 -0.1350  0.0398
  527MPD2    H5 7885   4.402   2.405   0.824 -2.4399  1.3127  1.5088
  527MPD2    N1 7886   4.049   2.610   1.051  0.1029 -0.3631 -0.0817
  527MPD2    H7 7887   4.011   2.548   0.979  0.8297 -0.7871 -0.1050
  528TMC3    C1 7888   3.823   2.622   1.111  0.1156 -0.6815 -0.5198
  528TMC3    C2 7889   3.820   2.506   1.041 -0.4220  1.1650 -0.2363
  528TMC3    C3 7890   3.713   2.483   0.962  0.1510  0.5707  0.1431
  528TMC3    C4 7891   3.719   2.713   1.109  0.3136 -0.2813  0.2770
  528TMC3    C5 7892   3.622   2.695   1.016 -0.2052  0.3059 -0.0295
  528TMC3    C6 7893   3.622   2.582   0.940  0.3570 -0.2389  0.4643
  528TMC3     C 7894   3.960   2.676   1.121 -0.0688  0.5495 -0.1961
  528TMC3     O 7895   3.977   2.775   1.192  0.4347  1.1897 -0.0958
  528TMC3     H 7896   3.883   2.420   1.060  0.7046  1.7784 -1.2310
  528TMC3    H1 7897   3.738   2.804   1.166 -2.0981  1.1828 -1.2938
  528TMC3    H2 7898   3.535   2.578   0.875  0.3799 -0.4699  0.4475
  528TMC3    C7 7899   3.501   2.769   1.024 -0.0678  0.4194 -0.1846
  528TMC3    C8 7900   3.753   2.401   0.853 -0.1544 -0.3959  0.3912
  528TMC3    O1 7901   3.402   2.699   1.014 -0.4075 -0.5118  0.2692
  528TMC3    O2 7902   3.864   2.432   0.811  0.1633 -0.3678  0.5555
  529MPD2     C 7903   1.688   0.666   0.863 -0.7416  0.2958 -0.5946
  529MPD2    C1 7904   1.721   0.672   0.729  0.1181  0.4133 -0.4947
  529MPD2    C2 7905   1.659   0.763   0.651  0.3802 -0.6476  0.6471
  529MPD2    C3 7906   1.566   0.841   0.707 -0.0724  0.1922  0.3164
  529MPD2    C4 7907   1.526   0.832   0.840 -0.6725 -0.5717  0.1325
  529MPD2    C5 7908   1.597   0.751   0.922  0.0214 -0.0739 -0.1468
  529MPD2     H 7909   1.684   0.786   0.548 -0.1435 -0.3431  0.5877
  529MPD2    H1 7910   1.470   0.909   0.891 -0.1350 -1.3508  1.9192
  529MPD2    H2 7911   1.751   0.608   0.930 -0.9938  0.1535 -0.4829
  529MPD2    H3 7912   1.580   0.755   1.029 -2.6382 -2.9512 -0.4336
  529MPD2     N 7913   1.509   0.939   0.627  0.2286 -0.3160 -0.3883
  529MPD2    H5 7914   1.562   0.988   0.556 -1.4551  1.8313 -0.1613
  529MPD2    N1 7915   1.812   0.589   0.662 -0.4564 -0.3589  0.7566
  529MPD2    H7 7916   1.832   0.595   0.563 -1.1177 -1.3082  0.5699
  530TMC3    C1 7917   1.969   0.422   0.632  0.3809  0.0223  0.0035
  530TMC3    C2 7918   2.070   0.504   0.591 -0.1608 -0.1040 -0.0578
  530TMC3    C3 7919   2.190   0.436   0.570  0.5548  0.2597 -0.1201
  530TMC3    C4 7920   1.992   0.292   0.683 -0.6229  0.2199  0.6953
  530TMC3    C5 7921   2.123   0.251   0.681 -0.0961  0.0869  0.4686
  530TMC3    C6 7922   2.220   0.313   0.604  0.4026 -0.1818  0.6547
  530TMC3     C 7923   1.867   0.483   0.723  0.1936 -0.3076 -0.4289
  530TMC3     O 7924   1.851   0.431   0.833  0.0079  0.5371  0.4152
  530TMC3     H 7925   2.065   0.612   0.581 -1.2575 -0.1808 -0.3903
  530TMC3    H1 7926   1.916   0.225   0.722  0.1107 -1.7300 -1.2164
  530TMC3    H2 7927   2.313   0.260   0.590  1.6069  1.5360  2.0722
  530TMC3    C7 7928   2.182   0.207   0.806 -0.1660  0.3259  0.3453
  530TMC3    C8 7929   2.299   0.530   0.540  0.3724 -0.6621  0.3586
  530TMC3    O1 7930   2.282   0.268   0.828  0.3397 -0.0733 -0.3945
  530TMC3    O2 7931   2.273   0.633   0.481  0.4333  0.0163  0.1214
  531MPD2     C 7932   0.640   2.908  12.721 -0.0213 -0.3458  0.1551
  531MPD2    C1 7933   0.573   3.011  12.784 -0.2686  0.0140 -0.1148
  531MPD2    C2 7934   0.476   3.076  12.711  0.2430  0.0632 -0.0914
  531MPD2    C3 7935   0.449   3.052  12.581 -0.3752 -0.6957  0.4865
  531MPD2    C4 7936   0.512   2.940  12.528 -0.3133  0.2620  0.2352
  531MPD2    C5 7937   0.604   2.868  12.597 -0.5731 -0.7003 -0.5928
  531MPD2     H 7938   0.426   3.163  12.751  1.4452  0.4760  0.4848
  531MPD2    H1 7939   0.501   2.921  12.421  0.1651 -1.8234  0.5721
  531MPD2    H2 7940   0.711   2.841  12.768 -0.3308 -1.3004 -0.7081
  531MPD2    H3 7941   0.662   2.789  12.553  1.1662 -0.8581  2.0091
  531MPD2     N 7942   0.366   3.134  12.506 -0.0832  0.1069  0.5120
  531MPD2    H5 7943   0.327   3.211  12.560  2.4105  1.1530  0.8072
  531MPD2    N1 7944   0.603   3.032  12.925 -0.2454 -0.1511  0.1310
  531MPD2    H7 7945   0.697   3.006  12.954  0.6433  0.1671 -2.4896
  532TMC3    C1 7946   0.582   3.144  13.134 -0.1245  0.2406 -0.3441
  532TMC3    C2 7947   0.496   3.229  13.206 -0.4890  0.2051  0.0215
  532TMC3    C3 7948   0.549   3.347  13.271 -0.0437  0.2118 -0.0328
  532TMC3    C4 7949   0.721   3.169  13.131 -0.9185 -0.0513  0.2403
  532TMC3    C5 7950   0.770   3.268  13.204  0.2067 -0.2240 -0.5279
  532TMC3    C6 7951   0.686   3.357  13.274 -0.3406  0.1827  0.3576
  532TMC3     C 7952   0.520   3.102  13.008  0.0067  0.4509  0.5150
  532TMC3     O 7953   0.412   3.145  12.987 -0.0914  0.6409  0.1975
  532TMC3     H 7954   0.392   3.204  13.224 -0.6766  1.1894  0.3000
  532TMC3    H1 7955   0.778   3.108  13.061  0.7837  1.6380  0.1553
  532TMC3    H2 7956   0.731   3.443  13.324 -1.6141  1.5303 -0.8186
  532TMC3    C7 7957   0.909   3.283  13.243 -0.0376  0.2063  0.7125
  532TMC3    C8 7958   0.477   3.462  13.223  0.0876  0.1707 -0.2871
  532TMC3    O1 7959   0.927   3.358  13.334  0.1695 -0.0539 -0.1520
  532TMC3    O2 7960   0.510   3.571  13.256 -0.4837 -0.1646 -0.1627
  533TMC3    C1 7961   1.735   0.413  14.486 -0.2571  0.0150  0.2455
  533TMC3    C2 7962   1.868   0.438  14.465 -0.4177  0.4162 -0.6736
  533TMC3    C3 7963   1.940   0.521  14.550 -0.0701  0.0475 -0.3683
  533TMC3    C4 7964   1.680   0.479  14.597  0.2240  0.0765  0.1357
  533TMC3    C5 7965   1.748   0.571  14.672 -0.4720 -0.0090  0.4350
  533TMC3    C6 7966   1.879   0.587  14.655 -0.5697  0.3527  0.4998
  533TMC3     C 7967   1.688   0.278  14.464  0.2437 -0.0806  0.2518
  533TMC3     O 7968   1.771   0.189  14.450  0.6483 -0.0379  0.4057
  533TMC3     H 7969   1.925   0.402  14.381  1.6483  1.3677  0.3140
  533TMC3    H1 7970   1.574   0.471  14.616  0.3506 -2.1571 -0.1469
  533TMC3    H2 7971   1.938   0.646  14.724  0.4303  0.9209 -0.8487
  533TMC3    C7 7972   1.699   0.576  14.808  0.2279  0.5510  0.3217
  533TMC3    C8 7973   2.080   0.553  14.529  0.0391  0.1808  0.4797
  533TMC3    O1 7974   1.602   0.648  14.825  0.3911  0.9431  0.4563
  533TMC3    O2 7975   2.150   0.583  14.623 -0.3726 -0.4422 -0.6087
  534MPD2     C 7976   0.276   1.643   0.753  0.0901 -0.0085  0.0367
  534MPD2    C1 7977   0.160   1.649   0.830 -0.1414  1.2233 -0.2219
  534MPD2    C2 7978   0.091   1.538   0.836 -0.5492 -0.6813 -0.1371
  534MPD2    C3 7979   0.133   1.416   0.782  0.3578  0.7881 -1.3214
  534MPD2    C4 7980   0.248   1.411   0.702 -0.2853 -0.5628 -0.1235
  534MPD2    C5 7981   0.317   1.531   0.693 -0.1337  0.2250 -0.7528
  534MPD2     H 7982   0.002   1.547   0.897 -0.3217  0.7284 -0.0112
  534MPD2    H1 7983   0.286   1.320   0.657  0.7819 -0.6403  0.9156
  534MPD2    H2 7984   0.338   1.731   0.747  0.3608 -0.3474 -2.2910
  534MPD2    H3 7985   0.411   1.524   0.640  0.5926 -0.0562  0.5821
  534MPD2     N 7986   0.052   1.297   0.787  0.4854  0.0608 -0.4293
  534MPD2    H5 7987   0.091   1.205   0.770 -1.1969 -0.6661 -0.3443
  534MPD2    N1 7988   0.103   1.757   0.902  0.2915 -0.0880  0.3909
  534MPD2    H7 7989   0.019   1.743   0.956 -0.2320  1.4640 -0.0149
  535TMC3    C1 7990   4.600   1.162   0.819  0.1092 -0.8785 -0.4737
  535TMC3    C2 7991   4.497   1.127   0.910 -0.8625 -0.4187  0.2135
  535TMC3    C3 7992   4.464   0.992   0.910 -0.1679 -0.1921  0.2211
  535TMC3    C4 7993   4.663   1.075   0.735  0.0642 -0.8202  0.0144
  535TMC3    C5 7994   4.599   0.947   0.733 -0.0230 -0.3758  0.1965
  535TMC3    C6 7995   4.504   0.905   0.814  0.3262 -0.6184 -0.3820
  535TMC3     C 7996   4.659   1.293   0.833 -0.4647 -0.4535  0.4852
  535TMC3     O 7997   4.583   1.374   0.888  0.0626  0.2897  0.0767
  535TMC3     H 7998   4.447   1.203   0.969  0.5888  0.9482 -0.3088
  535TMC3    H1 7999   0.001   1.084   0.657  0.3376  1.0350  0.5017
  535TMC3    H2 8000   4.459   0.811   0.785  0.9857 -0.9821 -0.2421
  535TMC3    C7 8001   4.641   0.859   0.624  0.3827  0.0790 -0.5043
  535TMC3    C8 8002   4.359   0.942   0.998 -1.0876 -0.3634 -0.7600
  535TMC3    O1 8003   4.718   0.770   0.657  1.0808 -0.3783 -0.4886
  535TMC3    O2 8004   4.301   0.839   0.970  0.1235 -0.6703  0.1378
  536MPD2     C 8005   2.326   4.317  16.529  0.7472 -0.0132  0.0088
  536MPD2    C1 8006   2.392   4.221  16.456  0.4727 -0.4357 -0.2489
  536MPD2    C2 8007   2.350   4.196  16.327 -0.9463  0.0642 -0.0806
  536MPD2    C3 8008   2.244   4.265  16.268  0.1637 -0.6936 -0.7332
  536MPD2    C4 8009   2.180   4.361  16.344  0.6653  0.4202  0.1341
  536MPD2    C5 8010   2.221   4.385  16.473 -0.4571  0.0979 -0.4218
  536MPD2     H 8011   2.394   4.118  16.267 -0.3683  0.2288  0.1300
  536MPD2    H1 8012   2.108   4.428  16.298 -0.3820 -0.7559  0.0805
  536MPD2    H2 8013   2.349   4.327  16.634  1.8258 -0.8968 -0.1382
  536MPD2    H3 8014   2.179   4.471  16.524 -1.0372  0.0932 -0.8875
  536MPD2     N 8015   2.212   4.254  16.133 -0.0839  0.1509  0.5156
  536MPD2    H5 8016   2.132   4.309  16.103  0.2938  0.2365 -0.3333
  536MPD2    N1 8017   2.479   4.137  16.532 -0.3728  0.0163  0.5041
  536MPD2    H7 8018   2.494   4.174  16.626 -0.9232  2.9564 -0.5603
  537TMC3    C1 8019   2.626   3.971  16.582 -0.3258  0.4680  0.1616
  537TMC3    C2 8020   2.719   4.062  16.625  0.2774  0.2996  0.0070
  537TMC3    C3 8021   2.825   4.018  16.704  0.7071  0.2696 -0.0334
  537TMC3    C4 8022   2.631   3.834  16.617  0.0714  0.3905  0.2760
  537TMC3    C5 8023   2.738   3.794  16.698 -0.5213 -0.0841 -0.0975
  537TMC3    C6 8024   2.837   3.889  16.736  0.2873  0.1732  0.2651
  537TMC3     C 8025   2.512   4.013  16.502 -0.3547 -0.5561  0.1027
  537TMC3     O 8026   2.494   3.948  16.402  0.6703 -0.1016 -0.2352
  537TMC3     H 8027   2.712   4.161  16.581 -0.4864  0.1496 -0.2041
  537TMC3    H1 8028   2.551   3.764  16.595 -0.5082  0.6407  1.6021
  537TMC3    H2 8029   2.917   3.856  16.801  0.5366 -0.3718 -0.3229
  537TMC3    C7 8030   2.741   3.651  16.743 -0.1577  0.1005  0.2105
  537TMC3    C8 8031   2.933   4.112  16.746  0.4782 -0.1083  0.1096
  537TMC3    O1 8032   2.631   3.595  16.741  0.0040  0.0278 -0.1289
  537TMC3    O2 8033   3.027   4.062  16.811  0.9144  0.3340 -0.2693
  538TMC3    C1 8034   4.112   2.415  11.197  0.0738  0.1855 -0.0664
  538TMC3    C2 8035   4.199   2.379  11.099 -0.1035 -0.1641  0.1548
  538TMC3    C3 8036   4.185   2.446  10.978  0.0401  0.3096 -0.3461
  538TMC3    C4 8037   3.996   2.481  11.171 -0.0564 -1.1257 -0.0426
  538TMC3    C5 8038   3.983   2.526  11.047 -0.2154 -0.0039  0.0785
  538TMC3    C6 8039   4.070   2.509  10.941 -0.3542 -0.0540 -0.7332
  538TMC3     C 8040   4.146   2.387  11.330 -0.4161 -0.1894  0.5066
  538TMC3     O 8041   4.051   2.339  11.392 -0.1895  0.2942  0.0014
  538TMC3     H 8042   4.301   2.355  11.128  0.4218 -2.6482 -3.7365
  538TMC3    H1 8043   3.939   2.518  11.256 -1.3744 -1.3309 -0.8395
  538TMC3    H2 8044   4.049   2.542  10.840 -3.1941  3.6437  1.0775
  538TMC3    C7 8045   3.864   2.606  11.030 -0.5245  0.0039 -0.1282
  538TMC3    C8 8046   4.289   2.406  10.879  0.4918 -0.0261  0.6073
  538TMC3    O1 8047   3.783   2.611  11.126 -0.1397 -0.6862  0.4684
  538TMC3    O2 8048   4.350   2.307  10.910 -0.1044 -0.4598  0.5726
  539MPD2     C 8049   4.152   1.834  11.254 -0.0359  1.1259 -0.0634
  539MPD2    C1 8050   4.033   1.823  11.317 -0.8382 -0.4702 -0.5037
  539MPD2    C2 8051   3.942   1.925  11.319 -0.0632  0.2826 -0.6438
  539MPD2    C3 8052   3.966   2.033  11.236 -0.6886 -0.2863 -0.0894
  539MPD2    C4 8053   4.073   2.032  11.156 -0.4636 -0.5148 -0.3477
  539MPD2    C5 8054   4.170   1.936  11.171 -0.3243  0.0812 -0.1142
  539MPD2     H 8055   3.859   1.918  11.388  0.8754  0.9206  0.5356
  539MPD2    H1 8056   4.103   2.120  11.101 -0.4374  0.1715  0.7648
  539MPD2    H2 8057   4.232   1.761  11.248 -2.1800 -1.2908  0.6356
  539MPD2    H3 8058   4.263   1.948  11.117 -2.0360  0.8535 -2.8802
  539MPD2     N 8059   3.876   2.134  11.218  0.2778 -0.4084  0.0918
  539MPD2    H5 8060   3.903   2.198  11.144  2.7355 -0.5216  0.9060
  539MPD2    N1 8061   4.010   1.716  11.414  0.3635  0.2424 -1.0528
  539MPD2    H7 8062   3.927   1.720  11.472  1.7075 -0.0328  0.9067
  540TMC3    C1 8063   3.702   2.295  11.250 -0.5100 -0.1459  0.2054
  540TMC3    C2 8064   3.662   2.305  11.119  0.4189  0.0827 -0.0008
  540TMC3    C3 8065   3.562   2.395  11.088 -0.9580 -0.3153  0.0526
  540TMC3    C4 8066   3.647   2.362  11.355  0.7219  0.0741  0.7069
  540TMC3    C5 8067   3.558   2.461  11.318 -0.7482  0.1124  0.1057
  540TMC3    C6 8068   3.518   2.476  11.187 -0.3581 -0.4495  0.2351
  540TMC3     C 8069   3.761   2.173  11.292 -0.3265  0.3986  0.2215
  540TMC3     O 8070   3.716   2.134  11.400  0.3154 -0.4835  0.2995
  540TMC3     H 8071   3.680   2.234  11.039  0.4456 -1.3790  1.3049
  540TMC3    H1 8072   3.668   2.351  11.460 -0.3619  1.2888  1.0444
  540TMC3    H2 8073   3.436   2.538  11.153 -0.9246 -0.0984  2.2377
  540TMC3    C7 8074   3.481   2.519  11.419 -0.0180  0.0884  0.7561
  540TMC3    C8 8075   3.469   2.379  10.980 -0.0825 -0.9544 -0.5801
  540TMC3    O1 8076   3.463   2.457  11.527 -0.2150  0.0062  0.0964
  540TMC3    O2 8077   3.410   2.474  10.937  0.4997  0.2694  0.2341
  541MPD2     C 8078   1.132   3.481  13.059  0.3630  0.3782 -0.3405
  541MPD2    C1 8079   1.195   3.410  12.956  0.2099  0.9307  0.3758
  541MPD2    C2 8080   1.142   3.421  12.825  0.1441  0.0062 -1.0305
  541MPD2    C3 8081   1.023   3.486  12.804 -0.2867  0.1129 -0.4738
  541MPD2    C4 8082   0.967   3.553  12.910 -0.1072 -0.4461 -0.6182
  541MPD2    C5 8083   1.022   3.552  13.038 -0.1971 -0.2850  0.4836
  541MPD2     H 8084   1.196   3.372  12.745  1.6346  0.6388 -0.4089
  541MPD2    H1 8085   0.883   3.621  12.896 -0.6203 -0.6340  1.6008
  541MPD2    H2 8086   1.183   3.482  13.155 -2.1488  0.6196  0.9881
  541MPD2    H3 8087   0.981   3.612  13.118 -2.0751  2.1594 -2.3077
  541MPD2     N 8088   0.978   3.520  12.675  0.1614  0.1420 -0.5050
  541MPD2    H5 8089   0.890   3.570  12.669  0.5248  1.1136  2.2483
  541MPD2    N1 8090   1.302   3.324  12.978  0.4005  0.1055 -0.5575
  541MPD2    H7 8091   1.312   3.267  12.895  2.7636 -0.9303  0.4149
  542TMC3    C1 8092   0.941   3.502  12.444  0.3338  0.1424 -0.9632
  542TMC3    C2 8093   0.975   3.438  12.328  0.2398  0.4418 -0.3776
  542TMC3    C3 8094   0.959   3.521  12.217  0.1572 -0.1090  0.0617
  542TMC3    C4 8095   0.873   3.624  12.453  0.8320 -0.6307  0.2883
  542TMC3    C5 8096   0.865   3.693  12.334  0.2319 -0.7152 -0.3941
  542TMC3    C6 8097   0.903   3.644  12.214  0.4273  0.0704 -0.0907
  542TMC3     C 8098   1.029   3.471  12.556 -0.1507 -0.2688 -0.0076
  542TMC3     O 8099   1.111   3.383  12.535 -0.5386  0.3935 -0.5049
  542TMC3     H 8100   1.010   3.335  12.321  1.7407  0.9426 -0.3435
  542TMC3    H1 8101   0.826   3.662  12.543  0.3617 -0.2259 -0.1278
  542TMC3    H2 8102   0.877   3.700  12.125  3.5399 -0.0921 -1.1062
  542TMC3    C7 8103   0.801   3.822  12.351 -0.6195 -0.5815 -0.2656
  542TMC3    C8 8104   1.051   3.490  12.113 -0.4506  0.5811  0.1071
  542TMC3    O1 8105   0.731   3.845  12.450 -0.1065 -0.2537 -0.4474
  542TMC3    O2 8106   1.075   3.370  12.088  0.1767 -0.7167 -0.0473
  543TMC3    C1 8107   1.855   0.200  17.369 -0.3043 -0.1351 -0.5629
  543TMC3    C2 8108   1.867   0.086  17.444 -0.4677  0.5395 -0.2577
  543TMC3    C3 8109   1.919   0.095  17.572 -0.2742  0.6067  0.2401
  543TMC3    C4 8110   1.872   0.322  17.430 -0.6354 -0.4900  0.6813
  543TMC3    C5 8111   1.926   0.319  17.557  0.3151 -0.2246 -0.3105
  543TMC3    C6 8112   1.948   0.210  17.632  0.2464 -0.4146 -0.3499
  543TMC3     C 8113   1.814   0.195  17.232  0.3125  0.3952  0.0111
  543TMC3     O 8114   1.851   0.097  17.170 -0.1958  0.2560 -0.7219
  543TMC3     H 8115   1.846   4.732  17.388 -0.4014  0.6171 -0.4073
  543TMC3    H1 8116   1.868   0.411  17.368  1.5196 -0.4074  0.6390
  543TMC3    H2 8117   1.976   0.219  17.736 -2.3578 -2.3417  0.5027
  543TMC3    C7 8118   1.951   0.446  17.617  0.0516 -0.3816 -0.1688
  543TMC3    C8 8119   1.971   4.712  17.644  0.1954 -0.6595 -0.2007
  543TMC3    O1 8120   2.035   0.460  17.697 -0.4433  0.2616  0.1075
  543TMC3    O2 8121   2.031   4.737   0.004 -0.7996 -0.2197 -1.1931
  544MPD2     C 8122   1.940   4.202  17.721 -0.1018  0.3166 -0.5256
  544MPD2    C1 8123   1.869   4.231  17.612 -0.3315  0.2859  0.9406
  544MPD2    C2 8124   1.858   4.369  17.580 -0.2894  0.0714 -0.1464
  544MPD2    C3 8125   1.928   4.469  17.648 -0.9378  0.4915  0.0064
  544MPD2    C4 8126   2.004   4.437   0.013  0.4503  0.3621 -0.0043
  544MPD2    C5 8127   1.997   4.303   0.049 -0.3035  0.0281  0.2730
  544MPD2     H 8128   1.805   4.406  17.494  1.4086 -1.1451 -1.7214
  544MPD2    H1 8129   2.058   4.500   0.083  1.0504  0.8924 -0.9448
  544MPD2    H2 8130   1.959   4.097  17.740 -2.8105  0.0917  1.0341
  544MPD2    H3 8131   2.053   4.270   0.135  0.2946  2.0678  0.6686
  544MPD2     N 8132   1.923   4.597  17.596 -0.1358  0.3349  0.8053
  544MPD2    H5 8133   1.870   4.602  17.510 -1.3590 -0.0528  1.5337
  544MPD2    N1 8134   1.814   4.129  17.530 -0.2325  0.2242  0.1856
  544MPD2    H7 8135   1.840   4.038  17.566 -1.0254 -0.4315 -0.9080
  545TMC3    C1 8136   1.753   4.027  17.325  0.2727  0.5792  0.4212
  545TMC3    C2 8137   1.748   4.039  17.190  0.3806  0.0504  0.2921
  545TMC3    C3 8138   1.693   3.935  17.119 -0.2944 -0.3389 -0.0935
  545TMC3    C4 8139   1.716   3.914  17.392  0.0501  0.2869  0.5195
  545TMC3    C5 8140   1.652   3.814  17.319 -0.4033 -0.2080  0.1290
  545TMC3    C6 8141   1.645   3.825  17.186  0.0939 -0.1976  0.6702
  545TMC3     C 8142   1.767   4.149  17.403  0.2779 -0.1907  0.4054
  545TMC3     O 8143   1.782   4.247  17.333 -0.0573 -0.0029  0.0180
  545TMC3     H 8144   1.767   4.134  17.142 -0.9458 -0.5851 -1.4814
  545TMC3    H1 8145   1.716   3.906  17.500 -1.8152 -1.1954  0.4212
  545TMC3    H2 8146   1.608   3.742  17.128  0.2858  0.2973 -0.1514
  545TMC3    C7 8147   1.615   3.683  17.371 -0.5461 -0.3490 -0.4189
  545TMC3    C8 8148   1.745   3.921  16.986  0.3451 -0.1235  0.5745
  545TMC3    O1 8149   1.512   3.635  17.333  0.0361  0.2782  0.0101
  545TMC3    O2 8150   1.739   3.809  16.932 -0.8704 -0.2101  0.1308
  546MPD2     C 8151   2.962   0.396  17.284  0.1065 -0.3811  0.5224
  546MPD2    C1 8152   3.041   0.297  17.233  0.4816 -0.1776  0.2374
  546MPD2    C2 8153   3.176   0.325  17.204  0.2401  0.8214 -0.5202
  546MPD2    C3 8154   3.227   0.448  17.238  0.1897 -0.5557  0.1602
  546MPD2    C4 8155   3.152   0.537  17.309 -0.2378 -0.5116 -0.0061
  546MPD2    C5 8156   3.015   0.515  17.328 -0.1771  0.0988 -0.0846
  546MPD2     H 8157   3.238   0.250  17.155  0.2128  1.2334 -1.1907
  546MPD2    H1 8158   3.196   0.631  17.339  0.0585 -1.4042  2.3742
  546MPD2    H2 8159   2.855   0.384  17.296  0.2901 -0.3382  2.1136
  546MPD2    H3 8160   2.955   0.592  17.375 -0.5635  0.0346 -0.4723
  546MPD2     N 8161   3.353   0.489  17.207 -0.2271  0.3399  0.7701
  546MPD2    H5 8162   3.386   0.573  17.254  2.5426 -0.5628  0.4618
  546MPD2    N1 8163   2.979   0.170  17.207 -0.3341 -0.2089  0.4219
  546MPD2    H7 8164   2.878   0.158  17.201 -0.3041 -0.8342  1.1218
  547TMC3    C1 8165   2.945   4.705  17.104 -0.2294  0.5915  0.5772
  547TMC3    C2 8166   2.858   0.031  17.012 -0.8697 -0.6880  0.1957
  547TMC3    C3 8167   2.761   4.679  16.963 -0.4146 -1.4166  0.1512
  547TMC3    C4 8168   2.949   4.573  17.132  0.4710  0.3474 -0.6510
  547TMC3    C5 8169   2.863   4.488  17.067  0.8615  0.5060 -0.1443
  547TMC3    C6 8170   2.762   4.539  16.981 -0.4435 -0.2563 -0.6524
  547TMC3     C 8171   3.041   0.053  17.170  0.7050  0.2860  0.3921
  547TMC3     O 8172   3.160   0.024  17.165  0.6048  0.2859  0.0377
  547TMC3     H 8173   2.847   0.137  16.994 -0.5388 -0.3511  1.9394
  547TMC3    H1 8174   3.010   4.541  17.216 -0.0023  1.2233  0.0309
  547TMC3    H2 8175   2.682   4.478  16.939 -1.7326  0.1526  1.2139
  547TMC3    C7 8176   2.843   4.356  17.129  0.1759  0.1170  1.2106
  547TMC3    C8 8177   2.680   4.731  16.853  0.1549  0.2160  0.3997
  547TMC3    O1 8178   2.891   4.344  17.245 -0.1785  0.1825  0.2359
  547TMC3    O2 8179   2.587   4.660  16.819  0.1792 -0.6484  0.1089
  548MPD2     C 8180   2.841   0.476  13.172  0.6614  0.1451  0.3703
  548MPD2    C1 8181   2.773   0.375  13.112 -0.2226  0.7534  0.2310
  548MPD2    C2 8182   2.833   0.286  13.022  0.0109  0.3602  0.1340
  548MPD2    C3 8183   2.965   0.303  12.992 -0.6041 -0.5793 -0.1034
  548MPD2    C4 8184   3.044   0.389  13.071  0.2335 -0.3733 -0.0446
  548MPD2    C5 8185   2.977   0.478  13.152  0.5895 -0.2390  0.5669
  548MPD2     H 8186   2.770   0.214  12.970  0.1854  0.9303 -0.8502
  548MPD2    H1 8187   3.151   0.397  13.059  0.1051 -0.6445 -1.3954
  548MPD2    H2 8188   2.798   0.539  13.249 -1.6080 -0.8817 -0.0482
  548MPD2    H3 8189   3.032   0.551  13.210  0.8241  0.1307 -0.1155
  548MPD2     N 8190   3.024   0.222  12.886 -0.2224  0.3639 -0.6457
  548MPD2    H5 8191   2.968   0.145  12.850 -0.4124  0.6376 -0.9457
  548MPD2    N1 8192   2.637   0.356  13.156 -0.1469  0.7824  0.2135
  548MPD2    H7 8193   2.593   0.418  13.224 -0.9855  1.1352 -0.6576
  549TMC3    C1 8194   2.430   0.252  13.178  0.3093 -0.1286  0.0927
  549TMC3    C2 8195   2.350   0.364  13.172 -0.0088  0.0463  0.6836
  549TMC3    C3 8196   2.216   0.361  13.186  0.2535  0.0846  0.3752
  549TMC3    C4 8197   2.376   0.127  13.207 -0.1157  0.1872 -0.7817
  549TMC3    C5 8198   2.236   0.128  13.203  0.3519 -0.1658  0.2810
  549TMC3    C6 8199   2.153   0.237  13.195 -0.7861  0.3832  0.2072
  549TMC3     C 8200   2.560   0.250  13.120 -0.2627 -0.3443  0.7080
  549TMC3     O 8201   2.589   0.137  13.083 -0.1825 -1.2535  0.4940
  549TMC3     H 8202   2.401   0.455  13.143 -1.3623 -0.0366 -1.9714
  549TMC3    H1 8203   2.426   0.031  13.211  0.8663  0.7967  1.4864
  549TMC3    H2 8204   2.047   0.221  13.206 -0.6510  0.4229  1.4972
  549TMC3    C7 8205   2.169   0.003  13.224  0.2223 -0.5900  0.0033
  549TMC3    C8 8206   2.132   0.475  13.184 -0.1008  0.3950 -1.0373
  549TMC3    O1 8207   2.056   0.005  13.269 -0.6567  0.2814 -0.0071
  549TMC3    O2 8208   2.020   0.459  13.136  0.2540  0.0799 -0.1993
  550TMC3    C1 8209   0.764   2.978  12.224  0.3840 -0.7230 -0.6086
  550TMC3    C2 8210   0.757   3.073  12.321 -0.8052  0.1282  0.3414
  550TMC3    C3 8211   0.725   3.201  12.284  0.7517  0.0775  0.1577
  550TMC3    C4 8212   0.765   3.012  12.090 -0.5526  0.1075 -0.4372
  550TMC3    C5 8213   0.739   3.140  12.061  0.4885 -0.0475 -0.2895
  550TMC3    C6 8214   0.722   3.236  12.154  0.5568  0.2266  0.4559
  550TMC3     C 8215   0.838   2.857  12.263 -0.1742 -0.9417  0.6169
  550TMC3     O 8216   0.867   2.838  12.383 -0.2797 -0.1033 -0.4607
  550TMC3     H 8217   0.771   3.056  12.427 -3.2825 -0.6002  0.5474
  550TMC3    H1 8218   0.761   2.937  12.012 -1.6334 -1.7131  1.3509
  550TMC3    H2 8219   0.699   3.339  12.130 -0.6504  0.1756  1.4283
  550TMC3    C7 8220   0.717   3.182  11.924  0.2910 -0.3499  0.3197
  550TMC3    C8 8221   0.668   3.295  12.380  1.3427  0.1409 -0.0557
  550TMC3    O1 8222   0.673   3.298  11.910 -0.0100 -0.1735 -0.1277
  550TMC3    O2 8223   0.601   3.376  12.317  0.0414 -0.1513 -0.6441
  551TMC3    C1 8224   3.615   1.306  13.756  0.8078 -0.8731 -0.2143
  551TMC3    C2 8225   3.702   1.377  13.682  0.5755 -0.3840  0.2383
  551TMC3    C3 8226   3.824   1.409  13.728 -0.5463  0.0137  0.3754
  551TMC3    C4 8227   3.651   1.267  13.886  0.0466  0.1055 -0.3010
  551TMC3    C5 8228   3.779   1.292  13.920  0.0661 -0.5864  0.4393
  551TMC3    C6 8229   3.871   1.358  13.846  0.5153 -0.0050 -0.2072
  551TMC3     C 8230   3.507   1.239  13.692  0.4327  0.5780 -0.4410
  551TMC3     O 8231   3.470   1.283  13.585  0.2064 -0.0417 -0.2265
  551TMC3     H 8232   3.687   1.396  13.576 -0.3443 -0.7603  0.2988
  551TMC3    H1 8233   3.584   1.214  13.952  0.0365  0.0873 -0.3258
  551TMC3    H2 8234   3.973   1.379  13.878  0.6304 -0.6259 -0.1544
  551TMC3    C7 8235   3.808   1.266  14.058 -0.4891  0.0981 -0.0410
  551TMC3    C8 8236   3.934   1.449  13.633 -0.3807  0.7830 -0.1988
  551TMC3    O1 8237   3.736   1.185  14.110  0.1381  0.2603 -0.0002
  551TMC3    O2 8238   4.050   1.423  13.665  0.4722 -0.2446  0.3587
  552MPD2     C 8239   0.746   2.736  13.971  0.5252 -0.1627  0.4639
  552MPD2    C1 8240   0.828   2.843  13.966 -0.8987 -0.3701  0.7420
  552MPD2    C2 8241   0.935   2.858  14.051 -0.2148 -0.1408 -0.4465
  552MPD2    C3 8242   0.952   2.764  14.148 -0.5187 -0.3310  0.1743
  552MPD2    C4 8243   0.864   2.665  14.166  0.1589  0.9800  0.1782
  552MPD2    C5 8244   0.757   2.649  14.077 -0.2021 -0.2807 -0.1079
  552MPD2     H 8245   1.011   2.931  14.027  1.8834 -1.4845  2.1741
  552MPD2    H1 8246   0.872   2.603  14.255 -1.8664 -1.3996 -1.2986
  552MPD2    H2 8247   0.665   2.735  13.900  0.0940 -0.3224  0.9578
  552MPD2    H3 8248   0.694   2.561  14.085 -1.2065  0.5942  1.3394
  552MPD2     N 8249   1.060   2.767  14.248 -0.0688 -0.3473  0.3051
  552MPD2    H5 8250   1.073   2.686  14.307 -0.1262 -1.8100 -1.6766
  552MPD2    N1 8251   0.826   2.938  13.862  0.1357  0.1308 -0.8037
  552MPD2    H7 8252   0.913   2.989  13.853 -1.8137  2.9694 -3.7392
  553TMC3    C1 8253   0.793   3.021  13.645  1.2954  0.1789  0.1622
  553TMC3    C2 8254   0.751   2.964  13.527  0.2395 -0.3727 -0.0110
  553TMC3    C3 8255   0.845   2.927  13.435  0.2069 -0.1046  0.2500
  553TMC3    C4 8256   0.928   3.045  13.662  0.0954 -0.0149  0.7164
  553TMC3    C5 8257   1.012   3.004  13.564  0.2309  0.1660  0.3768
  553TMC3    C6 8258   0.974   2.947  13.451 -0.0950 -0.2272 -0.6073
  553TMC3     C 8259   0.742   2.939  13.755  0.2729  0.1122 -0.3999
  553TMC3     O 8260   0.638   2.885  13.735 -0.3013 -0.3685 -0.0237
  553TMC3     H 8261   0.646   2.943  13.508 -0.2499 -0.9125  3.2618
  553TMC3    H1 8262   0.975   3.087  13.751 -0.3863  1.8428  0.0995
  553TMC3    H2 8263   1.049   2.917  13.379  0.1542  1.0109 -0.8746
  553TMC3    C7 8264   1.131   2.947  13.624 -0.3049  0.2176  0.1750
  553TMC3    C8 8265   0.809   2.885  13.300 -0.6903  0.2043  0.3447
  553TMC3    O1 8266   1.192   3.027  13.687  0.0115  1.1575  0.2754
  553TMC3    O2 8267   0.900   2.909  13.223  0.1041 -0.9134 -0.1205
  554TMC3    C1 8268   2.402   1.906  11.469  0.2480 -0.5602  0.3285
  554TMC3    C2 8269   2.330   1.866  11.360 -0.1702  0.3663  0.1882
  554TMC3    C3 8270   2.401   1.826  11.252  0.1044  0.1437  0.3664
  554TMC3    C4 8271   2.535   1.940  11.462 -0.0585  0.2376 -0.1526
  554TMC3    C5 8272   2.597   1.918  11.346 -0.1244  0.1284  0.2811
  554TMC3    C6 8273   2.534   1.854  11.242 -0.2603  1.0072 -1.3120
  554TMC3     C 8274   2.337   1.913  11.598 -0.1824  0.2108  0.2594
  554TMC3     O 8275   2.213   1.911  11.592 -0.5037  0.6271 -0.2819
  554TMC3     H 8276   2.240   1.808  11.375  0.8048 -0.5856  2.3149
  554TMC3    H1 8277   2.578   1.995  11.545 -1.0497  0.2084  0.3837
  554TMC3    H2 8278   2.580   1.829  11.147  0.4980  0.8061 -0.8959
  554TMC3    C7 8279   2.712   1.991  11.303 -0.9590  0.3505  0.3987
  554TMC3    C8 8280   2.329   1.822  11.131 -0.1582 -0.2598  0.4902
  554TMC3    O1 8281   2.735   1.993  11.181  0.1112  0.7806  0.9061
  554TMC3    O2 8282   2.387   1.784  11.031  0.1491  0.1383 -0.0419
  555TMC3    C1 8283   1.867   1.499  14.640  0.0090 -0.4112 -0.1820
  555TMC3    C2 8284   1.783   1.588  14.697 -0.2393 -0.0320 -0.1787
  555TMC3    C3 8285   1.718   1.549  14.809  0.3836 -0.0655 -0.6926
  555TMC3    C4 8286   1.888   1.373  14.687  0.2898  0.1045 -0.2564
  555TMC3    C5 8287   1.809   1.330  14.794 -0.6902  0.2456 -0.6215
  555TMC3    C6 8288   1.724   1.423  14.854  0.8805 -0.0009  0.4174
  555TMC3     C 8289   1.929   1.524  14.505  0.0082 -0.1213 -0.0581
  555TMC3     O 8290   2.019   1.448  14.472  0.0464  0.2970  0.3225
  555TMC3     H 8291   1.755   1.683  14.655  0.3923  0.5881  0.8032
  555TMC3    H1 8292   1.931   1.293  14.627  2.2674  0.2096  1.0391
  555TMC3    H2 8293   1.664   1.378  14.932 -0.5809 -0.0659 -0.7390
  555TMC3    C7 8294   1.830   1.205  14.858 -0.4033  0.2649 -1.0387
  555TMC3    C8 8295   1.644   1.652  14.881  0.6076 -0.0609 -0.2093
  555TMC3    O1 8296   1.743   1.154  14.925 -1.0060 -0.4908  0.4472
  555TMC3    O2 8297   1.636   1.760  14.832 -0.0490  0.0366  0.0829
  556MPD2     C 8298   4.252   3.521  10.472  0.2518 -0.4143 -0.0446
  556MPD2    C1 8299   4.225   3.417  10.548 -0.1237 -0.2016  0.0018
  556MPD2    C2 8300   4.187   3.302  10.483  0.7568 -0.3695  0.2594
  556MPD2    C3 8301   4.169   3.291  10.350  0.0009  0.0521  0.0356
  556MPD2    C4 8302   4.192   3.403  10.266  0.3296 -0.4209 -0.4730
  556MPD2    C5 8303   4.228   3.515  10.338 -0.1212 -0.4069 -0.1132
  556MPD2     H 8304   4.160   3.214  10.541  1.1674  0.1412  1.2321
  556MPD2    H1 8305   4.188   3.399  10.158  0.9465  1.9913 -0.5806
  556MPD2    H2 8306   4.290   3.614  10.514 -1.4003  0.6371 -0.8758
  556MPD2    H3 8307   4.263   3.610  10.301 -0.7967  0.3188  1.1153
  556MPD2     N 8308   4.152   3.163  10.301 -0.2610 -0.2984  0.5288
  556MPD2    H5 8309   4.159   3.093  10.375 -0.1139 -1.2108 -0.3416
  556MPD2    N1 8310   4.257   3.408  10.685 -0.9695  0.4606 -0.1809
  556MPD2    H7 8311   4.266   3.316  10.726 -1.0793 -0.7136 -2.7467
  557TMC3    C1 8312   4.163   2.983  10.153  0.2566  0.1822 -0.7396
  557TMC3    C2 8313   4.104   2.911  10.058  0.3890  0.4527 -0.2593
  557TMC3    C3 8314   4.142   2.784  10.029 -0.1357  0.1006 -0.3328
  557TMC3    C4 8315   4.269   2.932  10.221 -0.4086 -0.1217 -0.8934
  557TMC3    C5 8316   4.309   2.800  10.202 -0.1226  0.5282 -0.6926
  557TMC3    C6 8317   4.243   2.725  10.107  0.3351  0.4867 -0.5150
  557TMC3     C 8318   4.141   3.128  10.170 -1.2258 -0.4679  0.1920
  557TMC3     O 8319   4.106   3.192  10.071  0.2956 -0.3237  0.0137
  557TMC3     H 8320   4.032   2.964   9.996 -0.8392  0.5955  1.3081
  557TMC3    H1 8321   4.332   2.993  10.284 -0.8315  0.1917 -0.7792
  557TMC3    H2 8322   4.263   2.619  10.100  0.1831  0.3144  1.7775
  557TMC3    C7 8323   4.329   2.734  10.328 -0.2591  0.1801 -0.1423
  557TMC3    C8 8324   4.029   2.709   9.972  0.7119  0.0519 -0.1299
  557TMC3    O1 8325   4.292   2.805  10.421  0.4912 -0.3104  0.0228
  557TMC3    O2 8326   3.925   2.768   9.949  0.5629  0.8892  0.0397
  558TMC3    C1 8327   1.874   0.672  10.669 -0.1113 -0.2554 -0.8125
  558TMC3    C2 8328   1.761   0.748  10.691  0.1326  0.1691 -0.0583
  558TMC3    C3 8329   1.716   0.830  10.591 -0.1892  0.2221  0.2460
  558TMC3    C4 8330   1.932   0.686  10.547 -0.4012  0.2600  0.3158
  558TMC3    C5 8331   1.897   0.784  10.460  0.8802  0.4121 -1.0918
  558TMC3    C6 8332   1.781   0.856  10.478 -0.3616 -0.4296 -0.5279
  558TMC3     C 8333   1.962   0.627  10.775  0.2596  0.2539 -0.5373
  558TMC3     O 8334   2.084   0.620  10.747 -0.4768  0.6189  0.0567
  558TMC3     H 8335   1.706   0.729  10.783  3.4792 -0.6322  1.7406
  558TMC3    H1 8336   2.022   0.630  10.524  0.8643  2.6059 -0.5653
  558TMC3    H2 8337   1.758   0.934  10.406 -0.0232 -0.1229 -0.3051
  558TMC3    C7 8338   1.952   0.781  10.326  0.2144 -0.1343  0.0466
  558TMC3    C8 8339   1.632   0.938  10.635 -0.1001 -0.2686 -0.7290
  558TMC3    O1 8340   1.934   0.886  10.270 -0.3506 -0.1050 -1.0585
  558TMC3    O2 8341   1.538   0.982  10.566 -0.0095 -0.0240 -0.0975
  559MPD2     C 8342   2.388   1.727  10.474  0.2083 -0.2343 -0.0071
  559MPD2    C1 8343   2.309   1.710  10.585  0.5029  0.2491  0.5491
  559MPD2    C2 8344   2.380   1.698  10.709 -0.4259  0.1781 -0.2410
  559MPD2    C3 8345   2.515   1.694  10.711 -0.8587 -0.1558  0.3851
  559MPD2    C4 8346   2.591   1.707  10.599 -0.2980  0.2033  0.0737
  559MPD2    C5 8347   2.529   1.732  10.480  0.6442 -0.0384  0.2501
  559MPD2     H 8348   2.313   1.680  10.793  1.2751  1.4097  1.3599
  559MPD2    H1 8349   2.698   1.693  10.586 -0.2141  0.5888  0.3333
  559MPD2    H2 8350   2.347   1.738  10.374 -0.1127  1.0433  0.2548
  559MPD2    H3 8351   2.585   1.753  10.390 -0.1620 -0.7773 -0.4285
  559MPD2     N 8352   2.577   1.681  10.839 -0.1508  0.2274  0.5746
  559MPD2    H5 8353   2.507   1.683  10.912  0.5498  0.0411  1.2557
  559MPD2    N1 8354   2.168   1.699  10.569  0.0494 -0.2483  0.2629
  559MPD2    H7 8355   2.123   1.706  10.479 -0.9755 -1.4029  0.6911
  560TMC3    C1 8356   2.721   1.656  11.014  0.4437  0.3264 -0.7939
  560TMC3    C2 8357   2.630   1.565  11.062 -0.1062 -0.0077  0.7705
  560TMC3    C3 8358   2.644   1.512  11.189 -0.0983  0.0278 -0.3830
  560TMC3    C4 8359   2.837   1.681  11.082  0.0586  0.9375 -0.1046
  560TMC3    C5 8360   2.843   1.637  11.211  0.7134  1.1659 -0.1046
  560TMC3    C6 8361   2.746   1.555  11.266 -0.5005 -0.0936  0.0734
  560TMC3     C 8362   2.707   1.685  10.874 -0.2972 -0.4887 -0.0416
  560TMC3     O 8363   2.802   1.710  10.802  0.1673  0.0543  0.7677
  560TMC3     H 8364   2.553   1.518  11.002  1.1723 -0.2905 -0.6403
  560TMC3    H1 8365   2.903   1.757  11.043  0.1106  1.2457  0.5667
  560TMC3    H2 8366   2.762   1.527  11.369  1.9709  1.6695  0.1653
  560TMC3    C7 8367   2.962   1.641  11.301  0.0884 -0.8111 -0.3839
  560TMC3    C8 8368   2.554   1.404  11.232 -0.6739 -0.1096  0.6109
  560TMC3    O1 8369   2.952   1.597  11.412  0.4764 -0.1174  0.2728
  560TMC3    O2 8370   2.459   1.371  11.166 -0.3307  0.1390  0.0101
  561TMC3    C1 8371   0.254   0.587  11.563 -0.0021 -0.2223 -0.7105
  561TMC3    C2 8372   0.160   0.525  11.644 -0.8683 -0.6800 -0.2718
  561TMC3    C3 8373   0.093   0.602  11.737 -0.2064 -0.2855  0.1359
  561TMC3    C4 8374   0.294   0.713  11.584  0.8055 -0.6642 -0.3587
  561TMC3    C5 8375   0.234   0.785  11.683  0.1168  0.0148  0.4201
  561TMC3    C6 8376   0.125   0.738  11.749  0.2145 -0.0233 -0.1515
  561TMC3     C 8377   0.324   0.490  11.481  0.7107 -0.5833  0.3537
  561TMC3     O 8378   0.319   0.369  11.499  0.5466 -0.6051  0.1634
  561TMC3     H 8379   0.132   0.421  11.633 -3.0364  0.1544 -2.7652
  561TMC3    H1 8380   0.386   0.742  11.535  1.3334  1.1853  1.7009
  561TMC3    H2 8381   0.086   0.803  11.827 -1.2182 -2.0779  0.8159
  561TMC3    C7 8382   0.248   0.929  11.675 -0.2364 -0.5904 -0.1917
  561TMC3    C8 8383   0.034   0.525  11.844 -0.1570  0.0659 -0.2481
  561TMC3    O1 8384   0.171   0.991  11.747 -0.3529  0.2531 -0.2602
  561TMC3    O2 8385   0.041   0.401  11.840  0.4630 -0.4118  0.9723
  562TMC3    C1 8386   1.502   2.038  16.443  0.2300 -0.0782 -0.0641
  562TMC3    C2 8387   1.459   2.161  16.398  0.3779  0.1411  0.3692
  562TMC3    C3 8388   1.425   2.174  16.265 -0.1051 -0.2301  0.5306
  562TMC3    C4 8389   1.490   1.928  16.370  0.1344  0.3805  0.1948
  562TMC3    C5 8390   1.443   1.939  16.239 -0.7517  0.0840  0.1114
  562TMC3    C6 8391   1.411   2.064  16.185  0.1621  0.0312  0.2430
  562TMC3     C 8392   1.515   2.026  16.589  0.2266 -0.2323 -0.6653
  562TMC3     O 8393   1.516   2.126  16.659 -0.0204 -0.4295 -0.4938
  562TMC3     H 8394   1.476   2.245  16.465 -2.5159  0.5263  0.6210
  562TMC3    H1 8395   1.532   1.831  16.395 -1.3591 -0.1759  0.5380
  562TMC3    H2 8396   1.387   2.072  16.080 -2.7772  0.1742  0.9305
  562TMC3    C7 8397   1.454   1.824  16.154 -0.1276  0.2167  0.0509
  562TMC3    C8 8398   1.455   2.302  16.209 -0.1600 -0.0142 -0.5526
  562TMC3    O1 8399   1.441   1.841  16.035 -0.1526 -0.0865 -0.3180
  562TMC3    O2 8400   1.512   2.378  16.288 -0.2724 -0.4374 -0.2003
  563MPD2     C 8401   4.010   3.413  15.536 -0.2015  0.1162  0.6581
  563MPD2    C1 8402   4.067   3.383  15.662  0.5467 -0.2605 -0.3031
  563MPD2    C2 8403   4.178   3.302  15.655  0.2643  0.0469  0.2343
  563MPD2    C3 8404   4.241   3.277  15.536 -0.4245 -0.3037 -0.1478
  563MPD2    C4 8405   4.197   3.333  15.414 -0.8764 -0.0527  0.7489
  563MPD2    C5 8406   4.078   3.390  15.416  0.3443  0.4534  0.5820
  563MPD2     H 8407   4.233   3.272  15.744  0.5014 -0.9641 -0.2534
  563MPD2    H1 8408   4.239   3.312  15.316 -2.0212 -0.1379  0.2634
  563MPD2    H2 8409   3.927   3.483  15.532 -1.6343 -1.6777 -0.6140
  563MPD2    H3 8410   4.024   3.416  15.326  0.8960 -0.9896 -0.1666
  563MPD2     N 8411   4.355   3.197  15.548  0.4970  0.5415  0.3674
  563MPD2    H5 8412   4.376   3.168  15.643  1.3775  0.0501  0.0277
  563MPD2    N1 8413   4.000   3.437  15.782  0.8219  0.8710 -0.3069
  563MPD2    H7 8414   3.917   3.494  15.770  0.0379 -0.2753 -0.3544
  564TMC3    C1 8415   3.982   3.429  16.023 -0.1878  0.3786  0.2639
  564TMC3    C2 8416   3.845   3.427  16.003 -0.1741 -0.1203 -0.9254
  564TMC3    C3 8417   3.770   3.343  16.083  0.2774  0.2864  0.5932
  564TMC3    C4 8418   4.040   3.370  16.134 -0.1368  0.3807  0.2638
  564TMC3    C5 8419   3.960   3.293  16.224  1.1092  0.3373 -0.7455
  564TMC3    C6 8420   3.831   3.294  16.200  0.4498 -1.2637 -0.2177
  564TMC3     C 8421   4.068   3.431  15.903 -0.3613  0.0305 -0.2383
  564TMC3     O 8422   4.181   3.395  15.924 -0.4292  0.5170 -0.1222
  564TMC3     H 8423   3.797   3.471  15.917  0.1032 -1.0637 -1.5574
  564TMC3    H1 8424   4.144   3.381  16.160  0.2172  0.0857 -1.0312
  564TMC3    H2 8425   3.782   3.224  16.268 -2.4381 -0.0909 -1.0797
  564TMC3    C7 8426   4.003   3.158  16.221 -0.9115  0.1934 -0.0137
  564TMC3    C8 8427   3.734   3.226  16.011  0.2113 -0.0894 -0.1615
  564TMC3    O1 8428   3.954   3.078  16.297 -0.6100  0.2521 -0.0780
  564TMC3    O2 8429   3.683   3.132  16.079 -0.1104 -0.4192  0.3809
  565TMC3    C1 8430   4.555   4.350  10.470  0.6502  0.6929  0.6475
  565TMC3    C2 8431   4.434   4.322  10.527  0.0004 -0.7466  0.4436
  565TMC3    C3 8432   4.327   4.283  10.452  0.0055  0.1665 -0.3340
  565TMC3    C4 8433   4.568   4.314  10.341  0.6964 -0.4061 -0.6467
  565TMC3    C5 8434   4.460   4.286  10.259  0.0818 -0.6986  0.7632
  565TMC3    C6 8435   4.338   4.276  10.314 -0.2835 -1.0575 -0.5472
  565TMC3     C 8436   4.679   4.358  10.538 -0.0218  0.1500  0.2546
  565TMC3     O 8437   0.037   4.321  10.468 -0.0937  0.3205  0.4968
  565TMC3     H 8438   4.420   4.319  10.634 -3.2788  2.1859  0.1339
  565TMC3    H1 8439   4.660   4.336  10.288  0.5227  1.6075 -0.1391
  565TMC3    H2 8440   4.258   4.241  10.251  0.0189 -1.2663 -0.8126
  565TMC3    C7 8441   4.484   4.229  10.130  0.7996 -0.2482 -0.4707
  565TMC3    C8 8442   4.206   4.255  10.525 -0.6339 -0.3271 -0.6364
  565TMC3    O1 8443   4.392   4.170  10.078  0.0015  0.3323  0.2393
  565TMC3    O2 8444   4.212   4.237  10.645 -0.0607  0.6814 -0.2233
  566MPD2     C 8445   1.226   0.649  13.865 -0.2875  0.1989  0.1208
  566MPD2    C1 8446   1.211   0.778  13.888  0.1437 -0.2542 -0.0915
  566MPD2    C2 8447   1.082   0.836  13.876  0.4736 -0.2148  0.7110
  566MPD2    C3 8448   0.969   0.764  13.840 -0.3221 -0.4963  0.1329
  566MPD2    C4 8449   0.983   0.630  13.828 -0.5550 -0.0763  0.2110
  566MPD2    C5 8450   1.113   0.581  13.839  0.7169  0.4398 -0.0164
  566MPD2     H 8451   1.077   0.944  13.887  0.2500 -0.2267  0.7235
  566MPD2    H1 8452   0.900   0.571  13.792 -0.0403  0.1738 -1.3835
  566MPD2    H2 8453   1.321   0.599  13.858  0.5281  1.6795  0.5520
  566MPD2    H3 8454   1.128   0.478  13.808  0.2367 -0.2136  1.9308
  566MPD2     N 8455   0.847   0.821  13.809 -0.3575  0.6900 -0.0331
  566MPD2    H5 8456   0.769   0.760  13.832 -0.3412  0.6765 -0.0135
  566MPD2    N1 8457   1.331   0.851  13.907 -0.0371  0.0979 -0.3230
  566MPD2    H7 8458   1.415   0.794  13.916 -0.2604 -0.3596 -1.1366
  567TMC3    C1 8459   1.487   1.018  13.919 -0.3170  0.6991 -0.7894
  567TMC3    C2 8460   1.540   1.107  13.834  0.2536 -0.0785 -0.5269
  567TMC3    C3 8461   1.673   1.120  13.831  0.5056  0.0492 -0.7757
  567TMC3    C4 8462   1.569   0.927  13.986 -0.0071 -0.5033  0.0388
  567TMC3    C5 8463   1.711   0.943  13.977 -0.0826  0.3396  0.3072
  567TMC3    C6 8464   1.759   1.038  13.895  0.2312 -0.2748 -1.0193
  567TMC3     C 8465   1.346   0.987  13.899  0.3241  0.0088 -0.1235
  567TMC3     O 8466   1.256   1.073  13.899  0.3054 -0.4171  0.2682
  567TMC3     H 8467   1.466   1.168  13.784  0.2867  1.0059  0.7508
  567TMC3    H1 8468   1.521   0.851  14.046 -0.9422 -1.4627 -1.9203
  567TMC3    H2 8469   1.866   1.051  13.883  0.4058  0.2398  1.1300
  567TMC3    C7 8470   1.775   0.927  14.111  0.0204  0.5286  0.4576
  567TMC3    C8 8471   1.716   1.245  13.757 -0.5233  0.6706  0.8364
  567TMC3    O1 8472   1.893   0.894  14.111  0.1140 -0.2600  0.2935
  567TMC3    O2 8473   1.628   1.313  13.712  0.4302  0.3153 -0.0509
  568MPD2     C 8474   3.571   1.722  15.972 -0.4759 -0.5015 -0.2492
  568MPD2    C1 8475   3.611   1.797  16.078 -0.6091 -0.7471 -0.8622
  568MPD2    C2 8476   3.602   1.935  16.075 -0.1718 -0.1080 -0.3276
  568MPD2    C3 8477   3.545   2.000  15.973 -0.5529 -0.5531 -0.1466
  568MPD2    C4 8478   3.490   1.919  15.875  0.9629  0.4217  0.3468
  568MPD2    C5 8479   3.510   1.787  15.870 -0.3971  0.4712  0.2641
  568MPD2     H 8480   3.633   1.997  16.158 -0.6628  0.8815 -0.8844
  568MPD2    H1 8481   3.456   1.966  15.783 -0.3095 -1.1043  0.0234
  568MPD2    H2 8482   3.593   1.616  15.965  2.1177  0.1451 -1.7114
  568MPD2    H3 8483   3.474   1.730  15.785  1.5651  0.6217 -0.6598
  568MPD2     N 8484   3.537   2.145  15.968 -0.1345  1.2244  0.9287
  568MPD2    H5 8485   3.573   2.195  16.048  0.3807  1.0017  0.8345
  568MPD2    N1 8486   3.664   1.718  16.192 -0.7758 -0.2301 -0.6207
  568MPD2    H7 8487   3.676   1.618  16.179  2.1731  0.2257 -1.3573
  569TMC3    C1 8488   3.482   2.368  15.895 -0.0283 -0.5174  0.3848
  569TMC3    C2 8489   3.490   2.397  16.030  0.1712 -0.5292  0.6048
  569TMC3    C3 8490   3.578   2.492  16.070  0.3727 -0.7712 -0.2865
  569TMC3    C4 8491   3.531   2.449  15.802 -0.8971  0.2810  0.0705
  569TMC3    C5 8492   3.627   2.536  15.843  0.1715  0.2607 -0.0166
  569TMC3    C6 8493   3.648   2.560  15.976 -0.8235 -0.0226 -0.1493
  569TMC3     C 8494   3.503   2.223  15.862 -0.2977  1.1269 -0.0737
  569TMC3     O 8495   3.472   2.194  15.749 -0.4097 -0.1115 -0.0856
  569TMC3     H 8496   3.423   2.340  16.093 -1.7512  0.7217 -0.3056
  569TMC3    H1 8497   3.527   2.416  15.699  0.4122 -1.8465  0.7091
  569TMC3    H2 8498   3.737   2.618  16.000 -0.8450 -1.0232  2.3520
  569TMC3    C7 8499   3.672   2.640  15.752  0.1127  0.1868 -0.0901
  569TMC3    C8 8500   3.638   2.455  16.196  0.5153 -0.3041 -0.4193
  569TMC3    O1 8501   3.672   2.616  15.630 -0.0868 -0.0958  0.1549
  569TMC3    O2 8502   3.611   2.339  16.220 -0.3409  0.2925  0.2534
  570TMC3    C1 8503   2.639   1.263  16.001 -0.4926 -0.6468 -0.2611
  570TMC3    C2 8504   2.670   1.298  15.872  0.3150 -0.4331  0.0190
  570TMC3    C3 8505   2.755   1.410  15.849 -0.2658 -0.4729  0.8832
  570TMC3    C4 8506   2.694   1.340  16.105 -0.4810 -0.3041  0.4807
  570TMC3    C5 8507   2.766   1.451  16.081  0.2081  0.0996  0.3678
  570TMC3    C6 8508   2.791   1.489  15.954 -0.2918  0.2238 -0.4431
  570TMC3     C 8509   2.545   1.155  16.022  0.3384  0.5614 -0.7702
  570TMC3     O 8510   2.466   1.124  15.932  0.7342 -0.1184  0.5499
  570TMC3     H 8511   2.638   1.239  15.787  2.5881 -1.5339 -0.0597
  570TMC3    H1 8512   2.662   1.324  16.207  1.8536  1.3414  1.4615
  570TMC3    H2 8513   2.859   1.572  15.937  0.7317 -0.5465 -0.1414
  570TMC3    C7 8514   2.859   1.488  16.185  0.5453 -0.1505  0.5496
  570TMC3    C8 8515   2.863   1.403  15.751 -0.2219 -0.1108  0.4424
  570TMC3    O1 8516   2.862   1.409  16.277  0.8137  0.4676  0.2712
  570TMC3    O2 8517   2.946   1.491  15.750 -0.0939 -0.0423  0.3872
  571MPD2     C 8518   1.359   2.471  17.633  0.2167  0.3770  0.7662
  571MPD2    C1 8519   1.244   2.421  17.695  0.0300 -0.6860  0.1463
  571MPD2    C2 8520   1.201   2.477   0.066 -0.6447 -0.0707 -0.6381
  571MPD2    C3 8521   1.270   2.588   0.117  0.1384 -0.2119 -0.5478
  571MPD2    C4 8522   1.365   2.647   0.038 -0.1734 -0.5646 -0.3560
  571MPD2    C5 8523   1.423   2.583  17.680 -0.4092 -0.3508  0.5640
  571MPD2     H 8524   1.122   2.432   0.125  0.4183 -1.6743 -0.4187
  571MPD2    H1 8525   1.406   2.746   0.054  1.2392 -1.1980 -0.0504
  571MPD2    H2 8526   1.402   2.418  17.549 -2.8735 -0.8516 -0.0308
  571MPD2    H3 8527   1.499   2.636  17.625 -0.8231 -0.9758 -0.5951
  571MPD2     N 8528   1.239   2.658   0.230  0.6655  0.2848  0.4159
  571MPD2    H5 8529   1.289   2.743   0.252 -1.2511  1.2314  1.1126
  571MPD2    N1 8530   1.175   2.323  17.626 -0.7156 -0.3620 -0.6868
  571MPD2    H7 8531   1.212   2.300  17.534 -1.0282 -0.5344 -0.7699
  572TMC3    C1 8532   1.096   2.742   0.392  0.0500 -0.4397  0.0030
  572TMC3    C2 8533   1.014   2.714   0.496 -0.0682 -0.5498  0.0663
  572TMC3    C3 8534   0.932   2.819   0.535  0.6722  0.7113 -0.3731
  572TMC3    C4 8535   1.121   2.868   0.345 -0.3339 -0.6283  0.1119
  572TMC3    C5 8536   1.043   2.970   0.393  0.9558  0.4591 -0.0722
  572TMC3    C6 8537   0.941   2.944   0.479 -0.4589  0.0387  0.1984
  572TMC3     C 8538   1.135   2.624   0.308 -0.3036  0.4492  0.0166
  572TMC3     O 8539   1.071   2.519   0.320  0.0431 -0.4612  0.9364
  572TMC3     H 8540   0.997   2.614   0.532 -1.0189  0.0467  1.3097
  572TMC3    H1 8541   1.195   2.879   0.266 -1.0224  0.6726 -0.3602
  572TMC3    H2 8542   0.874   3.026   0.505 -3.2821 -1.8452 -1.0652
  572TMC3    C7 8543   1.052   3.105   0.333 -0.2704  0.1700  1.0410
  572TMC3    C8 8544   0.842   2.785   0.646  0.3670 -0.1872 -0.0982
  572TMC3    O1 8545   1.067   3.100   0.210  0.1671  0.2312  0.2992
  572TMC3    O2 8546   0.835   2.668   0.685  0.0434  0.0115 -0.1348
  573MPD2     C 8547   2.573   3.528   0.639 -0.0113  0.3408 -1.3069
  573MPD2    C1 8548   2.441   3.545   0.597 -0.1471  0.3252 -0.1305
  573MPD2    C2 8549   2.399   3.485   0.476  0.0385  0.3881  0.3945
  573MPD2    C3 8550   2.484   3.402   0.409 -0.3543  0.4079 -0.6745
  573MPD2    C4 8551   2.606   3.374   0.464 -0.0639  0.3942 -0.1591
  573MPD2    C5 8552   2.650   3.445   0.569  0.1431 -0.1296  0.0022
  573MPD2     H 8553   2.303   3.508   0.431  0.3523  1.1201  0.0848
  573MPD2    H1 8554   2.682   3.314   0.416 -0.0130 -1.5832  2.4228
  573MPD2    H2 8555   2.618   3.572   0.728  2.0180 -2.3209 -1.0024
  573MPD2    H3 8556   2.750   3.420   0.603 -0.3429 -0.0716  1.4961
  573MPD2     N 8557   2.459   3.332   0.287 -0.3534  0.4068  0.7473
  573MPD2    H5 8558   2.533   3.276   0.245 -0.8763 -1.4857  2.3585
  573MPD2    N1 8559   2.359   3.645   0.675 -0.5882  0.0045  0.5478
  573MPD2    H7 8560   2.408   3.688   0.753  2.0690 -0.7204 -0.6993
  574TMC3    C1 8561   2.324   3.251   0.106  0.4205 -0.1932  0.0098
  574TMC3    C2 8562   2.203   3.259   0.044  0.1966 -0.2159 -0.1052
  574TMC3    C3 8563   2.177   3.157  17.701  0.9898  0.0776  0.2029
  574TMC3    C4 8564   2.417   3.155   0.080  0.2620 -0.5063 -0.1871
  574TMC3    C5 8565   2.378   3.047   0.003 -0.8859 -0.6167 -0.1924
  574TMC3    C6 8566   2.262   3.051  17.686 -0.2488  0.5873  0.2699
  574TMC3     C 8567   2.342   3.344   0.220  0.5077 -0.2966  0.4664
  574TMC3     O 8568   2.246   3.417   0.236 -0.2270  0.1172 -0.2407
  574TMC3     H 8569   2.127   3.327   0.081  2.5718  1.4258  1.8253
  574TMC3    H1 8570   2.510   3.139   0.133 -0.2805 -0.2159  0.8514
  574TMC3    H2 8571   2.236   2.978  17.609  0.1426  0.4851  0.2381
  574TMC3    C7 8572   2.478   2.976  17.673  0.4889 -0.0667 -0.9514
  574TMC3    C8 8573   2.047   3.156  17.644 -0.5452  0.4491  0.1423
  574TMC3    O1 8574   2.453   2.861  17.633  0.5634 -0.0813  0.0418
  574TMC3    O2 8575   2.011   3.049  17.599  0.5175  0.2938 -0.4589
  575TMC3    C1 8576   3.781   3.992  11.239  0.3687 -0.2657  0.0701
  575TMC3    C2 8577   3.679   3.900  11.236  0.6124 -0.5944 -0.2108
  575TMC3    C3 8578   3.602   3.892  11.120  0.3231  0.0637  0.4128
  575TMC3    C4 8579   3.836   4.044  11.125 -0.2808  0.1339  0.2541
  575TMC3    C5 8580   3.767   4.018  11.006  0.2217  0.2935 -0.1961
  575TMC3    C6 8581   3.640   3.960  11.009 -0.4378  0.1823 -0.1655
  575TMC3     C 8582   3.841   4.011  11.375 -0.2382 -0.1148  0.2828
  575TMC3     O 8583   3.830   3.928  11.465 -0.1582  0.1762  0.3881
  575TMC3     H 8584   3.654   3.842  11.323 -0.2492  1.9938  1.2634
  575TMC3    H1 8585   3.930   4.097  11.133  0.4364 -0.9520 -0.8957
  575TMC3    H2 8586   3.585   3.949  10.917 -0.5484 -2.3104  0.1993
  575TMC3    C7 8587   3.836   4.062  10.881  0.2728  0.5212  0.0113
  575TMC3    C8 8588   3.471   3.832  11.119  0.2221 -0.0137 -0.5283
  575TMC3    O1 8589   3.951   4.100  10.891 -0.2908 -0.2088  0.3191
  575TMC3    O2 8590   3.422   3.825  11.012 -0.0108  0.1024 -0.3621
  576MPD2     C 8591   4.152   1.047  13.102  0.6879  0.2437  0.0377
  576MPD2    C1 8592   4.130   1.127  12.997  0.4783 -0.0005  0.1656
  576MPD2    C2 8593   4.038   1.228  13.018  0.3929  0.5063  0.1619
  576MPD2    C3 8594   3.967   1.246  13.138  0.4013  0.1952  0.2055
  576MPD2    C4 8595   3.987   1.157  13.240  0.0896 -0.4114 -0.1191
  576MPD2    C5 8596   4.075   1.050  13.217  0.0048 -0.2944 -0.1576
  576MPD2     H 8597   4.014   1.289  12.931 -1.1780 -0.0369  0.2208
  576MPD2    H1 8598   3.936   1.151  13.336 -1.1974  0.3294 -0.7551
  576MPD2    H2 8599   4.212   0.957  13.101 -0.9786 -0.8971  1.0646
  576MPD2    H3 8600   4.094   0.964  13.280 -1.4512 -1.7269 -1.6956
  576MPD2     N 8601   3.867   1.349  13.141  0.2349  0.1159 -0.4303
  576MPD2    H5 8602   3.863   1.407  13.058  0.2007 -0.9607 -1.1891
  576MPD2    N1 8603   4.192   1.113  12.866  0.4096  0.4906  0.0822
  576MPD2    H7 8604   4.159   1.176  12.795 -1.1626 -1.9196 -1.3499
  577TMC3    C1 8605   4.300   1.006  12.683  0.9438 -0.6767  0.1505
  577TMC3    C2 8606   4.303   0.890  12.617  0.1175  0.7864 -0.2882
  577TMC3    C3 8607   4.374   0.892  12.499 -0.3618 -0.0521 -0.3493
  577TMC3    C4 8608   4.344   1.127  12.635  0.5604  0.3932  0.7684
  577TMC3    C5 8609   4.392   1.121  12.508 -0.5426  0.0083  0.3452
  577TMC3    C6 8610   4.419   1.006  12.434  0.0400  0.0215  0.0738
  577TMC3     C 8611   4.260   1.001  12.821 -0.1257 -0.5021 -0.0875
  577TMC3     O 8612   4.289   0.894  12.869 -0.5338  0.1123 -0.6113
  577TMC3     H 8613   4.255   0.803  12.660 -0.2217  1.2192  0.2129
  577TMC3    H1 8614   4.349   1.220  12.690  0.9713  2.0769 -2.1054
  577TMC3    H2 8615   4.474   1.017  12.342 -0.8168 -3.5074 -0.8578
  577TMC3    C7 8616   4.415   1.248  12.448 -0.1134  0.0851  0.0856
  577TMC3    C8 8617   4.413   0.771  12.443 -0.2485 -0.2248 -0.2730
  577TMC3    O1 8618   4.397   1.345  12.513  0.5697 -0.5636 -0.4389
  577TMC3    O2 8619   4.414   0.681  12.522  0.6532 -0.4015 -0.2263
  578MPD2     C 8620   3.033   1.305   0.586  0.0259 -0.3182  0.4154
  578MPD2    C1 8621   3.138   1.239   0.522  0.4586  0.3348  0.1133
  578MPD2    C2 8622   3.239   1.184   0.598 -0.0578  0.5886  0.2574
  578MPD2    C3 8623   3.241   1.204   0.739 -0.3063 -0.3871 -0.1853
  578MPD2    C4 8624   3.132   1.273   0.802 -0.0016  1.0463 -0.6230
  578MPD2    C5 8625   3.032   1.318   0.725 -0.3239  0.8699 -0.4487
  578MPD2     H 8626   3.325   1.131   0.559  0.2489  0.8497  0.5692
  578MPD2    H1 8627   3.127   1.287   0.909  1.2252 -2.8317 -0.0573
  578MPD2    H2 8628   2.950   1.351   0.535  1.3212  1.2668 -0.2950
  578MPD2    H3 8629   2.956   1.376   0.777 -1.4473 -1.9814  1.0747
  578MPD2     N 8630   3.342   1.140   0.814  0.2139  0.0595  0.3643
  578MPD2    H5 8631   3.410   1.086   0.761 -0.7664 -1.2855  0.4738
  578MPD2    N1 8632   3.145   1.228   0.383 -0.1203 -0.2084 -0.1393
  578MPD2    H7 8633   3.073   1.273   0.327 -0.0159  0.0109 -0.0994
  579TMC3    C1 8634   3.459   1.044   0.980 -0.4070  0.2607  0.4748
  579TMC3    C2 8635   3.549   1.078   1.073  0.4987  0.4471 -0.3014
  579TMC3    C3 8636   3.634   0.982   1.116 -0.7102  0.4309 -0.2432
  579TMC3    C4 8637   3.436   0.913   0.944 -0.0556 -0.8652  0.2374
  579TMC3    C5 8638   3.521   0.819   0.996  0.3436  0.9080  0.0450
  579TMC3    C6 8639   3.631   0.851   1.072  0.1074 -0.5921 -0.1560
  579TMC3     C 8640   3.357   1.135   0.948  0.4007 -0.4660 -0.5909
  579TMC3     O 8641   3.321   1.211   1.035 -0.8279 -0.1618 -0.6599
  579TMC3     H 8642   3.564   1.182   1.100  1.4484  0.2303  0.0220
  579TMC3    H1 8643   3.346   0.901   0.885 -0.2258  1.3859  0.0531
  579TMC3    H2 8644   3.698   0.774   1.110 -0.9839 -1.2591  0.4216
  579TMC3    C7 8645   3.516   0.681   0.948 -1.1577  0.3309  0.2966
  579TMC3    C8 8646   3.747   1.036   1.192  0.1245  0.0747  0.0126
  579TMC3    O1 8647   3.600   0.604   0.991  0.3848 -0.5761  0.3618
  579TMC3    O2 8648   3.713   1.120   1.272 -0.1698 -0.0707  0.2424
  580TMC3    C1 8649   1.650   4.685  12.875  0.7853  0.3359 -0.5145
  580TMC3    C2 8650   1.759   0.021  12.915 -0.4482  0.1125  1.3005
  580TMC3    C3 8651   1.877   4.701  12.889 -0.1532  0.8029 -0.3816
  580TMC3    C4 8652   1.646   4.555  12.830 -0.2227  0.7649 -0.0448
  580TMC3    C5 8653   1.772   4.500  12.817  0.2814  0.3429 -0.4475
  580TMC3    C6 8654   1.884   4.573  12.842 -0.3348 -0.3682  0.1294
  580TMC3     C 8655   1.538   0.027  12.815 -0.1749 -0.0162  0.1726
  580TMC3     O 8656   1.424   4.727  12.830 -0.4183  1.0491 -0.4121
  580TMC3     H 8657   1.756   0.123  12.952  0.6735  0.1108  1.3944
  580TMC3    H1 8658   1.565   4.505  12.779  1.3779 -2.0365  0.1640
  580TMC3    H2 8659   1.979   4.520  12.845  0.4338  1.1385  2.4704
  580TMC3    C7 8660   1.799   4.384  12.738 -1.0794  0.2386  0.2112
  580TMC3    C8 8661   1.998   0.050  12.898 -0.3566  0.0466  0.1903
  580TMC3    O1 8662   1.893   4.400  12.659  0.5895  0.9114  0.3650
  580TMC3    O2 8663   1.982   0.162  12.943 -0.0633 -0.4969  0.2102
  581MPD2     C 8664   4.536   3.940  14.821  0.0740  0.4882  0.3449
  581MPD2    C1 8665   4.574   4.074  14.839 -0.4084  0.5578 -0.0289
  581MPD2    C2 8666   4.480   4.176  14.853  1.2085  0.3714  1.0094
  581MPD2    C3 8667   4.347   4.144  14.862  0.5575 -0.0395  0.2260
  581MPD2    C4 8668   4.312   4.015  14.842  0.0729  0.3006 -0.2444
  581MPD2    C5 8669   4.403   3.921  14.825 -0.3269  0.6585  0.6862
  581MPD2     H 8670   4.511   4.279  14.856  2.3994  0.0091  1.0484
  581MPD2    H1 8671   4.208   3.984  14.831  0.0705  0.3843 -0.4564
  581MPD2    H2 8672   4.614   3.865  14.810  0.2409  0.6694  0.3077
  581MPD2    H3 8673   4.373   3.818  14.809  3.2253 -0.5808  1.8457
  581MPD2     N 8674   4.250   4.246  14.866  0.6678 -0.0852  0.3360
  581MPD2    H5 8675   4.284   4.340  14.851 -1.2490  1.0161  2.9235
  581MPD2    N1 8676   4.712   4.099  14.838 -0.4042  0.5441  0.3246
  581MPD2    H7 8677   0.032   4.018  14.816 -0.9347  0.7371 -1.7070
  582TMC3    C1 8678   0.179   4.190  14.893 -0.2525  0.6769  0.5953
  582TMC3    C2 8679   0.250   4.269  14.981 -0.3602 -0.2956 -0.0414
  582TMC3    C3 8680   0.374   4.234  15.022  0.5605 -0.7666  0.5088
  582TMC3    C4 8681   0.238   4.078  14.835  0.1916  0.0123 -0.0938
  582TMC3    C5 8682   0.364   4.048  14.874 -0.0395  0.0592  0.0791
  582TMC3    C6 8683   0.430   4.120  14.968 -0.5406 -0.2614  0.7118
  582TMC3     C 8684   0.039   4.209  14.886  0.2225  0.2358  0.8525
  582TMC3     O 8685   4.731   4.316  14.924  0.7059  0.6669  0.1583
  582TMC3     H 8686   0.200   4.355  15.025  0.3154  1.1288 -2.0611
  582TMC3    H1 8687   0.199   4.019  14.753  0.2628 -0.8517  0.4993
  582TMC3    H2 8688   0.529   4.086  14.998 -0.9942 -1.2131  1.1069
  582TMC3    C7 8689   0.410   3.910  14.856  0.7992  0.2963  0.7136
  582TMC3    C8 8690   0.404   4.260  15.158 -0.4214 -0.0661 -0.3937
  582TMC3    O1 8691   0.513   3.888  14.798 -0.1201 -0.1077  0.0931
  582TMC3    O2 8692   0.307   4.260  15.233 -0.0980  0.5498 -0.0578
  583MPD2     C 8693   0.026   1.340  16.464  1.2696 -0.4061  0.7571
  583MPD2    C1 8694   4.713   1.449  16.410 -0.1186  0.4322  0.0588
  583MPD2    C2 8695   4.614   1.521  16.474 -0.2542  0.4433  0.2383
  583MPD2    C3 8696   4.565   1.479  16.594  0.4576  0.0632  0.5656
  583MPD2    C4 8697   4.613   1.358  16.646 -0.5206 -0.2210 -0.0476
  583MPD2    C5 8698   4.707   1.284  16.577 -0.1146 -0.0467 -0.4534
  583MPD2     H 8699   4.563   1.599  16.419 -1.3823  0.5916  1.4729
  583MPD2    H1 8700   4.568   1.327  16.739  2.8840 -0.5457  1.4537
  583MPD2    H2 8701   0.123   1.299  16.440  0.9350 -0.6653 -0.1360
  583MPD2    H3 8702   0.013   1.194  16.621  0.4253 -0.2662 -1.4082
  583MPD2     N 8703   4.465   1.557  16.663 -0.3305  0.0505 -0.5858
  583MPD2    H5 8704   4.420   1.628  16.607  0.6109 -0.4649 -1.9911
  583MPD2    N1 8705   0.014   1.488  16.277  0.3740 -0.0360  0.0307
  583MPD2    H7 8706   4.693   1.553  16.225  0.4376 -0.2708 -0.3366
  584TMC3    C1 8707   4.374   1.671  16.833 -0.6865 -1.0893  0.5765
  584TMC3    C2 8708   4.437   1.788  16.783  0.4281 -0.0965 -0.2139
  584TMC3    C3 8709   4.406   1.903  16.854 -0.2409  0.4727  0.5873
  584TMC3    C4 8710   4.290   1.673  16.933 -0.1235 -0.4086  0.2172
  584TMC3    C5 8711   4.253   1.788  16.997 -1.2831 -0.0723 -0.2065
  584TMC3    C6 8712   4.315   1.902  16.959 -0.0314 -0.4393 -0.3422
  584TMC3     C 8713   4.430   1.547  16.794  0.5599  0.8741 -0.1109
  584TMC3     O 8714   4.450   1.464  16.878  0.5153 -0.0613  0.2067
  584TMC3     H 8715   4.495   1.780  16.691 -0.1932 -1.0656 -0.5198
  584TMC3    H1 8716   4.267   1.575  16.974  0.0264  0.1327  1.5907
  584TMC3    H2 8717   4.299   1.995  17.013 -1.5234 -0.4900 -0.6996
  584TMC3    C7 8718   4.151   1.773  17.100 -0.2865  0.4914  0.2482
  584TMC3    C8 8719   4.461   2.032  16.806  0.4732  0.0376 -0.3026
  584TMC3    O1 8720   4.118   1.660  17.131  0.2303 -0.3310 -0.6179
  584TMC3    O2 8721   4.499   2.033  16.691  0.1206 -0.2726 -0.1509
  585MPD2     C 8722   4.604   0.477   0.476  0.4742 -0.7587  0.3254
  585MPD2    C1 8723   4.675   0.396   0.386 -0.3853 -0.0337  0.1090
  585MPD2    C2 8724   4.611   0.358   0.269  0.4459  0.4220  0.1433
  585MPD2    C3 8725   4.483   0.407   0.237 -0.0403 -0.2653  0.1749
  585MPD2    C4 8726   4.419   0.495   0.322  0.3874  0.0659  0.1362
  585MPD2    C5 8727   4.482   0.532   0.441 -0.2393  0.4713  0.7794
  585MPD2     H 8728   4.669   0.294   0.203 -0.8788  0.0291 -0.6397
  585MPD2    H1 8729   4.322   0.536   0.296  1.4005  1.7260 -0.9526
  585MPD2    H2 8730   4.645   0.501   0.574 -2.9999 -1.3707  1.9522
  585MPD2    H3 8731   4.416   0.583   0.511  2.3276  2.9793  1.3964
  585MPD2     N 8732   4.417   0.375   0.113 -0.3899  0.1079  0.2532
  585MPD2    H5 8733   4.319   0.401   0.102 -0.7020 -1.7482 -1.4382
  585MPD2    N1 8734   0.067   0.357   0.414  0.4590 -0.3969 -0.2821
  585MPD2    H7 8735   0.118   0.417   0.479 -0.4472  0.9072 -0.7656
  586TMC3    C1 8736   4.400   0.268  17.637  0.2290  0.4669 -0.1141
  586TMC3    C2 8737   4.472   0.267  17.521  0.6967 -0.4015 -0.2874
  586TMC3    C3 8738   4.394   0.282  17.412 -0.6143  0.3881 -0.4251
  586TMC3    C4 8739   4.263   0.268  17.647 -0.0419 -0.3269 -1.2680
  586TMC3    C5 8740   4.192   0.299  17.534 -0.6613 -0.1296 -0.2782
  586TMC3    C6 8741   4.256   0.304  17.415  0.0354 -0.3365  0.5690
  586TMC3     C 8742   4.480   0.319   0.003  0.1980 -0.5054  0.5443
  586TMC3     O 8743   4.603   0.316  17.725  0.5720  0.1210 -0.4778
  586TMC3     H 8744   4.577   0.241  17.512  1.1161  1.5730 -1.1261
  586TMC3    H1 8745   4.220   0.269   0.001  1.0500 -0.9298 -0.7957
  586TMC3    H2 8746   4.199   0.286  17.325 -1.2182 -0.2163  1.3349
  586TMC3    C7 8747   4.057   0.248  17.526 -0.0722  0.0887  1.1094
  586TMC3    C8 8748   4.446   0.233  17.293 -0.1924 -0.5725  0.0019
  586TMC3    O1 8749   4.055   0.129  17.548 -0.5504  0.0583  0.0379
  586TMC3    O2 8750   4.530   0.147  17.305 -0.3411  0.3847 -0.0077
  587TMC3    C1 8751   1.486   3.936  16.381 -0.3324  0.3090 -0.3275
  587TMC3    C2 8752   1.600   3.991  16.338 -0.4858 -0.6961 -0.3602
  587TMC3    C3 8753   1.677   4.052  16.431  0.9925  0.0464 -0.5063
  587TMC3    C4 8754   1.435   3.945  16.514 -0.0467 -0.2247  0.8092
  587TMC3    C5 8755   1.515   4.014  16.598  0.0096  0.3114  0.7939
  587TMC3    C6 8756   1.631   4.065  16.559  0.1002  0.2122  0.4074
  587TMC3     C 8757   1.437   3.826  16.294  0.8425 -0.4008 -0.4516
  587TMC3     O 8758   1.495   3.819  16.186  0.0299  0.7505 -0.4811
  587TMC3     H 8759   1.616   3.999  16.231 -0.4031 -1.7408 -0.4255
  587TMC3    H1 8760   1.331   3.931  16.541 -0.4576  1.3122  0.0431
  587TMC3    H2 8761   1.685   4.126  16.630 -0.9050  0.6819  0.7802
  587TMC3    C7 8762   1.479   4.018  16.738 -0.3872  0.2294  0.0968
  587TMC3    C8 8763   1.760   4.165  16.379  0.7770  0.1936 -0.0526
  587TMC3    O1 8764   1.503   4.125  16.792 -0.2043 -0.4882 -0.5892
  587TMC3    O2 8765   1.811   4.153  16.269 -0.3967  0.4343  0.0601
  588TMC3    C1 8766   3.526   1.790  10.090  0.2060  0.2480  0.0890
  588TMC3    C2 8767   3.489   1.669  10.136 -0.1329  0.2258  0.1519
  588TMC3    C3 8768   3.584   1.574  10.171  0.0777 -0.3531  0.3072
  588TMC3    C4 8769   3.659   1.831  10.093  0.8376 -0.3708  0.7583
  588TMC3    C5 8770   3.751   1.731  10.133  0.0194 -0.3598  0.2602
  588TMC3    C6 8771   3.722   1.599  10.164  0.1479  0.3467  0.0215
  588TMC3     C 8772   3.422   1.890  10.073  0.2296  0.0925  0.1803
  588TMC3     O 8773   3.306   1.856  10.068  0.0826  0.6633 -0.4101
  588TMC3     H 8774   3.383   1.646  10.141 -0.6176  3.1259  3.1506
  588TMC3    H1 8775   3.688   1.923  10.045 -1.3159 -0.0568  0.0842
  588TMC3    H2 8776   3.804   1.544  10.208 -0.2382  1.5959  2.3109
  588TMC3    C7 8777   3.885   1.783  10.150 -0.4917 -0.1632 -0.4318
  588TMC3    C8 8778   3.530   1.444  10.204  0.1283 -0.1937 -0.5810
  588TMC3    O1 8779   3.982   1.715  10.119 -0.7087  0.1016  0.4648
  588TMC3    O2 8780   3.413   1.439  10.236  0.5185 -0.6576  0.5657
  589TMC3    C1 8781   3.403   4.084   0.980 -0.1803  0.5717  0.2408
  589TMC3    C2 8782   3.521   4.121   1.043 -0.3151 -0.2299 -0.3029
  589TMC3    C3 8783   3.615   4.022   1.057  0.3109 -0.0379 -0.9173
  589TMC3    C4 8784   3.387   3.952   0.939 -0.1894  0.7592  1.1057
  589TMC3    C5 8785   3.488   3.862   0.951 -0.3825 -0.0077  0.0712
  589TMC3    C6 8786   3.606   3.893   1.005 -0.0546 -0.2601 -0.4479
  589TMC3     C 8787   3.287   4.172   0.987  0.3162  0.6157  0.4115
  589TMC3     O 8788   3.178   4.138   0.933  0.6358  0.0528 -0.2143
  589TMC3     H 8789   3.549   4.221   1.073  0.3814 -0.8991  1.2958
  589TMC3    H1 8790   3.298   3.915   0.891  1.9557 -1.5378 -1.0938
  589TMC3    H2 8791   3.671   3.815   1.043 -2.5039 -1.5844  1.0704
  589TMC3    C7 8792   3.478   3.737   0.878  0.3990 -0.2690  0.4833
  589TMC3    C8 8793   3.741   4.063   1.116 -0.4601 -0.1606  0.1768
  589TMC3    O1 8794   3.370   3.688   0.834  0.4850  0.9997  0.0427
  589TMC3    O2 8795   3.733   4.148   1.205  0.7679  0.0176  0.0984
  590MPD2     C 8796   2.588   2.239  16.621 -0.7786  0.1234  0.1590
  590MPD2    C1 8797   2.523   2.281  16.504  0.2987  0.6464 -0.4505
  590MPD2    C2 8798   2.581   2.398  16.445 -0.1002  0.7557 -0.5033
  590MPD2    C3 8799   2.680   2.465  16.498  0.4864  0.1077  0.4261
  590MPD2    C4 8800   2.744   2.419  16.614 -0.0630  0.0676  1.0138
  590MPD2    C5 8801   2.696   2.308  16.673  0.2361  0.1759 -0.2065
  590MPD2     H 8802   2.536   2.433  16.352  1.9523  1.1955 -1.3368
  590MPD2    H1 8803   2.817   2.483  16.663  1.3976 -1.3508  0.6837
  590MPD2    H2 8804   2.544   2.152  16.669 -0.1006 -0.1164  0.3486
  590MPD2    H3 8805   2.739   2.275  16.768 -2.9937 -1.7677  0.5748
  590MPD2     N 8806   2.733   2.580  16.426  0.2676  0.3025  0.1053
  590MPD2    H5 8807   2.681   2.613  16.345 -0.3832 -0.2738  0.2917
  590MPD2    N1 8808   2.417   2.205  16.456  0.2898  1.3519  0.5516
  590MPD2    H7 8809   2.376   2.132  16.514  0.3404 -0.5597 -1.8063
  591TMC3    C1 8810   2.884   2.759  16.392 -0.3280 -0.4601 -0.3944
  591TMC3    C2 8811   3.012   2.786  16.367 -0.6841  0.0696  0.4314
  591TMC3    C3 8812   3.042   2.901  16.294  0.0811 -0.0333 -0.1502
  591TMC3    C4 8813   2.790   2.846  16.350 -0.0073  0.1858 -0.8752
  591TMC3    C5 8814   2.821   2.961  16.278  0.2930 -0.1212 -0.3726
  591TMC3    C6 8815   2.950   2.996  16.254  0.2019  0.3202  0.4992
  591TMC3     C 8816   2.861   2.630  16.443 -0.3732  0.5325  0.0787
  591TMC3     O 8817   2.959   2.570  16.495  0.1644  0.2709 -0.5950
  591TMC3     H 8818   3.096   2.720  16.388 -0.1164  0.8954  0.7226
  591TMC3    H1 8819   2.685   2.827  16.368 -0.1054  0.6405 -0.9687
  591TMC3    H2 8820   2.993   3.085  16.210  0.9306 -0.6379 -0.7057
  591TMC3    C7 8821   2.716   3.054  16.258 -0.6920 -0.6065  0.4242
  591TMC3    C8 8822   3.137   2.870  16.191  0.1557  0.3073  0.1014
  591TMC3    O1 8823   2.606   3.038  16.306  0.4737 -0.3724 -0.3841
  591TMC3    O2 8824   3.167   2.755  16.166  0.1789  0.3208 -0.7879
  592MPD2     C 8825   2.894   4.552  11.593  0.5626  0.0424 -0.1322
  592MPD2    C1 8826   2.911   4.556  11.728  0.2834 -0.2693  0.9416
  592MPD2    C2 8827   2.850   4.463  11.804  0.9455 -0.2080 -0.3993
  592MPD2    C3 8828   2.764   4.373  11.755 -0.5297  0.1876  0.0448
  592MPD2    C4 8829   2.751   4.367  11.617 -0.3883 -0.3129 -0.1680
  592MPD2    C5 8830   2.808   4.462  11.539  0.3524  0.2747  0.3753
  592MPD2     H 8831   2.866   4.452  11.910  1.9041  0.2625 -0.4961
  592MPD2    H1 8832   2.686   4.290  11.577 -0.8567  0.3221 -0.6356
  592MPD2    H2 8833   2.939   4.632  11.536 -2.1015 -0.0310 -2.3388
  592MPD2    H3 8834   2.787   4.471  11.433 -1.7024 -0.3047  0.7338
  592MPD2     N 8835   2.701   4.289  11.848 -0.0101 -0.5137  0.0151
  592MPD2    H5 8836   2.706   4.313  11.946 -0.8092 -3.0159  0.6756
  592MPD2    N1 8837   3.003   4.651  11.784 -0.1436  0.2949 -0.1490
  592MPD2    H7 8838   3.055   4.699  11.712  1.5250 -2.1629 -0.5784
  593TMC3    C1 8839   3.135   0.030  11.942  0.0677 -0.6902  0.4673
  593TMC3    C2 8840   3.175   0.044  12.071 -0.3206  0.5376  0.2819
  593TMC3    C3 8841   3.290   0.110  12.093  0.3466  0.4959 -0.4143
  593TMC3    C4 8842   3.207   0.084  11.834  0.1345 -0.0756 -0.5091
  593TMC3    C5 8843   3.325   0.145  11.868  0.2586 -0.2749  0.9572
  593TMC3    C6 8844   3.369   0.158  11.996  0.6639  0.0464 -0.9028
  593TMC3     C 8845   3.035   4.665  11.916 -0.0822  0.0169 -0.2440
  593TMC3     O 8846   2.981   4.606  12.011  0.3728  0.6049  0.1629
  593TMC3     H 8847   3.111   0.008  12.150 -0.5142  1.2401  0.4414
  593TMC3    H1 8848   3.152   0.097  11.741 -0.3269  2.5814  0.1336
  593TMC3    H2 8849   3.472   0.186  12.012  1.1175 -2.2001  0.1073
  593TMC3    C7 8850   3.395   0.227  11.775  0.3437  0.2432  0.2049
  593TMC3    C8 8851   3.283   0.189  12.215 -0.2078  0.2951 -0.3158
  593TMC3    O1 8852   3.474   0.309  11.821 -0.0764 -0.0810  0.4572
  593TMC3    O2 8853   3.184   0.172  12.286  0.2941 -0.1034  0.5370
  594MPD2     C 8854   1.888   2.927  14.639 -0.1601  0.3784 -0.1308
  594MPD2    C1 8855   1.815   2.949  14.523  0.1009 -0.4310  0.2253
  594MPD2    C2 8856   1.879   3.009  14.419  0.0006 -0.1181  0.0139
  594MPD2    C3 8857   2.013   3.048  14.432  0.8661 -0.4569 -0.0741
  594MPD2    C4 8858   2.083   3.021  14.545 -0.3112  0.2342  0.1033
  594MPD2    C5 8859   2.018   2.969  14.651  0.1248  0.3030  0.1370
  594MPD2     H 8860   1.834   3.016  14.320 -0.7507 -0.7191  0.3147
  594MPD2    H1 8861   2.183   3.059  14.562 -0.2182  1.1262 -2.5317
  594MPD2    H2 8862   1.853   2.861  14.717 -0.0812 -1.4176 -1.6161
  594MPD2    H3 8863   2.072   2.958  14.745  1.8468 -0.5013 -0.9540
  594MPD2     N 8864   2.069   3.114  14.316  0.3321 -0.3007 -0.4093
  594MPD2    H5 8865   2.005   3.137  14.240 -0.0885 -0.7065 -0.1754
  594MPD2    N1 8866   1.678   2.909  14.523  0.2697 -0.4974 -0.7466
  594MPD2    H7 8867   1.648   2.869  14.612 -1.4602 -1.3311 -1.7116
  595TMC3    C1 8868   2.372   3.333  14.051 -0.2293  0.2374 -0.2107
  595TMC3    C2 8869   2.349   3.231  14.135 -0.0922 -0.1358 -0.4746
  595TMC3    C3 8870   2.231   3.234  14.201  0.3691  0.0199  0.0880
  595TMC3    C4 8871   2.303   3.453  14.052 -0.1083  0.0179 -0.8818
  595TMC3    C5 8872   2.186   3.458  14.128 -0.6492 -0.4986  0.6312
  595TMC3    C6 8873   2.151   3.348  14.201 -0.1850 -0.8385  0.2153
  595TMC3     C 8874   2.514   3.365  14.037 -0.1968 -0.2812 -0.3307
  595TMC3     O 8875   2.552   3.478  14.064 -0.4710 -0.3522  0.6610
  595TMC3     H 8876   2.421   3.156  14.165 -0.8133 -0.1744  1.1632
  595TMC3    H1 8877   2.337   3.536  13.992  0.7160  0.0976 -0.3061
  595TMC3    H2 8878   2.075   3.351  14.278 -0.7416 -0.8156 -0.3253
  595TMC3    C7 8879   2.127   3.584  14.172 -0.4455  0.8492  0.0777
  595TMC3    C8 8880   2.202   3.150  14.308 -0.3512  0.5326 -0.3368
  595TMC3    O1 8881   2.063   3.575  14.275 -0.4043  0.2818  0.7228
  595TMC3    O2 8882   2.304   3.122  14.375  0.2052 -0.5434 -0.3413
  596MPD2     C 8883   0.891   1.182  16.492  0.2448 -0.1614 -0.0652
  596MPD2    C1 8884   0.894   1.308  16.439 -0.2053  0.2787 -0.4490
  596MPD2    C2 8885   0.938   1.330  16.308  0.7110 -0.1260  0.6118
  596MPD2    C3 8886   0.997   1.224  16.240  0.3285 -0.0318 -0.6450
  596MPD2    C4 8887   0.999   1.101  16.302 -0.4848  0.8190 -1.3197
  596MPD2    C5 8888   0.938   1.078  16.421 -0.3293 -0.5947  0.5021
  596MPD2     H 8889   0.939   1.429  16.264  0.3899 -0.6498 -0.5696
  596MPD2    H1 8890   1.025   1.005  16.260 -0.3208  0.2340  0.1148
  596MPD2    H2 8891   0.841   1.169  16.588 -0.1327 -3.3159 -0.7078
  596MPD2    H3 8892   0.934   0.980  16.467 -0.9831 -1.2323 -0.9130
  596MPD2     N 8893   1.065   1.243  16.113 -0.2398 -0.2072 -0.1221
  596MPD2    H5 8894   1.092   1.152  16.075  1.2787  1.4438 -2.9870
  596MPD2    N1 8895   0.860   1.421  16.514  0.0466 -0.1863  0.4510
  596MPD2    H7 8896   0.890   1.512  16.479 -0.1256  0.0475  0.9123
  597TMC3    C1 8897   0.786   1.559  16.685  0.4604  0.1732 -0.1845
  597TMC3    C2 8898   0.843   1.665  16.623 -1.0651  0.5933 -0.4110
  597TMC3    C3 8899   0.782   1.790  16.649  0.4116 -0.1931 -0.0399
  597TMC3    C4 8900   0.681   1.569  16.766  0.1466 -0.1271  1.2065
  597TMC3    C5 8901   0.622   1.690  16.783 -0.3221 -0.1933  0.3712
  597TMC3    C6 8902   0.674   1.805  16.731  0.7063  0.0748 -0.1255
  597TMC3     C 8903   0.807   1.426  16.642  0.2624 -0.3653  0.3690
  597TMC3     O 8904   0.771   1.339  16.713  0.4831  0.9998  0.1867
  597TMC3     H 8905   0.919   1.655  16.547  0.3491  1.3675  0.9202
  597TMC3    H1 8906   0.641   1.487  16.824 -0.6203 -1.9701 -1.8902
  597TMC3    H2 8907   0.627   1.899  16.757  0.0852 -0.2660 -0.0324
  597TMC3    C7 8908   0.519   1.705  16.884 -0.0482  0.2291 -0.9132
  597TMC3    C8 8909   0.837   1.902  16.576  0.3248 -0.1474 -0.4061
  597TMC3    O1 8910   0.510   1.612  16.962 -0.3168  0.2452 -0.3437
  597TMC3    O2 8911   0.945   1.881  16.522 -0.5539  0.4628  0.2279
  598TMC3    C1 8912   3.692   2.269  15.439 -0.7365  0.0795 -0.3611
  598TMC3    C2 8913   3.585   2.187  15.476 -0.1435  0.2275 -0.4669
  598TMC3    C3 8914   3.487   2.187  15.386 -0.4475 -0.1979  0.4028
  598TMC3    C4 8915   3.703   2.344  15.328 -0.6787  0.5430  0.9171
  598TMC3    C5 8916   3.594   2.340  15.247  0.1299  0.4247  0.1341
  598TMC3    C6 8917   3.485   2.265  15.278 -0.0757  0.4157 -0.3344
  598TMC3     C 8918   3.805   2.297  15.534 -0.7167  0.3896  0.1997
  598TMC3     O 8919   3.888   2.386  15.505  0.6291  0.9855  0.1663
  598TMC3     H 8920   3.593   2.105  15.547  0.7468  0.5087 -0.2371
  598TMC3    H1 8921   3.789   2.409  15.314 -1.7009  1.3589 -1.5991
  598TMC3    H2 8922   3.406   2.263  15.203 -1.2998  0.2548  0.9625
  598TMC3    C7 8923   3.592   2.410  15.122 -0.1788  0.0517  0.3536
  598TMC3    C8 8924   3.372   2.091  15.386 -0.0762 -0.2678 -0.0362
  598TMC3    O1 8925   3.507   2.382  15.040 -0.6089  0.1519  0.4552
  598TMC3    O2 8926   3.321   2.060  15.279 -0.2526  0.1582 -0.5922
  599MPD2     C 8927   4.296   0.308  15.833 -0.5279  0.3178  1.4530
  599MPD2    C1 8928   4.210   0.200  15.836 -0.4463 -0.5411  0.3668
  599MPD2    C2 8929   4.082   0.211  15.882  0.0172 -0.2467  0.5187
  599MPD2    C3 8930   4.042   0.332  15.929 -0.8504 -0.3388  0.1788
  599MPD2    C4 8931   4.129   0.439  15.929  0.2862  0.0474 -0.2478
  599MPD2    C5 8932   4.254   0.429  15.882  0.8275 -0.0918  0.1065
  599MPD2     H 8933   4.014   0.128  15.866 -2.4087  1.9778 -0.7083
  599MPD2    H1 8934   4.101   0.535  15.972  0.4670 -0.2951  0.6488
  599MPD2    H2 8935   4.396   0.301  15.791 -0.0932 -0.1319  2.5525
  599MPD2    H3 8936   4.318   0.517  15.878  1.5564 -0.6078  0.5592
  599MPD2     N 8937   3.911   0.360  15.975 -0.1999  0.3090 -0.0694
  599MPD2    H5 8938   3.894   0.456  16.001  0.5437  0.6070 -0.7105
  599MPD2    N1 8939   4.264   0.077  15.788 -0.1727 -0.1172 -0.1370
  599MPD2    H7 8940   4.348   0.093  15.734  0.8756 -1.4594  1.0964
  600TMC3    C1 8941   3.697   0.351  16.065  0.2437 -0.5104  0.0683
  600TMC3    C2 8942   3.572   0.324  16.027 -0.7076  0.1926  0.2061
  600TMC3    C3 8943   3.477   0.399  16.088  0.0039 -0.4977  0.4801
  600TMC3    C4 8944   3.732   0.457  16.146 -0.3359  0.2712 -0.1186
  600TMC3    C5 8945   3.630   0.531  16.202  0.2131 -0.0062  0.7842
  600TMC3    C6 8946   3.500   0.506  16.173 -0.5362 -0.5695 -0.0607
  600TMC3     C 8947   3.800   0.281  15.996 -0.2808  0.0378  0.0024
  600TMC3     O 8948   3.795   0.160  15.996  0.0316 -0.6598 -0.4537
  600TMC3     H 8949   3.550   0.243  15.959  0.3706  1.3090 -1.4914
  600TMC3    H1 8950   3.835   0.486  16.162 -0.6042  1.4012 -0.5120
  600TMC3    H2 8951   3.417   0.562  16.216 -0.2687  1.5302 -2.2707
  600TMC3    C7 8952   3.646   0.621  16.317  0.3495 -0.0309  0.9838
  600TMC3    C8 8953   3.340   0.356  16.088  0.6922 -0.2918  0.0254
  600TMC3    O1 8954   3.544   0.660  16.379 -0.5486  0.0495  0.0413
  600TMC3    O2 8955   3.257   0.439  16.114  0.3737  0.1238 -0.6117
  601MPD2     C 8956   0.979   3.603   0.327  0.0773  0.4781 -0.1062
  601MPD2    C1 8957   1.016   3.519   0.223 -0.1345  0.4896 -0.3362
  601MPD2    C2 8958   1.040   3.384   0.247  0.8451  0.3433  0.0714
  601MPD2    C3 8959   1.017   3.337   0.381  0.1329 -1.4478  0.1657
  601MPD2    C4 8960   0.969   3.421   0.483  0.0387  0.1290 -0.0624
  601MPD2    C5 8961   0.952   3.550   0.454  0.4741  0.0478 -0.4121
  601MPD2     H 8962   1.063   3.312   0.169  1.1943  1.5681 -0.9620
  601MPD2    H1 8963   0.954   3.385   0.585  2.1032  0.7301  0.4541
  601MPD2    H2 8964   0.974   3.711   0.325  0.8053  0.5197  0.1481
  601MPD2    H3 8965   0.913   3.619   0.528 -1.4807 -0.1034 -1.2996
  601MPD2     N 8966   1.026   3.206   0.423 -0.5299  0.0349  0.5629
  601MPD2    H5 8967   1.009   3.192   0.522 -1.3584 -0.4060  0.3545
  601MPD2    N1 8968   1.040   3.570   0.091  0.5374 -0.0076  0.2059
  601MPD2    H7 8969   1.057   3.500   0.019  0.9073 -0.6763  0.9379
  602TMC3    C1 8970   0.999   3.717  17.654 -0.6362 -0.2170  0.3932
  602TMC3    C2 8971   0.980   3.850  17.612 -0.0873 -0.3147  0.4577
  602TMC3    C3 8972   0.924   3.864  17.490 -0.2914  0.0638 -0.0851
  602TMC3    C4 8973   0.961   3.608  17.574 -0.5163  0.0662  0.4868
  602TMC3    C5 8974   0.915   3.629  17.453  0.4340 -0.9743 -0.4738
  602TMC3    C6 8975   0.902   3.757  17.405  0.2105 -0.5356 -0.9526
  602TMC3     C 8976   1.018   3.701   0.049  0.0500 -0.3417  1.0545
  602TMC3     O 8977   1.001   3.804   0.115  0.3404  0.0046 -0.3076
  602TMC3     H 8978   1.024   3.936  17.661 -0.3648  1.5592 -2.5473
  602TMC3    H1 8979   0.956   3.501  17.592  0.1353 -0.0585 -0.0845
  602TMC3    H2 8980   0.871   3.771  17.302 -1.7395  0.1418 -0.2564
  602TMC3    C7 8981   0.884   3.514  17.364 -0.5455 -0.1369  0.1758
  602TMC3    C8 8982   0.890   4.002  17.457  0.1636 -0.2096  0.1660
  602TMC3    O1 8983   0.929   3.398  17.378  0.7264 -0.0946  0.1725
  602TMC3    O2 8984   0.875   4.084  17.547  0.2884  0.1256 -0.1880
  603TMC3    C1 8985   3.342   4.154  11.174  0.2532  0.3690  0.2154
  603TMC3    C2 8986   3.369   4.113  11.305  0.4484 -0.3189  0.0057
  603TMC3    C3 8987   3.467   4.166  11.374 -0.7379 -0.6365  0.5057
  603TMC3    C4 8988   3.425   4.244  11.106 -0.0747 -0.0906 -0.3087
  603TMC3    C5 8989   3.539   4.278  11.176  0.5937  0.2742 -0.3809
  603TMC3    C6 8990   3.545   4.255  11.311  0.7935 -0.1932 -0.7849
  603TMC3     C 8991   3.226   4.100  11.093  1.1353  0.2900 -0.1651
  603TMC3     O 8992   3.243   4.113  10.972  0.3709  0.1765 -0.2010
  603TMC3     H 8993   3.303   4.042  11.354  0.1716  2.0030  2.9594
  603TMC3    H1 8994   3.420   4.262  10.999  1.2905 -0.6446 -0.4753
  603TMC3    H2 8995   3.638   4.281  11.360 -1.1348 -0.4158  2.9969
  603TMC3    C7 8996   3.652   4.346  11.106 -0.0752  0.2390 -0.1552
  603TMC3    C8 8997   3.512   4.093  11.490  0.1622 -0.3566 -0.8312
  603TMC3    O1 8998   3.763   4.341  11.161 -0.6147 -0.3662 -0.0334
  603TMC3    O2 8999   3.467   3.981  11.502 -1.1084 -0.4052 -0.6253
  604MPD2     C 9000   0.087   2.481  16.097  0.1844 -0.1138  0.1091
  604MPD2    C1 9001   4.723   2.407  16.045  0.1833  0.5191  0.0718
  604MPD2    C2 9002   4.736   2.361  15.916  0.3597 -0.3089 -0.0587
  604MPD2    C3 9003   0.110   2.404  15.841 -0.2494 -0.2416 -0.5806
  604MPD2    C4 9004   0.207   2.483  15.895  0.1625 -0.1148  0.1266
  604MPD2    C5 9005   0.198   2.517  16.023 -0.2026 -0.0411  0.6175
  604MPD2     H 9006   4.668   2.286  15.877 -0.0638 -0.8910  1.7858
  604MPD2    H1 9007   0.295   2.517  15.841 -0.9124  2.8796  0.2657
  604MPD2    H2 9008   0.067   2.520  16.196  0.2186  0.4825 -0.1193
  604MPD2    H3 9009   0.279   2.574  16.066 -0.0289 -0.3629  0.7192
  604MPD2     N 9010   0.127   2.350  15.712  0.1726 -0.1566 -0.0839
  604MPD2    H5 9011   0.069   2.270  15.688  1.1504  0.0111 -3.0648
  604MPD2    N1 9012   4.610   2.390  16.136  0.1147 -0.4307  0.4439
  604MPD2    H7 9013   4.613   2.440  16.225 -0.6262  3.2212 -1.5874
  605TMC3    C1 9014   4.395   2.340  16.214  0.4744 -0.2010  0.0392
  605TMC3    C2 9015   4.458   2.347  16.332  0.1810 -0.0359 -0.0706
  605TMC3    C3 9016   4.438   2.455  16.413 -0.8295 -0.6370 -0.2644
  605TMC3    C4 9017   4.297   2.425  16.178 -0.0416 -0.8047  0.2536
  605TMC3    C5 9018   4.265   2.527  16.269  0.0728 -0.4913  0.0959
  605TMC3    C6 9019   4.331   2.543  16.387  0.0174  0.3420 -0.5222
  605TMC3     C 9020   4.495   2.324  16.104  0.2497  0.1760 -0.5758
  605TMC3     O 9021   4.461   2.269  16.002  0.2699 -0.2467  0.2363
  605TMC3     H 9022   4.535   2.273  16.352  0.4773  0.0900 -0.7214
  605TMC3    H1 9023   4.238   2.406  16.089 -0.4845 -0.7946  0.5461
  605TMC3    H2 9024   4.308   2.624  16.456  1.7738  0.6298 -0.2815
  605TMC3    C7 9025   4.185   2.640  16.230  0.0324 -0.0426 -0.4397
  605TMC3    C8 9026   4.562   2.515  16.451  0.0845  1.1852  0.4876
  605TMC3    O1 9027   4.160   2.719  16.322  0.4931 -0.0158 -0.0122
  605TMC3    O2 9028   4.659   2.502  16.375  0.1354 -0.8313  0.5246
  606TMC3    C1 9029   0.839   1.443  17.491 -1.0476  0.6099 -0.6176
  606TMC3    C2 9030   0.778   1.379  17.600 -0.0512 -0.0005 -0.4047
  606TMC3    C3 9031   0.719   1.258  17.572 -0.1509  0.8324 -0.1519
  606TMC3    C4 9032   0.846   1.387  17.365 -0.5590 -0.3294 -0.0108
  606TMC3    C5 9033   0.799   1.258  17.354 -0.3790  1.0048  0.2533
  606TMC3    C6 9034   0.734   1.189  17.453 -0.8547 -0.3370 -0.0732
  606TMC3     C 9035   0.915   1.564  17.513  0.4022 -0.0777  0.7582
  606TMC3     O 9036   0.930   1.637  17.419 -0.0561 -0.8415  0.0368
  606TMC3     H 9037   0.763   1.437  17.691  3.6586 -1.4680  1.1233
  606TMC3    H1 9038   0.888   1.438  17.278 -0.6377  1.4754  1.0149
  606TMC3    H2 9039   0.667   1.108  17.428 -0.7575 -0.8489  1.3348
  606TMC3    C7 9040   0.846   1.187  17.238 -0.2050  0.5207  0.1824
  606TMC3    C8 9041   0.694   1.186  17.688  0.0544  0.0823 -0.2475
  606TMC3    O1 9042   0.944   1.233  17.183 -0.2957  0.0031 -0.0950
  606TMC3    O2 9043   0.686   1.264   0.035  0.3029  0.4569  0.0194
  607MPD2     C 9044   2.858   3.720  11.535  0.1286 -0.0456 -0.2323
  607MPD2    C1 9045   2.883   3.752  11.664 -0.1911 -0.3360 -0.0924
  607MPD2    C2 9046   2.815   3.692  11.766 -0.1376  0.3646  0.0727
  607MPD2    C3 9047   2.745   3.582  11.738 -0.0083 -0.5892 -0.5670
  607MPD2    C4 9048   2.727   3.533  11.609 -0.5201 -0.2504  0.2285
  607MPD2    C5 9049   2.783   3.607  11.507  0.0696  0.2979 -0.5149
  607MPD2     H 9050   2.816   3.714  11.873 -4.3190 -0.6430  0.3003
  607MPD2    H1 9051   2.674   3.441  11.584 -1.4580  0.0293  1.1834
  607MPD2    H2 9052   2.893   3.787  11.458 -1.6502  3.1561  1.7149
  607MPD2    H3 9053   2.774   3.574  11.404 -1.9540  0.5214 -0.4088
  607MPD2     N 9054   2.673   3.529  11.849  0.2622  0.4789 -0.2837
  607MPD2    H5 9055   2.685   3.570  11.941 -0.4430  0.9072 -0.3760
  607MPD2    N1 9056   2.953   3.869  11.708  0.1411  0.5863  0.6058
  607MPD2    H7 9057   2.962   3.881  11.808 -1.1235 -3.0223  1.1455
  608TMC3    C1 9058   3.043   4.078  11.724  0.1037  0.6959  0.1072
  608TMC3    C2 9059   3.004   4.075  11.856 -0.5724 -0.8550  0.5294
  608TMC3    C3 9060   3.059   4.159  11.946  0.0257 -0.6151  0.3631
  608TMC3    C4 9061   3.125   4.174  11.673 -0.3445  0.8945  0.2036
  608TMC3    C5 9062   3.159   4.274  11.767 -0.3586 -0.6517 -0.0461
  608TMC3    C6 9063   3.122   4.274  11.901  0.5221  0.0087  0.0746
  608TMC3     C 9064   3.015   3.969  11.636 -0.3783 -0.0486  0.0731
  608TMC3     O 9065   2.990   3.998  11.517 -0.0842  0.0341 -0.5698
  608TMC3     H 9066   2.930   4.002  11.887 -0.5534 -0.6090  1.1436
  608TMC3    H1 9067   3.158   4.173  11.569 -3.4377 -0.2213 -0.7720
  608TMC3    H2 9068   3.145   4.349  11.976 -0.4736  1.1148 -0.7198
  608TMC3    C7 9069   3.251   4.379  11.720 -0.5494  0.1216  0.5503
  608TMC3    C8 9070   3.013   4.158  12.086  0.2386 -0.1415  0.6336
  608TMC3    O1 9071   3.255   4.404  11.602  0.3950 -0.2467 -0.1430
  608TMC3    O2 9072   2.999   4.266  12.140  0.4628 -0.2673 -0.3716
  609TMC3    C1 9073   1.517   3.730   9.057  0.4921 -0.2882  0.3085
  609TMC3    C2 9074   1.475   3.796   8.943  0.4921 -0.3677 -0.0524
  609TMC3    C3 9075   1.581   3.832   8.854  0.0936 -0.1638  0.2807
  609TMC3    C4 9076   1.646   3.680   9.081  0.3606 -1.3173  0.7601
  609TMC3    C5 9077   1.736   3.713   8.987 -0.6065  0.6414 -0.6291
  609TMC3    C6 9078   1.706   3.789   8.873  0.5165  0.0807 -0.5632
  609TMC3     C 9079   1.432   3.697   9.172 -0.5082 -0.0659 -0.1605
  609TMC3     O 9080   1.488   3.691   9.279 -0.1096 -0.3317  0.1737
  609TMC3     H 9081   1.373   3.832   8.933  0.4711 -0.6355 -0.8082
  609TMC3    H1 9082   1.674   3.620   9.167  1.3960 -2.2902 -0.2671
  609TMC3    H2 9083   1.787   3.799   8.801  0.1314 -0.0947 -1.0240
  609TMC3    C7 9084   1.850   3.627   8.980  0.4473  0.4117  0.3664
  609TMC3    C8 9085   1.557   3.927   8.746 -0.1772  0.3144  0.7007
  609TMC3    O1 9086   1.893   3.600   9.089 -0.4185 -0.1185 -0.1634
  609TMC3    O2 9087   1.445   3.916   8.690  0.4591 -0.2159  0.0991
  610TMC3    C1 9088   3.407   4.332  12.674  0.5956  0.3476  0.2745
  610TMC3    C2 9089   3.476   4.342  12.556  0.1919 -0.1965 -0.4801
  610TMC3    C3 9090   3.516   4.228  12.492 -0.6134  0.1706  0.1502
  610TMC3    C4 9091   3.399   4.212  12.739  0.0370 -0.6906  0.1493
  610TMC3    C5 9092   3.439   4.096  12.681 -0.3469 -0.2749 -0.1666
  610TMC3    C6 9093   3.493   4.106  12.555  0.3561 -0.1133 -0.4291
  610TMC3     C 9094   3.400   4.451  12.752 -0.0869 -0.4999 -0.0729
  610TMC3     O 9095   3.497   4.525  12.745  0.0612  0.1205 -0.4039
  610TMC3     H 9096   3.499   4.441  12.519 -0.1456  0.7128  1.7619
  610TMC3    H1 9097   3.376   4.216  12.845 -1.0979 -0.6394 -0.0901
  610TMC3    H2 9098   3.522   4.018  12.500  0.2088 -1.1693  1.1968
  610TMC3    C7 9099   3.462   3.970  12.751 -0.6278  0.2925 -0.3813
  610TMC3    C8 9100   3.635   4.220  12.409 -0.2995  0.7899  0.1505
  610TMC3    O1 9101   3.502   3.883  12.679 -0.6580 -0.1715 -0.2396
  610TMC3    O2 9102   3.695   4.113  12.409 -0.0393  0.3905 -0.4897
  611MPD2     C 9103   2.960   0.006   9.922  0.1210 -0.2286 -0.2081
  611MPD2    C1 9104   2.964   4.718  10.059  0.3976  0.1603 -0.3264
  611MPD2    C2 9105   3.081   0.015  10.124  0.5807 -0.5063 -0.3081
  611MPD2    C3 9106   3.193   0.057  10.057  0.1706  0.0232  0.0840
  611MPD2    C4 9107   3.185   0.086   9.920  0.0973 -0.3975  0.3633
  611MPD2    C5 9108   3.067   0.064   9.854  0.4239 -1.1533 -1.0065
  611MPD2     H 9109   3.085   0.004  10.232 -0.4644  0.4699 -0.1688
  611MPD2    H1 9110   3.269   0.124   9.862  0.2527 -3.3262 -1.2940
  611MPD2    H2 9111   2.872   4.719   9.865 -1.8228  1.6318  2.0119
  611MPD2    H3 9112   3.051   0.094   9.751  1.0898  2.7918  0.0087
  611MPD2     N 9113   3.316   0.088  10.119 -0.1194  0.0152 -0.0228
  611MPD2    H5 9114   3.383   0.135  10.059 -0.1801  1.6416  1.1914
  611MPD2    N1 9115   2.856   4.652  10.113 -0.4755 -0.3253 -0.7042
  611MPD2    H7 9116   2.778   4.614  10.060 -2.0431  2.3814 -0.3651
  612TMC3    C1 9117   3.510   0.082  10.255  0.0718 -0.0742 -0.8441
  612TMC3    C2 9118   3.578   0.003  10.348  0.1882  0.6945 -0.0278
  612TMC3    C3 9119   3.717   0.014  10.348 -0.1786 -0.7089  0.2490
  612TMC3    C4 9120   3.572   0.165  10.162  0.0474  0.3774 -0.4452
  612TMC3    C5 9121   3.707   0.166  10.168  0.0195 -0.4277  0.2780
  612TMC3    C6 9122   3.782   0.090  10.257 -0.2592 -0.7002 -0.4538
  612TMC3     C 9123   3.367   0.047  10.242  0.0169 -0.0887 -0.8127
  612TMC3     O 9124   3.318   4.696  10.316  0.2425  0.6299 -0.4240
  612TMC3     H 9125   3.526   4.668  10.409  0.8120 -0.2170 -0.5681
  612TMC3    H1 9126   3.522   0.227  10.088  0.6284  1.4147  0.0214
  612TMC3    H2 9127   3.888   0.103  10.275 -0.6673  2.0166  0.0525
  612TMC3    C7 9128   3.783   0.248  10.078  0.2860  0.1817  0.3863
  612TMC3    C8 9129   3.794   4.691  10.459  0.4096 -0.1591 -0.1766
  612TMC3    O1 9130   3.724   0.344  10.030  0.2935 -0.4165 -0.2988
  612TMC3    O2 9131   3.913   4.725  10.462 -0.0820 -0.4308 -0.6325
  613MPD2     C 9132   1.758   1.710  16.354 -0.1567  0.3113  0.5141
  613MPD2    C1 9133   1.764   1.614  16.255  0.0420 -0.1919  0.1230
  613MPD2    C2 9134   1.757   1.481  16.282  0.6046 -0.6491 -0.3401
  613MPD2    C3 9135   1.732   1.440  16.417 -0.2357  0.2742 -0.2184
  613MPD2    C4 9136   1.723   1.534  16.520  0.5227  0.6682  0.7177
  613MPD2    C5 9137   1.726   1.667  16.483 -0.3098 -0.2647 -0.7698
  613MPD2     H 9138   1.768   1.408  16.203 -0.2149  0.6252 -1.6375
  613MPD2    H1 9139   1.709   1.509  16.625  1.4180 -0.1460  0.6411
  613MPD2    H2 9140   1.757   1.816  16.333  2.2345 -0.1294 -1.8985
  613MPD2    H3 9141   1.711   1.750  16.552  1.2087 -0.5616 -0.0861
  613MPD2     N 9142   1.722   1.300  16.430 -0.3466 -0.0271 -0.0283
  613MPD2    H5 9143   1.743   1.240  16.351 -2.9371 -0.8370 -0.1307
  613MPD2    N1 9144   1.779   1.638  16.122  0.2613 -0.2140 -0.3018
  613MPD2    H7 9145   1.790   1.558  16.060  0.3335 -0.3107 -0.1644
  614TMC3    C1 9146   1.811   1.725  15.908 -0.5453 -0.5813 -0.0903
  614TMC3    C2 9147   1.871   1.598  15.898 -0.1252 -0.3760 -0.0441
  614TMC3    C3 9148   1.845   1.516  15.792 -0.4262 -0.4243 -0.2207
  614TMC3    C4 9149   1.730   1.770  15.810 -1.1045  0.1299 -0.2525
  614TMC3    C5 9150   1.697   1.688  15.707  0.1849 -0.1246 -0.6050
  614TMC3    C6 9151   1.763   1.565  15.692  0.8840  0.8114 -0.0862
  614TMC3     C 9152   1.780   1.754  16.047  0.3302 -0.5993  0.2937
  614TMC3     O 9153   1.763   1.871  16.086  0.3110  0.3929 -0.1950
  614TMC3     H 9154   1.961   1.583  15.956 -0.8237 -1.0371  0.8630
  614TMC3    H1 9155   1.694   1.872  15.821  2.6756  1.4877 -0.2779
  614TMC3    H2 9156   1.730   1.496  15.616 -1.1367  1.4884  0.1884
  614TMC3    C7 9157   1.637   1.761  15.599 -0.3146 -0.3006  0.6535
  614TMC3    C8 9158   1.811   1.388  15.848 -0.0761  0.2818  0.2128
  614TMC3    O1 9159   1.629   1.882  15.610 -0.5204 -0.6371  0.0442
  614TMC3    O2 9160   1.812   1.397  15.966 -0.1640  0.5436  0.0830
  615MPD2     C 9161   1.571   3.104  16.009  0.2294  0.1653 -0.4977
  615MPD2    C1 9162   1.645   3.223  16.018 -0.7603  0.3753  0.7049
  615MPD2    C2 9163   1.710   3.260  15.908 -0.0820 -0.8988 -0.3370
  615MPD2    C3 9164   1.692   3.186  15.787  0.2714  0.0295  0.2139
  615MPD2    C4 9165   1.615   3.069  15.778 -0.5625 -0.5342  0.5530
  615MPD2    C5 9166   1.556   3.028  15.896  0.6870 -0.5212  0.8881
  615MPD2     H 9167   1.760   3.356  15.913 -4.5747  1.5509 -2.4425
  615MPD2    H1 9168   1.622   3.014  15.685  0.4054 -0.1691  0.4039
  615MPD2    H2 9169   1.521   3.062  16.095  0.3695 -0.4500 -0.7192
  615MPD2    H3 9170   1.495   2.938  15.895  1.0004 -0.7215 -0.0607
  615MPD2     N 9171   1.745   3.232  15.664  0.0351 -0.3136 -0.1806
  615MPD2    H5 9172   1.731   3.172  15.583  2.9846 -0.4219 -0.6045
  615MPD2    N1 9173   1.640   3.301  16.135 -0.0957 -0.2372  0.7161
  615MPD2    H7 9174   1.696   3.385  16.139 -2.1479  1.1455  0.7234
  616TMC3    C1 9175   1.553   3.394  16.341  0.8109  0.7404 -0.5478
  616TMC3    C2 9176   1.666   3.466  16.359  0.0460 -0.4501 -0.4896
  616TMC3    C3 9177   1.675   3.564  16.449 -0.1958  0.4624 -0.0974
  616TMC3    C4 9178   1.441   3.417  16.417 -0.1549  0.1127  0.9336
  616TMC3    C5 9179   1.453   3.518  16.518  0.1217  0.4270  0.4719
  616TMC3    C6 9180   1.566   3.592  16.519  0.5014 -0.2458  0.5513
  616TMC3     C 9181   1.553   3.283  16.240 -0.2020 -0.6009 -0.4127
  616TMC3     O 9182   1.462   3.204  16.256 -0.1683 -0.1707 -0.2420
  616TMC3     H 9183   1.750   3.443  16.296  0.6591  1.1007 -0.2550
  616TMC3    H1 9184   1.345   3.370  16.402  0.2797 -0.8438  1.1863
  616TMC3    H2 9185   1.584   3.669  16.594 -0.2904  1.8002 -1.3607
  616TMC3    C7 9186   1.344   3.549  16.606 -0.5357  0.1044 -0.8350
  616TMC3    C8 9187   1.782   3.657  16.445 -0.4042 -0.1352 -0.9485
  616TMC3    O1 9188   1.342   3.664  16.643 -0.0114  0.2656  0.1439
  616TMC3    O2 9189   1.769   3.765  16.500  0.4198  0.4786  0.1247
  617MPD2     C 9190   4.245   1.051  14.022 -0.0191 -0.0565 -0.2142
  617MPD2    C1 9191   4.294   1.009  14.147 -0.1258  0.6511  1.0278
  617MPD2    C2 9192   4.198   0.959  14.237  0.0183  0.1463 -0.5091
  617MPD2    C3 9193   4.060   0.960  14.207 -0.8194 -0.0888 -0.3483
  617MPD2    C4 9194   4.015   1.017  14.090  0.3646  0.7271 -0.6155
  617MPD2    C5 9195   4.109   1.058  13.999 -0.4506  0.4179  0.0283
  617MPD2     H 9196   4.238   0.912  14.326 -1.8500  0.0217  0.2558
  617MPD2    H1 9197   3.913   1.016  14.054  0.0584  1.5530  0.2076
  617MPD2    H2 9198   4.321   1.092  13.956  1.9414 -0.3300  1.8972
  617MPD2    H3 9199   4.062   1.096  13.908 -4.2365 -2.2739  0.8689
  617MPD2     N 9200   3.965   0.880  14.289  0.6330 -0.0067 -0.7214
  617MPD2    H5 9201   3.871   0.883  14.252  0.1370 -0.5235  0.4917
  617MPD2    N1 9202   4.436   1.007  14.160 -0.1525 -0.0978  0.1471
  617MPD2    H7 9203   4.488   1.006  14.073 -2.0892  2.1872 -1.0502
  618TMC3    C1 9204   4.649   1.016  14.250  0.4649 -0.4287 -0.4524
  618TMC3    C2 9205   4.717   0.953  14.354  1.0287 -0.5498  0.4850
  618TMC3    C3 9206   0.076   0.860  14.307 -0.1737  0.3933  0.8491
  618TMC3    C4 9207   4.694   1.007  14.121 -0.0925 -0.5000  0.4114
  618TMC3    C5 9208   0.034   0.904  14.084 -0.1682 -0.1047  0.2755
  618TMC3    C6 9209   0.089   0.821  14.177 -0.6975 -0.6530 -0.3155
  618TMC3     C 9210   4.504   1.029  14.278  0.5302 -0.2568 -0.8837
  618TMC3     O 9211   4.473   1.037  14.395  0.3491 -0.8407 -0.5698
  618TMC3     H 9212   4.692   0.967  14.459  0.7516  1.0009  0.1988
  618TMC3    H1 9213   4.656   1.070  14.042  0.7456 -1.9958 -1.1880
  618TMC3    H2 9214   0.151   0.736  14.149  0.4040  0.2198 -0.5425
  618TMC3    C7 9215   4.724   0.817  13.981  0.1812  0.4339 -0.7051
  618TMC3    C8 9216   0.159   0.805  14.412 -0.0846 -0.0706 -0.3489
  618TMC3    O1 9217   4.698   0.700  14.010  0.2236  0.7443  0.5503
  618TMC3    O2 9218   0.169   0.884  14.504 -0.2445 -0.3128 -0.3888
  619MPD2     C 9219   0.841   2.521  13.577  0.5148 -0.8955 -0.8505
  619MPD2    C1 9220   0.814   2.479  13.448  0.0824 -0.3836 -0.2627
  619MPD2    C2 9221   0.695   2.417  13.419  0.1002 -0.9153 -0.2019
  619MPD2    C3 9222   0.597   2.399  13.520 -0.0138 -0.3471 -0.3258
  619MPD2    C4 9223   0.626   2.445  13.646 -0.0530  0.1113 -0.3186
  619MPD2    C5 9224   0.748   2.498  13.675  0.1715 -0.5598  0.7890
  619MPD2     H 9225   0.687   2.367  13.323  0.0634  0.8835 -1.1283
  619MPD2    H1 9226   0.555   2.428  13.727 -0.9986  1.2308 -0.9169
  619MPD2    H2 9227   0.938   2.554  13.614  0.5357 -2.4843  0.5338
  619MPD2    H3 9228   0.777   2.526  13.775  0.6174 -2.2793  1.1339
  619MPD2     N 9229   0.470   2.339  13.500  0.0892 -0.4491 -0.0095
  619MPD2    H5 9230   0.405   2.342  13.578 -0.3995 -1.9443 -0.3631
  619MPD2    N1 9231   0.902   2.499  13.340 -0.8948 -0.6910 -0.0112
  619MPD2    H7 9232   0.888   2.459  13.248 -1.0359 -0.2037 -0.2010
  620TMC3    C1 9233   1.060   2.618  13.210  0.3660 -0.4117 -0.0378
  620TMC3    C2 9234   1.001   2.573  13.093 -0.3507 -0.0929 -0.3703
  620TMC3    C3 9235   1.038   2.628  12.977 -0.5438 -0.2926  0.2311
  620TMC3    C4 9236   1.163   2.709  13.208  0.2466  0.1823 -0.1207
  620TMC3    C5 9237   1.190   2.761  13.088 -0.3330 -0.4506  0.0405
  620TMC3    C6 9238   1.128   2.727  12.973 -0.3103 -0.6234 -0.0396
  620TMC3     C 9239   1.006   2.592  13.341 -0.6646 -0.3057 -0.4447
  620TMC3     O 9240   1.049   2.660  13.435  0.0354 -0.7928 -0.3045
  620TMC3     H 9241   0.916   2.505  13.092 -0.4356  0.0251 -0.8677
  620TMC3    H1 9242   1.215   2.742  13.297  1.9289  0.8469 -1.3540
  620TMC3    H2 9243   1.151   2.759  12.872  1.4389  0.4035  0.6844
  620TMC3    C7 9244   1.324   2.804  13.067 -0.1604 -0.5000 -0.1509
  620TMC3    C8 9245   0.956   2.618  12.851 -0.0111  0.1306  0.9542
  620TMC3    O1 9246   1.390   2.721  13.012 -0.0803  0.5371 -0.3482
  620TMC3    O2 9247   1.016   2.615  12.745  0.7732 -0.7617  0.6065
  621MPD2     C 9248   1.178   3.256   9.162  0.4187 -0.6256  0.1878
  621MPD2    C1 9249   1.220   3.270   9.296 -0.0181  0.2401  0.2476
  621MPD2    C2 9250   1.360   3.291   9.327 -0.9128  0.0566 -0.2583
  621MPD2    C3 9251   1.445   3.317   9.222 -0.1251  0.0766 -0.4057
  621MPD2    C4 9252   1.399   3.316   9.091  0.6408  0.8320  0.1908
  621MPD2    C5 9253   1.268   3.287   9.065 -0.4041  0.5730 -0.4920
  621MPD2     H 9254   1.404   3.280   9.425 -0.9877  0.2471 -0.2051
  621MPD2    H1 9255   1.467   3.336   9.009  1.0952  0.9486  0.5926
  621MPD2    H2 9256   1.079   3.218   9.139 -0.2889  0.4212  1.5192
  621MPD2    H3 9257   1.240   3.294   8.960  0.9293 -0.4349 -0.9132
  621MPD2     N 9258   1.580   3.335   9.264 -0.6194 -0.0355  0.1074
  621MPD2    H5 9259   1.596   3.333   9.365  1.5412  2.0235 -0.1997
  621MPD2    N1 9260   1.134   3.253   9.405 -0.0811  0.1981 -0.1296
  621MPD2    H7 9261   1.183   3.241   9.493  3.7109 -1.1186 -2.4229
  622TMC3    C1 9262   0.944   3.195   9.531 -0.0154  0.2242  0.0364
  622TMC3    C2 9263   1.032   3.129   9.614 -0.1298  0.3816  0.1384
  622TMC3    C3 9264   0.981   3.077   9.731 -0.2375 -0.4014 -0.4886
  622TMC3    C4 9265   0.812   3.209   9.557 -0.4709  0.2579 -0.4855
  622TMC3    C5 9266   0.765   3.165   9.682  0.1049  0.0137 -0.4830
  622TMC3    C6 9267   0.856   3.117   9.770  0.5774  0.7673  0.0137
  622TMC3     C 9268   0.995   3.245   9.404  0.1985 -0.4096 -0.3965
  622TMC3     O 9269   0.921   3.279   9.318  0.4285 -0.1433 -0.1791
  622TMC3     H 9270   1.135   3.111   9.587 -0.3968  1.3265 -1.5115
  622TMC3    H1 9271   0.743   3.256   9.487 -2.9801 -2.3644  0.2339
  622TMC3    H2 9272   0.822   3.111   9.873  0.4203 -1.9099 -0.2113
  622TMC3    C7 9273   0.620   3.140   9.698  1.0837 -0.4416 -0.2278
  622TMC3    C8 9274   1.077   3.029   9.830  0.7012  0.2965 -0.3052
  622TMC3    O1 9275   0.554   3.190   9.613 -0.0439 -0.2094 -0.0201
  622TMC3    O2 9276   1.192   3.068   9.806  0.0558  0.2770 -0.3824
  623MPD2     C 9277   0.345   3.138  15.623 -0.2286  0.0329  0.0609
  623MPD2    C1 9278   0.270   3.041  15.670 -0.7273  0.2396 -0.1911
  623MPD2    C2 9279   0.303   2.986  15.792  0.3778 -0.4428 -0.6382
  623MPD2    C3 9280   0.413   3.018  15.867  0.0583  0.0779  0.2717
  623MPD2    C4 9281   0.498   3.110  15.808  0.0841  0.6703  0.4947
  623MPD2    C5 9282   0.458   3.172  15.694 -0.6622 -0.7647  0.1682
  623MPD2     H 9283   0.230   2.924  15.843 -0.5335  1.2396  0.0880
  623MPD2    H1 9284   0.589   3.155  15.846  1.1434 -1.0716 -0.0481
  623MPD2    H2 9285   0.316   3.184  15.529 -0.7222 -0.5665 -0.0742
  623MPD2    H3 9286   0.523   3.250  15.658  0.8802 -1.5560  1.1982
  623MPD2     N 9287   0.446   2.955  15.990 -0.3916 -0.1923 -0.3481
  623MPD2    H5 9288   0.387   2.879  16.025 -0.0106  1.3357  3.5658
  623MPD2    N1 9289   0.147   3.010  15.603 -0.4020  0.6884 -0.2243
  623MPD2    H7 9290   0.117   3.078  15.533  0.5334 -1.7886 -3.0573
  624TMC3    C1 9291   0.646   2.856  16.401 -0.3516  0.4331  0.4519
  624TMC3    C2 9292   0.520   2.803  16.452 -0.2365 -0.4764  0.0308
  624TMC3    C3 9293   0.412   2.827  16.368 -0.5140 -0.0813 -0.7059
  624TMC3    C4 9294   0.655   2.912  16.278  0.3290  0.3315  0.2657
  624TMC3    C5 9295   0.548   2.908  16.194 -0.1432  0.1503 -0.1424
  624TMC3    C6 9296   0.422   2.861  16.239 -0.7454 -0.8845  0.3590
  624TMC3     C 9297   0.763   2.803  16.468 -0.4842 -0.2056 -0.5083
  624TMC3     O 9298   0.742   2.697  16.527  0.2934 -0.1640 -0.1288
  624TMC3     H 9299   0.510   2.744  16.542 -0.5381  0.0775  0.3631
  624TMC3    H1 9300   0.751   2.933  16.232  0.8479  0.6935  1.5438
  624TMC3    H2 9301   0.331   2.872  16.181  1.0266  2.8154 -1.6636
  624TMC3    C7 9302   0.554   2.983  16.063  0.3644  0.0411  0.0401
  624TMC3    C8 9303   0.284   2.768  16.407 -0.4446  0.3355  0.0541
  624TMC3    O1 9304   0.653   3.053  16.044 -0.0387  0.1944  0.3324
  624TMC3    O2 9305   0.216   2.707  16.321  0.1959  0.6694 -0.2680
  625MPD2     C 9306   1.061   4.217   0.568 -0.1669  0.0314 -0.1857
  625MPD2    C1 9307   1.036   4.347   0.599 -0.1054 -0.7886 -0.9759
  625MPD2    C2 9308   1.135   4.416   0.673  0.0612  0.0489  0.3913
  625MPD2    C3 9309   1.255   4.352   0.710 -0.7029  0.5123  0.4111
  625MPD2    C4 9310   1.264   4.218   0.690 -1.5220  0.6048  0.3852
  625MPD2    C5 9311   1.171   4.150   0.615 -0.2553 -0.1483 -0.7452
  625MPD2     H 9312   1.107   4.520   0.677  0.4946  0.2097 -0.7610
  625MPD2    H1 9313   1.342   4.149   0.720 -0.5503  1.5466  0.0020
  625MPD2    H2 9314   0.989   4.158   0.513  0.2445  1.2129 -2.0031
  625MPD2    H3 9315   1.194   4.049   0.582  0.7905 -0.4364  0.8843
  625MPD2     N 9316   1.363   4.428   0.765  0.8912  0.1679  0.0598
  625MPD2    H5 9317   1.345   4.525   0.789 -0.9444 -0.3904  0.9589
  625MPD2    N1 9318   0.926   4.421   0.563 -0.0859  0.3935 -0.4032
  625MPD2    H7 9319   0.904   4.511   0.606 -1.3283 -0.1285  0.0461
  626TMC3    C1 9320   0.743   4.489   0.436 -0.3275  0.1772 -0.1794
  626TMC3    C2 9321   0.644   4.477   0.344 -0.2151  0.0989  0.8257
  626TMC3    C3 9322   0.576   4.584   0.300 -0.1422 -0.8120  0.0978
  626TMC3    C4 9323   0.777   4.615   0.486 -0.5892 -0.0856  0.4227
  626TMC3    C5 9324   0.695   4.717   0.446  0.5649  0.0359  0.3069
  626TMC3    C6 9325   0.600   4.708   0.357 -0.9755  0.3319  0.4156
  626TMC3     C 9326   0.828   4.380   0.470  0.4828 -0.5824  0.2103
  626TMC3     O 9327   0.807   4.273   0.418  0.7446 -0.1430 -0.4973
  626TMC3     H 9328   0.626   4.377   0.305 -0.3983 -0.1246  1.4783
  626TMC3    H1 9329   0.843   4.645   0.567 -0.8864 -0.7015  0.8913
  626TMC3    H2 9330   0.542   0.060   0.336  1.6582  1.9003 -0.2443
  626TMC3    C7 9331   0.709   0.108   0.521 -0.5331 -0.3072  0.2238
  626TMC3    C8 9332   0.503   4.581   0.179  0.5625  0.2580  0.4750
  626TMC3    O1 9333   0.823   0.137   0.559 -0.0422 -0.3353 -0.5205
  626TMC3    O2 9334   0.472   4.685   0.124 -0.2181 -0.0517  0.8071
  627MPD2     C 9335   3.418   4.281  14.713 -0.7070  0.9496 -0.0504
  627MPD2    C1 9336   3.541   4.218  14.706 -0.4526  0.2368 -0.2178
  627MPD2    C2 9337   3.542   4.091  14.659 -0.0952  0.2667  0.2552
  627MPD2    C3 9338   3.421   4.034  14.612  0.5676  0.3482 -0.5063
  627MPD2    C4 9339   3.300   4.102  14.608  0.0727  0.8099 -0.3076
  627MPD2    C5 9340   3.297   4.234  14.658 -0.2450  1.1595  1.1757
  627MPD2     H 9341   3.636   4.038  14.648 -0.2776 -0.3409  1.6649
  627MPD2    H1 9342   3.225   4.052  14.547 -1.0484  0.7587  1.1200
  627MPD2    H2 9343   3.409   4.382  14.752 -0.6765  0.1286  2.0460
  627MPD2    H3 9344   3.204   4.288  14.670 -1.4757 -0.8353  0.5709
  627MPD2     N 9345   3.438   3.892  14.595  0.7828 -0.2497 -0.0916
  627MPD2    H5 9346   3.536   3.865  14.588  0.4147 -1.4576 -0.5011
  627MPD2    N1 9347   3.664   4.274  14.743  0.5682 -0.0528  0.3474
  627MPD2    H7 9348   3.749   4.222  14.726  0.0706 -1.1987  1.3643
  628TMC3    C1 9349   3.829   4.423  14.826  0.1776 -0.2054  0.3180
  628TMC3    C2 9350   3.914   4.321  14.844 -0.8459  0.0951 -0.3653
  628TMC3    C3 9351   4.039   4.344  14.891  0.1504 -0.0178  0.0707
  628TMC3    C4 9352   3.860   4.548  14.883  0.0923  0.7856  0.2346
  628TMC3    C5 9353   3.989   4.568  14.930 -0.5925 -0.2083  0.5049
  628TMC3    C6 9354   4.080   4.467  14.940 -0.4069  0.4146  0.0076
  628TMC3     C 9355   3.692   4.402  14.788  0.3950  0.3969  0.1366
  628TMC3     O 9356   3.618   4.496  14.806 -0.1791  0.6327 -0.7084
  628TMC3     H 9357   3.905   4.231  14.784 -0.2162 -1.7562  2.2819
  628TMC3    H1 9358   3.790   4.629  14.869  0.2901  0.7868 -0.7356
  628TMC3    H2 9359   4.186   4.477  14.961 -0.2799  1.8224 -1.3082
  628TMC3    C7 9360   4.037   4.700  14.966  0.2309  0.2845 -0.0379
  628TMC3    C8 9361   4.118   4.225  14.906  0.4100  0.7269  0.1254
  628TMC3    O1 9362   4.149   4.712  15.019 -0.1944 -0.0345 -0.2603
  628TMC3    O2 9363   4.059   4.123  14.947 -0.5898 -0.8001  0.2700
  629MPD2     C 9364   2.201   3.869  16.284  0.0907  0.2973  0.6162
  629MPD2    C1 9365   2.231   3.740  16.316  0.3473 -0.0792 -0.8624
  629MPD2    C2 9366   2.131   3.647  16.341 -1.2046 -0.6969 -0.5983
  629MPD2    C3 9367   2.003   3.697  16.356  0.2182 -0.2365 -0.2372
  629MPD2    C4 9368   1.975   3.830  16.321  0.1559 -0.4614  0.4400
  629MPD2    C5 9369   2.077   3.913  16.285 -0.3554  0.0429  0.2636
  629MPD2     H 9370   2.147   3.542  16.361 -1.8535 -1.0293 -1.8531
  629MPD2    H1 9371   1.877   3.876  16.315 -0.4237 -2.0526 -2.0713
  629MPD2    H2 9372   2.286   3.935  16.281 -1.5071  2.4195  2.5918
  629MPD2    H3 9373   2.068   4.020  16.267  0.3149 -0.1556 -1.2270
  629MPD2     N 9374   1.902   3.612  16.389 -0.1709  0.5753  0.6409
  629MPD2    H5 9375   1.901   3.512  16.369 -0.9819  0.3886  1.6164
  629MPD2    N1 9376   2.368   3.712  16.322  0.1868 -0.7350  0.4465
  629MPD2    H7 9377   2.425   3.790  16.292 -1.3794  0.0345 -0.5380
  630TMC3    C1 9378   2.570   3.597  16.344 -0.4681 -0.0441  0.1895
  630TMC3    C2 9379   2.637   3.706  16.294  0.2120 -0.6354  0.0869
  630TMC3    C3 9380   2.773   3.701  16.295  0.2391  0.5095 -0.0192
  630TMC3    C4 9381   2.639   3.492  16.403  0.0359 -0.0945  0.2403
  630TMC3    C5 9382   2.774   3.494  16.405 -0.2978 -0.2964  0.4125
  630TMC3    C6 9383   2.840   3.595  16.337  0.2895 -0.6960 -0.0471
  630TMC3     C 9384   2.424   3.594  16.360  0.3469  0.4519  0.3796
  630TMC3     O 9385   2.375   3.488  16.406 -0.0717 -0.2448 -0.2521
  630TMC3     H 9386   2.588   3.782  16.234  1.9497  1.7303  1.6776
  630TMC3    H1 9387   2.577   3.429  16.467 -2.2090  0.4190 -1.4270
  630TMC3    H2 9388   2.949   3.599  16.334  0.2062  1.4945 -0.3536
  630TMC3    C7 9389   2.846   3.385  16.459 -0.2871 -0.0580 -0.2947
  630TMC3    C8 9390   2.848   3.823  16.307 -0.0502 -0.3148 -0.4154
  630TMC3    O1 9391   2.962   3.375  16.423 -0.1503  0.3467  0.8558
  630TMC3    O2 9392   2.971   3.807  16.309 -0.7156 -0.0263 -0.1587
  631MPD2     C 9393   1.147   3.151  15.023  0.0646  0.5949  0.5270
  631MPD2    C1 9394   1.190   3.271  14.980 -0.5357  0.1821  0.1408
  631MPD2    C2 9395   1.305   3.314  15.040 -0.4145  0.1524 -0.2315
  631MPD2    C3 9396   1.391   3.241  15.123  0.0359  0.1968  0.4603
  631MPD2    C4 9397   1.338   3.123  15.166 -0.4659 -0.0746 -0.0572
  631MPD2    C5 9398   1.222   3.081  15.109  0.2537  0.1824 -0.4952
  631MPD2     H 9399   1.345   3.410  15.010  1.7774 -0.9466 -0.8472
  631MPD2    H1 9400   1.391   3.049  15.226 -1.7563 -0.7336  0.2745
  631MPD2    H2 9401   1.057   3.103  14.987  0.3798 -0.0159  0.5466
  631MPD2    H3 9402   1.190   2.981  15.133 -0.2666  0.3113 -0.6690
  631MPD2     N 9403   1.518   3.293  15.158  0.2250 -0.2283  0.1416
  631MPD2    H5 9404   1.543   3.382  15.116 -2.9203 -0.1030 -1.4324
  631MPD2    N1 9405   1.117   3.348  14.887  0.5369 -0.2502 -0.8776
  631MPD2    H7 9406   1.036   3.302  14.845 -0.7482  0.6721  0.5638
  632TMC3    C1 9407   1.050   3.545  14.809 -0.3823 -0.0219 -0.0768
  632TMC3    C2 9408   0.951   3.546  14.908  0.5761  0.6396  0.4847
  632TMC3    C3 9409   0.863   3.661  14.923  0.5816  0.1085 -0.4727
  632TMC3    C4 9410   1.064   3.660  14.735 -0.9238 -0.0337  0.1389
  632TMC3    C5 9411   0.980   3.764  14.759 -0.8872  0.3599  0.6954
  632TMC3    C6 9412   0.876   3.769  14.846 -0.5891  0.3066 -0.4137
  632TMC3     C 9413   1.161   3.458  14.822 -0.1159 -1.0533  0.2385
  632TMC3     O 9414   1.274   3.510  14.822 -0.7718  0.0377 -0.0964
  632TMC3     H 9415   0.941   3.467  14.982  1.6925 -1.4016 -1.5625
  632TMC3    H1 9416   1.141   3.660  14.659 -0.2204  2.0796  0.8604
  632TMC3    H2 9417   0.801   3.848  14.847 -0.9036 -0.0252  1.4866
  632TMC3    C7 9418   0.958   3.855  14.648 -0.6770  0.3177  0.4389
  632TMC3    C8 9419   0.755   3.641  15.014  0.4455 -0.1894  0.9986
  632TMC3    O1 9420   0.910   3.961  14.678  0.1256  0.2122  0.5171
  632TMC3    O2 9421   0.707   3.529  15.013  0.2128  0.0980  0.4787
  633MPD2     C 9422   0.165   1.223  16.998  0.0259 -0.2362 -0.3014
  633MPD2    C1 9423   0.202   1.169  16.874 -0.1797  0.2974 -0.4489
  633MPD2    C2 9424   0.196   1.034  16.863  0.2375  0.4131  0.1921
  633MPD2    C3 9425   0.153   0.949  16.963  0.1141  0.6033  0.0263
  633MPD2    C4 9426   0.126   0.999  17.088  0.2112  0.2025  0.1989
  633MPD2    C5 9427   0.138   1.134  17.106  0.1420 -0.1164 -0.6698
  633MPD2     H 9428   0.231   0.998  16.767  0.8462 -1.8200  1.2671
  633MPD2    H1 9429   0.119   0.927  17.168  2.4225 -0.1613  0.0718
  633MPD2    H2 9430   0.154   1.329  17.014 -0.3437 -0.3552  0.2557
  633MPD2    H3 9431   0.124   1.176  17.204  0.6266 -0.1658 -0.5793
  633MPD2     N 9432   0.169   0.806  16.938 -0.6542  0.0159 -0.2142
  633MPD2    H5 9433   0.169   0.737  17.012 -1.2535  2.0172  1.6949
  633MPD2    N1 9434   0.249   1.246  16.765  0.4799 -0.5620 -0.1244
  633MPD2    H7 9435   0.276   1.199  16.679  2.6997  0.3689  0.0464
  634TMC3    C1 9436   0.343   1.444  16.663 -1.0088 -0.4195  0.1496
  634TMC3    C2 9437   0.424   1.367  16.581  1.0045  0.2451 -0.5806
  634TMC3    C3 9438   0.469   1.418  16.464  0.5023 -0.5159 -0.9916
  634TMC3    C4 9439   0.299   1.570  16.623  0.6528  0.0800  0.5303
  634TMC3    C5 9440   0.353   1.615  16.502  0.5490 -0.1099 -0.0620
  634TMC3    C6 9441   0.444   1.547  16.427  0.3138 -0.1857 -0.0544
  634TMC3     C 9442   0.277   1.383  16.773 -0.1524  0.2452 -0.5664
  634TMC3     O 9443   0.249   1.465  16.860  0.0609 -0.3692  0.1780
  634TMC3     H 9444   0.464   1.277  16.626  1.6387  0.3835 -0.8719
  634TMC3    H1 9445   0.245   1.630  16.696  0.0876 -0.1551  0.3083
  634TMC3    H2 9446   0.481   1.593  16.337  1.3464 -0.0223  0.4595
  634TMC3    C7 9447   0.320   1.747  16.450  0.3219 -0.0458 -1.0763
  634TMC3    C8 9448   0.512   1.326  16.365  0.5733 -0.0633 -0.2448
  634TMC3    O1 9449   0.397   1.785  16.366 -0.2750 -0.7493  0.3417
  634TMC3    O2 9450   0.496   1.206  16.397 -0.0546 -0.4007  0.6266
  635TMC3    C1 9451   0.990   2.206  17.551  0.4279 -0.4772 -1.1556
  635TMC3    C2 9452   1.020   2.213  17.416 -0.2517  0.0869  0.6844
  635TMC3    C3 9453   0.925   2.164  17.328  0.6942  0.1345 -0.0022
  635TMC3    C4 9454   0.867   2.157  17.586  0.1150 -0.2582  0.0778
  635TMC3    C5 9455   0.774   2.124  17.494 -0.0805  0.4133  0.2083
  635TMC3    C6 9456   0.807   2.117  17.362 -0.0170  0.1023 -0.1030
  635TMC3     C 9457   1.058   2.269  17.664  0.0159 -0.1982 -0.3970
  635TMC3     O 9458   1.000   2.265   0.033  0.1861  0.5124  0.2163
  635TMC3     H 9459   1.103   2.275  17.384  1.1491 -0.8139  2.5783
  635TMC3    H1 9460   0.822   2.164  17.684 -0.4163 -1.8313 -0.0558
  635TMC3    H2 9461   0.735   2.092  17.285  2.1565 -1.0493 -1.7858
  635TMC3    C7 9462   0.640   2.085  17.534 -0.2373  0.0587  0.3972
  635TMC3    C8 9463   0.944   2.208  17.196 -0.2847  0.0912 -0.4999
  635TMC3    O1 9464   0.636   2.044  17.649 -0.6874 -0.4961 -0.1761
  635TMC3    O2 9465   0.856   2.275  17.140 -0.1621 -0.3484 -0.2502
  636MPD2     C 9466   1.479   1.549  16.043  0.6691 -0.3074  0.3499
  636MPD2    C1 9467   1.441   1.576  16.174 -0.1551  0.2614  0.1752
  636MPD2    C2 9468   1.425   1.473  16.260  0.3282  0.9216  0.2276
  636MPD2    C3 9469   1.426   1.341  16.220  0.7962  0.1615  0.0100
  636MPD2    C4 9470   1.468   1.315  16.098  0.0530 -0.3663 -0.2300
  636MPD2    C5 9471   1.496   1.418  16.010  0.1116  0.1377  0.4971
  636MPD2     H 9472   1.375   1.482  16.356  1.9620 -0.9777  1.2628
  636MPD2    H1 9473   1.471   1.213  16.060  1.2229 -0.4964  0.2136
  636MPD2    H2 9474   1.494   1.629  15.971 -1.5564  1.0371  1.3523
  636MPD2    H3 9475   1.521   1.400  15.906  0.8980 -0.1901  0.7439
  636MPD2     N 9476   1.391   1.235  16.309  0.1362  0.2077  0.2509
  636MPD2    H5 9477   1.382   1.267  16.405 -0.5505  1.3358 -0.1839
  636MPD2    N1 9478   1.429   1.708  16.222 -0.0821 -0.0729 -0.8983
  636MPD2    H7 9479   1.420   1.721  16.323  1.3591 -0.9685 -0.6491
  637TMC3    C1 9480   1.438   1.019  16.379  0.5485  0.0148  0.5800
  637TMC3    C2 9481   1.479   1.101  16.483  0.6386  0.1688 -0.4264
  637TMC3    C3 9482   1.612   1.106  16.505  0.0394  0.2677 -0.0519
  637TMC3    C4 9483   1.528   0.930  16.314 -0.2801 -0.1836  0.4492
  637TMC3    C5 9484   1.666   0.949  16.336 -0.1687  0.2869  0.4798
  637TMC3    C6 9485   1.705   1.028  16.441 -0.2553 -0.2110 -0.0653
  637TMC3     C 9486   1.371   1.099  16.277 -0.5472 -0.5699  0.0892
  637TMC3     O 9487   1.355   1.049  16.164 -0.6938  0.1378 -0.2139
  637TMC3     H 9488   1.411   1.156  16.548  0.9806 -1.0232  0.9326
  637TMC3    H1 9489   1.494   0.874  16.227  2.0959 -1.8317  0.6040
  637TMC3    H2 9490   1.808   1.056  16.460 -0.4611  0.1108  0.5530
  637TMC3    C7 9491   1.725   1.005  16.213  0.0756  0.4152  0.1865
  637TMC3    C8 9492   1.649   1.242  16.535 -0.4420 -0.0157  1.0108
  637TMC3    O1 9493   1.784   1.113  16.227  0.5049  0.2102  0.0856
  637TMC3    O2 9494   1.582   1.293  16.627  0.3540 -0.2216  0.0436
  638MPD2     C 9495   1.536   0.441  15.038  0.0165  0.1533 -0.2908
  638MPD2    C1 9496   1.634   0.381  14.960 -0.0004  0.9791 -0.5817
  638MPD2    C2 9497   1.662   0.246  14.980 -0.0850 -0.0706 -0.0190
  638MPD2    C3 9498   1.583   0.169  15.070  0.3423 -0.5513  0.1366
  638MPD2    C4 9499   1.489   0.240  15.145 -0.6287  0.4871  0.0587
  638MPD2    C5 9500   1.478   0.376  15.138 -0.1309 -0.0085 -0.2846
  638MPD2     H 9501   1.729   0.191  14.914  0.3543  1.0821 -0.5211
  638MPD2    H1 9502   1.432   0.195  15.225 -1.7281 -1.4750 -1.8105
  638MPD2    H2 9503   1.500   0.543  15.027 -0.3754  0.0219 -0.2033
  638MPD2    H3 9504   1.419   0.433  15.208  1.4502  1.0710  0.1827
  638MPD2     N 9505   1.588   0.029  15.063  0.7089 -0.8330 -0.1549
  638MPD2    H5 9506   1.663   4.729  15.006  1.3976 -0.3223  0.4263
  638MPD2    N1 9507   1.716   0.454  14.864  0.2759  0.3350 -0.4470
  638MPD2    H7 9508   1.789   0.403  14.816  0.6665  0.7244 -0.2612
  639TMC3    C1 9509   1.539   4.538  15.081 -0.3220 -0.0899  0.3417
  639TMC3    C2 9510   1.443   4.476  15.009 -0.1293 -0.4908 -0.5570
  639TMC3    C3 9511   1.481   4.374  14.925 -1.2031 -0.4140 -0.1490
  639TMC3    C4 9512   1.673   4.508  15.062  0.1590  0.0878  0.2832
  639TMC3    C5 9513   1.704   4.404  14.981  0.2904  0.0338  0.1831
  639TMC3    C6 9514   1.607   4.337  14.915 -0.3248 -0.5624  0.2516
  639TMC3     C 9515   1.499   4.676  15.107 -0.1831 -0.0290  0.4721
  639TMC3     O 9516   1.385   4.697  15.147  0.1624 -0.2513  0.1909
  639TMC3     H 9517   1.343   4.518  15.014 -0.0451 -0.2024 -1.2484
  639TMC3    H1 9518   1.750   4.557  15.122 -0.6875  2.1055 -0.2824
  639TMC3    H2 9519   1.625   4.251  14.852  0.7261  0.7817 -1.3043
  639TMC3    C7 9520   1.839   4.391  14.929 -0.3719 -0.2288  0.2412
  639TMC3    C8 9521   1.400   4.340  14.812  0.2734 -0.4264 -0.1655
  639TMC3    O1 9522   1.917   4.481  14.950 -0.3535  0.3215 -0.7534
  639TMC3    O2 9523   1.467   4.317  14.710  0.2659 -0.5787  0.6456
  640MPD2     C 9524   2.016   4.056  10.248  0.3658  0.3622 -0.2300
  640MPD2    C1 9525   2.102   4.130  10.168 -0.5522 -0.0848  0.3866
  640MPD2    C2 9526   2.164   4.240  10.218  0.2088 -0.6132 -0.1889
  640MPD2    C3 9527   2.141   4.278  10.350  0.2550  0.1372  0.6504
  640MPD2    C4 9528   2.054   4.207  10.434 -0.0227 -0.1000 -0.2330
  640MPD2    C5 9529   1.993   4.095  10.385  0.0226  0.1023 -0.1426
  640MPD2     H 9530   2.244   4.281  10.158 -0.6169 -2.1944 -2.3447
  640MPD2    H1 9531   2.036   4.227  10.539  1.0784  0.3251 -0.1269
  640MPD2    H2 9532   1.988   3.956  10.217 -1.3619  0.2729  1.5889
  640MPD2    H3 9533   1.943   4.033  10.459 -1.5171  1.3170 -0.1751
  640MPD2     N 9534   2.196   4.388  10.417 -1.0113  0.3613  0.2233
  640MPD2    H5 9535   2.150   4.406  10.506  0.2390 -0.3343  1.0161
  640MPD2    N1 9536   2.115   4.083  10.033 -0.0553 -0.2495 -0.2153
  640MPD2    H7 9537   2.088   3.988  10.008 -2.0987  0.4230 -0.5018
  641TMC3    C1 9538   2.153   4.095   9.788  0.1266 -0.4375  0.1966
  641TMC3    C2 9539   2.187   3.966   9.774  0.7421 -0.1712 -0.2837
  641TMC3    C3 9540   2.191   3.922   9.646  0.0716 -0.4625 -0.0367
  641TMC3    C4 9541   2.120   4.177   9.688  0.3346  0.4547  0.2764
  641TMC3    C5 9542   2.115   4.120   9.562  0.7388  0.0651 -0.4697
  641TMC3    C6 9543   2.161   3.992   9.538  0.8176  0.6368  0.7315
  641TMC3     C 9544   2.156   4.163   9.924  0.8101 -0.4328  0.1783
  641TMC3     O 9545   2.175   4.287   9.916  0.1769  0.0319  1.0626
  641TMC3     H 9546   2.224   3.907   9.857  1.4371  1.3662  0.4977
  641TMC3    H1 9547   2.074   4.274   9.707 -3.2787 -1.8628  3.3259
  641TMC3    H2 9548   2.170   3.954   9.437  0.7018  2.6498 -0.0304
  641TMC3    C7 9549   2.050   4.193   9.457  0.1756  0.0482 -0.1989
  641TMC3    C8 9550   2.247   3.788   9.621 -0.1297 -0.3632  0.0036
  641TMC3    O1 9551   2.037   4.126   9.355  0.0559 -0.1693 -0.1325
  641TMC3    O2 9552   2.302   3.764   9.515 -0.1627  0.6585  0.0321
  642TMC3    C1 9553   3.172   0.137  12.728  0.5553 -0.1569  0.4904
  642TMC3    C2 9554   3.299   0.114  12.682  1.0247  0.5781  0.0091
  642TMC3    C3 9555   3.317   0.021  12.589  0.0545 -0.0350 -0.3414
  642TMC3    C4 9556   3.063   0.077  12.672 -0.6079  0.0792 -0.4074
  642TMC3    C5 9557   3.090   4.715  12.584 -0.2748  0.2188 -0.4514
  642TMC3    C6 9558   3.214   4.681  12.538  0.1137  1.1574 -1.0725
  642TMC3     C 9559   3.156   0.227  12.843 -0.2521 -0.0973 -0.1348
  642TMC3     O 9560   3.241   0.311  12.870  0.1065 -0.1382 -0.5624
  642TMC3     H 9561   3.385   0.166  12.723  1.5174 -0.9896  0.9712
  642TMC3    H1 9562   2.961   0.102  12.698 -0.5816  1.0942 -1.2865
  642TMC3    H2 9563   3.225   4.604  12.463  0.8082  0.9412 -0.7465
  642TMC3    C7 9564   2.985   4.636  12.521 -0.2750 -0.2714 -0.6222
  642TMC3    C8 9565   3.453   4.731  12.531  0.0416 -0.1139 -1.2538
  642TMC3    O1 9566   3.018   4.559  12.436  0.3221  0.3058  0.0400
  642TMC3    O2 9567   3.447   4.674  12.422  0.9831 -0.3634 -0.5800
  643TMC3    C1 9568   2.500   3.992   0.065 -0.4311  0.6564 -0.1904
  643TMC3    C2 9569   2.378   3.936   0.026 -0.3100 -0.6913 -0.8658
  643TMC3    C3 9570   2.366   3.859  17.658 -0.0408 -0.2529  0.9889
  643TMC3    C4 9571   2.605   3.981  17.725 -0.3965  0.3940  0.8654
  643TMC3    C5 9572   2.590   3.920  17.605 -0.8016 -0.0062  0.2686
  643TMC3    C6 9573   2.471   3.847  17.577  0.1507 -0.2765  0.3161
  643TMC3     C 9574   2.500   4.067   0.180  0.5472  0.0695 -0.3705
  643TMC3     O 9575   2.413   4.150   0.203 -0.5547 -0.1472 -0.9298
  643TMC3     H 9576   2.290   3.951   0.087 -1.2302 -2.6105 -1.7346
  643TMC3    H1 9577   2.696   4.037  17.745 -0.2261  0.5683 -0.4067
  643TMC3    H2 9578   2.459   3.809  17.476 -1.2959  1.0640 -0.0235
  643TMC3    C7 9579   2.650   3.984  17.496 -0.0658 -0.1732  0.0276
  643TMC3    C8 9580   2.260   3.911  17.573  0.4776 -0.9765  0.2967
  643TMC3    O1 9581   2.676   4.104  17.510  0.5985  0.3210 -0.0644
  643TMC3    O2 9582   2.239   3.845  17.476 -0.4066 -0.1038  0.7502
  644MPD2     C 9583   2.675   0.118   9.650  0.1073  0.1737 -0.0414
  644MPD2    C1 9584   2.633   0.049   9.762 -0.8496  0.1463  0.1603
  644MPD2    C2 9585   2.593   0.130   9.866 -0.1174 -0.2975  0.4987
  644MPD2    C3 9586   2.592   0.273   9.861  0.1500 -0.2643 -0.2025
  644MPD2    C4 9587   2.619   0.334   9.740  0.6264 -0.1366 -1.1762
  644MPD2    C5 9588   2.656   0.248   9.635  0.3591 -0.3226  0.0998
  644MPD2     H 9589   2.550   0.087   9.956 -0.7642 -0.9633 -0.1238
  644MPD2    H1 9590   2.607   0.441   9.724  0.2479 -0.0594 -0.3804
  644MPD2    H2 9591   2.708   0.066   9.561  1.5883  0.9168  0.0800
  644MPD2    H3 9592   2.682   0.289   9.538  0.0030 -1.8853 -0.6520
  644MPD2     N 9593   2.553   0.338   9.977  0.1365 -0.0608  0.1850
  644MPD2    H5 9594   2.543   0.279  10.059 -0.4095 -0.5811 -0.2572
  644MPD2    N1 9595   2.625   4.642   9.758  0.3353 -0.1054 -0.3163
  644MPD2    H7 9596   2.644   4.603   9.666 -0.3745  0.5743 -0.7525
  645TMC3    C1 9597   2.481   0.499  10.128 -0.2366  0.2386 -0.0959
  645TMC3    C2 9598   2.396   0.398  10.165  0.3432 -0.4510  0.0158
  645TMC3    C3 9599   2.306   0.425  10.267 -0.8485  0.5930 -0.4181
  645TMC3    C4 9600   2.483   0.619  10.190  0.0542 -1.2490 -0.7243
  645TMC3    C5 9601   2.391   0.638  10.291  0.2373  0.5056 -0.3574
  645TMC3    C6 9602   2.312   0.546  10.345 -0.1240 -0.6562  0.5091
  645TMC3     C 9603   2.546   0.477  10.004 -0.4204 -0.0213  0.0421
  645TMC3     O 9604   2.583   0.571   9.930  0.1029 -0.2575  0.1739
  645TMC3     H 9605   2.374   0.299  10.126  1.0653 -0.8536  0.6311
  645TMC3    H1 9606   2.550   0.702  10.170 -0.2469 -0.1069  3.0045
  645TMC3    H2 9607   2.234   0.572  10.415 -1.5613 -2.7767 -0.2961
  645TMC3    C7 9608   2.355   0.779  10.328 -0.5043  0.3708 -0.0522
  645TMC3    C8 9609   2.227   0.320  10.317  0.1298 -0.6406 -0.0070
  645TMC3    O1 9610   2.377   0.870  10.246 -0.1105  0.2244 -0.4160
  645TMC3    O2 9611   2.203   0.225  10.241 -0.3192 -0.0707 -0.4249
  646MPD2     C 9612   1.825   3.798  14.137 -0.6502  0.3310 -0.0164
  646MPD2    C1 9613   1.732   3.792  14.247  0.9021  0.1995 -0.2480
  646MPD2    C2 9614   1.623   3.876  14.246 -0.0445 -0.6986  0.7476
  646MPD2    C3 9615   1.608   3.965  14.139  0.3883 -0.2467  0.5621
  646MPD2    C4 9616   1.703   3.962  14.036 -0.2135 -0.8607  0.0417
  646MPD2    C5 9617   1.812   3.881  14.033  0.4191  0.2315 -0.0940
  646MPD2     H 9618   1.552   3.877  14.328 -0.3114 -1.0670  0.5191
  646MPD2    H1 9619   1.686   4.023  13.948 -1.3992 -1.3398 -0.0663
  646MPD2    H2 9620   1.913   3.735  14.125 -1.6815 -1.3597  1.2683
  646MPD2    H3 9621   1.890   3.871  13.958  0.3461 -1.4203  0.0460
  646MPD2     N 9622   1.488   4.038  14.130 -0.1068  0.2608 -0.6852
  646MPD2    H5 9623   1.428   4.031  14.212  1.8944  1.4584  0.8816
  646MPD2    N1 9624   1.775   3.712  14.361  0.3062 -0.2060 -0.5657
  646MPD2    H7 9625   1.865   3.667  14.350  0.6284  0.1486  0.5728
  647TMC3    C1 9626   1.744   3.554  14.532 -0.3333  0.4599 -0.2287
  647TMC3    C2 9627   1.655   3.460  14.583  0.8459  0.0820 -0.6087
  647TMC3    C3 9628   1.701   3.353  14.649 -0.5827 -0.3612 -0.2399
  647TMC3    C4 9629   1.883   3.536  14.547  0.3023  0.4198  0.1345
  647TMC3    C5 9630   1.927   3.418  14.596  0.1372  0.9729  0.6868
  647TMC3    C6 9631   1.838   3.323  14.641 -0.0185  0.4520 -0.1070
  647TMC3     C 9632   1.687   3.656  14.446  0.2267 -0.0524 -0.0051
  647TMC3     O 9633   1.570   3.690  14.456 -0.4346  0.2285  0.0334
  647TMC3     H 9634   1.550   3.484  14.569  0.3272 -0.5611  2.0594
  647TMC3    H1 9635   1.956   3.606  14.507  1.3532 -1.0314 -0.5148
  647TMC3    H2 9636   1.882   3.231  14.677 -0.8233 -0.8732 -2.4515
  647TMC3    C7 9637   2.062   3.413  14.645  0.6173 -0.1686  0.2957
  647TMC3    C8 9638   1.615   3.241  14.671  0.0028 -0.1071  0.3431
  647TMC3    O1 9639   2.071   3.358  14.753  0.2363  0.1775  0.2327
  647TMC3    O2 9640   1.520   3.228  14.593  0.4521  0.3794  0.2217
  648TMC3    C1 9641   1.107   1.331  15.904 -0.0062 -0.4161 -0.0330
  648TMC3    C2 9642   1.154   1.208  15.865 -0.2824 -0.1707  0.2024
  648TMC3    C3 9643   1.178   1.185  15.731  0.3395  0.2674 -0.1111
  648TMC3    C4 9644   1.062   1.417  15.809  0.3906  0.4045  0.2621
  648TMC3    C5 9645   1.072   1.390  15.682 -0.3806 -0.4950  0.6545
  648TMC3    C6 9646   1.131   1.272  15.637 -0.2593  0.8236 -0.2750
  648TMC3     C 9647   1.085   1.361  16.043  0.5196 -0.5034 -0.3235
  648TMC3     O 9648   1.044   1.474  16.069  0.0831 -0.2657  0.0076
  648TMC3     H 9649   1.193   1.130  15.929 -1.3635 -1.8991 -1.2175
  648TMC3    H1 9650   1.041   1.518  15.845  2.1092  0.7943  0.1767
  648TMC3    H2 9651   1.147   1.244  15.533 -0.9102  0.6418 -0.3251
  648TMC3    C7 9652   1.012   1.475  15.586  0.2781 -0.0035 -0.1695
  648TMC3    C8 9653   1.254   1.070  15.687  0.8588 -0.1586 -0.1905
  648TMC3    O1 9654   1.049   1.450  15.473  0.0805 -0.7460  0.6166
  648TMC3    O2 9655   1.349   1.093  15.616  0.0753  0.0828  0.0580
  649TMC3    C1 9656   4.203   2.490  12.848 -0.0965  1.2278  0.3747
  649TMC3    C2 9657   4.337   2.504  12.850 -0.2003  0.1066 -0.5854
  649TMC3    C3 9658   4.408   2.452  12.952  0.1361 -0.0937 -0.0901
  649TMC3    C4 9659   4.134   2.420  12.949  0.1580  0.9808  1.2446
  649TMC3    C5 9660   4.209   2.374  13.053  0.9164  0.2680 -0.0646
  649TMC3    C6 9661   4.341   2.391  13.061  0.3583  0.0203 -0.2113
  649TMC3     C 9662   4.121   2.544  12.738 -0.1378  0.6415 -0.0483
  649TMC3     O 9663   4.188   2.571  12.639  0.9377 -0.0133  0.3442
  649TMC3     H 9664   4.384   2.557  12.768 -0.5915 -0.1669 -0.9864
  649TMC3    H1 9665   4.029   2.394  12.938  0.3764 -0.3406  2.1662
  649TMC3    H2 9666   4.397   2.354  13.146 -0.0975 -0.7337 -0.2374
  649TMC3    C7 9667   4.131   2.326  13.162  0.5035  0.4678 -0.4923
  649TMC3    C8 9668   4.547   2.494  12.970  0.0714 -0.4371  0.5349
  649TMC3    O1 9669   4.010   2.361  13.175 -0.1242  0.6311  0.1236
  649TMC3    O2 9670   4.597   2.530  12.865 -0.4820  1.1643  0.0887
  650TMC3    C1 9671   2.537   3.901  12.861 -0.0354 -0.6729 -0.2263
  650TMC3    C2 9672   2.541   4.036  12.879  0.1726 -0.3857 -0.6724
  650TMC3    C3 9673   2.444   4.113  12.825  0.0029 -0.5647 -0.2078
  650TMC3    C4 9674   2.440   3.847  12.779 -0.2816  0.1521 -0.2582
  650TMC3    C5 9675   2.341   3.933  12.724 -0.3630 -0.3003  0.1301
  650TMC3    C6 9676   2.345   4.067  12.742  0.0582  0.5280 -0.0535
  650TMC3     C 9677   2.617   3.828  12.951 -0.0929  0.3310  0.3935
  650TMC3     O 9678   2.669   3.881  13.049 -0.0286 -0.3871  0.0118
  650TMC3     H 9679   2.618   4.073  12.947 -0.8134  0.7832 -0.1918
  650TMC3    H1 9680   2.432   3.740  12.758 -0.7539  0.1395 -0.0009
  650TMC3    H2 9681   2.280   4.133  12.686 -0.8987 -0.8921 -0.6325
  650TMC3    C7 9682   2.206   3.882  12.727 -0.1955 -0.4076 -0.0454
  650TMC3    C8 9683   2.395   4.224  12.904  0.0507 -0.0908  0.5798
  650TMC3    O1 9684   2.191   3.776  12.788  0.0030 -0.4794  0.5730
  650TMC3    O2 9685   2.477   4.299  12.955 -0.5546 -0.1740 -0.2572
  651MPD2     C 9686   1.278   1.424  11.164  0.4761 -0.2965 -0.0057
  651MPD2    C1 9687   1.232   1.434  11.032  0.4778 -0.4410 -0.1788
  651MPD2    C2 9688   1.312   1.480  10.927 -1.3945  0.3436 -0.1051
  651MPD2    C3 9689   1.445   1.503  10.948  0.4547 -0.0392 -0.1455
  651MPD2    C4 9690   1.490   1.484  11.073  0.4900 -0.2853  0.0756
  651MPD2    C5 9691   1.414   1.455  11.179  0.4586 -0.2622 -0.3002
  651MPD2     H 9692   1.276   1.492  10.826  0.2996  0.7409 -0.6566
  651MPD2    H1 9693   1.595   1.484  11.103 -0.1688 -2.0660  2.3715
  651MPD2    H2 9694   1.219   1.395  11.250 -0.8385 -1.9778 -1.4648
  651MPD2    H3 9695   1.471   1.442  11.270 -0.6960 -0.6686  0.3705
  651MPD2     N 9696   1.536   1.540  10.846  0.2499  1.0280  0.2056
  651MPD2    H5 9697   1.494   1.548  10.754  0.6356  1.8304  0.0932
  651MPD2    N1 9698   1.099   1.410  10.993 -0.6821 -0.3330 -0.3694
  651MPD2    H7 9699   1.080   1.431  10.895  0.7684  2.0292 -0.1478
  652TMC3    C1 9700   1.938   1.640  10.631  0.2616  0.0124  0.2288
  652TMC3    C2 9701   1.859   1.562  10.713 -0.2611  0.1626 -0.7788
  652TMC3    C3 9702   1.726   1.594  10.723 -0.3837 -0.9585 -0.0713
  652TMC3    C4 9703   1.884   1.747  10.552  0.3941 -0.0135  0.0101
  652TMC3    C5 9704   1.749   1.774  10.574  0.8919  0.0512 -0.2996
  652TMC3    C6 9705   1.670   1.700  10.655  0.2485 -0.4760  0.4958
  652TMC3     C 9706   2.083   1.626  10.664 -0.0038  0.1302 -1.0988
  652TMC3     O 9707   2.109   1.564  10.765  0.1793  0.6841  0.2566
  652TMC3     H 9708   1.900   1.481  10.771 -2.2465 -0.3194 -0.0471
  652TMC3    H1 9709   1.960   1.810  10.508 -1.4282  1.5027 -0.9766
  652TMC3    H2 9710   1.572   1.734  10.685  0.0111 -1.3604  0.7247
  652TMC3    C7 9711   1.676   1.860  10.475  0.0067 -0.0476 -0.1142
  652TMC3    C8 9712   1.671   1.549  10.851 -0.2232 -0.4132 -0.0682
  652TMC3    O1 9713   1.557   1.861  10.486  0.6835 -0.1310 -0.2740
  652TMC3    O2 9714   1.749   1.518  10.942  0.1443  0.3150  0.2141
  653MPD2     C 9715   4.691   1.076  17.502  0.5901  0.1337  0.0877
  653MPD2    C1 9716   4.631   1.159  17.403  0.1966  0.2659  0.1680
  653MPD2    C2 9717   4.573   1.102  17.290  0.0004  0.2163  0.3869
  653MPD2    C3 9718   4.572   0.966  17.265 -0.1568  0.0167  0.6005
  653MPD2    C4 9719   4.630   0.884  17.367  0.1426 -0.3646 -0.2807
  653MPD2    C5 9720   4.689   0.941  17.479 -0.3791  0.4998 -0.4530
  653MPD2     H 9721   4.527   1.168  17.217  1.3939  0.7593  0.0016
  653MPD2    H1 9722   4.640   0.777  17.359 -2.0707 -0.2168 -4.8585
  653MPD2    H2 9723   0.001   1.110  17.594 -0.6948 -4.2143  2.3648
  653MPD2    H3 9724   4.727   0.867  17.549 -2.9444 -1.4888 -1.1429
  653MPD2     N 9725   4.527   0.913  17.141 -0.2832 -0.5041 -0.2466
  653MPD2    H5 9726   4.482   0.976  17.076 -1.6267  1.0184  2.1461
  653MPD2    N1 9727   4.633   1.296  17.416  0.2273  0.6401 -0.8293
  653MPD2    H7 9728   4.619   1.345  17.328 -2.9853  0.8665 -0.1656
  654TMC3    C1 9729   4.504   0.757  16.968  0.7842  0.2183  0.4440
  654TMC3    C2 9730   4.431   0.856  16.907  0.1908 -0.5638 -0.8640
  654TMC3    C3 9731   4.424   0.859  16.772  0.1028 -0.2617  0.2892
  654TMC3    C4 9732   4.584   0.663  16.898  0.2874 -0.1197 -0.1593
  654TMC3    C5 9733   4.561   0.669  16.762  0.1071 -0.3433  0.4328
  654TMC3    C6 9734   4.485   0.764  16.703  0.3959 -0.1064 -0.4641
  654TMC3     C 9735   4.541   0.780  17.108  0.0581  0.7965 -0.2021
  654TMC3     O 9736   4.594   0.686  17.167  0.0136 -0.2040 -0.2197
  654TMC3     H 9737   4.379   0.934  16.962  0.3918 -0.6784 -0.5065
  654TMC3    H1 9738   4.674   0.625  16.944  0.2913  1.0178  0.7652
  654TMC3    H2 9739   4.450   0.750  16.601  1.9922 -2.4014 -0.7104
  654TMC3    C7 9740   4.614   0.565  16.677  0.4009  0.1379  0.0031
  654TMC3    C8 9741   4.337   0.953  16.705  0.3712  0.1124 -0.0382
  654TMC3    O1 9742   4.584   0.563  16.560  0.5612 -0.9148  0.4409
  654TMC3    O2 9743   4.253   1.014  16.773  0.2409  0.5710  0.0577
  655MPD2     C 9744   1.441   1.426  15.565 -0.2086  0.3832  0.0310
  655MPD2    C1 9745   1.366   1.516  15.489 -0.0022  0.2251  0.5998
  655MPD2    C2 9746   1.343   1.492  15.353 -0.3409  0.7783 -0.6930
  655MPD2    C3 9747   1.391   1.380  15.283  1.2046 -0.1940 -0.2596
  655MPD2    C4 9748   1.472   1.297  15.357 -0.2436 -0.3190  0.3169
  655MPD2    C5 9749   1.499   1.320  15.493 -0.3568 -0.4071  0.0261
  655MPD2     H 9750   1.292   1.570  15.297  0.5807  2.0496  0.2343
  655MPD2    H1 9751   1.521   1.207  15.322  3.4862  1.7714  0.1510
  655MPD2    H2 9752   1.458   1.433  15.672  1.5662 -0.3676 -0.1958
  655MPD2    H3 9753   1.553   1.243  15.546 -0.7113 -1.0760 -0.5934
  655MPD2     N 9754   1.344   1.361  15.153 -0.1801  0.3528  0.8347
  655MPD2    H5 9755   1.280   1.430  15.115 -1.0222  0.0936  1.7648
  655MPD2    N1 9756   1.304   1.630  15.542  0.6059 -0.6987  0.4246
  655MPD2    H7 9757   1.254   1.695  15.483 -0.0800 -2.4731 -0.9570
  656TMC3    C1 9758   1.249   1.784  15.700  0.0451 -0.1472 -0.2260
  656TMC3    C2 9759   1.166   1.774  15.811 -0.2022 -0.4084 -0.2880
  656TMC3    C3 9760   1.078   1.873  15.829  0.1225 -0.2989 -0.7436
  656TMC3    C4 9761   1.243   1.890  15.612 -0.1989  0.2024  0.2454
  656TMC3    C5 9762   1.152   1.986  15.632  0.8230 -0.1840  0.1217
  656TMC3    C6 9763   1.063   1.975  15.732  0.1913 -0.6080  0.3650
  656TMC3     C 9764   1.308   1.657  15.675 -0.4750  0.2292  0.4565
  656TMC3     O 9765   1.354   1.593  15.769 -0.7035  0.3316  0.2896
  656TMC3     H 9766   1.170   1.690  15.879  1.0651 -0.3613 -0.2923
  656TMC3    H1 9767   1.311   1.892  15.528  2.7887 -1.2383  2.6439
  656TMC3    H2 9768   0.976   2.040  15.733  0.6864  0.0232  1.5772
  656TMC3    C7 9769   1.116   2.062  15.511  1.0402 -0.9201  0.0581
  656TMC3    C8 9770   0.955   1.831  15.906 -0.3425 -0.7793 -0.1604
  656TMC3    O1 9771   1.204   2.060  15.425  0.4430  0.2389  0.0567
  656TMC3    O2 9772   0.927   1.713  15.914  0.2167 -0.1551  0.1773
  657TMC3    C1 9773   0.105   0.747  15.298 -0.4634  0.7206 -0.6211
  657TMC3    C2 9774   0.184   0.826  15.375 -0.7945  0.0840  0.3520
  657TMC3    C3 9775   0.136   0.932  15.442 -0.4233 -0.8468 -0.5066
  657TMC3    C4 9776   4.706   0.777  15.288 -0.2854  0.0332  0.0433
  657TMC3    C5 9777   4.659   0.888  15.353 -0.3661  0.4782 -0.3563
  657TMC3    C6 9778   0.007   0.967  15.430 -0.5532 -0.1700 -0.1629
  657TMC3     C 9779   0.154   0.622  15.243 -0.6779  0.1358  0.6358
  657TMC3     O 9780   0.075   0.556  15.179 -0.3218  0.3901  0.0599
  657TMC3     H 9781   0.287   0.800  15.398 -0.4172  2.0465  0.9103
  657TMC3    H1 9782   4.634   0.723  15.228 -1.4055  1.3309  0.2248
  657TMC3    H2 9783   4.721   1.065  15.472  1.2583  0.4390 -0.5935
  657TMC3    C7 9784   4.573   0.973  15.272  0.4722  0.1234  1.0011
  657TMC3    C8 9785   0.224   0.984  15.544 -0.1212  0.4092  0.8600
  657TMC3    O1 9786   4.507   1.060  15.330 -0.5551 -0.2536 -0.3309
  657TMC3    O2 9787   0.345   0.991  15.527 -0.0448 -0.0980  0.1433
  658MPD2     C 9788   1.730   0.964  14.618  0.5109 -0.5390 -0.1772
  658MPD2    C1 9789   1.614   1.009  14.562 -0.2448  0.4872 -0.3906
  658MPD2    C2 9790   1.607   0.994  14.423  0.6840 -0.1415 -0.1371
  658MPD2    C3 9791   1.713   0.962  14.345  0.6250 -0.7084  0.2545
  658MPD2    C4 9792   1.830   0.927  14.400  0.0729 -0.2216 -0.2219
  658MPD2    C5 9793   1.834   0.929  14.540 -0.4156  0.3142 -0.6036
  658MPD2     H 9794   1.519   1.022  14.367 -0.7065 -1.0567  1.6061
  658MPD2    H1 9795   1.919   0.904  14.343  0.5723  0.7330  0.1879
  658MPD2    H2 9796   1.758   0.981  14.722  1.8229  0.9089 -0.7572
  658MPD2    H3 9797   1.927   0.907  14.592 -0.0308  3.8695  0.2196
  658MPD2     N 9798   1.685   0.955  14.208  0.5652 -0.6682 -0.0321
  658MPD2    H5 9799   1.591   0.972  14.174  0.8209  1.9538  0.5663
  658MPD2    N1 9800   1.515   1.059  14.646  0.6732  0.4893 -0.0918
  658MPD2    H7 9801   1.524   1.045  14.746  2.1918 -2.2028 -0.6127
  659TMC3    C1 9802   1.344   1.190  14.726  0.3845 -0.2130 -0.1713
  659TMC3    C2 9803   1.398   1.196  14.848  0.7055 -0.1228  0.9209
  659TMC3    C3 9804   1.326   1.242  14.951  0.7342 -0.5481  0.5468
  659TMC3    C4 9805   1.212   1.205  14.710  0.5093 -0.0250 -0.0542
  659TMC3    C5 9806   1.133   1.246  14.818 -0.6753 -0.3107  0.4843
  659TMC3    C6 9807   1.190   1.265  14.938  0.5371  0.4249 -0.0304
  659TMC3     C 9808   1.413   1.138  14.608  0.5011  0.2449  0.1347
  659TMC3     O 9809   1.373   1.159  14.494  0.1780  0.0252 -0.0963
  659TMC3     H 9810   1.506   1.192  14.864  0.7150 -0.6742  0.7193
  659TMC3    H1 9811   1.176   1.218  14.608 -0.0519  1.0384  0.2721
  659TMC3    H2 9812   1.127   1.296  15.021  0.8581  3.2763 -0.8371
  659TMC3    C7 9813   0.994   1.224  14.821  0.6357 -0.1112 -0.0407
  659TMC3    C8 9814   1.387   1.247  15.079 -0.2051  0.0304 -0.1893
  659TMC3    O1 9815   0.921   1.282  14.900 -0.0989  0.3479  0.1984
  659TMC3    O2 9816   1.492   1.180  15.094  0.1036 -0.5249  0.0303
  660MPD2     C 9817   4.420   0.191  12.935  0.3961 -0.2800  0.0502
  660MPD2    C1 9818   4.286   0.221  12.915 -0.1678 -0.3569 -1.1403
  660MPD2    C2 9819   4.194   0.134  12.965 -0.7938  0.2638  0.5862
  660MPD2    C3 9820   4.217   0.024  13.042 -0.5409  0.1439  0.0753
  660MPD2    C4 9821   4.351   4.733  13.058  0.0137 -0.0597  0.2063
  660MPD2    C5 9822   4.449   0.086  13.012 -0.2807  0.1010  0.3021
  660MPD2     H 9823   4.091   0.150  12.937 -0.7613  0.5323  0.6174
  660MPD2    H1 9824   4.380   4.644  13.112 -0.3149 -0.1934  0.1622
  660MPD2    H2 9825   4.488   0.273  12.912 -0.6011  0.5101 -0.0749
  660MPD2    H3 9826   4.552   0.071  13.040 -0.8716  0.4337  2.6215
  660MPD2     N 9827   4.110   4.689  13.088 -0.0126  0.5811  0.6968
  660MPD2    H5 9828   4.141   4.606  13.139 -0.9722 -0.7607 -0.9039
  660MPD2    N1 9829   4.248   0.342  12.854 -0.4212 -0.6370 -0.0377
  660MPD2    H7 9830   4.317   0.386  12.794 -1.5314 -1.3925 -1.8524
  661TMC3    C1 9831   4.085   0.479  12.755  0.1183 -0.1104  0.2716
  661TMC3    C2 9832   4.153   0.462  12.631  0.1217 -0.5421 -0.0808
  661TMC3    C3 9833   4.086   0.503  12.519  0.2604 -0.4298 -0.2004
  661TMC3    C4 9834   3.957   0.539  12.751 -0.2412  0.1684 -0.2612
  661TMC3    C5 9835   3.899   0.587  12.633 -0.3055  0.4414 -0.5635
  661TMC3    C6 9836   3.961   0.557  12.515  0.1278 -0.5414 -0.3600
  661TMC3     C 9837   4.121   0.399  12.863  0.0128 -0.6577  0.6008
  661TMC3     O 9838   4.039   0.385  12.957 -0.5198  0.1557  0.1102
  661TMC3     H 9839   4.244   0.409  12.606  0.8914  0.9815 -0.5012
  661TMC3    H1 9840   3.898   0.538  12.842 -0.1998  0.7940 -0.2223
  661TMC3    H2 9841   3.919   0.594  12.422 -0.4700 -1.1608 -0.3387
  661TMC3    C7 9842   3.759   0.564  12.623  0.4351 -0.6974 -0.6655
  661TMC3    C8 9843   4.153   0.488  12.389 -0.1555 -1.0321 -0.2116
  661TMC3    O1 9844   3.689   0.641  12.692 -0.0380 -0.0212 -0.0480
  661TMC3    O2 9845   4.225   0.390  12.375  0.4491  0.2578 -0.8865
  662MPD2     C 9846   4.415   0.132  16.793  0.0929  0.4794 -0.2378
  662MPD2    C1 9847   4.468   0.056  16.898 -0.1204 -0.3340  0.3073
  662MPD2    C2 9848   4.460   0.105  17.025  0.1834  0.2175 -0.2253
  662MPD2    C3 9849   4.413   0.230  17.050 -0.1000 -0.7272 -0.0875
  662MPD2    C4 9850   4.381   0.309  16.944 -0.9329 -0.6880  0.6137
  662MPD2    C5 9851   4.381   0.261  16.820 -0.1393  0.1896 -0.4159
  662MPD2     H 9852   4.491   0.039  17.105  1.2790 -1.0829 -1.7479
  662MPD2    H1 9853   4.329   0.403  16.962 -0.3016  0.0003 -1.1100
  662MPD2    H2 9854   4.391   0.085  16.699 -0.5370 -0.1974  0.2577
  662MPD2    H3 9855   4.342   0.322  16.738 -1.5417  2.0431  1.6389
  662MPD2     N 9856   4.399   0.290  17.176  0.0103  0.3677 -0.3415
  662MPD2    H5 9857   4.338   0.372  17.176 -0.4655  0.0136 -0.1260
  662MPD2    N1 9858   4.522   4.666  16.882  0.4287  0.2001 -0.5910
  662MPD2    H7 9859   4.570   4.627  16.962 -1.3338 -2.2146 -0.7077
  663TMC3    C1 9860   4.645   4.497  16.790 -0.0807  0.3518  0.3734
  663TMC3    C2 9861   4.696   4.465  16.916  0.2735 -0.8614 -0.5114
  663TMC3    C3 9862   0.076   4.393  16.926 -0.8010  0.4452  0.2887
  663TMC3    C4 9863   4.701   4.445  16.678 -0.3693 -0.1816  0.3695
  663TMC3    C5 9864   0.077   4.373  16.688 -0.2033  0.6282 -0.4141
  663TMC3    C6 9865   0.142   4.357  16.809  0.3071 -0.2574  0.0161
  663TMC3     C 9866   4.557   4.606  16.766 -0.2517  0.0280 -0.5478
  663TMC3     O 9867   4.529   4.624  16.649  0.5727  0.7022 -0.7836
  663TMC3     H 9868   4.622   4.459  16.995  1.4514  2.6001  0.8701
  663TMC3    H1 9869   4.655   4.453  16.580 -0.3844 -2.1233  0.2096
  663TMC3    H2 9870   0.219   4.280  16.802 -0.1921 -0.4532 -3.0416
  663TMC3    C7 9871   0.068   4.243  16.612 -0.1517 -0.6107 -0.9701
  663TMC3    C8 9872   0.095   4.299  17.036  0.1213 -0.2286  1.0702
  663TMC3    O1 9873   0.096   4.250  16.494  0.1242  0.2922  0.0006
  663TMC3    O2 9874   0.193   4.221  17.013  0.0400  0.2986  0.8435
  664MPD2     C 9875   3.059   2.686  17.206 -0.6540  0.0062 -0.6037
  664MPD2    C1 9876   3.118   2.802  17.256 -0.4093 -0.1450  0.7390
  664MPD2    C2 9877   3.095   2.842  17.385  0.0138  0.5104 -0.3025
  664MPD2    C3 9878   3.016   2.769  17.471 -0.2359 -0.0819 -0.4283
  664MPD2    C4 9879   2.942   2.666  17.412  0.8410  0.3721 -0.2090
  664MPD2    C5 9880   2.968   2.620  17.292 -0.3030  0.3875 -0.6721
  664MPD2     H 9881   3.146   2.927  17.428 -1.1913  0.7005  0.7401
  664MPD2    H1 9882   2.881   2.600  17.473  2.1519  0.0118  0.7221
  664MPD2    H2 9883   3.095   2.641  17.115 -0.6112 -0.7300 -0.2257
  664MPD2    H3 9884   2.913   2.534  17.257  0.8461 -0.3581 -0.6289
  664MPD2     N 9885   2.986   2.829  17.595 -0.2019  0.7964 -0.1551
  664MPD2    H5 9886   3.023   2.922  17.613  1.0669  0.2795 -0.1741
  664MPD2    N1 9887   3.202   2.888  17.181 -0.2416 -1.0358 -0.3160
  664MPD2    H7 9888   3.252   2.957  17.236 -2.3780 -0.3248  0.7730
  665TMC3    C1 9889   2.878   2.869   0.056  0.2873  0.1644  0.2263
  665TMC3    C2 9890   2.764   2.855   0.124  0.4111  0.6226 -0.1542
  665TMC3    C3 9891   2.745   2.918   0.247  0.0061 -0.4476  0.2616
  665TMC3    C4 9892   2.973   2.954   0.102 -1.1199 -0.7517  0.4809
  665TMC3    C5 9893   2.953   3.020   0.225 -0.5279 -0.0492  0.0447
  665TMC3    C6 9894   2.835   3.008   0.299  0.2857 -0.6765  0.5279
  665TMC3     C 9895   2.894   2.784  17.687 -0.6262 -0.3073  0.2489
  665TMC3     O 9896   2.840   2.675  17.698  0.4334 -0.3161  0.3223
  665TMC3     H 9897   2.690   2.786   0.084  1.1400 -0.7303  0.8051
  665TMC3    H1 9898   3.066   2.977   0.052 -1.6494  0.4977  0.0836
  665TMC3    H2 9899   2.810   3.059   0.392 -4.0480  0.0548 -1.0434
  665TMC3    C7 9900   3.055   3.119   0.254  0.0684  0.3598 -0.1930
  665TMC3    C8 9901   2.607   2.932   0.303 -0.2539 -0.3207 -0.4221
  665TMC3    O1 9902   3.144   3.142   0.175  0.2414 -0.0382  0.1379
  665TMC3    O2 9903   2.582   3.022   0.382 -0.2581  0.2520 -0.4781
  666TMC3    C1 9904   1.803   3.333   9.250  0.1922  0.2612  0.3699
  666TMC3    C2 9905   1.882   3.224   9.238 -0.8591  0.3916  0.3007
  666TMC3    C3 9906   1.985   3.208   9.331 -0.0955  0.3564 -0.1692
  666TMC3    C4 9907   1.813   3.424   9.346 -0.0411 -0.6542  1.0772
  666TMC3    C5 9908   1.920   3.412   9.431  0.5922 -1.4106 -0.5225
  666TMC3    C6 9909   1.992   3.299   9.435  0.2744 -0.0503  0.2271
  666TMC3     C 9910   1.686   3.326   9.180 -0.1606 -0.3810 -0.4698
  666TMC3     O 9911   1.682   3.281   9.065 -0.0724  0.2126 -0.4775
  666TMC3     H 9912   1.853   3.142   9.175  0.1290  1.0149 -0.9735
  666TMC3    H1 9913   1.745   3.507   9.364 -0.5264 -0.4302 -1.7909
  666TMC3    H2 9914   2.065   3.284   9.513  0.4186 -4.1040 -0.7126
  666TMC3    C7 9915   1.902   3.495   9.552  0.3993 -0.5559 -0.2805
  666TMC3    C8 9916   2.018   3.067   9.372 -0.2822 -0.5218 -0.0277
  666TMC3    O1 9917   1.880   3.433   9.658 -0.3051  0.2646 -0.2176
  666TMC3    O2 9918   2.034   3.050   9.492 -0.1749 -0.5405  0.1135
  667MPD2     C 9919   2.727   2.358  15.052 -0.4986  0.5066  1.2486
  667MPD2    C1 9920   2.692   2.491  15.061 -0.1133  0.1894  0.3635
  667MPD2    C2 9921   2.587   2.544  14.982 -0.0641 -0.0369  0.2431
  667MPD2    C3 9922   2.524   2.468  14.885 -0.0199  0.3363  0.1153
  667MPD2    C4 9923   2.566   2.338  14.878 -0.0275  0.1297  0.6631
  667MPD2    C5 9924   2.663   2.287  14.958 -0.1684  0.2360 -0.3694
  667MPD2     H 9925   2.552   2.644  15.002  0.0190 -0.1403  0.9132
  667MPD2    H1 9926   2.524   2.268  14.806  1.4267  0.4539 -0.5106
  667MPD2    H2 9927   2.802   2.314  15.118  0.4649  0.8999  0.4136
  667MPD2    H3 9928   2.693   2.183  14.951 -1.7029 -0.2563  0.2763
  667MPD2     N 9929   2.423   2.510  14.796 -0.0894 -0.5174  0.1681
  667MPD2    H5 9930   2.385   2.442  14.731  0.6341  0.5414 -1.3710
  667MPD2    N1 9931   2.757   2.584  15.147  0.4563 -0.9020  0.1847
  667MPD2    H7 9932   2.730   2.682  15.149  2.1550 -0.4312 -0.0827
  668TMC3    C1 9933   2.856   2.651  15.350  0.8203  0.2165 -0.1242
  668TMC3    C2 9934   2.931   2.758  15.305  0.3816 -0.2050  0.2245
  668TMC3    C3 9935   2.984   2.838  15.403  0.0789  0.2699 -0.2396
  668TMC3    C4 9936   2.846   2.619  15.482 -0.2563  0.0531  0.2238
  668TMC3    C5 9937   2.911   2.694  15.572  0.2722 -0.3715  0.0878
  668TMC3    C6 9938   2.961   2.815  15.538  0.1641 -0.2767 -0.7879
  668TMC3     C 9939   2.831   2.542  15.256  0.2189 -0.1580  0.6454
  668TMC3     O 9940   2.875   2.437  15.295  0.0596 -0.0370  0.4846
  668TMC3     H 9941   2.952   2.775  15.201  0.1448  0.4747  0.2880
  668TMC3    H1 9942   2.806   2.522  15.510  0.0876 -0.3994 -0.8388
  668TMC3    H2 9943   3.021   2.866  15.614 -0.8427 -1.6822  0.9389
  668TMC3    C7 9944   2.939   2.655  15.711  0.6968  0.1480  0.3857
  668TMC3    C8 9945   3.053   2.956  15.376 -0.2554 -0.2497 -1.0084
  668TMC3    O1 9946   3.005   2.737  15.773  0.3278  0.0512 -0.6275
  668TMC3    O2 9947   3.030   3.048  15.455 -0.0910  0.1462  0.5860
  669TMC3    C1 9948   1.323   2.698  14.558  0.2888 -0.1383  0.7694
  669TMC3    C2 9949   1.223   2.730  14.473  0.5905  0.2239 -0.9854
  669TMC3    C3 9950   1.253   2.817  14.367  0.6023  0.5936 -0.6190
  669TMC3    C4 9951   1.450   2.754  14.545 -0.0575  0.3779  0.1382
  669TMC3    C5 9952   1.474   2.832  14.433 -0.1862 -0.2913  0.2105
  669TMC3    C6 9953   1.381   2.860  14.341  0.3570 -0.1469  0.4928
  669TMC3     C 9954   1.293   2.623  14.678  0.6589  0.2038 -0.1031
  669TMC3     O 9955   1.174   2.606  14.697  0.2515 -0.3993  0.3982
  669TMC3     H 9956   1.124   2.690  14.491  0.6161  0.0587 -1.2185
  669TMC3    H1 9957   1.526   2.733  14.620  0.1658  0.3970 -0.0813
  669TMC3    H2 9958   1.396   2.934  14.263  0.4459  0.3570  0.9921
  669TMC3    C7 9959   1.596   2.913  14.418  0.9686  0.1065  0.0919
  669TMC3    C8 9960   1.155   2.862  14.259 -0.0725 -0.3561  0.5879
  669TMC3    O1 9961   1.603   2.979  14.315  0.4722  0.8114 -0.4880
  669TMC3    O2 9962   1.190   2.951  14.180 -0.1506  0.2706 -0.1244
  670MPD2     C 9963   4.078   0.201  14.542 -0.4302  0.1274 -0.3468
  670MPD2    C1 9964   4.067   0.137  14.417  0.4544 -0.5526  0.3321
  670MPD2    C2 9965   4.110   0.005  14.405 -0.0534  0.0747  0.4699
  670MPD2    C3 9966   4.162   4.676  14.512 -0.2626  0.2107  0.0219
  670MPD2    C4 9967   4.178   0.001  14.638  0.7656  0.0894 -0.2838
  670MPD2    C5 9968   4.127   0.128  14.647  0.0776  0.8501  0.1852
  670MPD2     H 9969   4.107   4.696  14.307  0.6282  1.8307 -0.3691
  670MPD2    H1 9970   4.217   4.688  14.725 -0.6539  0.7514  0.7378
  670MPD2    H2 9971   4.060   0.306  14.561 -0.6911  0.2544 -1.3362
  670MPD2    H3 9972   4.130   0.177  14.744  0.3612  4.0942 -1.4833
  670MPD2     N 9973   4.207   4.544  14.486 -0.0683 -0.3509 -0.0197
  670MPD2    H5 9974   4.196   4.511  14.391 -1.2380 -1.1416  0.3987
  670MPD2    N1 9975   4.023   0.200  14.300 -0.0831 -0.0587  0.0685
  670MPD2    H7 9976   4.015   0.145  14.215 -0.3115  1.3563 -0.8240
  671TMC3    C1 9977   4.298   4.326  14.516  1.0564  0.3483 -0.0740
  671TMC3    C2 9978   4.420   4.270  14.547  0.5604 -0.7183  0.5363
  671TMC3    C3 9979   4.454   4.160  14.475  0.2820 -0.2740 -0.0947
  671TMC3    C4 9980   4.215   4.283  14.414 -0.5321 -0.8333  0.2584
  671TMC3    C5 9981   4.254   4.170  14.352  0.4482 -0.6567 -0.2418
  671TMC3    C6 9982   4.372   4.104  14.390 -0.7039 -0.2299 -0.3804
  671TMC3     C 9983   4.278   4.464  14.573 -0.3471 -0.4032  0.5081
  671TMC3     O 9984   4.302   4.488  14.684 -0.1521  0.4007 -0.4090
  671TMC3     H 9985   4.487   4.331  14.608  2.4513 -0.9340 -1.3245
  671TMC3    H1 9986   4.121   4.331  14.388 -0.3295 -1.1447 -1.0791
  671TMC3    H2 9987   4.407   4.020  14.331 -0.5022  0.8700 -1.8194
  671TMC3    C7 9988   4.200   4.144  14.222 -0.5448 -0.7379  0.2923
  671TMC3    C8 9989   4.591   4.162  14.434  0.7606 -0.3230 -0.3713
  671TMC3    O1 9990   4.191   4.022  14.193 -0.4223 -0.1605  0.4094
  671TMC3    O2 9991   4.610   4.109  14.325 -0.4184 -0.5908 -0.0591
  672MPD2     C 9992   0.406   1.520  17.477  0.1473 -0.0759 -0.2210
  672MPD2    C1 9993   0.438   1.482  17.601 -0.4921 -1.2962 -0.6533
  672MPD2    C2 9994   0.499   1.566  17.693  0.1926 -0.7707  0.3427
  672MPD2    C3 9995   0.537   1.690  17.661  0.6597 -0.7925 -0.5537
  672MPD2    C4 9996   0.501   1.732  17.531 -0.4482 -0.2081  0.2398
  672MPD2    C5 9997   0.438   1.650  17.442 -0.0516 -0.6712 -1.0031
  672MPD2     H 9998   0.514   1.522   0.046 -1.5923 -2.0445  0.0485
  672MPD2    H1 9999   0.533   1.827  17.490 -1.5296  0.9838  2.1936
  672MPD2    H210000   0.363   1.457  17.400  1.1518 -1.7288  0.5705
  672MPD2    H310001   0.424   1.683  17.340  3.7966  1.1809 -0.9493
  672MPD2     N10002   0.610   1.773   0.008 -0.1114  0.1461 -0.8139
  672MPD2    H510003   0.634   1.864  17.715 -0.1519 -0.2830 -1.8542
  672MPD2    N110004   0.385   1.367  17.650 -0.3154 -0.2690  0.0931
  672MPD2    H710005   0.388   1.343   0.004  0.6695  1.1310  0.3971
  673TMC3    C110006   0.284   1.166  17.661  0.6474 -0.0942  0.0114
  673TMC3    C210007   0.343   1.046  17.680 -0.9000 -0.2376  0.5656
  673TMC3    C310008   0.304   0.979   0.050  0.2083  0.0333  0.1530
  673TMC3    C410009   0.197   1.223   0.005 -0.3814  0.1280  0.0588
  673TMC3    C510010   0.169   1.153   0.119 -0.2078 -0.6297 -0.1281
  673TMC3    C610011   0.222   1.033   0.145 -0.6147  0.5038 -0.2958
  673TMC3     C10012   0.354   1.254  17.580  0.1568  0.2697 -0.0603
  673TMC3     O10013   0.370   1.218  17.466  0.0485  0.4162  0.2306
  673TMC3     H10014   0.412   1.006  17.607  1.4441  1.1350  2.0300
  673TMC3    H110015   0.147   1.319  17.740 -1.0737 -0.3754 -1.3166
  673TMC3    H210016   0.182   0.971   0.225  0.4440  0.1612 -0.0265
  673TMC3    C710017   0.086   1.207   0.227 -0.1982 -0.4197  0.5719
  673TMC3    C810018   0.370   0.851   0.078 -0.1570  0.3195 -0.0073
  673TMC3    O110019   0.120   1.188   0.345  0.1268  0.1089  0.1155
  673TMC3    O210020   0.405   0.782  17.728  0.0034  0.7923  0.3485
  674MPD2     C10021   4.530   4.647  17.627 -0.4157 -0.4711  0.7303
  674MPD2    C110022   4.520   4.691   0.016  0.1729  0.0735 -0.3521
  674MPD2    C210023   4.640   0.014   0.070 -0.0474 -0.0336 -0.7643
  674MPD2    C310024   0.016   0.022  17.734  0.8925  0.3867  0.0262
  674MPD2    C410025   0.017   4.723  17.601 -0.1729  0.2915  1.0535
  674MPD2    C510026   4.646   4.660  17.554  0.2051  0.2173  0.2839
  674MPD2     H10027   4.640   0.057   0.170  1.4075  0.2170 -0.8783
  674MPD2    H110028   0.099   4.727  17.532 -0.3910  2.9871  0.9329
  674MPD2    H210029   4.450   4.592  17.579  1.3430 -1.7036 -0.8064
  674MPD2    H310030   4.638   4.624  17.453  1.2143  1.5723 -0.2815
  674MPD2     N10031   0.123   0.077   0.052  0.4230 -0.0733 -0.4199
  674MPD2    H510032   0.096   0.096   0.148  0.1471  1.2997 -0.7805
  674MPD2    N110033   4.398   4.679   0.091 -0.8071 -0.2773 -0.3031
  674MPD2    H710034   4.313   4.652   0.043 -0.9481  0.3745 -0.4140
  675TMC3    C110035   4.255   4.713   0.269 -0.0276 -0.4565 -0.2492
  675TMC3    C210036   4.224   0.067   0.363 -0.7682 -0.2596 -0.0382
  675TMC3    C310037   4.121   0.045   0.446 -0.5144  1.2027 -0.0801
  675TMC3    C410038   4.196   4.587   0.264  0.3903 -0.2370 -0.4177
  675TMC3    C510039   4.094   4.567   0.347 -0.4897 -0.2257 -0.0716
  675TMC3    C610040   4.052   4.661   0.440  0.4405  0.3376  0.5021
  675TMC3     C10041   4.387   4.711   0.225 -0.4059  0.4670  0.0941
  675TMC3     O10042   4.471   4.723   0.315 -0.2036 -0.0949  0.4575
  675TMC3     H10043   4.258   0.170   0.353 -2.2620  0.2079 -0.2340
  675TMC3    H110044   4.237   4.497   0.218 -0.0379 -1.2194  1.1273
  675TMC3    H210045   3.966   4.648   0.505  0.8569  1.0011  1.2027
  675TMC3    C710046   4.092   4.420   0.385  0.2606 -0.8479 -0.0151
  675TMC3    C810047   4.081   0.142   0.545 -0.3976  0.0908  0.5990
  675TMC3    O110048   4.080   4.335   0.296 -0.0797  0.1054 -0.1868
  675TMC3    O210049   3.962   0.145   0.578 -0.2232  0.1268 -0.1203
  676MPD2     C10050   2.460   4.064  11.001 -0.3734 -0.2855  0.0190
  676MPD2    C110051   2.411   3.944  11.056  0.4045 -0.7701 -0.1196
  676MPD2    C210052   2.436   3.827  10.996  0.0957 -0.7607  0.0038
  676MPD2    C310053   2.494   3.825  10.871 -0.4816 -0.0305  0.3422
  676MPD2    C410054   2.541   3.944  10.810 -0.5233 -0.4391  0.3375
  676MPD2    C510055   2.529   4.060  10.880  0.1297  0.3305  1.0825
  676MPD2     H10056   2.419   3.728  11.038 -2.5008 -0.6331 -0.7589
  676MPD2    H110057   2.591   3.950  10.714 -0.1172 -2.4489  0.4225
  676MPD2    H210058   2.441   4.160  11.046  1.3159  0.5421 -1.0536
  676MPD2    H310059   2.568   4.149  10.832 -0.0670 -0.5615 -0.7340
  676MPD2     N10060   2.528   3.709  10.802 -0.0649  0.7720  0.7902
  676MPD2    H510061   2.562   3.724  10.707 -1.5624  1.1482  0.3200
  676MPD2    N110062   2.351   3.938  11.183 -0.0496 -0.1167 -0.2654
  676MPD2    H710063   2.323   3.847  11.218  2.8258 -1.1368 -0.5900
  677TMC3    C110064   2.228   3.999  11.382  0.2025  0.0414 -0.4271
  677TMC3    C210065   2.176   3.878  11.376 -0.2603 -0.0524  0.8239
  677TMC3    C310066   2.096   3.833  11.477 -0.0140  0.0972 -0.1326
  677TMC3    C410067   2.207   4.079  11.494 -0.2742 -0.2334  0.5454
  677TMC3    C510068   2.115   4.045  11.589  0.3220  0.5314  0.3948
  677TMC3    C610069   2.060   3.920  11.581  0.0680 -0.8605  0.5186
  677TMC3     C10070   2.312   4.048  11.270 -0.1377  1.2051 -0.2013
  677TMC3     O10071   2.336   4.172  11.266  0.1341 -0.4110 -0.4402
  677TMC3     H10072   2.193   3.811  11.293  0.3845  0.8212  0.2495
  677TMC3    H110073   2.243   4.181  11.500 -0.9285 -0.0603  1.4850
  677TMC3    H210074   1.998   3.878  11.659 -1.1801 -1.8374 -1.0033
  677TMC3    C710075   2.096   4.103  11.718 -0.0272  0.5081 -0.5772
  677TMC3    C810076   2.033   3.702  11.450 -0.1599  0.0083 -0.3673
  677TMC3    O110077   1.985   4.084  11.765 -0.6933 -0.2363 -0.0661
  677TMC3    O210078   2.039   3.659  11.336 -0.3877 -0.1845 -0.2492
  678MPD2     C10079   4.221   3.942   1.239  0.2009 -0.2062  0.7713
  678MPD2    C110080   4.187   3.870   1.123 -0.0766 -0.5108  0.3527
  678MPD2    C210081   4.061   3.889   1.074  0.3878  0.5799 -0.0355
  678MPD2    C310082   3.967   3.972   1.127  0.2169  0.8726 -0.3992
  678MPD2    C410083   4.009   4.042   1.238  0.0847 -0.2685 -0.5341
  678MPD2    C510084   4.132   4.028   1.291 -0.6129  0.3087  0.0759
  678MPD2     H10085   4.038   3.823   0.992 -2.0635  2.6503 -0.9985
  678MPD2    H110086   3.937   4.110   1.281  2.4702  1.3818  0.8265
  678MPD2    H210087   4.318   3.934   1.287  0.4890  1.9312  0.5493
  678MPD2    H310088   4.154   4.083   1.382 -1.8863  0.3237  0.3787
  678MPD2     N10089   3.840   3.982   1.070 -0.2213  0.1070 -0.6258
  678MPD2    H510090   3.827   3.932   0.982 -2.2688 -1.7476  0.7273
  678MPD2    N110091   4.273   3.781   1.058 -0.2324 -0.1239 -0.2134
  678MPD2    H710092   4.233   3.739   0.975  1.7163 -0.0826 -1.1840
  679TMC3    C110093   4.618   3.525   0.913  0.2548 -0.2878  0.0046
  679TMC3    C210094   4.569   3.595   1.014  0.1115  0.1783 -0.3032
  679TMC3    C310095   4.476   3.691   0.985  0.3367 -0.6760 -0.0834
  679TMC3    C410096   4.593   3.556   0.778  0.7974  0.0763 -0.3781
  679TMC3    C510097   4.496   3.649   0.757 -0.4653 -0.0804 -0.8737
  679TMC3    C610098   4.446   3.719   0.859 -0.3840 -0.2238  0.5808
  679TMC3     C10099   4.735   3.442   0.933 -0.3947 -0.5697  0.4331
  679TMC3     O10100   4.720   3.349   1.008  0.2544 -0.1440  0.6322
  679TMC3     H10101   4.604   3.578   1.116  1.3398 -0.9647 -0.9124
  679TMC3    H110102   4.634   3.504   0.693 -0.4122 -3.2660  1.0981
  679TMC3    H210103   4.363   3.784   0.833 -0.1078 -0.4478 -0.8675
  679TMC3    C710104   4.465   3.688   0.624  0.9088 -0.3952  0.3268
  679TMC3    C810105   4.402   3.752   1.097 -0.6783 -0.4782  0.2322
  679TMC3    O110106   4.431   3.804   0.617  0.0868  0.0041  0.6344
  679TMC3    O210107   4.466   3.775   1.200  0.7265 -0.1441 -0.3339
  680MPD2     C10108   3.558   2.682  13.665 -0.3588  0.5847 -0.3231
  680MPD2    C110109   3.645   2.605  13.744 -0.2267 -0.2509 -0.4045
  680MPD2    C210110   3.750   2.666  13.811 -0.3126  0.4011 -0.7551
  680MPD2    C310111   3.754   2.801  13.822  0.9409 -0.8282  0.5013
  680MPD2    C410112   3.659   2.878  13.762  0.4961  0.0225  0.4166
  680MPD2    C510113   3.569   2.815  13.679 -0.0053 -0.1837  0.0073
  680MPD2     H10114   3.829   2.614  13.863 -0.7142  0.3107 -0.2381
  680MPD2    H110115   3.661   2.986  13.765 -1.0091  0.1221 -2.2084
  680MPD2    H210116   3.476   2.648  13.603 -1.8203 -0.7971  2.3695
  680MPD2    H310117   3.499   2.880  13.627  0.6945  0.0881 -0.5854
  680MPD2     N10118   3.853   2.879  13.872 -0.0333 -0.4795 -0.5438
  680MPD2    H510119   3.845   2.980  13.869 -1.2418 -0.5668 -0.2357
  680MPD2    N110120   3.635   2.463  13.762 -0.0230 -0.1130 -0.3965
  680MPD2    H710121   3.709   2.419  13.817 -2.5409 -2.5496  1.0332
  681TMC3    C110122   3.567   2.233  13.729  0.5259  0.2238  0.1672
  681TMC3    C210123   3.464   2.151  13.752 -1.2438 -0.0873  0.6164
  681TMC3    C310124   3.489   2.018  13.764 -0.1086 -0.0533  0.2561
  681TMC3    C410125   3.693   2.195  13.706  0.0554  0.2508  0.0822
  681TMC3    C510126   3.721   2.062  13.719 -1.8332 -0.0816  0.0232
  681TMC3    C610127   3.619   1.980  13.754 -0.0641 -0.0988 -0.0696
  681TMC3     C10128   3.532   2.381  13.724  0.1953  0.0552  0.6012
  681TMC3     O10129   3.422   2.419  13.688  0.0394  0.3537 -0.2011
  681TMC3     H10130   3.362   2.187  13.762 -2.0980 -1.8643 -1.6629
  681TMC3    H110131   3.771   2.267  13.684 -0.5382  1.4096  1.7613
  681TMC3    H210132   3.642   1.875  13.737 -1.1049 -0.0679 -1.7349
  681TMC3    C710133   3.840   2.004  13.664  0.1573  0.2306  0.9256
  681TMC3    C810134   3.431   1.960  13.879 -0.0512  0.4421  0.5037
  681TMC3    O110135   3.883   1.901  13.712  0.7822  0.0808 -0.2970
  681TMC3    O210136   3.312   1.976  13.901 -0.0265  0.3079 -0.4718
  682MPD2     C10137   1.586   4.054  10.764 -0.1667  0.4991 -0.0419
  682MPD2    C110138   1.526   3.945  10.706 -0.6032 -0.1853 -0.0091
  682MPD2    C210139   1.469   3.847  10.785 -0.6475  0.4182  0.1297
  682MPD2    C310140   1.465   3.861  10.926 -0.3865  0.0688 -0.2134
  682MPD2    C410141   1.516   3.974  10.981  0.7734 -0.2452  0.1981
  682MPD2    C510142   1.578   4.067  10.903  0.2812 -1.0475 -0.8789
  682MPD2     H10143   1.447   3.755  10.733  0.8892  0.1248 -0.0208
  682MPD2    H110144   1.502   3.985  11.088  2.1940 -0.1098  0.3732
  682MPD2    H210145   1.632   4.140  10.717 -0.4565 -0.1808 -1.5930
  682MPD2    H310146   1.630   4.152  10.946  0.7809 -0.4435 -2.6737
  682MPD2     N10147   1.401   3.767  11.010 -0.4403 -0.1433 -0.2621
  682MPD2    H510148   1.390   3.784  11.109  2.3879  2.1248 -0.3213
  682MPD2    N110149   1.535   3.922  10.569  0.1975 -0.0621  0.5614
  682MPD2    H710150   1.491   3.839  10.531  1.2197 -0.0920 -0.5567
  683TMC3    C110151   1.247   3.508  11.299  0.3476 -0.0225  0.2795
  683TMC3    C210152   1.212   3.382  11.261 -0.2719 -0.2431  1.1407
  683TMC3    C310153   1.213   3.351  11.125  0.4278  0.2246  0.2566
  683TMC3    C410154   1.295   3.596  11.200 -0.3106  0.5923 -0.1002
  683TMC3    C510155   1.307   3.555  11.068  0.1593  0.0261  0.2198
  683TMC3    C610156   1.263   3.434  11.028 -0.2892  0.4570 -0.5397
  683TMC3     C10157   1.228   3.551  11.438 -0.7985 -0.0749  0.3880
  683TMC3     O10158   1.285   3.654  11.476  0.1122  0.5920 -0.5108
  683TMC3     H10159   1.164   3.313  11.329 -0.9796  1.5453  2.4748
  683TMC3    H110160   1.336   3.692  11.232  0.1055  0.2503  0.3893
  683TMC3    H210161   1.270   3.403  10.925  0.2676 -0.3614 -0.2643
  683TMC3    C710162   1.379   3.630  10.973  0.2818  0.2470  0.8351
  683TMC3    C810163   1.138   3.241  11.073 -0.1765  0.9203  0.6878
  683TMC3    O110164   1.395   3.570  10.864  0.4043 -0.1792  0.0938
  683TMC3    O210165   1.099   3.256  10.956  0.0603  0.4011  0.1887
  684MPD2     C10166   4.494   2.671  15.992  0.0289  0.0428 -0.2110
  684MPD2    C110167   4.437   2.742  15.886  0.1226  0.0134 -0.4380
  684MPD2    C210168   4.426   2.884  15.898 -0.6571 -0.1582  0.7302
  684MPD2    C310169   4.474   2.954  16.009 -0.4290 -0.0208 -0.6996
  684MPD2    C410170   4.534   2.880  16.105  0.8218 -0.3008 -0.4727
  684MPD2    C510171   4.532   2.744  16.103  0.2744 -1.3358 -0.1312
  684MPD2     H10172   4.371   2.932  15.819 -1.8833 -1.9443  0.5001
  684MPD2    H110173   4.592   2.918  16.189 -1.0473 -0.6819  0.9909
  684MPD2    H210174   4.513   2.566  15.978  0.3121  0.4446 -2.8605
  684MPD2    H310175   4.596   2.698  16.177  1.9596 -0.9666 -1.3522
  684MPD2     N10176   4.472   3.100  16.028  0.4389 -0.2521 -0.0816
  684MPD2    H510177   4.484   3.135  16.122 -0.2515 -1.7116  0.5578
  684MPD2    N110178   4.381   2.669  15.776  0.7289 -0.1900 -0.9819
  684MPD2    H710179   4.344   2.577  15.799  0.8524 -0.2476 -1.0156
  685TMC3    C110180   4.446   2.823  15.603 -0.5343  0.2588  0.2332
  685TMC3    C210181   4.399   2.922  15.522 -0.1012 -0.0458  0.7520
  685TMC3    C310182   4.487   3.014  15.481  0.1194  1.0165 -0.4256
  685TMC3    C410183   4.579   2.809  15.624  0.0361 -0.5107 -0.0750
  685TMC3    C510184   4.666   2.903  15.581 -0.4819  0.2288 -0.2356
  685TMC3    C610185   4.623   3.006  15.505  0.0284 -0.4580  0.0018
  685TMC3     C10186   4.353   2.719  15.653  1.1122  0.0840  0.0298
  685TMC3     O10187   4.258   2.696  15.579 -0.5881  0.1129  0.5030
  685TMC3     H10188   4.293   2.943  15.515  0.0562  0.9189  1.2400
  685TMC3    H110189   4.608   2.728  15.690  0.1471  0.6938  1.3673
  685TMC3    H210190   4.693   3.085  15.480  0.5211 -0.2734  1.9669
  685TMC3    C710191   0.068   2.897  15.624 -0.6066 -0.3533 -0.0003
  685TMC3    C810192   4.430   3.141  15.443  0.6153 -0.4450 -0.1946
  685TMC3    O110193   0.092   2.792  15.684  0.3349  0.2093  0.2915
  685TMC3    O210194   4.422   3.161  15.323  1.0548  0.1990  0.1809
  686MPD2     C10195   1.113   3.622  15.255  0.5806 -0.6300 -0.3075
  686MPD2    C110196   1.160   3.513  15.334  0.0849  0.1905 -0.6467
  686MPD2    C210197   1.290   3.513  15.381  0.1217 -0.4790  0.4728
  686MPD2    C310198   1.376   3.616  15.350  0.5621  0.6521 -0.0953
  686MPD2    C410199   1.335   3.708  15.260 -0.3622 -0.0244  0.0260
  686MPD2    C510200   1.206   3.718  15.221 -0.3126  0.6902  0.2760
  686MPD2     H10201   1.327   3.439  15.452  0.5409 -1.3185 -0.6253
  686MPD2    H110202   1.407   3.786  15.239 -1.1811  0.1954 -1.9637
  686MPD2    H210203   1.007   3.626  15.232  0.4185 -1.2605  0.3497
  686MPD2    H310204   1.176   3.807  15.168  1.3851  1.1990  0.1949
  686MPD2     N10205   1.507   3.593  15.405  0.1140  0.8416 -1.0338
  686MPD2    H510206   1.505   3.519  15.474 -0.1030  1.2078 -0.6443
  686MPD2    N110207   1.065   3.410  15.363  0.2961 -0.0062  0.2926
  686MPD2    H710208   0.976   3.422  15.315  1.8166  1.0904 -2.2440
  687TMC3    C110209   1.719   3.566  15.373 -0.5673  0.1379 -0.0370
  687TMC3    C210210   1.688   3.478  15.274 -0.1621 -0.2174 -0.1768
  687TMC3    C310211   1.703   3.342  15.296  0.0928 -0.1436 -0.0955
  687TMC3    C410212   1.777   3.528  15.488  0.1726 -0.6024  0.7388
  687TMC3    C510213   1.804   3.395  15.506 -0.2385  0.1373  0.1710
  687TMC3    C610214   1.766   3.307  15.412 -0.5209 -0.0373 -0.3264
  687TMC3     C10215   1.621   3.669  15.380 -0.4316  0.1774 -0.0417
  687TMC3     O10216   1.626   3.755  15.293  0.3351  0.1321 -0.5854
  687TMC3     H10217   1.630   3.520  15.193 -0.1394  3.0980  1.4982
  687TMC3    H110218   1.814   3.594  15.566 -0.6326 -2.0531  2.3533
  687TMC3    H210219   1.778   3.201  15.426 -1.3890 -0.1119 -0.1563
  687TMC3    C710220   1.818   3.349  15.645 -0.4377  0.4075 -0.0783
  687TMC3    C810221   1.592   3.254  15.266  0.5259  1.0094  0.8101
  687TMC3    O110222   1.856   3.432  15.720  1.2097  0.4045  0.2520
  687TMC3    O210223   1.574   3.161  15.347 -0.2726  0.5357 -0.1480
  688MPD2     C10224   0.107   1.924  17.077  0.7273 -0.3042  0.4239
  688MPD2    C110225   0.165   1.808  17.119  0.2582  0.4280 -0.2260
  688MPD2    C210226   0.278   1.765  17.048  0.1206 -0.2540  0.7751
  688MPD2    C310227   0.321   1.836  16.935  0.0572 -0.2076 -0.1020
  688MPD2    C410228   0.252   1.950  16.895  0.1202  0.3906 -0.0453
  688MPD2    C510229   0.150   1.992  16.967  0.7140 -0.3272 -0.4636
  688MPD2     H10230   0.330   1.674  17.077  0.5579 -0.2208  0.0799
  688MPD2    H110231   0.290   2.010  16.813 -0.0493  1.1515  0.4342
  688MPD2    H210232   0.016   1.968  17.117  0.3251  1.1783 -2.1509
  688MPD2    H310233   0.100   2.082  16.933 -1.9130 -0.4815  3.0372
  688MPD2     N10234   0.426   1.797  16.852  0.7376  0.1322 -0.1541
  688MPD2    H510235   0.445   1.858  16.773 -3.9580 -0.5877 -1.8557
  688MPD2    N110236   0.118   1.741  17.229 -0.2619  0.6762  0.7888
  688MPD2    H710237   0.173   1.657  17.243 -1.2545  0.0337  0.7931
  689TMC3    C110238   4.735   1.700  17.428  0.9463  0.9106  1.1229
  689TMC3    C210239   4.684   1.772  17.538 -0.1875  0.3549 -1.0074
  689TMC3    C310240   4.608   1.704  17.631 -0.1809 -0.6055 -0.4265
  689TMC3    C410241   4.711   1.563  17.420 -0.0137 -0.2076  0.3844
  689TMC3    C510242   4.639   1.503  17.519  0.1294 -0.1099 -0.1426
  689TMC3    C610243   4.578   1.573  17.616  0.5312  0.3509 -0.2925
  689TMC3     C10244   0.010   1.780  17.309  0.4350  0.3696 -0.7840
  689TMC3     O10245   4.653   1.862  17.300 -0.1365  0.1043  0.0820
  689TMC3     H10246   4.697   1.880  17.546  0.3587  0.2196 -0.0738
  689TMC3    H110247   0.034   1.504  17.352 -0.8106  0.1047 -0.5829
  689TMC3    H210248   4.520   1.523  17.693  2.1285 -0.3126  0.4762
  689TMC3    C710249   4.636   1.364  17.532 -0.4003 -0.6746 -0.5114
  689TMC3    C810250   4.606   1.763   0.017  0.6375  0.5469  0.0280
  689TMC3    O110251   4.649   1.327  17.647  0.0302 -0.7029  0.4036
  689TMC3    O210252   4.698   1.838   0.049  0.2131 -0.0745  0.3457
  690MPD2     C10253   2.213   4.002  15.594  0.3279  0.0961 -0.5395
  690MPD2    C110254   2.318   3.906  15.616  0.8458  0.6547  0.1412
  690MPD2    C210255   2.416   3.878  15.517  0.4359 -0.2825 -0.5388
  690MPD2    C310256   2.421   3.959  15.407  0.7201 -0.1640  0.1469
  690MPD2    C410257   2.324   4.057  15.394 -0.2249  0.0086 -0.5263
  690MPD2    C510258   2.222   4.085  15.483 -0.4175 -1.0454  0.8185
  690MPD2     H10259   2.487   3.797  15.528 -1.7203 -2.0018  0.6104
  690MPD2    H110260   2.328   4.133  15.317  3.5571  0.2745 -0.0745
  690MPD2    H210261   2.133   4.027  15.662  0.7451  2.3701 -0.8839
  690MPD2    H310262   2.147   4.161  15.467  1.3998  0.5314 -0.2857
  690MPD2     N10263   2.518   3.939  15.308 -0.2687 -0.1768  0.0507
  690MPD2    H510264   2.587   3.865  15.317  0.0921  0.2024  0.3939
  690MPD2    N110265   2.309   3.828  15.734  0.2870  0.2494  0.0442
  690MPD2    H710266   2.383   3.759  15.744  0.6050  0.8092  1.4839
  691TMC3    C110267   2.208   3.701  15.906 -0.3202  0.1972  0.0720
  691TMC3    C210268   2.103   3.697  15.990 -0.1633 -0.4983  0.3074
  691TMC3    C310269   2.044   3.580  16.027  0.4702 -0.3956  0.0778
  691TMC3    C410270   2.267   3.578  15.862  0.5130  0.2205  0.3748
  691TMC3    C510271   2.203   3.458  15.901 -0.4416  0.5813 -0.1740
  691TMC3    C610272   2.091   3.459  15.982 -0.2720  0.4071  0.4691
  691TMC3     C10273   2.200   3.815  15.814  0.4428  0.3670  0.4853
  691TMC3     O10274   2.098   3.880  15.827 -0.3223 -0.3086  0.3841
  691TMC3     H10275   2.061   3.790  16.028 -1.7147 -0.2189 -2.0345
  691TMC3    H110276   2.344   3.567  15.787  0.1042 -2.1977  0.3147
  691TMC3    H210277   2.051   3.369  16.027 -2.4073  1.3200  0.3901
  691TMC3    C710278   2.243   3.330  15.852 -0.5757  0.1317 -0.0418
  691TMC3    C810279   1.902   3.586  16.029  0.3254  0.1955  0.3760
  691TMC3    O110280   2.344   3.324  15.787  0.4946 -0.4716  0.3660
  691TMC3    O210281   1.845   3.493  16.080  0.4544  0.0192 -0.1005
  692TMC3    C110282   4.292   4.588  15.753  0.3038 -0.0943  0.0450
  692TMC3    C210283   4.425   4.606  15.734 -0.0806 -0.0976 -0.2184
  692TMC3    C310284   4.504   4.495  15.724  0.0562 -0.2391  0.0415
  692TMC3    C410285   4.227   4.468  15.740 -0.4670  0.5531  0.3051
  692TMC3    C510286   4.306   4.364  15.702 -0.1958  0.2205  0.1144
  692TMC3    C610287   4.443   4.377  15.690 -0.2300 -0.3025  0.2546
  692TMC3     C10288   4.210   4.692  15.807 -0.2865 -0.2051  0.2735
  692TMC3     O10289   4.107   4.657  15.865  0.5769 -0.1111 -0.5959
  692TMC3     H10290   4.476   4.699  15.760  0.0895 -0.0687 -0.6556
  692TMC3    H110291   4.120   4.460  15.748 -0.6150  3.5163  1.3692
  692TMC3    H210292   4.507   4.290  15.681 -0.0862 -0.4216  2.3714
  692TMC3    C710293   4.231   4.251  15.649 -0.8535 -0.0678 -0.7216
  692TMC3    C810294   4.584   4.475  15.844 -0.1186  0.0968 -1.0417
  692TMC3    O110295   4.116   4.259  15.625 -0.0455 -0.0981  0.1766
  692TMC3    O210296   4.652   4.377  15.851 -0.0858 -0.0697  0.2143
  693MPD2     C10297   3.561   2.916  10.775 -0.3263  0.4658  0.0460
  693MPD2    C110298   3.534   2.806  10.847  0.4545 -0.4314  0.0422
  693MPD2    C210299   3.636   2.740  10.905 -0.3533 -0.4413  0.3351
  693MPD2    C310300   3.766   2.764  10.869  0.2752  0.6397 -0.1305
  693MPD2    C410301   3.794   2.867  10.787  0.4777 -0.6907  0.0116
  693MPD2    C510302   3.692   2.948  10.739  0.0717 -0.2539  0.3232
  693MPD2     H10303   3.607   2.655  10.966 -0.3644  1.1712  2.5660
  693MPD2    H110304   3.893   2.885  10.747  0.2354 -0.5919 -0.5444
  693MPD2    H210305   3.481   2.970  10.725 -2.5204 -1.3912  1.5743
  693MPD2    H310306   3.713   3.019  10.660 -0.6535 -1.0665 -0.5960
  693MPD2     N10307   3.875   2.687  10.921  1.0964  0.0594 -0.3994
  693MPD2    H510308   3.962   2.693  10.871  2.3882 -1.7526  1.6336
  693MPD2    N110309   3.400   2.759  10.872  0.0600  0.4386 -0.2314
  693MPD2    H710310   3.392   2.683  10.940  0.1732 -0.3687 -1.1146
  694TMC3    C110311   3.162   2.732  10.857  0.7683 -0.6324  0.5057
  694TMC3    C210312   3.068   2.716  10.756  0.0608  1.4211  0.3194
  694TMC3    C310313   2.991   2.605  10.779 -1.1347  0.4779  0.1135
  694TMC3    C410314   3.171   2.661  10.978 -0.5232  0.1260 -0.2557
  694TMC3    C510315   3.095   2.546  10.986 -0.6323  0.0914  1.4265
  694TMC3    C610316   3.008   2.520  10.888  0.7547  0.5462 -0.0889
  694TMC3     C10317   3.282   2.811  10.816  0.9296 -0.2583 -0.4557
  694TMC3     O10318   3.272   2.885  10.720  0.6832 -0.4271  1.1171
  694TMC3     H10319   3.066   2.786  10.674  1.2068  1.2446  0.1435
  694TMC3    H110320   3.234   2.702  11.055  1.0332 -1.3137 -0.7594
  694TMC3    H210321   2.940   2.436  10.892  0.9410  0.2911 -1.9556
  694TMC3    C710322   3.116   2.462  11.106 -0.4199 -0.0207 -0.0984
  694TMC3    C810323   2.932   2.547  10.662 -0.4345 -1.1414  0.7308
  694TMC3    O110324   3.211   2.494  11.177  0.5893 -0.2065 -0.5099
  694TMC3    O210325   2.937   2.426  10.639 -0.1704  0.3426  0.1869
  695MPD2     C10326   4.615   0.071  13.435  0.3220 -0.4707 -1.0320
  695MPD2    C110327   4.579   0.002  13.554  0.5731  0.1500  0.7371
  695MPD2    C210328   4.449   4.718  13.579 -0.6959  0.3003  0.0760
  695MPD2    C310329   4.352   0.034  13.496 -0.0525  0.4359 -0.3206
  695MPD2    C410330   4.388   0.090  13.374  0.2713 -0.0929 -0.5076
  695MPD2    C510331   4.523   0.119  13.351  0.1936  0.9611 -0.2577
  695MPD2     H10332   4.418   4.668  13.670  2.0804 -2.3326 -0.4405
  695MPD2    H110333   4.314   0.128  13.304  1.2213 -0.6852 -1.8352
  695MPD2    H210334   4.716   0.100  13.409  0.8147 -2.7698 -1.6171
  695MPD2    H310335   4.554   0.182  13.268  0.1683  3.2317  1.4355
  695MPD2     N10336   4.214   0.014  13.533  0.0880 -0.7078 -0.1301
  695MPD2    H510337   4.187   4.702  13.618 -0.3282 -0.4425 -0.1107
  695MPD2    N110338   4.673   4.685  13.641  0.9073  0.4567 -0.1891
  695MPD2    H710339   4.634   4.652  13.728  2.0039  0.2742  0.2243
  696TMC3    C110340   3.982   0.042  13.520 -0.2588  0.1938 -0.7265
  696TMC3    C210341   3.973   4.672  13.610  0.6236  0.7652 -0.3875
  696TMC3    C310342   3.854   4.658  13.679 -0.0188  0.1716  0.1995
  696TMC3    C410343   3.880   0.136  13.513 -0.0654 -0.0705  0.4340
  696TMC3    C510344   3.771   0.120  13.590  0.3993  0.2036  0.2643
  696TMC3    C610345   3.747   0.009  13.664 -0.2104 -0.4674 -0.5321
  696TMC3     C10346   4.108   0.068  13.457  0.1290 -0.3491  0.5541
  696TMC3     O10347   4.102   0.149  13.367 -0.2090 -0.0074 -0.4388
  696TMC3     H10348   4.048   4.593  13.611 -0.0717  0.0981 -0.6867
  696TMC3    H110349   3.896   0.228  13.457  0.7766 -0.6646 -0.3187
  696TMC3    H210350   3.656   4.736  13.723  0.2195  0.1940  0.2410
  696TMC3    C710351   3.711   0.256  13.606 -0.4414 -0.3636 -0.2037
  696TMC3    C810352   3.822   4.532  13.745 -0.1161 -0.1052 -0.1342
  696TMC3    O110353   3.725   0.340  13.510  0.6536  0.4939 -0.3674
  696TMC3    O210354   3.705   4.494  13.746  0.1034 -0.1340 -0.0175
  697MPD2     C10355   3.979   1.611  15.991 -0.9327 -0.2715 -0.6642
  697MPD2    C110356   3.910   1.621  15.876 -1.0658  0.1577 -0.6857
  697MPD2    C210357   3.927   1.729  15.789  0.5545 -0.4906  0.3249
  697MPD2    C310358   4.034   1.815  15.817 -0.4357 -0.1346 -0.4432
  697MPD2    C410359   4.112   1.803  15.930 -0.4922 -0.9485 -0.1338
  697MPD2    C510360   4.077   1.703  16.012 -0.3108 -0.9136 -0.2800
  697MPD2     H10361   3.876   1.734  15.694 -2.7389 -0.8998  2.0520
  697MPD2    H110362   4.203   1.854  15.958 -1.6059  1.0309 -0.1288
  697MPD2    H210363   3.968   1.528  16.060 -0.0560  1.7361  1.8891
  697MPD2    H310364   4.145   1.694  16.096 -0.8122  0.6238  0.2985
  697MPD2     N10365   4.053   1.924  15.723  0.5083  0.4456 -0.1092
  697MPD2    H510366   3.980   1.941  15.655  1.1689 -2.3588 -1.5079
  697MPD2    N110367   3.828   1.518  15.822  0.3475  0.4598  0.3057
  697MPD2    H710368   3.764   1.549  15.750  1.2146 -1.2767 -1.2133
  698TMC3    C110369   4.148   2.101  15.620  0.3692  0.3796  0.7449
  698TMC3    C210370   4.247   2.190  15.604 -1.1439 -0.3124 -0.4197
  698TMC3    C310371   4.274   2.267  15.491  0.1023 -0.1120  0.1428
  698TMC3    C410372   4.073   2.071  15.512 -0.5365 -0.0420  0.0360
  698TMC3    C510373   4.103   2.140  15.397  0.2409 -0.4033  0.0772
  698TMC3    C610374   4.196   2.245  15.388  0.4176 -0.3089 -0.0385
  698TMC3     C10375   4.152   2.019  15.738  0.2796  0.9046 -0.5938
  698TMC3     O10376   4.257   2.020  15.806 -0.3786  0.1262  0.0277
  698TMC3     H10377   4.311   2.195  15.691 -2.4480 -1.2485  0.5995
  698TMC3    H110378   3.999   1.993  15.500  0.2132 -0.5444 -1.1966
  698TMC3    H210379   4.202   2.305  15.298 -2.4876  1.0733  0.6606
  698TMC3    C710380   4.019   2.112  15.280 -0.6943 -0.0666  0.2135
  698TMC3    C810381   4.377   2.365  15.498  0.2420 -0.0853  0.6347
  698TMC3    O110382   3.911   2.060  15.304  0.4786  0.2567  0.1006
  698TMC3    O210383   4.422   2.383  15.611 -0.5790  0.0998  0.4336
  699TMC3    C110384   3.891   4.638  13.167 -0.4474 -0.8290 -1.0332
  699TMC3    C210385   3.915   4.504  13.192 -0.1863 -0.4924  0.1544
  699TMC3    C310386   3.816   4.434  13.266 -0.4046 -0.0126  0.5375
  699TMC3    C410387   3.771   4.699  13.201 -0.0793 -0.0643  0.6336
  699TMC3    C510388   3.678   4.624  13.267 -0.3203  0.0634  0.3424
  699TMC3    C610389   3.697   4.490  13.300 -0.2757  0.1095 -0.4034
  699TMC3     C10390   3.973   4.716  13.074 -0.1541 -0.0386  0.3331
  699TMC3     O10391   3.909   0.071  13.027  0.3628  0.3758 -0.3017
  699TMC3     H10392   4.004   4.450  13.160  1.2527  1.1064  1.4820
  699TMC3    H110393   3.759   0.069  13.183 -0.7397 -0.8795 -3.9447
  699TMC3    H210394   3.615   4.434  13.344  1.0377 -0.5848  1.1648
  699TMC3    C710395   3.566   4.683  13.333 -0.3275 -0.0566 -0.5163
  699TMC3    C810396   3.859   4.320  13.341  0.4749 -0.3445 -0.7223
  699TMC3    O110397   3.536   4.639  13.443 -0.2875  0.4006  0.5480
  699TMC3    O210398   3.772   4.259  13.395 -0.3137 -0.1876  0.1824
  700TMC3    C110399   3.473   2.475  17.029  0.2236  0.1996  0.3849
  700TMC3    C210400   3.530   2.355  16.995  0.7425 -0.4879  0.4923
  700TMC3    C310401   3.639   2.314  17.072  0.0533 -0.9949 -0.3119
  700TMC3    C410402   3.506   2.532  17.154 -0.5853 -0.7989 -0.6467
  700TMC3    C510403   3.622   2.486  17.222 -0.0087  0.2459 -0.0897
  700TMC3    C610404   3.695   2.380  17.180 -0.5666 -0.3183  0.7450
  700TMC3     C10405   3.457   2.569  16.918 -0.3418  0.2747  0.4684
  700TMC3     O10406   3.488   2.681  16.947 -0.0517 -0.1798 -0.4464
  700TMC3     H10407   3.496   2.305  16.905 -1.6416 -0.3449  1.3210
  700TMC3    H110408   3.443   2.607  17.199 -0.3627 -0.3954 -1.0155
  700TMC3    H210409   3.798   2.374  17.212 -0.6567  0.7830  1.2330
  700TMC3    C710410   3.702   2.593  17.288  0.4759  0.2302  0.7858
  700TMC3    C810411   3.709   2.201  17.016  0.0464  0.2293 -0.2721
  700TMC3    O110412   3.814   2.569  17.333 -0.1094  0.0461 -0.1568
  700TMC3    O210413   3.643   2.113  16.961  0.6083 -0.3124  0.1893
  701TMC3    C110414   2.410   1.731  15.199 -0.3060 -0.1185  0.1701
  701TMC3    C210415   2.450   1.688  15.071  0.0813 -0.3894 -0.4146
  701TMC3    C310416   2.549   1.765  15.017  0.3065  0.2354  0.0611
  701TMC3    C410417   2.484   1.826  15.268  0.0891 -0.8050 -0.1251
  701TMC3    C510418   2.590   1.891  15.210  0.0232 -0.8810  0.8892
  701TMC3    C610419   2.625   1.859  15.080 -0.0872 -0.2221 -0.1252
  701TMC3     C10420   2.324   1.647  15.282 -0.3314  0.6628  0.5583
  701TMC3     O10421   2.285   1.692  15.389 -0.2056  0.5646 -0.2307
  701TMC3     H10422   2.382   1.628  15.010  0.1370 -0.6382 -0.2308
  701TMC3    H110423   2.458   1.860  15.367 -1.0303 -3.0464  0.3638
  701TMC3    H210424   2.703   1.909  15.024 -0.5375  0.8172  0.1782
  701TMC3    C710425   2.667   1.992  15.280 -0.5221 -0.1362 -0.1819
  701TMC3    C810426   2.566   1.746  14.874 -0.0953 -0.1993 -0.3179
  701TMC3    O110427   2.734   2.065  15.207 -0.5481  0.0031 -0.7338
  701TMC3    O210428   2.607   1.845  14.809  0.1464  0.2764  0.2177
  702MPD2     C10429   2.795   3.665  10.169  0.4737  0.0612 -0.3933
  702MPD2    C110430   2.720   3.711  10.277  0.1596 -0.1706  0.2276
  702MPD2    C210431   2.688   3.846  10.294  0.0786  0.6517 -0.3050
  702MPD2    C310432   2.746   3.935  10.213 -0.9198 -0.4168 -0.7514
  702MPD2    C410433   2.838   3.896  10.108 -0.1398 -0.3199 -0.5989
  702MPD2    C510434   2.857   3.760  10.094  0.0709  0.5320  0.0359
  702MPD2     H10435   2.634   3.877  10.383  0.7399  0.1855  0.2583
  702MPD2    H110436   2.885   3.953  10.028  0.1190  0.5522  0.1712
  702MPD2    H210437   2.819   3.560  10.156  0.7483  0.2526 -1.4445
  702MPD2    H310438   2.931   3.716  10.029 -1.7115  0.0198 -1.6350
  702MPD2     N10439   2.729   4.074  10.251 -0.1293 -0.5951 -0.1664
  702MPD2    H510440   2.669   4.100  10.328 -0.8946 -0.5756 -0.7734
  702MPD2    N110441   2.658   3.630  10.370  0.1340 -0.0860  0.3021
  702MPD2    H710442   2.597   3.681  10.433  0.6701 -0.7633  1.3947
  703TMC3    C110443   2.717   4.303  10.256  0.6617  0.0919  0.7849
  703TMC3    C210444   2.668   4.303  10.387 -0.7947 -0.2158 -0.6064
  703TMC3    C310445   2.662   4.423  10.456  0.0502 -0.5591  0.6020
  703TMC3    C410446   2.754   4.419  10.202  0.6344  0.4075  1.0968
  703TMC3    C510447   2.738   4.536  10.275  0.7485 -0.2239 -0.0039
  703TMC3    C610448   2.686   4.544  10.404 -0.4514  0.0756  0.1867
  703TMC3     C10449   2.768   4.184  10.183 -0.0379 -0.5189 -0.3928
  703TMC3     O10450   2.842   4.202  10.087  0.8642 -0.0287 -0.4032
  703TMC3     H10451   2.673   4.207  10.438  0.2611 -0.3194 -0.8816
  703TMC3    H110452   2.797   4.413  10.103 -0.2975  0.0523  0.7143
  703TMC3    H210453   2.700   4.637  10.460  0.8530  0.8122 -1.3622
  703TMC3    C710454   2.839   4.637  10.250  0.9390  0.2944 -0.1248
  703TMC3    C810455   2.590   4.431  10.581 -0.2767  1.0372 -0.1140
  703TMC3    O110456   2.904   4.672  10.348 -0.1150 -0.7993 -0.0644
  703TMC3    O210457   2.590   4.547  10.626  0.2886 -0.0786 -0.1675
  704TMC3    C110458   4.697   1.820  12.497 -0.1960 -0.0528 -0.8323
  704TMC3    C210459   0.076   1.856  12.418 -0.1119 -0.4882  0.0543
  704TMC3    C310460   0.177   1.764  12.398 -0.0184 -0.3047 -0.6572
  704TMC3    C410461   4.695   1.701  12.568 -0.1815 -0.8625 -0.3475
  704TMC3    C510462   0.052   1.608  12.538  0.3908  0.1720  0.6133
  704TMC3    C610463   0.157   1.638  12.453 -0.0657  0.4938  0.9980
  704TMC3     C10464   4.578   1.872  12.431  0.1684  0.3317  0.8417
  704TMC3     O10465   4.473   1.858  12.489 -0.0872 -0.0469  0.3675
  704TMC3     H10466   0.087   1.963  12.401 -1.4909 -0.6321 -1.7884
  704TMC3    H110467   4.605   1.671  12.621  0.0087  0.1672  0.5489
  704TMC3    H210468   0.224   1.554  12.439  1.9715  1.9277  2.2190
  704TMC3    C710469   0.061   1.483  12.607  0.1337 -0.3052  0.4390
  704TMC3    C810470   0.201   1.757  12.253 -0.6515 -0.3983  0.5106
  704TMC3    O110471   0.147   1.410  12.563 -0.3536 -0.0355  0.0705
  704TMC3    O210472   0.121   1.817  12.182 -0.7907 -0.2866 -0.3218
  705MPD2     C10473   4.647   3.894  16.149 -0.3929  0.2457  0.1603
  705MPD2    C110474   4.682   4.025  16.162  0.4511  0.0746  0.4449
  705MPD2    C210475   4.604   4.102  16.251  0.2901  0.0416 -0.4390
  705MPD2    C310476   4.473   4.058  16.282  0.6043  0.1442 -0.8606
  705MPD2    C410477   4.432   3.932  16.244 -0.5985 -1.0319 -0.1652
  705MPD2    C510478   4.519   3.852  16.171 -0.1227 -0.4135  0.6663
  705MPD2     H10479   4.644   4.198  16.284 -2.0409 -0.0930  2.7076
  705MPD2    H110480   4.336   3.887  16.268 -0.2192 -2.0728 -0.5712
  705MPD2    H210481   4.712   3.821  16.102  0.0538 -0.0177  1.1835
  705MPD2    H310482   4.492   3.749  16.151 -0.8735 -0.2492  0.8127
  705MPD2     N10483   4.381   4.135  16.358 -0.2104  0.0101  0.2683
  705MPD2    H510484   4.286   4.099  16.363 -0.0548 -0.1665  2.1394
  705MPD2    N110485   0.071   4.073  16.125  0.2491  0.2226  0.3094
  705MPD2    H710486   0.097   4.163  16.164 -0.5769  0.3763  0.4953
  706TMC3    C110487   0.442   4.132  15.825 -0.3232  0.1934 -0.5125
  706TMC3    C210488   0.475   4.251  15.885 -0.1537 -0.6418  0.3603
  706TMC3    C310489   0.400   4.283  15.996 -0.2045  0.0698 -1.5517
  706TMC3    C410490   0.332   4.063  15.862 -0.2907 -0.2514 -0.0824
  706TMC3    C510491   0.267   4.092  15.980  0.3998  0.7166 -0.1179
  706TMC3    C610492   0.296   4.210  16.048 -0.5479 -0.4917 -0.1175
  706TMC3     C10493   0.474   4.117  15.683  0.3209  0.3984  0.0822
  706TMC3     O10494   0.397   4.066  15.604  0.1500 -0.1286 -1.0303
  706TMC3     H10495   0.544   4.317  15.835  0.3936 -1.7081 -0.2923
  706TMC3    H110496   0.305   3.969  15.815 -4.1172  0.1549  1.2917
  706TMC3    H210497   0.249   4.234  16.143  0.5518 -1.2570  0.6212
  706TMC3    C710498   0.152   4.013  16.022  0.0781 -0.6071  0.4848
  706TMC3    C810499   0.372   4.428  15.998  0.3604  0.1602  0.3330
  706TMC3    O110500   0.139   3.908  15.958  0.2485 -0.2925  0.4828
  706TMC3    O210501   0.378   4.479  15.891 -0.5552  0.0182 -0.4548
  707TMC3    C110502   1.552   3.936   0.005  0.3826 -0.4333 -0.7737
  707TMC3    C210503   1.545   3.811  17.707 -0.3636 -0.0548  0.4181
  707TMC3    C310504   1.429   3.774  17.652  0.4511  0.2452 -0.0727
  707TMC3    C410505   1.460   4.035  17.715  0.4497 -0.2725  0.3069
  707TMC3    C510506   1.350   3.995  17.640 -0.3667  0.1681  0.2723
  707TMC3    C610507   1.335   3.865  17.597  0.1365  0.1812 -0.1035
  707TMC3     C10508   1.645   3.957   0.114  0.8166  0.0105  0.2490
  707TMC3     O10509   1.695   3.857   0.162  0.1378  0.3901  0.3868
  707TMC3     H10510   1.636   3.752  17.703 -0.8441 -0.6595 -1.6354
  707TMC3    H110511   1.473   4.136   0.006  0.4739 -0.4392  0.7627
  707TMC3    H210512   1.243   3.832  17.550  0.3547 -1.9738  1.0133
  707TMC3    C710513   1.266   4.082  17.573 -0.0646  0.1836 -0.9767
  707TMC3    C810514   1.378   3.643  17.702  1.3562  0.4178  0.1990
  707TMC3    O110515   1.192   4.038  17.493  0.4507  0.1191  0.0861
  707TMC3    O210516   1.282   3.586  17.652  0.0576 -0.4629  0.6786
  708MPD2     C10517   3.036   2.260  14.226 -0.6939  0.3676  0.8088
  708MPD2    C110518   2.967   2.359  14.154  0.7913  0.1852 -0.0569
  708MPD2    C210519   2.850   2.409  14.201 -0.2599  0.0927 -0.6684
  708MPD2    C310520   2.802   2.366  14.324  0.1201  0.1752 -0.2046
  708MPD2    C410521   2.872   2.269  14.394  0.4334 -0.2719 -1.0269
  708MPD2    C510522   2.992   2.224  14.348  0.9778  0.1138 -0.3428
  708MPD2     H10523   2.812   2.502  14.161 -2.5916 -1.9084 -3.1213
  708MPD2    H110524   2.853   2.229  14.493  1.2145  0.3091 -0.6453
  708MPD2    H210525   3.141   2.244  14.205 -0.6216  0.9163  0.7557
  708MPD2    H310526   3.050   2.148  14.400  1.3667  0.7483  0.1517
  708MPD2     N10527   2.691   2.413  14.382  0.5050  0.1007 -0.5001
  708MPD2    H510528   2.661   2.383  14.474  1.4585 -1.2221 -0.6340
  708MPD2    N110529   3.016   2.423  14.039  0.4356  0.6639 -0.5887
  708MPD2    H710530   2.967   2.507  14.010  1.0862  1.0887 -0.4687
  709TMC3    C110531   3.139   2.468  13.846 -0.7660  0.0523 -0.5479
  709TMC3    C210532   3.116   2.409  13.722 -0.1598  0.4007  0.2169
  709TMC3    C310533   3.024   2.470  13.640  0.1308  0.1730  0.5048
  709TMC3    C410534   3.088   2.591  13.864 -0.2152 -0.3458 -1.3040
  709TMC3    C510535   2.993   2.650  13.784 -0.5413  0.5290 -0.0862
  709TMC3    C610536   2.954   2.587  13.673 -0.3404  0.6323 -0.2575
  709TMC3     C10537   3.122   2.384  13.963 -0.3741  0.0846  0.5483
  709TMC3     O10538   3.198   2.293  13.974  0.7036  0.1194  0.4548
  709TMC3     H10539   3.165   2.315  13.698 -0.5741  0.0328  0.8236
  709TMC3    H110540   3.118   2.638  13.957 -0.3124 -0.2155 -1.3380
  709TMC3    H210541   2.859   2.616  13.629 -1.2456  1.0256  1.9672
  709TMC3    C710542   2.889   2.712  13.860  0.1551  0.3190  0.2895
  709TMC3    C810543   2.975   2.405  13.525 -0.0182  0.4060 -0.2757
  709TMC3    O110544   2.906   2.704  13.982  0.2378  0.0936 -0.5042
  709TMC3    O210545   3.020   2.293  13.503 -0.2235  0.1040 -0.3044
  710TMC3    C110546   4.104   4.185  17.742 -0.0665 -0.0827  0.2094
  710TMC3    C210547   4.191   4.212  17.641  0.3383  0.7259  0.0921
  710TMC3    C310548   4.313   4.152  17.638  0.3662  0.2427  0.0467
  710TMC3    C410549   4.139   4.102   0.099  0.6228  0.0204  0.3824
  710TMC3    C510550   4.256   4.039   0.084  0.0416 -0.5101 -0.0294
  710TMC3    C610551   4.340   4.055  17.729 -0.5591 -0.4744  0.1960
  710TMC3     C10552   3.970   4.243  17.732  0.3853  0.0173  0.2255
  710TMC3     O10553   3.931   4.305  17.634 -0.6684  0.0595 -0.1381
  710TMC3     H10554   4.153   4.264  17.554 -0.2310  0.7619  0.3590
  710TMC3    H110555   4.083   4.080   0.190 -1.4860  1.7561 -0.4792
  710TMC3    H210556   4.432   3.998  17.726 -1.3843 -1.6888 -2.3478
  710TMC3    C710557   4.281   3.941   0.183  0.2955  0.3856  0.5749
  710TMC3    C810558   4.405   4.199  17.531  0.1307 -0.8197 -0.1120
  710TMC3    O110559   4.259   3.976   0.299  0.0104  0.0148 -0.5872
  710TMC3    O210560   4.360   4.267  17.441 -0.0431  0.0146 -0.5623
  711TMC3    C110561   3.725   0.219  15.392  0.4869  0.3005  0.2783
  711TMC3    C210562   3.779   0.340  15.433 -0.0167 -0.6112 -0.1014
  711TMC3    C310563   3.905   0.330  15.484 -0.5988 -0.4440 -0.9089
  711TMC3    C410564   3.791   0.102  15.388  0.0318 -0.1099  0.2152
  711TMC3    C510565   3.906   0.101  15.467  0.4089  0.1649  0.1636
  711TMC3    C610566   3.963   0.213  15.521 -0.1561 -0.1539  0.5999
  711TMC3     C10567   3.596   0.218  15.331 -0.6027 -0.4558 -0.3961
  711TMC3     O10568   3.560   0.113  15.271  0.3160  0.0040  0.6888
  711TMC3     H10569   3.729   0.434  15.413  1.4228  0.2508  0.4069
  711TMC3    H110570   3.743   0.012  15.352  1.8624 -1.4786  1.1334
  711TMC3    H210571   4.057   0.210  15.576  0.0345 -0.1787  0.2727
  711TMC3    C710572   3.996   4.736  15.433 -0.1314  0.4087  0.0895
  711TMC3    C810573   3.969   0.459  15.504  0.6135  0.6537  0.6120
  711TMC3    O110574   4.115   0.018  15.455 -0.0498 -0.1935 -0.5808
  711TMC3    O210575   3.892   0.556  15.489 -0.0912  0.3998 -0.0689
  712MPD2     C10576   0.363   1.473  13.452  0.5860  0.0072  0.0352
  712MPD2    C110577   0.237   1.521  13.422  0.2958  0.2541 -0.0038
  712MPD2    C210578   0.215   1.654  13.421 -0.8721  0.0190  0.9652
  712MPD2    C310579   0.308   1.740  13.469 -0.3169  0.0567  0.3110
  712MPD2    C410580   0.432   1.693  13.491 -0.1009  0.4819  0.5796
  712MPD2    C510581   0.454   1.558  13.499  0.0590  1.1757  0.3330
  712MPD2     H10582   0.126   1.697  13.376  1.2201 -1.0421 -4.2177
  712MPD2    H110583   0.500   1.774  13.514  0.7597 -0.6260  1.9711
  712MPD2    H210584   0.396   1.370  13.445  2.4886  0.6581 -0.5463
  712MPD2    H310585   0.555   1.533  13.529 -0.4636  0.5907  1.5938
  712MPD2     N10586   0.288   1.876  13.477  0.0346 -0.3775  0.1178
  712MPD2    H510587   0.366   1.935  13.502 -1.8236  1.3401  1.8614
  712MPD2    N110588   0.133   1.445  13.382 -0.4670 -0.4016 -0.3237
  712MPD2    H710589   0.046   1.496  13.380  0.6398  1.4759 -0.3877
  713TMC3    C110590   0.168   2.078  13.466  0.5767 -0.1501 -0.0299
  713TMC3    C210591   0.272   2.122  13.389 -0.4927  0.0659  0.1429
  713TMC3    C310592   0.297   2.253  13.393  0.5444  0.5028  0.0286
  713TMC3    C410593   0.091   2.158  13.553  1.0107 -0.4265  0.5024
  713TMC3    C510594   0.132   2.287  13.557 -0.1799 -0.0934  0.1053
  713TMC3    C610595   0.232   2.336  13.484 -0.3002  0.2045 -0.5074
  713TMC3     C10596   0.161   1.935  13.484  0.2998 -0.2349 -0.1953
  713TMC3     O10597   0.051   1.895  13.516  0.2176  0.1317  0.1310
  713TMC3     H10598   0.327   2.069  13.312 -0.5617 -0.8710  0.7395
  713TMC3    H110599   0.023   2.110  13.624  0.0187 -0.8370 -0.7232
  713TMC3    H210600   0.248   2.443  13.476 -0.0859  0.2166  0.1638
  713TMC3    C710601   0.084   2.385  13.648 -0.5038 -0.3768 -0.2024
  713TMC3    C810602   0.432   2.289  13.383 -0.5847 -0.3243  0.2455
  713TMC3    O110603   0.167   2.461  13.696  0.0642 -0.2745 -0.7654
  713TMC3    O210604   0.486   2.270  13.277  0.5084  0.2740 -0.0792
  714MPD2     C10605   2.752   0.710   0.678  0.2563 -0.3532  0.4610
  714MPD2    C110606   2.741   0.588   0.733  0.6094 -0.1828  0.3311
  714MPD2    C210607   2.622   0.522   0.714 -0.3030 -0.4398  0.7274
  714MPD2    C310608   2.520   0.571   0.632  0.8081 -0.0460  0.0608
  714MPD2    C410609   2.550   0.683   0.556 -0.0453 -0.1676  0.3855
  714MPD2    C510610   2.663   0.747   0.587  0.3554 -0.5619  0.1156
  714MPD2     H10611   2.595   0.432   0.770  1.2930 -0.5108  1.3803
  714MPD2    H110612   2.486   0.728   0.481 -0.6562 -1.4601  0.1238
  714MPD2    H210613   2.837   0.772   0.703  0.5617 -0.7396  0.3871
  714MPD2    H310614   2.681   0.844   0.542  0.0687 -0.1070  0.9748
  714MPD2     N10615   2.404   0.498   0.621  0.1686  0.0427 -0.5625
  714MPD2    H510616   2.406   0.409   0.670 -0.6419  1.2991  1.7576
  714MPD2    N110617   2.856   0.543   0.802 -0.1334 -0.4713 -0.2613
  714MPD2    H710618   2.932   0.606   0.826 -0.9371  0.7778 -0.9939
  715TMC3    C110619   3.011   0.373   0.890  0.3712  0.1502  0.7568
  715TMC3    C210620   3.040   0.244   0.877 -0.1773  0.2429 -0.4640
  715TMC3    C310621   3.143   0.199   0.955 -0.0238  0.2460  0.1357
  715TMC3    C410622   3.080   0.458   0.968 -0.0318  0.4467  0.8472
  715TMC3    C510623   3.172   0.403   1.059 -0.0930 -0.4326  0.7847
  715TMC3    C610624   3.211   0.274   1.045  0.4896  0.2582  0.5401
  715TMC3     C10625   2.886   0.408   0.819 -0.2420 -0.9225 -0.8460
  715TMC3     O10626   2.821   0.313   0.780 -0.2154 -0.3386  0.5832
  715TMC3     H10627   3.001   0.178   0.800  0.2441  2.0839 -2.2477
  715TMC3    H110628   3.043   0.559   0.981  2.5748  1.7808 -1.9887
  715TMC3    H210629   3.282   0.236   1.118  1.4000  0.2882 -0.3208
  715TMC3    C710630   3.260   0.486   1.133 -0.5953 -0.4828  0.1817
  715TMC3    C810631   3.196   0.065   0.919  0.0774  0.4604  0.3216
  715TMC3    O110632   3.365   0.427   1.173  0.4013  0.0177 -0.2350
  715TMC3    O210633   3.139   0.008   0.827 -0.1838 -0.9390 -0.0642
  716MPD2     C10634   2.202   3.507   9.844  0.0899  0.5978 -0.0189
  716MPD2    C110635   2.236   3.565   9.726  0.5258  0.0621  0.5274
  716MPD2    C210636   2.294   3.497   9.621  0.3110 -0.9466  0.0462
  716MPD2    C310637   2.311   3.359   9.636  0.0955  0.1856 -0.0872
  716MPD2    C410638   2.270   3.295   9.750 -0.5363 -1.1789 -0.4685
  716MPD2    C510639   2.227   3.366   9.856 -0.2956 -0.6277 -0.3612
  716MPD2     H10640   2.331   3.547   9.532 -0.5960  0.1879  0.3074
  716MPD2    H110641   2.284   3.190   9.769  1.7481 -1.0354 -1.4321
  716MPD2    H210642   2.165   3.556   9.934  0.7691  0.4953  0.3160
  716MPD2    H310643   2.200   3.303   9.939  0.3666  1.2186  1.2460
  716MPD2     N10644   2.368   3.296   9.526 -0.3937  0.4981  0.5859
  716MPD2    H510645   2.400   3.358   9.452  0.0086  0.3361  0.6210
  716MPD2    N110646   2.211   3.706   9.723 -0.4142  0.1284 -0.3511
  716MPD2    H710647   2.154   3.742   9.799  2.1112  0.4006  1.3761
  717TMC3    C110648   2.411   3.128   9.371 -0.6256 -0.5900 -0.3402
  717TMC3    C210649   2.376   3.220   9.273 -0.1736 -0.0689 -0.1304
  717TMC3    C310650   2.332   3.194   9.150 -0.3412  1.2283 -0.0953
  717TMC3    C410651   2.413   2.996   9.332 -0.4404 -0.3108 -0.0258
  717TMC3    C510652   2.378   2.969   9.200 -0.3747 -0.4052  0.7842
  717TMC3    C610653   2.331   3.058   9.109 -0.2983  0.0197  0.4903
  717TMC3     C10654   2.390   3.161   9.511  0.3971  0.0091 -0.5982
  717TMC3     O10655   2.379   3.071   9.591 -0.4337 -0.0102  0.2137
  717TMC3     H10656   2.379   3.327   9.289  0.7501 -0.0104 -0.7114
  717TMC3    H110657   2.426   2.916   9.404 -2.4541 -2.0087 -1.5552
  717TMC3    H210658   2.301   3.015   9.014  0.4871  3.9964 -1.5898
  717TMC3    C710659   2.354   2.825   9.171  0.8753  0.2875  0.0422
  717TMC3    C810660   2.263   3.299   9.083 -0.6727 -0.1285 -0.3391
  717TMC3    O110661   2.281   2.788   9.078  0.2217  0.0619  0.2119
  717TMC3    O210662   2.238   3.402   9.143  0.2215  0.2116 -0.8392
  718MPD2     C10663   1.791   2.401  12.849  0.5701 -0.6734  0.1499
  718MPD2    C110664   1.714   2.324  12.770  0.2271  0.4303  0.5454
  718MPD2    C210665   1.645   2.227  12.834  0.5711 -0.0853 -0.0081
  718MPD2    C310666   1.645   2.218  12.969 -0.6102  0.2162  0.2894
  718MPD2    C410667   1.730   2.288  13.050 -0.5645 -0.0075  0.4801
  718MPD2    C510668   1.804   2.386  12.988  0.6880 -0.0872  0.7170
  718MPD2     H10669   1.586   2.163  12.771 -1.1139 -0.5772  2.0720
  718MPD2    H110670   1.737   2.267  13.156  2.4776 -1.4662 -0.0379
  718MPD2    H210671   1.852   2.484  12.814 -0.7721 -0.4590 -1.6478
  718MPD2    H310672   1.860   2.455  13.050 -0.3563  2.4391 -1.1445
  718MPD2     N10673   1.568   2.103  13.023 -0.3369  0.1654 -0.4317
  718MPD2    H510674   1.521   2.043  12.957 -0.9324 -0.9670  1.0087
  718MPD2    N110675   1.725   2.333  12.631  0.1169  0.3124  0.3468
  718MPD2    H710676   1.784   2.406  12.592  0.9741  0.9371  2.8005
  719TMC3    C110677   1.729   2.234  12.419 -0.2144 -0.1218 -0.4288
  719TMC3    C210678   1.662   2.140  12.348 -0.9963 -0.2482 -0.2913
  719TMC3    C310679   1.741   2.054  12.279  0.5691 -0.8462  0.7734
  719TMC3    C410680   1.857   2.258  12.412 -0.3038  0.1090  0.2315
  719TMC3    C510681   1.924   2.182  12.324 -0.2467  0.1353 -0.1704
  719TMC3    C610682   1.875   2.073  12.269  1.1533  0.9399 -0.5481
  719TMC3     C10683   1.663   2.246  12.545 -0.6090 -0.4298  0.3302
  719TMC3     O10684   1.564   2.175  12.557 -0.7731  0.3094 -0.0729
  719TMC3     H10685   1.554   2.136  12.348 -1.1765  4.3608  0.1669
  719TMC3    H110686   1.899   2.343  12.464 -0.8872 -0.6219  1.8875
  719TMC3    H210687   1.932   1.995  12.218  2.0224  0.2747  1.4481
  719TMC3    C710688   2.040   2.240  12.268  0.6660 -0.4745  0.1688
  719TMC3    C810689   1.722   1.917  12.314 -0.1510 -0.3833 -0.3556
  719TMC3    O110690   2.109   2.155  12.213  0.0842 -0.7115  0.2344
  719TMC3    O210691   1.765   1.829  12.246  0.0906 -0.0687 -0.5610
  720MPD2     C10692   0.332   3.301  13.532  0.0410  0.0795 -0.6462
  720MPD2    C110693   0.344   3.442  13.515  0.9283  0.2495 -0.3963
  720MPD2    C210694   0.446   3.516  13.578  0.3923 -0.7049  0.4217
  720MPD2    C310695   0.555   3.438  13.631 -0.0373  0.2087 -0.1171
  720MPD2    C410696   0.547   3.298  13.640  0.1244  0.0375  0.1378
  720MPD2    C510697   0.435   3.236  13.592  0.0101 -0.0091  0.3832
  720MPD2     H10698   0.438   3.624  13.577  1.2820 -0.6990 -4.9740
  720MPD2    H110699   0.623   3.236  13.686 -1.9000 -0.7974  2.3927
  720MPD2    H210700   0.249   3.240  13.498 -1.2541  0.7285  1.3483
  720MPD2    H310701   0.423   3.130  13.614 -0.0295  0.0054  0.4334
  720MPD2     N10702   0.671   3.514  13.674  0.2575  0.3089  0.2167
  720MPD2    H510703   0.668   3.615  13.663 -0.8663  0.3523  0.9260
  720MPD2    N110704   0.236   3.510  13.457 -0.0275  0.3606  0.5716
  720MPD2    H710705   0.250   3.611  13.463  0.5898  0.2821  0.4462
  721TMC3    C110706   0.897   3.553  13.708 -0.1528 -0.5736  0.4461
  721TMC3    C210707   0.880   3.679  13.771 -0.4462  0.3991 -0.0061
  721TMC3    C310708   0.987   3.752  13.817 -0.0854 -0.2840 -0.2560
  721TMC3    C410709   1.025   3.501  13.687 -0.1571  0.0668  0.3532
  721TMC3    C510710   1.125   3.565  13.766  0.1976 -0.0516  0.2531
  721TMC3    C610711   1.109   3.693  13.821 -0.4106  0.0362  0.1384
  721TMC3     C10712   0.789   3.455  13.719 -0.1720  0.6376  0.3076
  721TMC3     O10713   0.808   3.336  13.732  0.8531  0.3809  0.3274
  721TMC3     H10714   0.781   3.717  13.791 -0.1828  2.3776 -2.4471
  721TMC3    H110715   1.038   3.402  13.644  0.5829  0.2759  0.0998
  721TMC3    H210716   1.189   3.743  13.875 -1.6472  0.6487  1.4136
  721TMC3    C710717   1.252   3.501  13.764  0.1372  0.2792 -0.5504
  721TMC3    C810718   0.962   3.858  13.916 -0.6946  0.3503 -0.0085
  721TMC3    O110719   1.280   3.440  13.658 -0.0016 -0.3450 -0.4237
  721TMC3    O210720   0.890   3.951  13.880 -0.5616  0.3077 -0.5593
  722MPD2     C10721   3.534   2.285  13.406 -0.4734  0.1591 -0.1692
  722MPD2    C110722   3.545   2.406  13.336 -0.4546 -0.2826 -0.2436
  722MPD2    C210723   3.445   2.440  13.249 -0.2245 -0.2839 -0.2811
  722MPD2    C310724   3.335   2.360  13.231 -0.2610 -0.0514  0.7488
  722MPD2    C410725   3.325   2.240  13.304  0.2114 -0.0331  0.4293
  722MPD2    C510726   3.430   2.195  13.381 -0.0321  0.0246 -0.2491
  722MPD2     H10727   3.443   2.538  13.202  1.0177  0.1917  0.6551
  722MPD2    H110728   3.245   2.169  13.289  0.7733 -0.3848 -0.9168
  722MPD2    H210729   3.618   2.253  13.467 -2.1253 -1.9916  0.9580
  722MPD2    H310730   3.417   2.102  13.436 -1.5460  0.3194 -0.1072
  722MPD2     N10731   3.236   2.383  13.141  0.3363 -0.1500 -0.5317
  722MPD2    H510732   3.189   2.299  13.109 -1.4955  0.0861  1.5741
  722MPD2    N110733   3.664   2.488  13.354 -1.0245 -0.3025 -0.1250
  722MPD2    H710734   3.660   2.584  13.320  0.3045 -0.2930 -0.2491
  723TMC3    C110735   3.101   2.472  12.976  0.2229  1.0474  0.1062
  723TMC3    C210736   3.096   2.348  12.911 -0.8735  0.0231 -0.1556
  723TMC3    C310737   3.025   2.331  12.794 -0.6178  0.3352 -0.3877
  723TMC3    C410738   3.042   2.577  12.912 -0.0684  0.4733 -0.6804
  723TMC3    C510739   2.975   2.557  12.796  0.2179  0.0370  0.4631
  723TMC3    C610740   2.962   2.435  12.736 -0.4020  0.8380  0.4202
  723TMC3     C10741   3.205   2.498  13.072 -0.4310 -0.1436 -0.0791
  723TMC3     O10742   3.241   2.613  13.082 -0.2406 -0.7068  0.1759
  723TMC3     H10743   3.156   2.264  12.943  1.8048  1.5305 -1.2215
  723TMC3    H110744   3.042   2.675  12.958  0.7892 -0.5455  1.4922
  723TMC3    H210745   2.920   2.436  12.636  0.5826  3.0239  0.0225
  723TMC3    C710746   2.931   2.671  12.720  0.6401 -0.1726  0.3697
  723TMC3    C810747   3.063   2.227  12.703 -0.0484  0.1014 -0.1656
  723TMC3    O110748   2.841   2.646  12.640  0.5389  0.1024  0.1881
  723TMC3    O210749   3.080   2.260  12.589 -0.5808  0.4831 -0.0359
  724TMC3    C110750   4.066   0.172  10.666 -0.1674 -0.3970  0.4353
  724TMC3    C210751   4.003   0.280  10.606  1.0712 -0.1010 -0.0985
  724TMC3    C310752   4.042   0.316  10.479  0.2434 -0.5879 -0.3830
  724TMC3    C410753   4.168   0.108  10.604  0.1586 -0.7055 -0.0046
  724TMC3    C510754   4.212   0.152  10.480  0.6635 -0.5795 -0.2374
  724TMC3    C610755   4.138   0.247  10.412 -0.6863  0.4019 -0.2599
  724TMC3     C10756   4.011   0.119  10.788 -0.3782 -0.0279 -0.1717
  724TMC3     O10757   3.902   0.153  10.825 -0.3055  0.4458  0.1958
  724TMC3     H10758   3.923   0.335  10.653  0.1730 -1.2887 -0.2448
  724TMC3    H110759   4.208   0.020  10.654  2.2943 -0.5878 -1.5372
  724TMC3    H210760   4.161   0.257  10.307  1.8318  2.3255  0.4674
  724TMC3    C710761   4.279   0.063  10.387  0.9732  0.3564  0.8185
  724TMC3    C810762   3.953   0.400  10.409 -1.2422 -0.2037 -0.7904
  724TMC3    O110763   4.350   0.113  10.303  1.2673 -0.4551 -0.5947
  724TMC3    O210764   3.846   0.420  10.469  0.4401  0.0804  0.4797
  725TMC3    C110765   0.453   4.151  12.621 -0.7742 -0.2556 -0.2167
  725TMC3    C210766   0.441   4.126  12.484 -0.2280  0.5844 -0.1318
  725TMC3    C310767   0.405   4.007  12.439  0.4067  1.1675 -0.3587
  725TMC3    C410768   0.419   4.041  12.702  0.4138 -0.1326 -0.0664
  725TMC3    C510769   0.392   3.919  12.649  0.9851  0.0236 -0.2307
  725TMC3    C610770   0.378   3.897  12.515  0.0989  0.3649  0.5551
  725TMC3     C10771   0.584   4.197  12.658 -0.0049  0.4861 -0.3221
  725TMC3     O10772   0.617   4.315  12.655 -0.4638  0.1469  0.8681
  725TMC3     H10773   0.455   4.204  12.410  0.8447  1.4172  0.9439
  725TMC3    H110774   0.417   4.049  12.810 -0.4256  0.1255 -0.0983
  725TMC3    H210775   0.337   3.806  12.473 -0.8148  0.7553  0.5987
  725TMC3    C710776   0.467   3.812  12.721 -0.7092  1.2112  0.3771
  725TMC3    C810777   0.345   4.007  12.309  0.9864 -0.1273 -0.5907
  725TMC3    O110778   0.509   3.843  12.833  0.2916  1.3740  0.2662
  725TMC3    O210779   0.238   3.944  12.291 -0.0293  0.5315 -0.2144
  726MPD2     C10780   3.627   1.002  11.047  0.3350 -0.1742  0.0006
  726MPD2    C110781   3.534   0.939  10.961 -0.0397  0.8294 -0.2673
  726MPD2    C210782   3.430   0.871  11.018  0.3333  0.4068 -0.0826
  726MPD2    C310783   3.419   0.868  11.162  0.3991 -0.1547  0.1588
  726MPD2    C410784   3.498   0.939  11.246  0.1128 -0.1418 -0.1041
  726MPD2    C510785   3.599   1.003  11.182  0.9609  0.2298 -0.6202
  726MPD2     H10786   3.356   0.827  10.952  1.3748  0.0961 -1.0563
  726MPD2    H110787   3.490   0.945  11.354  2.4509  2.3324 -0.0740
  726MPD2    H210788   3.703   1.068  11.005 -0.0141  0.1505 -0.1144
  726MPD2    H310789   3.656   1.074  11.241  1.4705 -3.1682  2.9965
  726MPD2     N10790   3.317   0.798  11.231  0.1791 -0.1373 -0.6127
  726MPD2    H510791   3.304   0.817  11.330 -1.3670  2.0356 -1.2449
  726MPD2    N110792   3.541   0.956  10.820 -0.0946  0.4806 -0.0765
  726MPD2    H710793   3.456   0.929  10.771 -1.2159  2.0063  1.0105
  727TMC3    C110794   3.579   1.128  10.666  0.3185  0.4182  0.2182
  727TMC3    C210795   3.671   1.224  10.629 -0.0183 -0.6788 -0.8016
  727TMC3    C310796   3.623   1.335  10.566  0.0639  0.2560 -0.0389
  727TMC3    C410797   3.446   1.127  10.644 -0.4930 -0.0513 -0.1637
  727TMC3    C510798   3.408   1.234  10.565 -0.6691 -0.3153 -0.9710
  727TMC3    C610799   3.491   1.338  10.532  0.4218  0.9404 -0.0919
  727TMC3     C10800   3.627   1.034  10.762  0.1674 -0.4048  0.4270
  727TMC3     O10801   3.742   1.043  10.800  0.3430  0.8529  0.2001
  727TMC3     H10802   3.775   1.198  10.642 -1.3905 -4.3981  2.7475
  727TMC3    H110803   3.373   1.055  10.680 -1.2598  0.4645 -0.6859
  727TMC3    H210804   3.446   1.412  10.466 -2.3814  0.1243  0.9206
  727TMC3    C710805   3.265   1.237  10.533  0.0529 -0.3529 -0.1944
  727TMC3    C810806   3.725   1.432  10.535 -0.3667 -0.2675 -0.1646
  727TMC3    O110807   3.199   1.176  10.615  0.2973  0.1171 -0.4682
  727TMC3    O210808   3.841   1.388  10.536  0.1732 -0.3146 -0.2759
  728TMC3    C110809   2.623   3.979  15.095  0.2209 -0.0010  1.0117
  728TMC3    C210810   2.742   4.001  15.149  0.1090  0.1847 -0.1052
  728TMC3    C310811   2.856   4.003  15.071  0.8865 -0.3657  0.2567
  728TMC3    C410812   2.600   3.993  14.960 -0.4420 -0.0466 -0.0816
  728TMC3    C510813   2.708   4.020  14.880 -0.4533 -0.2249 -0.1032
  728TMC3    C610814   2.834   4.008  14.935 -0.4487  0.1414 -0.2075
  728TMC3     C10815   2.508   3.991  15.179  0.7502 -0.3526 -0.1882
  728TMC3     O10816   2.419   4.058  15.125 -0.4292  0.2756 -0.5136
  728TMC3     H10817   2.752   3.999  15.257 -0.2500 -0.3985 -0.0844
  728TMC3    H110818   2.497   3.996  14.924 -0.2058  0.5975 -0.7085
  728TMC3    H210819   2.913   4.011  14.860  0.5898  2.6017  0.9941
  728TMC3    C710820   2.678   4.121  14.775 -0.0554 -0.2695  0.1749
  728TMC3    C810821   2.985   3.977  15.135  0.1578 -0.1761  0.3136
  728TMC3    O110822   2.560   4.137  14.744  0.2523  0.2321 -0.0456
  728TMC3    O210823   2.993   3.992  15.253  0.5086  0.5476  0.8430
  729MPD2     C10824   0.294   0.621  16.044 -0.3808  0.3885 -0.1093
  729MPD2    C110825   0.407   0.591  16.117 -0.0103  0.2808  0.4488
  729MPD2    C210826   0.385   0.530  16.235 -0.8990 -0.1553  0.2854
  729MPD2    C310827   0.267   0.525  16.302  0.1311  0.7997  0.1525
  729MPD2    C410828   0.157   0.568  16.239 -0.9066  0.7530  0.2185
  729MPD2    C510829   0.172   0.618  16.108  0.1037 -0.1533 -0.5925
  729MPD2     H10830   0.468   0.488  16.291  0.4468  1.5511 -0.4185
  729MPD2    H110831   0.061   0.562  16.289 -0.1728 -1.0221  1.4428
  729MPD2    H210832   0.297   0.663  15.944 -0.6923 -0.8025 -0.6198
  729MPD2    H310833   0.090   0.649  16.044  0.3054  3.2084  0.7802
  729MPD2     N10834   0.257   0.495  16.439  0.1338 -0.3881  0.0157
  729MPD2    H510835   0.174   0.536  16.482  2.1986  1.1080  2.5666
  729MPD2    N110836   0.538   0.603  16.067  0.4298  0.3494  0.1856
  729MPD2    H710837   0.545   0.658  15.982 -0.5598 -0.9750 -0.7706
  730TMC3    C110838   0.356   0.487  16.651 -0.9111 -0.2679 -0.6653
  730TMC3    C210839   0.479   0.494  16.709  0.8535  0.1517  0.0911
  730TMC3    C310840   0.486   0.569  16.820  0.1501 -0.4329  0.6181
  730TMC3    C410841   0.241   0.547  16.699  0.3031 -0.7371 -0.4948
  730TMC3    C510842   0.254   0.625  16.815 -0.2851  0.2915  0.2558
  730TMC3    C610843   0.382   0.636  16.871 -0.1088  0.0644 -0.0467
  730TMC3     C10844   0.352   0.432  16.517 -0.3233 -0.1278 -0.4868
  730TMC3     O10845   0.443   0.356  16.482 -0.0369  0.5502  0.5083
  730TMC3     H10846   0.561   0.440  16.663 -0.2077 -2.1466  0.8841
  730TMC3    H110847   0.148   0.550  16.643 -0.2874 -0.2954  0.5065
  730TMC3    H210848   0.393   0.702  16.956  1.9079 -0.3142 -0.0334
  730TMC3    C710849   0.182   0.749  16.814  0.3472 -0.3756  0.0267
  730TMC3    C810850   0.618   0.624  16.841  0.1144 -0.4194  0.6711
  730TMC3    O110851   0.128   0.792  16.713  0.0437 -0.1795 -0.2434
  730TMC3    O210852   0.706   0.591  16.761 -0.1013 -0.0213 -0.3958
  731MPD2     C10853   0.539   3.798  11.816  0.3111  0.5095  0.0425
  731MPD2    C110854   0.450   3.696  11.779  0.2641  0.1300 -0.6511
  731MPD2    C210855   0.396   3.611  11.870  0.1796  0.0416  1.0980
  731MPD2    C310856   0.423   3.625  12.010  0.1341 -0.0486 -0.0559
  731MPD2    C410857   0.505   3.729  12.047 -0.2857  0.3309  1.1507
  731MPD2    C510858   0.558   3.814  11.952  0.2417 -0.3607  0.0343
  731MPD2     H10859   0.333   3.531  11.833  1.9145 -0.4171 -0.8554
  731MPD2    H110860   0.523   3.759  12.150  0.0566  0.2831  1.1031
  731MPD2    H210861   0.589   3.870  11.753 -0.3836  1.6823  0.8137
  731MPD2    H310862   0.610   3.903  11.984  1.0351 -1.6396  2.3369
  731MPD2     N10863   0.369   3.531  12.106  0.7147  0.2059 -0.0348
  731MPD2    H510864   0.322   3.447  12.075  0.3490  0.2482  0.3950
  731MPD2    N110865   0.420   3.705  11.640  0.0987 -0.8127 -0.1836
  731MPD2    H710866   0.469   3.769  11.578  1.9348 -1.0698  0.9851
  732TMC3    C110867   0.333   3.607  11.445  0.2647  0.8616  0.6037
  732TMC3    C210868   0.221   3.579  11.366  0.4518  0.7748  0.4096
  732TMC3    C310869   0.234   3.500  11.256  0.0847 -0.4009  0.0756
  732TMC3    C410870   0.453   3.561  11.406 -0.1423 -0.4093  0.9843
  732TMC3    C510871   0.460   3.473  11.299 -0.3501  0.5041  0.1948
  732TMC3    C610872   0.356   3.447  11.219 -0.0461  0.3735  0.1882
  732TMC3     C10873   0.312   3.642  11.587  0.1022 -0.1183 -0.0438
  732TMC3     O10874   0.206   3.618  11.634 -0.1383  0.1649 -0.7693
  732TMC3     H10875   0.125   3.624  11.391 -0.8163 -1.0785 -1.0833
  732TMC3    H110876   0.541   3.590  11.462  1.3274  0.6291 -1.8634
  732TMC3    H210877   0.371   3.380  11.136  1.2828  0.7892  0.0841
  732TMC3    C710878   0.564   3.366  11.315 -0.2654  0.4062 -0.6912
  732TMC3    C810879   0.115   3.442  11.198  0.1677 -0.3387 -0.0762
  732TMC3    O110880   0.595   3.314  11.209  0.2021 -0.0437  0.0799
  732TMC3    O210881   0.128   3.395  11.083  0.4783 -0.1471  0.2861
  733TMC3    C110882   1.310   1.816  13.261 -1.0172 -0.4074 -0.1842
  733TMC3    C210883   1.378   1.939  13.249 -0.5352  0.0682  0.3535
  733TMC3    C310884   1.494   1.955  13.179 -0.5375  0.6092  0.1142
  733TMC3    C410885   1.341   1.722  13.161  0.0123  0.2653  0.0785
  733TMC3    C510886   1.442   1.746  13.072 -0.0946  1.1380  0.0660
  733TMC3    C610887   1.519   1.861  13.086  0.1838 -0.2705 -0.3883
  733TMC3     C10888   1.172   1.821  13.299  0.2960  0.5180  0.2888
  733TMC3     O10889   1.122   1.932  13.296 -0.3220 -0.2669 -0.1156
  733TMC3     H10890   1.333   2.025  13.296 -0.7363 -0.2110  0.6677
  733TMC3    H110891   1.285   1.630  13.151 -1.5567  1.3508 -1.1622
  733TMC3    H210892   1.610   1.870  13.028  2.0210 -1.9139  2.2497
  733TMC3    C710893   1.447   1.674  12.952 -0.2592  0.5988 -0.0527
  733TMC3    C810894   1.541   2.084  13.157 -0.0069  0.2347  0.3337
  733TMC3    O110895   1.401   1.562  12.948  0.0940  0.3274  0.1774
  733TMC3    O210896   1.558   2.157  13.256 -0.0236 -0.2256 -0.6708
  734MPD2     C10897   2.726   3.903  12.430 -0.7444 -0.7297  0.2372
  734MPD2    C110898   2.742   3.828  12.317  0.5292 -0.0481 -0.4508
  734MPD2    C210899   2.831   3.870  12.219  0.8115 -0.5454 -0.3885
  734MPD2    C310900   2.887   4.000  12.227 -0.1990  0.1662  0.1048
  734MPD2    C410901   2.858   4.078  12.334  0.0637 -0.1714 -0.4540
  734MPD2    C510902   2.785   4.034  12.440  0.0914  0.3956  0.0738
  734MPD2     H10903   2.864   3.811  12.135  1.0971 -0.4473 -0.3459
  734MPD2    H110904   2.904   4.175  12.347 -1.8859  1.1820 -3.8724
  734MPD2    H210905   2.656   3.874  12.507 -1.6157  0.4656 -0.0920
  734MPD2    H310906   2.776   4.094  12.530 -0.3998  1.4530 -0.6813
  734MPD2     N10907   2.978   4.032  12.120  0.1311 -0.9161 -0.1589
  734MPD2    H510908   3.000   3.963  12.049 -1.4686 -0.9080 -0.6727
  734MPD2    N110909   2.665   3.711  12.298 -0.6090  0.1473 -0.9176
  734MPD2    H710910   2.633   3.666  12.384  0.7914  0.1986 -0.3829
  735TMC3    C110911   2.607   3.518  12.187 -1.0682 -0.4891  0.0619
  735TMC3    C210912   2.546   3.482  12.068 -0.6598 -0.3010 -0.1845
  735TMC3    C310913   2.586   3.374  11.995 -0.3769  0.3485 -0.0734
  735TMC3    C410914   2.713   3.439  12.229  1.1814  0.2228  0.4583
  735TMC3    C510915   2.750   3.329  12.160 -0.4208 -0.1831 -0.0611
  735TMC3    C610916   2.684   3.293  12.049  0.2780 -0.3086  0.3682
  735TMC3     C10917   2.648   3.655  12.180 -0.0007 -0.6891 -0.1871
  735TMC3     O10918   2.674   3.691  12.066  0.0564  0.4091 -0.5963
  735TMC3     H10919   2.468   3.544  12.026 -0.1646  1.0894  0.9661
  735TMC3    H110920   2.771   3.462  12.317  1.3602 -2.4024  1.0379
  735TMC3    H210921   2.722   3.206  11.997  1.3191  0.4782 -0.2085
  735TMC3    C710922   2.888   3.315  12.170  0.3424 -0.7307  0.0229
  735TMC3    C810923   2.618   3.408  11.860 -0.5158 -0.3592  1.0846
  735TMC3    O110924   2.952   3.415  12.177  0.4414  0.1271  0.5226
  735TMC3    O210925   2.610   3.309  11.787 -0.2002  0.3560 -0.6525
  736MPD2     C10926   3.092   3.023  12.255  0.0047 -0.0685  0.3219
  736MPD2    C110927   3.063   3.146  12.206 -0.2583 -0.0727 -0.5193
  736MPD2    C210928   3.172   3.227  12.164  0.2219 -0.1592  0.2380
  736MPD2    C310929   3.299   3.176  12.188  0.8174 -0.3373  0.6051
  736MPD2    C410930   3.324   3.062  12.253 -0.3961 -0.1439  0.2113
  736MPD2    C510931   3.220   2.983  12.283  0.2160  1.1053  1.0050
  736MPD2     H10932   3.161   3.324  12.116 -0.4932 -1.2559 -1.8589
  736MPD2    H110933   3.425   3.031  12.281  0.2721  2.3617  0.5960
  736MPD2    H210934   3.010   2.961  12.291 -0.5227  0.4494  0.0024
  736MPD2    H310935   3.234   2.884  12.325  1.7208 -0.9849 -4.4270
  736MPD2     N10936   3.413   3.251  12.150  0.2531 -0.3097 -0.3725
  736MPD2    H510937   3.505   3.210  12.165  0.3669  0.7682  1.9523
  736MPD2    N110938   2.926   3.190  12.187  0.4373 -0.6685 -0.0090
  736MPD2    H710939   2.858   3.116  12.198 -2.6580  1.5126 -4.4129
  737TMC3    C110940   3.555   3.428  12.070  0.2085  0.4332  0.5974
  737TMC3    C210941   3.579   3.562  12.069 -0.6412  0.2450  0.3007
  737TMC3    C310942   3.661   3.610  11.973 -0.0044 -0.0841  0.2334
  737TMC3    C410943   3.637   3.344  11.994  0.0974 -0.4511 -0.6914
  737TMC3    C510944   3.715   3.398  11.895  0.6180  0.0409 -0.1729
  737TMC3    C610945   3.726   3.533  11.879  0.0047  0.5662  0.2397
  737TMC3     C10946   3.424   3.385  12.118 -0.0157  0.3862  0.4761
  737TMC3     O10947   3.340   3.467  12.143 -0.0841  0.0676  0.2845
  737TMC3     H10948   3.526   3.633  12.131  0.6817  0.7707  0.8402
  737TMC3    H110949   3.621   3.236  11.999 -0.5907 -0.3492 -0.6282
  737TMC3    H210950   3.798   3.571  11.807 -0.2336 -0.5959 -0.6140
  737TMC3    C710951   3.785   3.305  11.809  0.8012 -0.4054  0.4745
  737TMC3    C810952   3.685   3.751  11.981  0.6692 -0.5303  0.2798
  737TMC3    O110953   3.751   3.189  11.817  0.7042 -0.7971 -0.2377
  737TMC3    O210954   3.682   3.804  12.091 -0.1681 -0.6380  0.3464
  738MPD2     C10955   4.641   2.514  15.465 -0.5098  0.4978  0.4620
  738MPD2    C110956   4.550   2.495  15.362  0.4383  0.6015 -0.4433
  738MPD2    C210957   4.580   2.535  15.234 -0.1283 -0.2155  0.1539
  738MPD2    C310958   4.698   2.609  15.212 -0.3434 -0.0153 -0.1051
  738MPD2    C410959   0.047   2.634  15.317  0.0107 -0.5254  0.3469
  738MPD2    C510960   0.017   2.583  15.442 -1.1803  0.4999 -0.0214
  738MPD2     H10961   4.506   2.520  15.156 -0.4974  1.2348  0.2243
  738MPD2    H110962   0.131   2.701  15.308  0.5014 -1.0887  0.7343
  738MPD2    H210963   4.607   2.493  15.566 -0.0094 -1.5311  0.2218
  738MPD2    H310964   0.083   2.615  15.522  1.9773 -0.0791 -2.4290
  738MPD2     N10965   0.003   2.653  15.088  0.3527 -0.0618  0.0983
  738MPD2    H510966   0.098   2.690  15.088  0.2391  0.2171  1.9022
  738MPD2    N110967   4.431   2.415  15.377  0.1701  0.1569  0.0488
  738MPD2    H710968   4.387   2.385  15.290 -1.3108  1.1068  0.4610
  739TMC3    C110969   0.040   2.668  14.858 -0.1090  0.0643 -0.9188
  739TMC3    C210970   4.707   2.716  14.748  0.2429 -0.0535  0.0737
  739TMC3    C310971   0.046   2.778  14.654  0.0805  0.0883  0.3034
  739TMC3    C410972   0.179   2.673  14.870 -0.8749 -0.6529 -1.2117
  739TMC3    C510973   0.251   2.740  14.771  0.2004  0.7147 -0.4820
  739TMC3    C610974   0.186   2.778  14.658 -0.4805 -0.4850  0.5886
  739TMC3     C10975   4.683   2.628  14.962 -0.1305  0.1696 -0.3271
  739TMC3     O10976   4.572   2.585  14.932 -0.4861  0.2035 -0.0605
  739TMC3     H10977   4.599   2.708  14.736  0.0609  0.2708  1.5141
  739TMC3    H110978   0.227   2.657  14.966  0.2720  4.3546 -0.9536
  739TMC3    H210979   0.249   2.817  14.580 -2.1112  0.6280 -0.1750
  739TMC3    C710980   0.390   2.766  14.772  0.2954 -0.3235 -0.1034
  739TMC3    C810981   4.710   2.840  14.539 -0.0436 -0.0173  0.0693
  739TMC3    O110982   0.431   2.858  14.699 -0.1360 -0.5470 -0.6170
  739TMC3    O210983   4.590   2.850  14.543 -0.1456  0.1545 -0.1979
  740TMC3    C110984   4.571   3.759  14.216 -0.3309  0.4166 -0.2131
  740TMC3    C210985   4.653   3.667  14.278  0.1399  0.0168  0.0488
  740TMC3    C310986   0.046   3.675  14.240  0.1462 -0.3948  0.3024
  740TMC3    C410987   4.621   3.850  14.125  0.0235  0.2810  0.1300
  740TMC3    C510988   0.018   3.854  14.103  0.0175  0.5983 -0.1574
  740TMC3    C610989   0.103   3.765  14.158  0.7171 -0.7682  0.4570
  740TMC3     C10990   4.426   3.751  14.240  0.8105 -0.1543 -0.4009
  740TMC3     O10991   4.359   3.791  14.151 -0.0494 -0.2999 -0.1835
  740TMC3     H10992   4.614   3.588  14.341  0.2842 -0.3007 -0.2617
  740TMC3    H110993   4.552   3.928  14.093 -1.1234 -0.8418 -0.1487
  740TMC3    H210994   0.207   3.753  14.130  0.6963  0.6559 -0.2499
  740TMC3    C710995   0.077   3.963  14.022  0.4013  0.0351 -0.1521
  740TMC3    C810996   0.119   3.586  14.318 -0.0226  0.7374  0.1652
  740TMC3    O110997   0.051   3.977  13.900 -0.0132  0.2202 -0.3293
  740TMC3    O210998   0.082   3.552  14.432  0.3196 -0.1535  0.4755
  741TMC3    C110999   4.458   3.291  14.322  0.3123 -0.5256  0.0191
  741TMC3    C211000   4.344   3.217  14.317 -0.1120  0.3551  0.5656
  741TMC3    C311001   4.325   3.127  14.422 -0.1357 -0.0501 -0.4678
  741TMC3    C411002   4.556   3.276  14.413 -0.0662  0.1832  0.0471
  741TMC3    C511003   4.534   3.181  14.511  0.2473 -0.0909  0.2269
  741TMC3    C611004   4.418   3.106  14.520 -0.1329 -0.0489  0.4049
  741TMC3     C11005   4.497   3.338  14.186 -0.1835 -0.1602  0.5636
  741TMC3     O11006   4.406   3.367  14.109  0.0761  0.0222  0.2269
  741TMC3     H11007   4.273   3.230  14.236  0.3205  3.5230  0.7229
  741TMC3    H111008   4.640   3.344  14.412 -0.5950  0.8248 -1.1750
  741TMC3    H211009   4.405   3.036  14.602 -2.1978  0.8010  0.8055
  741TMC3    C711010   4.624   3.176  14.623 -0.3912 -1.1001  0.8989
  741TMC3    C811011   4.220   3.026  14.394 -0.1940  0.2476 -0.1123
  741TMC3    O111012   4.733   3.219  14.598 -0.0004 -0.0703  0.5257
  741TMC3    O211013   4.140   3.046  14.305 -0.1878 -0.1257 -0.0797
  742TMC3    C111014   4.523   1.645  15.774  0.0841 -0.1877 -0.0942
  742TMC3    C211015   4.448   1.552  15.705  0.1293  0.6544  0.1603
  742TMC3    C311016   4.470   1.538  15.573 -0.5172  0.4293  0.5668
  742TMC3    C411017   4.604   1.733  15.720  0.6005 -0.3917  0.3166
  742TMC3    C511018   4.635   1.706  15.588 -0.1095 -0.2361  0.3417
  742TMC3    C611019   4.574   1.607  15.510 -0.0894  0.3741  0.3246
  742TMC3     C11020   4.508   1.643  15.919 -0.1548 -0.4879 -0.2054
  742TMC3     O11021   4.478   1.538  15.973 -0.3647  0.3329 -0.6551
  742TMC3     H11022   4.387   1.474  15.750 -2.3696  2.7192  0.2952
  742TMC3    H111023   4.661   1.809  15.772 -3.2216  2.5272  0.2427
  742TMC3    H211024   4.588   1.598  15.403  0.6727  2.0904  0.2812
  742TMC3    C711025   0.023   1.769  15.538  0.0121 -0.6259 -0.0343
  742TMC3    C811026   4.388   1.462  15.483 -0.4366  0.2994 -0.6180
  742TMC3    O111027   0.063   1.861  15.605 -0.1763  0.3864 -0.1642
  742TMC3    O211028   4.434   1.415  15.374  0.1009  0.0693 -0.3324
  743MPD2     C11029   1.879   3.731   0.996 -0.5351  0.5764  0.7286
  743MPD2    C111030   1.970   3.630   0.969  0.3700 -0.0339 -0.6064
  743MPD2    C211031   2.071   3.608   1.065  0.9516 -0.5476 -0.1935
  743MPD2    C311032   2.097   3.688   1.168 -0.1284 -0.0392  0.3278
  743MPD2    C411033   2.013   3.797   1.189  0.8294 -0.3336  0.8439
  743MPD2    C511034   1.903   3.809   1.107 -0.5374  0.0619  0.2675
  743MPD2     H11035   2.145   3.530   1.057  0.3362 -0.9933 -1.4912
  743MPD2    H111036   2.023   3.868   1.270 -1.8615 -1.4207  2.1254
  743MPD2    H211037   1.800   3.744   0.923 -0.7725 -1.7062  0.5661
  743MPD2    H311038   1.838   3.891   1.134 -2.0938 -1.5975  1.5784
  743MPD2     N11039   2.224   3.667   1.228  0.4435 -0.0249 -0.2291
  743MPD2    H511040   2.279   3.588   1.195  2.0498  0.9224  0.1587
  743MPD2    N111041   1.954   3.549   0.857 -0.2481 -0.5799 -0.2499
  743MPD2    H711042   1.872   3.576   0.803  0.5997 -1.6029 -2.0438
  744TMC3    C111043   1.999   3.399   0.682 -0.2902  0.2889  0.5617
  744TMC3    C211044   1.885   3.437   0.615  0.3019 -0.1251  0.4854
  744TMC3    C311045   1.862   3.372   0.494  0.0958 -0.1553  0.2467
  744TMC3    C411046   2.086   3.313   0.625  0.4473  0.2210 -0.0323
  744TMC3    C511047   2.059   3.246   0.510 -0.0058  0.2786 -0.5055
  744TMC3    C611048   1.942   3.272   0.444  0.5984  0.5159 -0.4887
  744TMC3     C11049   2.041   3.463   0.808  0.4889  0.7835  0.0299
  744TMC3     O11050   2.149   3.425   0.856 -0.0267  0.2304 -0.1952
  744TMC3     H11051   1.802   3.498   0.647 -1.3756 -2.6870  1.0759
  744TMC3    H111052   2.180   3.288   0.673 -0.3686 -1.1897  0.8272
  744TMC3    H211053   1.915   3.219   0.354 -1.0772  0.6375 -0.0545
  744TMC3    C711054   2.154   3.157   0.455 -0.1778  0.0443 -0.5534
  744TMC3    C811055   1.754   3.413   0.406  0.3827  0.1187 -0.2335
  744TMC3    O111056   2.265   3.151   0.510 -0.3845 -0.4356 -0.5310
  744TMC3    O211057   1.713   3.524   0.428  0.3381  0.0172 -0.8902
  745TMC3    C111058   4.735   1.269  13.345 -0.7990  0.0911  0.3673
  745TMC3    C211059   4.657   1.222  13.455  0.3292  0.0289 -0.8371
  745TMC3    C311060   4.523   1.253  13.449 -0.3010  0.0629  0.1156
  745TMC3    C411061   4.680   1.337  13.239  0.2707 -0.5516 -0.1227
  745TMC3    C511062   4.542   1.351  13.231 -0.0289  0.3106  0.0855
  745TMC3    C611063   4.466   1.309  13.338  0.0429 -0.2954 -0.7547
  745TMC3     C11064   0.137   1.308  13.367 -0.1120  1.0692 -0.3811
  745TMC3     O11065   0.199   1.238  13.447 -0.6610 -0.4256  0.1624
  745TMC3     H11066   4.709   1.175  13.537 -2.3602  1.0835  1.4665
  745TMC3    H111067   0.007   1.356  13.153  0.6819 -1.2652  0.0220
  745TMC3    H211068   4.359   1.329  13.340  0.2623  0.5411  1.8170
  745TMC3    C711069   4.497   1.456  13.143 -0.8329  0.5154 -0.3523
  745TMC3    C811070   4.451   1.272  13.579 -0.0411  0.3444 -0.4362
  745TMC3    O111071   4.385   1.468  13.099  0.0639  0.3748 -0.1105
  745TMC3    O211072   4.331   1.270  13.567  0.5811 -0.1347  0.0267
  746TMC3    C111073   2.572   3.488  10.738 -0.2193  0.6213  0.5594
  746TMC3    C211074   2.634   3.532  10.620 -0.5380  0.5814 -0.0646
  746TMC3    C311075   2.639   3.447  10.514 -0.1366 -0.1297 -0.9108
  746TMC3    C411076   2.508   3.367  10.737 -0.4776  0.4554  0.9964
  746TMC3    C511077   2.507   3.284  10.624 -0.1959 -0.3484 -0.2098
  746TMC3    C611078   2.568   3.329  10.512  0.2671 -0.1382  0.1796
  746TMC3     C11079   2.517   3.578  10.838  0.0039  0.3476 -0.5545
  746TMC3     O11080   2.474   3.530  10.944  0.4793  0.1056  0.3808
  746TMC3     H11081   2.678   3.630  10.613  0.5523  0.0911 -0.0508
  746TMC3    H111082   2.444   3.346  10.822 -0.8468  1.7418  1.0334
  746TMC3    H211083   2.579   3.272  10.421  2.6363 -1.5049  1.3211
  746TMC3    C711084   2.447   3.151  10.620  0.0620  0.2856 -0.6014
  746TMC3    C811085   2.670   3.492  10.381 -0.6806  0.6636 -0.1481
  746TMC3    O111086   2.423   3.103  10.516  0.2458  0.5307  0.3664
  746TMC3    O211087   2.726   3.421  10.301 -0.3096 -0.5239  0.1876
  747TMC3    C111088   4.330   3.491  10.896  0.0226 -0.5077  0.1350
  747TMC3    C211089   4.237   3.410  10.964  0.7841 -0.3359 -1.1402
  747TMC3    C311090   4.230   3.421  11.098 -0.1452  0.1581  0.8579
  747TMC3    C411091   4.404   3.592  10.963 -0.1492 -0.1354 -0.5444
  747TMC3    C511092   4.379   3.613  11.099  0.5580 -0.2447 -0.5803
  747TMC3    C611093   4.297   3.524  11.168  0.5575 -0.3137 -0.6273
  747TMC3     C11094   4.289   3.516  10.762  0.7069  0.7881  0.4881
  747TMC3     O11095   4.289   3.635  10.731 -0.7225  0.0577 -0.2691
  747TMC3     H11096   4.169   3.346  10.909 -0.2661 -0.1520 -0.0538
  747TMC3    H111097   4.447   3.668  10.900  0.2151  0.5597  0.5441
  747TMC3    H211098   4.272   3.533  11.273  0.7981  3.3833 -0.8932
  747TMC3    C711099   4.478   3.682  11.177 -0.0363  0.2325 -0.2680
  747TMC3    C811100   4.127   3.340  11.163  0.2065 -0.1533  0.2570
  747TMC3    O111101   4.463   3.690  11.296 -0.3583 -0.1350 -0.2354
  747TMC3    O211102   4.058   3.270  11.093 -0.3287  0.5866  0.0338
  748MPD2     C11103   1.724   4.577   1.497  0.1273  0.2945 -0.0647
  748MPD2    C111104   1.732   4.517   1.375  0.2876 -0.0379 -0.1357
  748MPD2    C211105   1.852   4.514   1.299  0.5147 -0.4346 -0.4432
  748MPD2    C311106   1.960   4.578   1.347 -0.3908  0.0421 -0.4991
  748MPD2    C411107   1.943   4.641   1.469  0.0196  0.4961 -0.2679
  748MPD2    C511108   1.835   4.637   1.544  0.2608 -1.0234 -0.1784
  748MPD2     H11109   1.865   4.473   1.199  2.1078 -1.0886  0.0296
  748MPD2    H111110   2.024   4.690   1.521  0.1949 -0.7747  0.6577
  748MPD2    H211111   1.633   4.568   1.555 -0.3416 -0.8802 -0.9871
  748MPD2    H311112   1.840   4.689   1.639  3.6761 -1.4937 -0.0744
  748MPD2     N11113   2.082   4.574   1.276 -0.1395  0.0597 -0.6003
  748MPD2    H511114   2.087   4.532   1.183 -1.3888  0.2311 -0.7435
  748MPD2    N111115   1.612   4.456   1.329  0.8324 -0.3390 -0.0338
  748MPD2    H711116   1.526   4.467   1.381  1.5888  1.3185  0.8671
  749TMC3    C111117   2.314   4.578   1.251 -0.6879 -0.5072  0.4251
  749TMC3    C211118   2.431   4.557   1.321 -0.2773 -0.1113 -0.1018
  749TMC3    C311119   2.537   4.527   1.240  0.3684 -0.3761 -0.5256
  749TMC3    C411120   2.309   4.593   1.115 -0.0736  0.6420  0.0930
  749TMC3    C511121   2.419   4.576   1.041  0.1352  0.1083 -1.0016
  749TMC3    C611122   2.535   4.536   1.102  0.3473  0.0789 -0.1434
  749TMC3     C11123   2.201   4.614   1.330 -0.0176 -0.4205  0.3900
  749TMC3     O11124   2.227   4.650   1.445  0.3566 -0.0212  0.0236
  749TMC3     H11125   2.432   4.555   1.430 -0.9458 -0.2601 -0.1031
  749TMC3    H111126   2.212   4.615   1.071 -0.9523 -0.2676  1.6005
  749TMC3    H211127   2.624   4.509   1.046 -0.3059 -2.3197 -0.0389
  749TMC3    C711128   2.414   4.600   0.904 -0.0378 -0.6598 -0.3065
  749TMC3    C811129   2.645   4.460   1.300  0.0462  0.7237 -0.0698
  749TMC3    O111130   2.307   4.575   0.850  0.7309 -0.0798 -0.0544
  749TMC3    O211131   2.673   4.491   1.415  0.3253  0.5115 -0.0861
  750MPD2     C11132   2.349   0.357  11.930  0.3557  0.5918 -0.1143
  750MPD2    C111133   2.222   0.321  11.898  0.0123 -0.0767 -1.0374
  750MPD2    C211134   2.193   0.215  11.815 -0.0653 -0.7352 -0.5512
  750MPD2    C311135   2.297   0.126  11.782 -0.7087  0.1763 -0.2154
  750MPD2    C411136   2.426   0.162  11.821  0.6551 -0.4630 -0.2151
  750MPD2    C511137   2.451   0.280  11.887  0.1917 -0.7454  0.6157
  750MPD2     H11138   2.091   0.191  11.786 -0.3542 -0.9223  0.6348
  750MPD2    H111139   2.510   0.101  11.792  1.8221 -0.7886  3.8445
  750MPD2    H211140   2.363   0.439  11.999 -0.1146  0.3657  0.2493
  750MPD2    H311141   2.549   0.312  11.921  1.0604 -2.7925  0.0568
  750MPD2     N11142   2.287   0.016  11.702  0.1352  0.4262  0.1418
  750MPD2    H511143   2.374   4.701  11.686  0.7001  1.8134 -1.2485
  750MPD2    N111144   2.110   0.393  11.952 -0.7230  0.8612  0.6021
  750MPD2    H711145   2.137   0.480  11.996 -0.6466  1.8745 -1.4344
  751TMC3    C111146   2.195   4.614  11.542  0.1082  0.2429  0.3825
  751TMC3    C211147   2.094   4.530  11.507 -0.0238 -0.3683 -0.4520
  751TMC3    C311148   2.116   4.464  11.387 -0.0223 -0.4381 -0.2933
  751TMC3    C411149   2.306   4.637  11.472  0.2212  0.2171 -1.1123
  751TMC3    C511150   2.333   4.546  11.371 -0.3618  0.0799 -0.5733
  751TMC3    C611151   2.236   4.460  11.322 -0.8167 -0.1966 -0.4330
  751TMC3     C11152   2.175   4.696  11.652  0.3662 -0.2003 -0.3382
  751TMC3     O11153   2.059   4.720  11.685 -0.0600  0.3980  0.1070
  751TMC3     H11154   2.003   4.522  11.565  1.4513 -0.3811  1.8719
  751TMC3    H111155   2.380   4.713  11.496 -1.5381  1.6794 -0.3978
  751TMC3    H211156   2.253   4.408  11.229  0.2589  0.5599 -0.6632
  751TMC3    C711157   2.459   4.553  11.303  0.8194 -0.1603  0.6869
  751TMC3    C811158   2.013   4.371  11.340 -0.3743 -0.9284  0.6102
  751TMC3    O111159   2.514   4.666  11.284  0.0793  0.3158  0.0955
  751TMC3    O211160   2.020   4.347  11.222 -0.8913 -0.1178  0.3268
  752TMC3    C111161   1.158   0.562  17.087 -0.5149 -0.7345 -0.1864
  752TMC3    C211162   1.238   0.560  17.204 -0.1838 -0.5900  0.0620
  752TMC3    C311163   1.187   0.495  17.314 -0.1888 -0.2598  0.0567
  752TMC3    C411164   1.028   0.515  17.084 -0.9329 -0.3555  0.1597
  752TMC3    C511165   0.984   0.456  17.200 -0.1349 -0.1299 -0.3402
  752TMC3    C611166   1.058   0.454  17.313 -0.1846  0.5184  0.4244
  752TMC3     C11167   1.223   0.590  16.967 -0.2233  1.4928  0.6518
  752TMC3     O11168   1.335   0.642  16.990  0.4090  0.3224 -0.0706
  752TMC3     H11169   1.345   0.572  17.194 -0.4031  0.6744 -0.8391
  752TMC3    H111170   0.954   0.528  17.007 -2.2931 -0.5605  1.4338
  752TMC3    H211171   1.013   0.397  17.394 -1.7914  1.9240  0.4950
  752TMC3    C711172   0.841   0.432  17.213  0.2167 -0.2897 -0.1530
  752TMC3    C811173   1.278   0.410  17.388 -0.0691  1.0334 -0.0455
  752TMC3    O111174   0.789   0.454  17.322 -0.2600 -0.0499  0.3014
  752TMC3    O211175   1.390   0.388  17.341  0.3913 -0.2158  0.5463
  753TMC3    C111176   3.055   1.491  13.597 -0.3528 -0.7170 -0.1056
  753TMC3    C211177   3.143   1.555  13.682 -0.1097 -0.3086 -0.4202
  753TMC3    C311178   3.213   1.484  13.773  0.1864  0.3438  0.4723
  753TMC3    C411179   3.017   1.366  13.622 -0.3246  0.4907 -0.1755
  753TMC3    C511180   3.082   1.297  13.723  0.1766 -0.0950  0.2275
  753TMC3    C611181   3.179   1.353  13.798  0.6444  0.2083  0.0533
  753TMC3     C11182   2.950   1.568  13.530 -0.1959 -0.3799 -0.3908
  753TMC3     O11183   2.886   1.508  13.445  0.5598  0.5907  0.0747
  753TMC3     H11184   3.175   1.656  13.659 -0.1751  0.5391  3.2044
  753TMC3    H111185   2.935   1.322  13.567 -0.0597 -0.8272  0.4846
  753TMC3    H211186   3.241   1.288  13.860  0.2627 -0.0236  0.1877
  753TMC3    C711187   3.028   1.175  13.768 -0.8194  0.4950  0.3041
  753TMC3    C811188   3.340   1.531  13.817  0.3146 -0.5787  0.2803
  753TMC3    O111189   3.096   1.097  13.835  0.6458 -0.7617  0.2080
  753TMC3    O211190   3.391   1.611  13.742 -0.3208 -0.0089  0.3961
  754MPD2     C11191   1.762   0.095  13.342  0.2480 -0.4912  0.1181
  754MPD2    C111192   1.729   4.699  13.331  0.4944 -0.0833 -0.1338
  754MPD2    C211193   1.600   4.661  13.289  0.1196 -1.3694  0.1812
  754MPD2    C311194   1.520   0.022  13.235  0.2902 -0.9045 -0.2574
  754MPD2    C411195   1.557   0.150  13.241 -0.4683 -0.2107 -0.5140
  754MPD2    C511196   1.676   0.190  13.297 -0.7668 -0.5199 -0.2170
  754MPD2     H11197   1.576   4.555  13.292 -1.4935 -1.0423 -1.0218
  754MPD2    H111198   1.494   0.229  13.202 -0.0402  0.4822  0.1971
  754MPD2    H211199   1.849   0.125  13.399  0.4196  0.2592 -0.5383
  754MPD2    H311200   1.694   0.296  13.305 -0.4247 -0.5994  0.0751
  754MPD2     N11201   1.392   4.726  13.176  0.3241 -0.0189  0.1039
  754MPD2    H511202   1.336   0.069  13.146 -0.5668 -0.5340  0.3870
  754MPD2    N111203   1.821   4.606  13.384  0.5909  0.5238 -0.0191
  754MPD2    H711204   1.910   4.648  13.407  0.7471  0.7772 -1.0883
  755MPD2     C11205   0.474   0.146  13.525  0.0524  0.5790  0.3320
  755MPD2    C111206   0.604   0.142  13.579  0.0842 -0.4776  0.0271
  755MPD2    C211207   0.712   0.139  13.491  0.6301  0.3541 -0.3795
  755MPD2    C311208   0.690   0.109  13.355  0.3507 -0.0569  0.5663
  755MPD2    C411209   0.563   0.122  13.300  0.9584 -0.2228 -0.2861
  755MPD2    C511210   0.459   0.141  13.386  0.0876 -1.1440  0.4892
  755MPD2     H11211   0.814   0.148  13.527 -0.1848  3.0938  1.2500
  755MPD2    H111212   0.548   0.102  13.194  0.9605  0.4460 -0.4137
  755MPD2    H211213   0.387   0.159  13.588  1.7513 -0.3932  2.8769
  755MPD2    H311214   0.364   0.164  13.340  0.0013 -1.7331  0.3697
  755MPD2     N11215   0.792   0.068  13.262  0.1395 -0.6075  0.5127
  755MPD2    H511216   0.763   0.043  13.169 -1.6266  2.2124  0.3026
  755MPD2    N111217   0.638   0.145  13.714  0.0940 -0.0176  0.0651
  755MPD2    H711218   0.735   0.160  13.742 -0.2561 -0.0234  1.2719
  756MPD2     C11219   2.097   0.735  10.087 -0.1444 -0.5929  0.9214
  756MPD2    C111220   2.035   0.633  10.153  0.3046  0.2007  0.3088
  756MPD2    C211221   2.035   0.508  10.098 -0.0800 -0.0153 -0.5982
  756MPD2    C311222   2.111   0.474   9.990 -0.9488 -0.1027  0.4233
  756MPD2    C411223   2.188   0.575   9.930 -0.0343  0.8606  0.6283
  756MPD2    C511224   2.177   0.699   9.979  0.8736  0.3163  0.9268
  756MPD2     H11225   1.970   0.432  10.140 -1.0159  0.8096 -0.5445
  756MPD2    H111226   2.257   0.565   9.847  0.2241 -1.5872  1.1407
  756MPD2    H211227   2.116   0.836  10.119 -2.6436  0.2862 -0.3756
  756MPD2    H311228   2.223   0.778   9.921 -2.3564  1.0235 -0.6796
  756MPD2     N11229   2.107   0.342   9.934 -0.5868  0.0362  0.5200
  756MPD2    H511230   2.070   0.266   9.991 -1.7477  0.7839  0.7524
  756MPD2    N111231   1.982   0.652  10.280  0.2889  0.6755  0.2222
  756MPD2    H711232   1.970   0.568  10.335  0.1224  0.0554 -0.7737
  757MPD2     C11233   1.767   4.313  10.168  0.3978 -0.0498 -0.1651
  757MPD2    C111234   1.773   4.439  10.211  0.1107  0.6608  0.5087
  757MPD2    C211235   1.825   4.534  10.126 -0.2399  0.7687  0.6838
  757MPD2    C311236   1.878   4.496  10.007  0.3096 -0.5400  0.0264
  757MPD2    C411237   1.871   4.361   9.969  0.1527 -0.1854  1.0314
  757MPD2    C511238   1.813   4.272  10.048 -0.2107 -0.4905 -0.2591
  757MPD2     H11239   1.823   4.639  10.154 -1.8225  0.8469  0.2492
  757MPD2    H111240   1.895   4.337   9.866  0.8682  0.6687  1.0015
  757MPD2    H211241   1.715   4.250  10.239  0.2143  0.5431  0.2271
  757MPD2    H311242   1.802   4.170  10.012  1.2829  0.0624 -2.2958
  757MPD2     N11243   1.942   4.589   9.930  0.4105 -0.0382 -0.1333
  757MPD2    H511244   1.972   4.672   9.980  0.7320  0.2093 -0.7397
  757MPD2    N111245   1.712   4.468  10.332 -0.0658 -0.8206 -0.0548
  757MPD2    H711246   1.687   4.389  10.391 -1.8377 -0.3966 -0.2297
  758MPD2     C11247   1.771   0.005  15.760  0.2979  0.3559  0.7239
  758MPD2    C111248   1.875   4.689  15.835 -0.5652  0.2324 -0.5155
  758MPD2    C211249   1.912   0.015  15.946  0.2552  0.2231 -0.0489
  758MPD2    C311250   1.852   0.125  15.994 -0.3086  0.0964  0.3351
  758MPD2    C411251   1.755   0.188  15.921 -0.0620 -1.0191  1.0685
  758MPD2    C511252   1.724   0.128  15.801 -0.1879 -0.4993 -0.5492
  758MPD2     H11253   1.989   4.707  16.008  0.0392 -0.7933 -0.5006
  758MPD2    H111254   1.713   0.279  15.962 -1.3258 -1.8613  1.6137
  758MPD2    H211255   1.735   4.689  15.673 -0.9121  1.6636  0.4218
  758MPD2    H311256   1.643   0.169  15.741 -0.1713  1.3758  0.6860
  758MPD2     N11257   1.883   0.181  16.121 -0.0045 -0.4286 -0.3704
  758MPD2    H511258   1.802   0.219  16.169 -0.7597 -1.0696 -1.1447
  758MPD2    N111259   1.925   4.559  15.802  0.2665  0.4806  0.3763
  758MPD2    H711260   1.877   4.511  15.726  0.2739 -1.7442  1.7824
  759MPD2     C11261   0.569   3.128  10.251 -0.7653  0.9641  0.0114
  759MPD2    C111262   0.693   3.094  10.295 -0.1335  0.1859 -0.2455
  759MPD2    C211263   0.799   3.160  10.238  0.3204 -0.3744  0.0336
  759MPD2    C311264   0.776   3.255  10.133  0.6460 -0.7202 -0.3721
  759MPD2    C411265   0.648   3.291  10.096 -0.3604 -0.1408  0.3216
  759MPD2    C511266   0.547   3.225  10.157 -0.0824  0.3919 -0.5100
  759MPD2     H11267   0.895   3.126  10.276 -0.1525 -2.7296 -0.8371
  759MPD2    H111268   0.629   3.369  10.024 -3.2504 -0.4613  0.7421
  759MPD2    H211269   0.478   3.080  10.284 -2.0949  2.9527 -0.7077
  759MPD2    H311270   0.447   3.262  10.135 -0.2078 -0.4309 -1.3115
  759MPD2     N11271   0.894   3.317  10.081 -0.4052  0.3124  0.6099
  759MPD2    H511272   0.988   3.295  10.112  0.8617 -0.1897 -3.6161
  759MPD2    N111273   0.718   2.997  10.388 -0.5528 -0.1352  0.1973
  759MPD2    H711274   0.814   2.977  10.412 -0.0333  0.9308 -0.9870
  760MPD2     C11275   0.334   0.224  12.207  0.1661  0.1086 -0.1178
  760MPD2    C111276   0.454   0.254  12.153  0.2408 -0.1029 -0.2372
  760MPD2    C211277   0.493   0.203  12.032  0.6111  0.2915  0.9811
  760MPD2    C311278   0.409   0.111  11.960  0.2334 -0.2288 -0.1913
  760MPD2    C411279   0.284   0.080  12.018 -0.1328  0.5876 -0.5220
  760MPD2    C511280   0.245   0.139  12.138  0.0788 -0.7243 -0.6817
  760MPD2     H11281   0.592   0.230  11.998  0.2871  1.5601  1.0568
  760MPD2    H111282   0.209   0.016  11.974  0.9746 -0.0624 -1.4735
  760MPD2    H211283   0.296   0.273  12.296 -0.5204  0.4411 -0.5868
  760MPD2    H311284   0.147   0.119  12.178  0.1101  0.8620  0.1834
  760MPD2     N11285   0.458   0.036  11.852 -0.4288 -0.0640 -0.4452
  760MPD2    H511286   0.401   4.698  11.813  1.1082 -0.9879 -0.9288
  760MPD2    N111287   0.544   0.361  12.201  0.4923 -0.5359  0.3172
  760MPD2    H711288   0.622   0.397  12.147  0.2526 -0.7288 -0.1555
  761MPD2     C11289   1.731   3.946  11.382  0.3312 -0.4398  0.4227
  761MPD2    C111290   1.813   3.991  11.282 -0.0276 -0.8074 -0.8075
  761MPD2    C211291   1.883   4.108  11.292 -0.0356 -0.2492 -0.3430
  761MPD2    C311292   1.863   4.185  11.401 -0.1021 -0.4013 -0.4264
  761MPD2    C411293   1.785   4.141  11.505 -0.1543  0.5129 -0.8619
  761MPD2    C511294   1.718   4.021  11.493 -0.0473  0.0537 -0.0093
  761MPD2     H11295   1.961   4.134  11.221 -0.1326  2.7917  0.6720
  761MPD2    H111296   1.788   4.197  11.598  0.5486 -0.6924 -0.1461
  761MPD2    H211297   1.675   3.853  11.382 -0.7397  0.2048 -1.5981
  761MPD2    H311298   1.671   3.983  11.583  0.9453 -1.6128 -0.2119
  761MPD2     N11299   1.932   4.304  11.431 -0.1437  0.0973 -0.2626
  761MPD2    H511300   1.925   4.329  11.529 -1.1042 -0.7652 -0.1057
  761MPD2    N111301   1.819   3.918  11.166 -0.3174  0.0942 -0.3327
  761MPD2    H711302   1.778   3.826  11.176 -0.7798  0.1858 -1.4991
  762MPD2     C11303   2.219   4.306  10.900  0.5765 -0.0829 -0.1699
  762MPD2    C111304   2.211   4.213  10.797 -0.0159 -0.7964  0.7248
  762MPD2    C211305   2.305   4.226  10.698 -0.0734 -0.2897 -1.3805
  762MPD2    C311306   2.408   4.318  10.705  0.7565  0.2790 -0.0226
  762MPD2    C411307   2.418   4.398  10.819  0.3258  0.6718  0.8485
  762MPD2    C511308   2.323   4.397  10.913 -0.1084 -0.2017  0.8214
  762MPD2     H11309   2.299   4.168  10.607  0.7951  1.1019 -2.3214
  762MPD2    H111310   2.494   4.473  10.835 -0.2467  1.7586 -1.5159
  762MPD2    H211311   2.149   4.298  10.982 -2.2322  3.1693 -2.2725
  762MPD2    H311312   2.325   4.467  10.995 -0.5421  2.1864 -1.1932
  762MPD2     N11313   2.499   4.333  10.594  0.1193 -0.0225  0.3657
  762MPD2    H511314   2.496   4.261  10.523 -0.0283  1.8141 -1.4548
  762MPD2    N111315   2.118   4.105  10.792 -0.1685 -0.0910  0.0607
  762MPD2    H711316   2.049   4.100  10.866 -0.6045 -0.6019 -0.3862
  763MPD2     C11317   4.247   4.105  15.970  0.0979 -1.1438  0.2546
  763MPD2    C111318   4.137   4.184  15.997  0.5756 -0.8374  0.0216
  763MPD2    C211319   4.138   4.308  16.059  0.0754  0.3909  0.0441
  763MPD2    C311320   4.258   4.368  16.086  0.5991 -0.3647 -0.1771
  763MPD2    C411321   4.372   4.297  16.066 -0.4404 -0.1288 -0.2726
  763MPD2    C511322   4.365   4.166  16.016  0.2102 -0.3045  1.2303
  763MPD2     H11323   4.043   4.360  16.066 -1.5443 -2.1903 -2.7783
  763MPD2    H111324   4.473   4.335  16.075 -0.6425  0.2587  0.3437
  763MPD2    H211325   4.249   4.011  15.917  0.6855 -1.8789  1.5548
  763MPD2    H311326   4.455   4.114  15.985  0.3413  1.0779 -0.6920
  763MPD2     N11327   4.259   4.498  16.152  0.3267  0.7278  0.2317
  763MPD2    H511328   4.349   4.544  16.167  0.2153  0.0653  2.9911
  763MPD2    N111329   4.022   4.140  15.926  0.4647 -0.3615 -0.2597
  763MPD2    H711330   3.953   4.212  15.910  1.2893  0.6544  0.8089
  764MPD2     C11331   1.513   1.636  17.699 -0.6332  0.0578 -0.1795
  764MPD2    C111332   1.411   1.545  17.679  0.3759 -0.1283  0.2417
  764MPD2    C211333   1.381   1.452   0.033  0.9295  0.2208 -0.4846
  764MPD2    C311334   1.431   1.470   0.157 -0.6885 -0.2902 -0.5301
  764MPD2    C411335   1.533   1.563   0.172  0.4145 -0.4980  0.0654
  764MPD2    C511336   1.579   1.632   0.067 -0.3024 -0.4986 -1.1700
  764MPD2     H11337   1.300   1.382   0.016 -0.0855  0.6625  2.6663
  764MPD2    H111338   1.572   1.581   0.272 -0.9881  2.7889  0.0210
  764MPD2    H211339   1.567   1.682  17.617 -0.1278  0.6731  0.4993
  764MPD2    H311340   1.662   1.698   0.086  0.6984 -1.9238 -0.5373
  764MPD2     N11341   1.387   1.375   0.249 -0.3259  0.4339 -0.3895
  764MPD2    H511342   1.310   1.315   0.218 -0.6413  1.1862 -1.0774
  764MPD2    N111343   1.333   1.540  17.559 -0.4976  0.1589 -0.4891
  764MPD2    H711344   1.277   1.457  17.540 -1.2601  0.6297 -0.3058
  765MPD2     C11345   1.491   3.727  15.744 -0.1660 -0.3045 -0.4017
  765MPD2    C111346   1.605   3.785  15.695  0.0609 -0.1199 -0.2527
  765MPD2    C211347   1.730   3.767  15.753  0.4030  0.2334  0.1915
  765MPD2    C311348   1.742   3.691  15.873  1.4337 -0.2903 -0.3445
  765MPD2    C411349   1.634   3.622  15.909 -0.5329  0.5715 -0.4794
  765MPD2    C511350   1.511   3.642  15.849 -0.3414  0.4960 -0.7027
  765MPD2     H11351   1.822   3.814  15.720 -1.0379  0.5815 -3.4205
  765MPD2    H111352   1.625   3.559  15.997  2.3294  2.0135  0.8283
  765MPD2    H211353   1.389   3.744  15.710  0.2815  2.6004 -0.3007
  765MPD2    H311354   1.425   3.596  15.896  0.9119 -1.3770 -0.2542
  765MPD2     N11355   1.866   3.681  15.940  0.0051  0.6049 -0.0114
  765MPD2    H511356   1.946   3.729  15.901  0.3893  0.4252  0.5597
  765MPD2    N111357   1.595   3.892  15.603  0.2842  0.6007 -0.4938
  765MPD2    H711358   1.502   3.909  15.566 -1.1756 -2.9900  1.4516
  766MPD2     C11359   1.232   4.033  14.992 -0.3545  0.3235  0.2860
  766MPD2    C111360   1.372   4.035  15.003  0.2959 -0.0040 -0.2004
  766MPD2    C211361   1.452   4.007  14.897 -0.3396 -0.0062 -0.0034
  766MPD2    C311362   1.395   3.989  14.777  0.0745  0.4404  0.1174
  766MPD2    C411363   1.264   3.983  14.756  0.2748 -0.2870  0.0334
  766MPD2    C511364   1.181   3.994  14.866 -0.2356 -0.4631 -0.4413
  766MPD2     H11365   1.559   4.012  14.912 -0.3149 -0.5210 -0.0048
  766MPD2    H111366   1.224   3.989  14.656  1.4595 -1.7189 -0.5200
  766MPD2    H211367   1.161   4.048  15.073  0.4097 -1.0313  1.2056
  766MPD2    H311368   1.075   4.014  14.850 -0.4350 -1.6866 -0.6047
  766MPD2     N11369   1.473   3.997  14.662 -0.3586 -0.8319  0.2695
  766MPD2    H511370   1.421   3.987  14.576 -1.3400  1.3933  0.6137
  766MPD2    N111371   1.439   4.065  15.127  0.7534  0.0377 -0.7695
  766MPD2    H711372   1.531   4.022  15.133  0.3580 -0.9139 -1.6616
  767MPD2     C11373   1.023   4.354  14.765  0.4530  0.4098  0.6831
  767MPD2    C111374   1.159   4.351  14.730  0.5072 -0.4230  0.0742
  767MPD2    C211375   1.190   4.336  14.597 -0.2260  0.1048  0.1216
  767MPD2    C311376   1.095   4.323  14.499  0.0442  0.0544 -0.9054
  767MPD2    C411377   0.962   4.334  14.537  0.3907 -0.1682 -0.2406
  767MPD2    C511378   0.927   4.345  14.667 -0.6673 -0.2518 -0.1164
  767MPD2     H11379   1.293   4.326  14.563 -0.1891  1.2400 -0.0905
  767MPD2    H111380   0.889   4.342  14.457 -1.1906  0.4705  1.2528
  767MPD2    H211381   0.995   4.380  14.867 -3.3823  0.4627 -0.3864
  767MPD2    H311382   0.823   4.361  14.693 -0.0752  2.7642  0.3895
  767MPD2     N11383   1.145   4.296  14.371 -0.5444  0.5267 -0.1395
  767MPD2    H511384   1.246   4.295  14.360 -0.3829  0.0135  1.3077
  767MPD2    N111385   1.261   4.357  14.832 -0.3728 -0.5671  0.6554
  767MPD2    H711386   1.225   4.371  14.925 -1.0769  0.5094  0.2322
  768MPD2     C11387   1.405   2.648  10.868  0.4305 -0.2456 -0.0403
  768MPD2    C111388   1.504   2.557  10.823  0.0648 -0.5874 -0.6543
  768MPD2    C211389   1.553   2.459  10.907  1.1560  0.1326 -0.7813
  768MPD2    C311390   1.517   2.460  11.044  0.6405  0.0536 -0.1714
  768MPD2    C411391   1.418   2.546  11.082 -0.1422 -0.4368 -0.1773
  768MPD2    C511392   1.363   2.634  10.995  0.1108  0.3265 -0.3248
  768MPD2     H11393   1.625   2.392  10.862  0.9397 -1.6531  1.6109
  768MPD2    H111394   1.363   2.546  11.175 -1.5801  2.7911 -1.0248
  768MPD2    H211395   1.373   2.734  10.811 -0.2797  1.1910  2.5467
  768MPD2    H311396   1.280   2.695  11.027  0.8035  0.6755  0.7882
  768MPD2     N11397   1.562   2.370  11.141  0.3542  0.0458 -0.2943
  768MPD2    H511398   1.537   2.395  11.236 -0.9123  1.2025 -0.9317
  768MPD2    N111399   1.559   2.561  10.691 -0.2847  0.5373 -0.5730
  768MPD2    H711400   1.623   2.483  10.675 -1.9644 -1.2671  1.4765
  769MPD2     C11401   2.748   1.455  14.488 -0.6628  0.1067 -0.3487
  769MPD2    C111402   2.754   1.384  14.597 -0.4453 -0.1253  0.6794
  769MPD2    C211403   2.694   1.439  14.714 -0.5250  0.2973  0.6046
  769MPD2    C311404   2.648   1.572  14.718  0.1642 -0.0429  0.5942
  769MPD2    C411405   2.656   1.645  14.604 -0.6721  0.7693  0.0836
  769MPD2    C511406   2.700   1.586  14.493 -0.2744  0.5429 -0.0294
  769MPD2     H11407   2.679   1.381  14.804  0.6379 -0.2136  0.4644
  769MPD2    H111408   2.617   1.746  14.596 -0.8780  0.4410 -3.1430
  769MPD2    H211409   2.778   1.415  14.392 -0.1508  1.3453 -0.7027
  769MPD2    H311410   2.699   1.642  14.400  1.1200 -1.9543 -1.5257
  769MPD2     N11411   2.597   1.617  14.846  0.6604  0.2520 -0.1055
  769MPD2    H511412   2.586   1.547  14.919  0.2487  1.4341  0.9506
  769MPD2    N111413   2.822   1.258  14.591 -0.4263 -0.3556 -0.3524
  769MPD2    H711414   2.855   1.232  14.498  4.9030  0.3704  1.3877
  770MPD2     C11415   2.774   0.274  15.108  0.3151 -0.5014 -0.6825
  770MPD2    C111416   2.751   0.249  14.980 -0.2423  0.3921  0.0343
  770MPD2    C211417   2.740   0.354  14.886  0.7434  0.7659 -0.1805
  770MPD2    C311418   2.768   0.483  14.926  0.0648  0.1594  0.3317
  770MPD2    C411419   2.792   0.507  15.061 -0.4333 -0.6267 -0.2927
  770MPD2    C511420   2.782   0.402  15.144 -0.3895 -0.1994 -0.6153
  770MPD2     H11421   2.721   0.343  14.779 -1.1363  0.6677  0.1498
  770MPD2    H111422   2.823   0.601  15.105  0.0253 -0.0762 -1.8049
  770MPD2    H211423   2.777   0.195  15.182 -1.5832  0.2837  0.2369
  770MPD2    H311424   2.806   0.427  15.247  0.3568  1.5561 -1.2248
  770MPD2     N11425   2.770   0.587  14.832  0.4736  0.5353  0.0667
  770MPD2    H511426   2.704   0.580  14.756  0.4107 -0.6506  0.2310
  770MPD2    N111427   2.739   0.112  14.947  0.1527 -0.7026  0.1658
  770MPD2    H711428   2.732   0.046  15.024 -0.4576  0.3084  0.9916
  771MPD2     C11429   3.400   3.354  13.656  0.2191 -0.0465 -0.0198
  771MPD2    C111430   3.434   3.482  13.609  0.8875  0.2233 -0.4586
  771MPD2    C211431   3.364   3.530  13.498 -0.8702 -0.0512 -0.0043
  771MPD2    C311432   3.259   3.460  13.444 -0.2570  1.3917 -0.8764
  771MPD2    C411433   3.220   3.336  13.504 -0.0967 -0.1325  0.8719
  771MPD2    C511434   3.290   3.289  13.610  0.0435  0.2204  0.2326
  771MPD2     H11435   3.401   3.620  13.450 -1.1484  0.6081  1.0098
  771MPD2    H111436   3.138   3.278  13.464 -0.5305  2.2184 -1.6850
  771MPD2    H211437   3.448   3.312  13.743 -0.1463 -0.2001  0.1114
  771MPD2    H311438   3.263   3.200  13.665  1.8626 -0.6008 -0.1925
  771MPD2     N11439   3.203   3.500  13.318 -0.1015 -0.0564  0.2399
  771MPD2    H511440   3.240   3.582  13.271 -0.8823 -0.7218 -1.5378
  771MPD2    N111441   3.545   3.552  13.657  0.4372 -0.2609  0.1697
  771MPD2    H711442   3.564   3.642  13.613  1.7141 -1.3780 -1.5997
  772MPD2     C11443   3.602   3.944  14.206 -0.6109  0.3012  0.5507
  772MPD2    C111444   3.569   3.823  14.149  0.2475  0.9150 -0.5880
  772MPD2    C211445   3.443   3.778  14.159  0.1570 -0.3084 -0.1996
  772MPD2    C311446   3.345   3.869  14.195 -0.1830  0.2941  0.1026
  772MPD2    C411447   3.379   3.996  14.247 -0.4748 -0.2974 -0.8349
  772MPD2    C511448   3.508   4.025  14.269 -0.7173  0.9638  0.4757
  772MPD2     H11449   3.419   3.685  14.108 -0.4513  1.5508 -3.3214
  772MPD2    H111450   3.307   4.069  14.283  0.9633  0.4231  0.5710
  772MPD2    H211451   3.701   3.989  14.204  0.1490 -1.5030 -1.8317
  772MPD2    H311452   3.535   4.118  14.317  2.8072  0.1048  0.1627
  772MPD2     N11453   3.203   3.839  14.178  0.2845 -0.1273 -0.1576
  772MPD2    H511454   3.145   3.923  14.176 -1.0724 -1.1024 -1.6557
  772MPD2    N111455   3.658   3.739  14.082 -0.1634  0.1178  1.1101
  772MPD2    H711456   3.610   3.667  14.030  1.6461 -1.7069  1.9684
  773MPD2     C11457   2.777   4.717   0.171  1.0414 -0.5158 -0.2952
  773MPD2    C111458   2.752   4.631   0.066  1.0237 -0.1527  0.7633
  773MPD2    C211459   2.810   4.509   0.073  0.4118  0.3971  0.0334
  773MPD2    C311460   2.907   4.475   0.159  0.3552  0.5541  0.0127
  773MPD2    C411461   2.934   4.556   0.264 -0.2167  0.7594 -0.2953
  773MPD2    C511462   2.861   4.678   0.270  0.3996 -0.4958  0.0838
  773MPD2     H11463   2.773   4.437   0.001  0.2629  0.5675 -0.0640
  773MPD2    H111464   3.009   4.540   0.341 -1.1349 -0.0446  0.4311
  773MPD2    H211465   2.717   0.070   0.180  0.7650 -0.5858 -1.4911
  773MPD2    H311466   2.873   0.009   0.353  0.0977 -0.6741  0.2725
  773MPD2     N11467   2.966   4.346   0.145 -0.2926 -0.6905  0.3404
  773MPD2    H511468   2.935   4.282   0.072  1.4373  0.8938 -1.7976
  773MPD2    N111469   2.664   4.658  17.709 -0.2447  0.0123  0.2643
  773MPD2    H711470   2.652   4.582  17.643  0.1610 -0.3106  0.5615
  774MPD2     C11471   2.273   3.705  13.221 -0.8059 -0.8198 -0.1857
  774MPD2    C111472   2.166   3.704  13.306 -0.1145 -0.3431 -0.3273
  774MPD2    C211473   2.110   3.819  13.362 -0.4165  0.1040  0.1941
  774MPD2    C311474   2.162   3.939  13.326 -0.9417  0.0629 -0.9825
  774MPD2    C411475   2.266   3.940  13.232  0.0920 -0.0475  0.2451
  774MPD2    C511476   2.316   3.823  13.177 -0.0981 -0.2825 -0.1082
  774MPD2     H11477   2.027   3.826  13.431  0.4497  2.4804  1.0128
  774MPD2    H111478   2.305   4.030  13.188 -2.3146  1.0732  0.4283
  774MPD2    H211479   2.323   3.614  13.191 -0.3281 -0.6993  0.2384
  774MPD2    H311480   2.400   3.835  13.110  0.5070  0.8744  0.8420
  774MPD2     N11481   2.102   4.063  13.373 -1.3723 -0.1360 -0.0856
  774MPD2    H511482   2.018   4.042  13.426 -1.6812 -0.9141 -0.8876
  774MPD2    N111483   2.126   3.573  13.349 -0.4939  0.1599  0.2018
  774MPD2    H711484   2.179   3.493  13.315 -0.9104 -0.0996  0.1741
  775MPD2     C11485   2.923   1.169  15.478 -0.2840  0.3158 -0.6418
  775MPD2    C111486   2.955   1.252  15.586  0.4442  0.2596  0.4914
  775MPD2    C211487   3.090   1.277  15.616  0.4016 -0.0174  0.2640
  775MPD2    C311488   3.183   1.212  15.546 -1.0968 -0.0001  0.4425
  775MPD2    C411489   3.152   1.130  15.438  0.4039  0.9366  0.2343
  775MPD2    C511490   3.026   1.108  15.404  0.3536 -0.1703  0.4331
  775MPD2     H11491   3.119   1.347  15.694  0.7247 -0.4042  0.4900
  775MPD2    H111492   3.226   1.087  15.372 -0.0618 -0.1441  0.4194
  775MPD2    H211493   2.818   1.152  15.457 -0.7614  1.6153  0.7316
  775MPD2    H311494   3.010   1.037  15.323  1.2505 -2.0178  1.8570
  775MPD2     N11495   3.316   1.226  15.572 -0.2891 -0.4083  0.3733
  775MPD2    H511496   3.369   1.154  15.525 -1.8053 -0.6804 -0.8922
  775MPD2    N111497   2.847   1.304  15.660  0.0477 -0.4527 -0.2171
  775MPD2    H711498   2.760   1.252  15.653  0.0351 -0.6420  1.2470
  776MPD2     C11499   1.499   0.996  11.910  0.0190 -1.5033 -0.8344
  776MPD2    C111500   1.627   0.959  11.893 -0.3178 -0.1248  0.2186
  776MPD2    C211501   1.715   1.042  11.819  0.2698 -0.1867 -0.5459
  776MPD2    C311502   1.671   1.168  11.782 -0.6912  0.2147  0.0910
  776MPD2    C411503   1.533   1.201  11.795  0.1972  0.0876 -0.3165
  776MPD2    C511504   1.452   1.113  11.855 -0.3925 -0.2374  0.0260
  776MPD2     H11505   1.821   1.020  11.812  0.3856  0.5829 -1.2722
  776MPD2    H111506   1.489   1.293  11.758 -0.6813  0.5468  1.9167
  776MPD2    H211507   1.424   0.938  11.963 -1.9796  1.3697 -0.4987
  776MPD2    H311508   1.352   1.147  11.879 -0.5476  0.3630 -1.4849
  776MPD2     N11509   1.752   1.266  11.717  0.1635  0.1984  0.2041
  776MPD2    H511510   1.712   1.353  11.684  0.8808  0.2115 -0.6223
  776MPD2    N111511   1.677   0.834  11.950 -0.2189  0.0373  0.4171
  776MPD2    H711512   1.601   0.771  11.974 -1.2043  0.3910 -1.8242
  777MPD2     C11513   3.295   3.434   0.559 -0.3088  0.5424 -0.3495
  777MPD2    C111514   3.163   3.452   0.588 -0.1250 -0.0425 -0.6069
  777MPD2    C211515   3.068   3.367   0.521 -0.8165 -0.2699 -0.0077
  777MPD2    C311516   3.117   3.280   0.427 -0.2646 -0.1691  0.2840
  777MPD2    C411517   3.251   3.266   0.408 -0.2042  0.3334 -0.3785
  777MPD2    C511518   3.336   3.342   0.479 -0.1263  0.2295  0.0246
  777MPD2     H11519   2.962   3.368   0.540 -0.9313 -0.4038 -0.6412
  777MPD2    H111520   3.292   3.194   0.338 -1.8836  0.8104 -1.8520
  777MPD2    H211521   3.365   3.503   0.605  2.4335 -1.2915 -1.8077
  777MPD2    H311522   3.443   3.339   0.460 -0.0180  0.1555  0.6448
  777MPD2     N11523   3.029   3.187   0.372 -0.0931  0.6352  0.4477
  777MPD2    H511524   2.938   3.185   0.415  0.5347  0.3001  1.7434
  777MPD2    N111525   3.141   3.528   0.708 -0.4688  0.2452  0.0502
  777MPD2    H711526   3.225   3.555   0.758 -1.5069 -1.7040  2.8326
  778MPD2     C11527   3.255   3.160  15.307  0.1003  0.7632 -0.0370
  778MPD2    C111528   3.227   3.050  15.231  0.0297 -0.0584 -0.1623
  778MPD2    C211529   3.306   3.024  15.122 -0.1456 -0.1249  0.0685
  778MPD2    C311530   3.412   3.103  15.084 -0.4035  0.5411 -0.6490
  778MPD2    C411531   3.430   3.223  15.150 -0.6378 -0.1764 -0.4513
  778MPD2    C511532   3.350   3.247  15.256 -0.0522 -0.2439 -0.5155
  778MPD2     H11533   3.281   2.937  15.063  0.2494  0.0093 -0.2969
  778MPD2    H111534   3.503   3.297  15.122 -0.5757  0.3564  1.1120
  778MPD2    H211535   3.196   3.201  15.388 -1.9313  1.0768 -1.6750
  778MPD2    H311536   3.365   3.336  15.316  0.2222 -0.5211 -0.1746
  778MPD2     N11537   3.481   3.080  14.964  0.8950 -0.2408  0.7825
  778MPD2    H511538   3.458   2.992  14.917 -1.6730  0.6409  0.4351
  778MPD2    N111539   3.131   2.953  15.265  0.1172  0.2079 -0.4889
  778MPD2    H711540   3.146   2.866  15.215  3.2158  1.5712 -1.9268
  779MPD2     C11541   3.236   2.145  14.723  0.0685  0.1799 -0.0590
  779MPD2    C111542   3.372   2.128  14.689 -0.7992 -0.4266  0.2846
  779MPD2    C211543   3.427   2.224  14.613  0.0125  0.1986 -0.5542
  779MPD2    C311544   3.362   2.324  14.547  0.3314 -0.1573  0.0544
  779MPD2    C411545   3.224   2.339  14.575 -0.4591 -0.0442  0.6137
  779MPD2    C511546   3.168   2.254  14.671 -0.7169  0.2303  0.1355
  779MPD2     H11547   3.533   2.228  14.588 -0.5315 -1.1050 -3.0508
  779MPD2    H111548   3.160   2.411  14.526  0.1254  0.5790  0.7781
  779MPD2    H211549   3.175   2.077  14.782 -1.3620 -0.8208 -2.6945
  779MPD2    H311550   3.064   2.273  14.698  0.6727  0.7326  5.1061
  779MPD2     N11551   3.435   2.402  14.446  0.2620 -0.0985  0.4263
  779MPD2    H511552   3.532   2.381  14.426  0.1508 -0.1582 -0.0543
  779MPD2    N111553   3.447   2.014  14.734 -0.0994  0.4371 -0.3400
  779MPD2    H711554   3.546   2.018  14.709  0.0771 -0.9784  0.1490
  780MPD2     C11555   3.077   2.375   0.574 -0.1363  0.2128  0.0806
  780MPD2    C111556   3.056   2.318   0.453 -0.6640  0.3388 -0.5570
  780MPD2    C211557   3.162   2.307   0.368  0.0358  0.2009 -0.2042
  780MPD2    C311558   3.289   2.359   0.402 -0.6026  0.3455  0.2367
  780MPD2    C411559   3.303   2.415   0.526  0.2309  0.7648 -0.4413
  780MPD2    C511560   3.204   2.421   0.613 -0.1844 -0.3908 -0.0857
  780MPD2     H11561   3.130   2.259   0.276 -1.7715  0.7375  0.1471
  780MPD2    H111562   3.397   2.458   0.560  0.4613  1.6717 -2.1986
  780MPD2    H211563   3.017   2.384   0.664  0.1040 -0.2105  0.2860
  780MPD2    H311564   3.227   2.470   0.707  1.3641 -1.5832  0.1525
  780MPD2     N11565   3.392   2.352   0.309 -1.3112 -0.6060  0.8702
  780MPD2    H511566   3.374   2.311   0.218  3.0506 -0.9008  0.1366
  780MPD2    N111567   2.937   2.265   0.400 -0.2609 -0.3550 -0.4246
  780MPD2    H711568   2.940   2.205   0.318  1.8540 -0.0285 -0.5975
  781MPD2     C11569   4.361   4.385  12.249 -0.1685  0.1458  0.2658
  781MPD2    C111570   4.443   4.277  12.227 -0.1803  0.3364  0.5111
  781MPD2    C211571   4.501   4.259  12.098  0.3832  0.0418 -0.4702
  781MPD2    C311572   4.480   4.360  12.001 -0.0635  0.3276 -0.1223
  781MPD2    C411573   4.402   4.469  12.032 -0.0217  0.6425  0.6352
  781MPD2    C511574   4.343   4.481  12.152 -0.4850  0.3296 -0.4274
  781MPD2     H11575   4.564   4.174  12.075  1.4817  0.4108  1.2257
  781MPD2    H111576   4.384   4.553  11.966 -0.4707  0.6989  0.8292
  781MPD2    H211577   4.303   4.405  12.338 -1.6685  0.0865 -0.6868
  781MPD2    H311578   4.277   4.565  12.169  1.2412  0.8230  3.8372
  781MPD2     N11579   4.541   4.363  11.872 -0.2576  0.3415 -0.3289
  781MPD2    H511580   4.522   4.451  11.824  1.2906 -0.4221 -2.3246
  781MPD2    N111581   4.474   4.178  12.326  0.2630  0.0199 -0.1212
  781MPD2    H711582   4.523   4.099  12.284  1.4183 -0.5944  2.4144
  782MPD2     C11583   2.494   0.306  11.020  0.2086  0.7140  0.3017
  782MPD2    C111584   2.607   0.334  10.953 -0.0429 -0.5054 -0.1446
  782MPD2    C211585   2.698   0.431  11.006  0.0578 -0.5499  0.4403
  782MPD2    C311586   2.672   0.479  11.131  0.4000  0.3935  0.4947
  782MPD2    C411587   2.552   0.450  11.200 -0.0904 -0.5388 -0.3183
  782MPD2    C511588   2.464   0.361  11.144  0.6146 -0.3955  0.0243
  782MPD2     H11589   2.796   0.430  10.959 -0.5062 -2.6921 -0.7082
  782MPD2    H111590   2.532   0.491  11.298 -0.8672  1.4256 -1.2864
  782MPD2    H211591   2.425   0.239  10.970  0.3592  0.2747  0.6799
  782MPD2    H311592   2.368   0.336  11.189  0.8668 -1.6248 -0.1056
  782MPD2     N11593   2.775   0.556  11.193 -0.3267  0.2191  0.2793
  782MPD2    H511594   2.851   0.569  11.127 -2.1025  1.1566 -1.5940
  782MPD2    N111595   2.632   0.261  10.832  0.0095  0.3882  0.2308
  782MPD2    H711596   2.567   0.186  10.811 -0.3016  0.3038  1.4635
  783MPD2     C11597   2.654   4.274  11.151  0.0978  1.1590 -0.2145
  783MPD2    C111598   2.625   4.408  11.186  0.2605  0.5337 -0.1580
  783MPD2    C211599   2.677   4.512  11.106 -0.1247  0.5924  0.2910
  783MPD2    C311600   2.764   4.484  10.996  0.0533  0.2605 -0.5826
  783MPD2    C411601   2.797   4.352  10.969  0.2152  0.4951 -0.3669
  783MPD2    C511602   2.741   4.248  11.043 -0.7979  0.0104  0.9877
  783MPD2     H11603   2.655   4.616  11.127 -0.0268  0.2791  1.9606
  783MPD2    H111604   2.856   4.322  10.883  0.0860  0.5565 -0.4762
  783MPD2    H211605   2.609   4.192  11.206  1.2118  0.9581  0.3980
  783MPD2    H311606   2.756   4.149  11.002 -0.8668 -0.9808  3.3115
  783MPD2     N11607   2.802   4.592  10.913  0.0972 -0.7244  0.1352
  783MPD2    H511608   2.757   4.681  10.935  0.1831 -0.2182 -1.7232
  783MPD2    N111609   2.521   4.431  11.286  0.3103  0.5433 -0.3576
  783MPD2    H711610   2.461   4.359  11.324  2.5977 -1.7098 -1.0039
  784MPD2     C11611   0.693   0.594   0.401  0.2036 -0.4901 -0.1230
  784MPD2    C111612   0.671   0.726   0.448  0.0987 -0.7816 -0.9947
  784MPD2    C211613   0.563   0.799   0.395  0.2761  0.4994 -0.3541
  784MPD2    C311614   0.499   0.767   0.275  0.1741 -0.2339 -0.1731
  784MPD2    C411615   0.519   0.635   0.232  0.9828  0.3299  0.5416
  784MPD2    C511616   0.605   0.551   0.299  0.5412  0.0196 -0.5857
  784MPD2     H11617   0.545   0.895   0.441  2.0733  0.2861  0.7784
  784MPD2    H111618   0.472   0.600   0.142 -1.3434  1.0185  1.4959
  784MPD2    H211619   0.762   0.526   0.450  0.6078 -0.6704 -0.9386
  784MPD2    H311620   0.599   0.445   0.278 -1.9709  0.5834 -2.6722
  784MPD2     N11621   0.414   0.855   0.210  0.4709  0.7744  0.4558
  784MPD2    H511622   0.401   0.940   0.264 -0.8523  1.3078 -0.6806
  784MPD2    N111623   0.759   0.791   0.539  0.8915  0.1684 -0.2229
  784MPD2    H711624   0.738   0.885   0.570  0.9398 -0.6237  2.2547
  785MPD2     C11625   0.015   2.737  10.404  0.2999 -0.6820  0.5669
  785MPD2    C111626   4.729   2.858  10.467  0.5361  0.0630 -0.4521
  785MPD2    C211627   4.681   2.959  10.383 -0.4922 -0.0765  0.2304
  785MPD2    C311628   4.642   2.937  10.245 -0.1876 -0.0321  0.7610
  785MPD2    C411629   4.665   2.816  10.195  0.0393  0.0017 -0.5856
  785MPD2    C511630   4.715   2.721  10.274 -0.3209  0.0398 -0.1195
  785MPD2     H11631   4.666   3.049  10.440 -0.5318 -0.9627  1.6239
  785MPD2    H111632   4.651   2.795  10.090 -0.3920 -1.8924 -0.1500
  785MPD2    H211633   0.057   2.654  10.459  1.0514 -0.3153  0.5439
  785MPD2    H311634   0.002   2.624  10.230 -2.1790  0.2163 -1.4826
  785MPD2     N11635   4.581   3.046  10.183  0.1224 -0.2975  0.2555
  785MPD2    H511636   4.576   3.133  10.234  3.2619  0.2718 -0.3756
  785MPD2    N111637   0.043   2.884  10.594 -0.1201  0.1697  0.1500
  785MPD2    H711638   0.014   2.970  10.640 -3.2843 -1.0853  0.5417
  786MPD2     C11639   3.915   1.306  15.342  0.5583  0.3002  0.5937
  786MPD2    C111640   4.035   1.308  15.271 -0.7958  0.0172 -0.2632
  786MPD2    C211641   4.149   1.359  15.325 -0.8696 -0.2952  0.1472
  786MPD2    C311642   4.145   1.402  15.457  0.3190 -0.0061 -0.4346
  786MPD2    C411643   4.026   1.400  15.527 -0.1075 -0.2096  0.3901
  786MPD2    C511644   3.904   1.356  15.471 -0.0467 -0.8173 -0.2829
  786MPD2     H11645   4.233   1.357  15.258 -2.3475 -1.6449 -1.6612
  786MPD2    H111646   4.029   1.440  15.627 -1.9026 -0.1709  0.4338
  786MPD2    H211647   3.831   1.267  15.285  0.9873  0.5502 -0.2128
  786MPD2    H311648   3.809   1.353  15.524  0.9362  0.6320  1.5545
  786MPD2     N11649   4.256   1.460  15.528  0.0934  0.0335  0.4714
  786MPD2    H511650   4.239   1.501  15.620  1.9903 -0.5592  1.0951
  786MPD2    N111651   4.038   1.265  15.135 -0.4752  0.2081  0.3136
  786MPD2    H711652   4.128   1.260  15.088 -0.9025  0.4048 -0.5220
  787MPD2     C11653   4.341   0.664  15.121 -0.7859  0.1004 -0.0140
  787MPD2    C111654   4.292   0.694  14.994 -0.4997 -0.1933  0.4301
  787MPD2    C211655   4.314   0.601  14.897 -1.0859 -0.8067  0.2417
  787MPD2    C311656   4.395   0.491  14.909 -0.1848 -0.1799 -0.0920
  787MPD2    C411657   4.454   0.466  15.035 -0.2034 -0.0742  0.0917
  787MPD2    C511658   4.417   0.545  15.143 -0.8606 -0.1582 -0.4523
  787MPD2     H11659   4.268   0.608  14.800  2.4799  1.5817 -1.2884
  787MPD2    H111660   4.516   0.377  15.045 -0.8308 -0.4806  0.3741
  787MPD2    H211661   4.306   0.719  15.207 -0.8563 -0.4838  0.3283
  787MPD2    H311662   4.449   0.524  15.244  1.1590  0.4253 -0.9640
  787MPD2     N11663   4.405   0.400  14.802  0.1772  0.1244 -1.3381
  787MPD2    H511664   4.356   0.428  14.717 -0.2270  1.6828 -0.5834
  787MPD2    N111665   4.209   0.813  14.978  0.0716  0.0077  0.0401
  787MPD2    H711666   4.210   0.884  15.051  0.3767  1.2928 -1.2047
  788MPD2     C11667   1.503   0.324   1.080 -0.0463  0.5160 -0.1161
  788MPD2    C111668   1.451   0.236   1.000  0.3840  0.4959  0.4008
  788MPD2    C211669   1.356   0.273   0.904  0.0492  0.7763 -0.0218
  788MPD2    C311670   1.329   0.409   0.880 -0.0058 -0.2758 -0.3833
  788MPD2    C411671   1.396   0.495   0.962  0.2472  0.2428  0.0953
  788MPD2    C511672   1.476   0.451   1.065 -0.1573 -0.2563 -0.1293
  788MPD2     H11673   1.319   0.200   0.833  2.0065  0.3088 -0.5679
  788MPD2    H111674   1.385   0.603   0.957  0.9867  0.1737 -3.0253
  788MPD2    H211675   1.575   0.301   1.157  1.3927 -0.0641 -1.6247
  788MPD2    H311676   1.536   0.525   1.116 -0.2963  1.0403 -1.8377
  788MPD2     N11677   1.247   0.457   0.778  0.2783  0.2725  0.0414
  788MPD2    H511678   1.232   0.557   0.771 -2.3521 -0.1395 -0.3702
  788MPD2    N111679   1.484   0.100   1.000 -1.2882 -0.2554 -0.2027
  788MPD2    H711680   1.428   0.043   0.938 -1.6116 -0.9077  0.7001
  789MPD2     C11681   1.812   4.441  16.270  0.0324 -0.5730  0.2649
  789MPD2    C111682   1.743   4.413  16.386 -0.9286  0.2924 -0.3620
  789MPD2    C211683   1.676   4.512  16.453  0.0662  0.1915 -0.6612
  789MPD2    C311684   1.668   4.635  16.409  0.1552 -0.4216 -0.1804
  789MPD2    C411685   1.722   4.662  16.286 -0.1635 -0.1807  0.0650
  789MPD2    C511686   1.786   4.567  16.223  0.0696 -0.3098  0.6445
  789MPD2     H11687   1.627   4.484  16.546  1.1674 -0.4242 -0.2613
  789MPD2    H111688   1.710   0.018  16.231  2.5722  0.5127  0.6704
  789MPD2    H211689   1.876   4.376  16.211  1.7862  0.8043  0.6549
  789MPD2    H311690   1.835   4.594  16.130 -1.5414 -1.7476 -0.6267
  789MPD2     N11691   1.592   0.002  16.474 -0.2092  0.7159 -0.1343
  789MPD2    H511692   1.553   0.074  16.415 -0.1221  1.0361  0.2023
  789MPD2    N111693   1.723   4.285  16.430 -0.0972 -0.3309 -0.3751
  789MPD2    H711694   1.655   4.278  16.504  0.1471 -0.8948 -0.2034
  790MPD2     C11695   2.589   1.805  13.854  0.0704  0.0262  0.1400
  790MPD2    C111696   2.650   1.686  13.833  0.5507  0.7790  0.6843
  790MPD2    C211697   2.614   1.610  13.723  0.5535  0.0932  0.0870
  790MPD2    C311698   2.542   1.671  13.629 -0.0039  0.9151  0.6870
  790MPD2    C411699   2.493   1.803  13.639 -0.2937  0.1849 -0.1207
  790MPD2    C511700   2.517   1.868  13.757  0.5959  0.6629  0.7455
  790MPD2     H11701   2.630   1.504  13.713 -1.9048 -0.1568 -1.1886
  790MPD2    H111702   2.444   1.856  13.558 -1.1668  0.5751  0.6673
  790MPD2    H211703   2.597   1.850  13.952 -0.0435 -2.6736  1.3865
  790MPD2    H311704   2.474   1.967  13.770 -0.5731  0.0643  1.4296
  790MPD2     N11705   2.501   1.580  13.526 -0.8147  0.2426 -0.3245
  790MPD2    H511706   2.550   1.491  13.532 -2.2614 -0.5115  0.1538
  790MPD2    N111707   2.711   1.627  13.945 -0.0862  0.3799  0.4774
  790MPD2    H711708   2.691   1.672  14.034  1.2146  1.1370  0.3806
  791MPD2     C11709   1.829   1.447  13.250 -0.4288 -0.4233 -0.0417
  791MPD2    C111710   1.886   1.334  13.301  0.3724 -0.0133  0.6023
  791MPD2    C211711   1.807   1.220  13.313  0.0487  0.3967 -0.2086
  791MPD2    C311712   1.679   1.223  13.260  0.4786  0.6726  0.0166
  791MPD2    C411713   1.633   1.339  13.200 -0.1987 -0.0178  0.0733
  791MPD2    C511714   1.705   1.452  13.197  0.2698  1.1784 -0.0608
  791MPD2     H11715   1.852   1.133  13.358 -3.1397 -1.2870 -0.2605
  791MPD2    H111716   1.530   1.340  13.167 -0.6961 -1.1737  1.6187
  791MPD2    H211717   1.885   1.539  13.243 -0.1524 -0.4959  1.1910
  791MPD2    H311718   1.658   1.545  13.168 -1.2199 -0.1448 -1.9015
  791MPD2     N11719   1.605   1.104  13.267  0.1352 -0.0254 -0.1589
  791MPD2    H511720   1.657   1.024  13.303  1.0913  1.1232  1.0119
  791MPD2    N111721   2.018   1.344  13.346  0.4364 -0.2753  0.0768
  791MPD2    H711722   2.066   1.428  13.315  0.5108 -1.4219 -2.9944
  792MPD2     C11723   2.607   1.224  11.552 -0.0800 -0.5047 -0.2956
  792MPD2    C111724   2.542   1.264  11.441 -0.4506 -0.1720 -0.1159
  792MPD2    C211725   2.405   1.226  11.429 -0.1644 -0.4534 -0.3014
  792MPD2    C311726   2.346   1.145  11.523 -0.5886 -0.0896 -0.4406
  792MPD2    C411727   2.424   1.100  11.628  0.3882  0.3575  0.8637
  792MPD2    C511728   2.548   1.151  11.647 -0.2402  1.1253  0.1634
  792MPD2     H11729   2.354   1.261  11.341  0.5504 -1.0968 -0.9630
  792MPD2    H111730   2.377   1.038  11.704  0.1349  1.7738  1.8486
  792MPD2    H211731   2.707   1.258  11.576  0.7346 -2.5736 -0.7529
  792MPD2    H311732   2.607   1.124  11.734  0.4424 -2.8772 -1.5323
  792MPD2     N11733   2.212   1.094  11.516 -0.2352 -0.1311 -0.5413
  792MPD2    H511734   2.185   1.031  11.590 -2.3016 -1.3094 -2.2987
  792MPD2    N111735   2.609   1.343  11.345 -0.0398  0.1997  0.2243
  792MPD2    H711736   2.705   1.364  11.369 -0.1419 -1.1197  1.7790
  793MPD2     C11737   1.485   1.055  10.874  0.3673  0.2041  0.0726
  793MPD2    C111738   1.622   1.030  10.872 -0.1473  0.5436  0.3934
  793MPD2    C211739   1.686   1.036  10.987  0.5457  0.4522 -0.0988
  793MPD2    C311740   1.618   1.081  11.107 -0.1174 -0.1331 -0.1872
  793MPD2    C411741   1.479   1.106  11.107 -0.2447  0.7362  0.6443
  793MPD2    C511742   1.413   1.088  10.984  1.0630  0.3052  0.2461
  793MPD2     H11743   1.787   0.998  10.987 -0.2266 -1.6233  0.1119
  793MPD2    H111744   1.417   1.137  11.190  0.4823  0.2826  1.3577
  793MPD2    H211745   1.431   1.036  10.782  1.1749  0.6874 -0.5021
  793MPD2    H311746   1.306   1.100  10.976  0.6597 -1.9285  2.5027
  793MPD2     N11747   1.698   1.080  11.226  0.3886  0.2563 -0.5748
  793MPD2    H511748   1.798   1.070  11.216  0.2469 -1.4075 -0.2476
  793MPD2    N111749   1.687   0.981  10.756 -0.5914 -0.0134  0.5842
  793MPD2    H711750   1.783   0.949  10.769 -0.9873 -1.2805  0.4545
  794MPD2     C11751   2.232   0.602  17.397 -0.1422 -0.2182  0.1151
  794MPD2    C111752   2.204   0.505  17.305 -0.5915 -0.3150 -0.0709
  794MPD2    C211753   2.109   0.533  17.209  0.3656 -0.3735 -0.0317
  794MPD2    C311754   2.059   0.665  17.183 -0.4391  0.1223 -0.1861
  794MPD2    C411755   2.100   0.763  17.273 -0.1313 -0.3665 -0.2829
  794MPD2    C511756   2.185   0.729  17.375 -0.4422  0.3909 -0.4735
  794MPD2     H11757   2.090   0.452  17.139 -1.0889  1.6256 -1.9382
  794MPD2    H111758   2.056   0.861  17.259 -2.9698 -1.6261 -0.2143
  794MPD2    H211759   2.285   0.589  17.491 -1.5603 -1.3637  0.7736
  794MPD2    H311760   2.194   0.811  17.445 -0.1026 -0.6185  0.6575
  794MPD2     N11761   1.961   0.688  17.073 -0.2092 -0.4658  0.0823
  794MPD2    H511762   1.907   0.774  17.084 -0.5975 -0.7325  0.2859
  794MPD2    N111763   2.252   0.369  17.322 -0.8962 -0.5011 -0.0058
  794MPD2    H711764   2.224   0.293  17.261  1.0271 -0.1950 -1.2562
  795MPD2     C11765   4.494   2.756  13.740  0.1261  0.5090 -0.0209
  795MPD2    C111766   4.425   2.651  13.690  0.3120 -0.3563  0.5338
  795MPD2    C211767   4.485   2.529  13.677  0.0234  0.0742 -0.0322
  795MPD2    C311768   4.620   2.513  13.696 -0.2958 -0.6527  0.0669
  795MPD2    C411769   4.678   2.617  13.767 -0.3989  0.1282  0.4833
  795MPD2    C511770   4.621   2.737  13.787 -0.6578 -0.9913  0.5139
  795MPD2     H11771   4.430   2.448  13.629  0.2941 -1.4164  2.1748
  795MPD2    H111772   0.045   2.607  13.795  0.0564  1.5256 -0.6884
  795MPD2    H211773   4.454   2.857  13.744 -1.0845  0.0278 -0.0655
  795MPD2    H311774   4.671   2.821  13.833 -1.1734 -0.5445  0.2611
  795MPD2     N11775   4.689   2.404  13.643 -0.5937 -0.6968 -0.2401
  795MPD2    H511776   4.638   2.332  13.592 -0.9782 -0.3996 -0.2785
  795MPD2    N111777   4.293   2.674  13.650 -0.0141  0.3520  0.2592
  795MPD2    H711778   4.251   2.767  13.652 -2.3751 -0.7559  1.9159
  796MPD2     C11779   4.180   3.741  15.582 -0.1168  0.4208  0.5033
  796MPD2    C111780   4.292   3.764  15.657  0.7202 -0.6443 -0.4354
  796MPD2    C211781   4.333   3.894  15.683  0.3068  0.4042 -0.3710
  796MPD2    C311782   4.262   4.002  15.627  0.1986 -0.3901  0.3028
  796MPD2    C411783   4.153   3.975  15.550  0.8467  0.5992  0.0371
  796MPD2    C511784   4.106   3.846  15.532  0.4422 -0.2783  0.7151
  796MPD2     H11785   4.423   3.914  15.740 -0.0299 -0.2339  0.3782
  796MPD2    H111786   4.094   4.054  15.506 -0.5570 -0.1647  0.5244
  796MPD2    H211787   4.147   3.640  15.558  0.2151  0.7037 -1.1843
  796MPD2    H311788   4.006   3.822  15.496  1.4737  0.1069 -2.4590
  796MPD2     N11789   4.308   4.134  15.654  0.4913 -0.0881  0.0566
  796MPD2    H511790   4.391   4.141  15.712 -0.2841  2.3907  0.8370
  796MPD2    N111791   4.356   3.649  15.703  0.5736  0.1484 -0.3489
  796MPD2    H711792   4.305   3.562  15.700 -1.0519  1.0931 -0.2815
  797MPD2     C11793   0.745   3.352  17.142 -0.2967  0.3367 -0.6285
  797MPD2    C111794   0.708   3.480  17.182  0.1349  0.2833 -0.6333
  797MPD2    C211795   0.604   3.551  17.125 -0.3887  0.2323 -0.5521
  797MPD2    C311796   0.528   3.495  17.023 -0.8498 -0.2153  0.6045
  797MPD2    C411797   0.562   3.362  16.982 -0.0174 -0.4069 -0.3744
  797MPD2    C511798   0.669   3.300  17.039 -0.3098 -0.2582  0.5796
  797MPD2     H11799   0.580   3.650  17.160 -1.9979 -1.2844  2.6627
  797MPD2    H111800   0.507   3.306  16.907 -2.7317  1.0126  0.5666
  797MPD2    H211801   0.827   3.288  17.174 -0.0542  0.5233 -0.8704
  797MPD2    H311802   0.700   3.203  17.000 -0.9307  0.5164 -1.8038
  797MPD2     N11803   0.414   3.567  16.960  0.5232 -0.5408  0.1930
  797MPD2    H511804   0.392   3.529  16.869  0.6027 -0.8402  0.2980
  797MPD2    N111805   0.783   3.552  17.283  0.6381  0.6585 -0.1499
  797MPD2    H711806   0.752   3.645  17.313  1.1151  0.2903  1.4885
  798MPD2     C11807   0.532   4.267  17.219  0.0195 -0.0950  0.4260
  798MPD2    C111808   0.569   4.159  17.141 -0.0689 -0.0327 -0.3915
  798MPD2    C211809   0.689   4.090  17.166  0.3660 -0.5069 -0.2276
  798MPD2    C311810   0.759   4.118  17.277  0.0453 -0.7056  0.1914
  798MPD2    C411811   0.720   4.221  17.354  0.6448 -0.2914 -0.0685
  798MPD2    C511812   0.611   4.292  17.325 -0.6245  0.5849 -0.4302
  798MPD2     H11813   0.711   4.000  17.110 -1.0283 -0.2423 -1.2004
  798MPD2    H111814   0.768   4.255  17.445  1.2266  1.2544 -0.9387
  798MPD2    H211815   0.438   4.319  17.203 -0.3080 -0.7244  0.3130
  798MPD2    H311816   0.575   4.365  17.397 -0.1730 -0.3166  0.7114
  798MPD2     N11817   0.851   4.016  17.325  0.6324 -0.2737 -0.0599
  798MPD2    H511818   0.882   3.946  17.259  1.4519 -0.0890  0.1299
  798MPD2    N111819   0.479   4.118  17.037  1.0136 -0.4448 -0.3306
  798MPD2    H711820   0.381   4.144  17.049  0.9350  0.3790 -2.8642
  799MPD2     C11821   4.052   0.264  15.049  0.4696 -0.0239  1.2383
  799MPD2    C111822   3.963   0.207  14.966 -0.0669 -0.1637 -0.1068
  799MPD2    C211823   3.899   0.288  14.877  0.2179 -1.1510 -1.4135
  799MPD2    C311824   3.919   0.424  14.874 -0.2511  0.0149  0.0444
  799MPD2    C411825   4.001   0.483  14.972  0.1457 -0.3123 -0.6033
  799MPD2    C511826   4.059   0.402  15.067  0.4914 -1.1885  0.4846
  799MPD2     H11827   3.847   0.238  14.796 -0.4858 -0.7339 -1.2191
  799MPD2    H111828   4.041   0.583  14.961  0.1701 -0.3894 -1.2331
  799MPD2    H211829   4.116   0.200  15.110  0.7374 -0.9600 -0.0353
  799MPD2    H311830   4.136   0.448  15.129 -0.8157  2.8826 -0.8929
  799MPD2     N11831   3.873   0.506  14.764 -0.0730 -0.0309  0.5411
  799MPD2    H511832   3.889   0.606  14.771  0.9013 -0.0449 -1.5615
  799MPD2    N111833   3.947   0.068  14.943 -0.0377  0.0393  0.1873
  799MPD2    H711834   3.866   0.038  14.890 -0.3687 -0.6304  1.0739
  800MPD2     C11835   4.414   1.398  14.069  0.3166 -0.8600 -0.6591
  800MPD2    C111836   4.546   1.367  14.037  0.0400  0.1298  0.2952
  800MPD2    C211837   4.576   1.307  13.918  0.1781  0.0473  0.2222
  800MPD2    C311838   4.481   1.301  13.819  0.4219  0.1467 -0.1036
  800MPD2    C411839   4.354   1.348  13.849 -0.4427 -0.4605  0.1337
  800MPD2    C511840   4.315   1.379  13.977  0.4308 -0.5303  0.4104
  800MPD2     H11841   4.676   1.271  13.894 -0.0159 -0.9960  0.9771
  800MPD2    H111842   4.273   1.346  13.778 -0.2354  0.0509 -0.1150
  800MPD2    H211843   4.379   1.453  14.156  2.0445 -1.0666  0.1585
  800MPD2    H311844   4.218   1.423  13.993  0.4320 -1.4112  2.9329
  800MPD2     N11845   4.531   1.270  13.689 -0.0915  0.2824 -0.9296
  800MPD2    H511846   4.627   1.242  13.669 -0.0883 -0.0189 -0.4863
  800MPD2    N111847   4.641   1.411  14.131  0.1441 -0.1654  0.2954
  800MPD2    H711848   4.604   1.456  14.213 -1.6224  0.7986 -1.0253
  801MPD2     C11849   4.718   2.084  14.288 -0.6319  0.4883 -0.4067
  801MPD2    C111850   4.659   1.975  14.348  0.2503  0.1309 -0.4199
  801MPD2    C211851   4.531   1.990  14.404 -0.2376  0.8717 -0.4946
  801MPD2    C311852   4.462   2.106  14.400 -0.2676  0.1469  0.4380
  801MPD2    C411853   4.521   2.215  14.340 -0.4839 -0.0898 -0.0159
  801MPD2    C511854   4.649   2.207  14.289 -0.6472 -0.0601  0.2911
  801MPD2     H11855   4.484   1.899  14.441  3.0390 -2.0008 -3.3714
  801MPD2    H111856   4.465   2.307  14.339  2.2873  1.6072 -0.1994
  801MPD2    H211857   0.077   2.074  14.238 -0.9240 -1.5406 -0.5262
  801MPD2    H311858   4.689   2.296  14.243  1.5668 -0.6725  1.0625
  801MPD2     N11859   4.330   2.121  14.458  0.5626 -0.4740 -0.0183
  801MPD2    H511860   4.303   2.218  14.459 -0.7124 -0.8367  0.5696
  801MPD2    N111861   4.711   1.845  14.343 -0.1931  0.4505  0.9144
  801MPD2    H711862   4.656   1.764  14.368 -0.3261 -0.4966 -2.3548
  802MPD2     C11863   4.628   3.177   0.555 -0.3159 -0.1802 -0.5829
  802MPD2    C111864   4.521   3.099   0.530 -0.4692  0.7004 -0.2666
  802MPD2    C211865   4.527   2.990   0.442  0.0642 -0.3026  0.2549
  802MPD2    C311866   4.639   2.964   0.373 -0.7247  0.0302 -0.3532
  802MPD2    C411867   0.018   3.044   0.400 -0.8462  0.1152 -0.4721
  802MPD2    C511868   0.010   3.147   0.495 -0.4594 -1.1068 -0.1204
  802MPD2     H11869   4.436   2.932   0.431 -1.2757  1.3723  2.4624
  802MPD2    H111870   0.108   3.039   0.339  0.9782  0.9093  2.1617
  802MPD2    H211871   4.632   3.256   0.630  4.1573 -1.1502  0.2163
  802MPD2    H311872   0.102   3.183   0.540  0.0213 -0.8155 -1.3368
  802MPD2     N11873   4.628   2.870   0.271 -0.4472  0.0186  0.0589
  802MPD2    H511874   4.539   2.824   0.255 -0.5669 -0.0871  1.0153
  802MPD2    N111875   4.390   3.142   0.570 -0.5764  0.4827  0.0664
  802MPD2    H711876   4.317   3.079   0.539 -1.9350  2.3645 -0.5421
  803MPD2     C11877   0.358   0.711  12.049  0.2661  0.4039 -0.6633
  803MPD2    C111878   0.437   0.816  12.097  0.2957  0.5471  0.4623
  803MPD2    C211879   0.437   0.832  12.234 -0.2517  0.3333  0.3197
  803MPD2    C311880   0.364   0.752  12.314 -0.1433  0.2072  0.0731
  803MPD2    C411881   0.291   0.649  12.257  0.4108  0.3534 -0.0119
  803MPD2    C511882   0.293   0.626  12.127 -0.0120 -0.0084 -0.2413
  803MPD2     H11883   0.476   0.923  12.277  1.3402 -0.3934  0.4122
  803MPD2    H111884   0.228   0.588  12.321 -0.3919 -0.9204 -2.0523
  803MPD2    H211885   0.341   0.696  11.943  0.4280  0.3507 -0.6817
  803MPD2    H311886   0.229   0.551  12.082 -1.5357 -1.2843  4.0791
  803MPD2     N11887   0.357   0.763  12.453 -0.0758 -0.3988 -0.1389
  803MPD2    H511888   0.284   0.711  12.502  2.2371 -1.5545  2.0637
  803MPD2    N111889   0.508   0.910  12.013 -0.0980 -0.7483 -0.4317
  803MPD2    H711890   0.540   0.994  12.060  0.9142 -0.4954 -1.5847
  804MPD2     C11891   4.623   2.274  16.763  0.0864  0.3738  0.0095
  804MPD2    C111892   4.592   2.219  16.888 -0.3354  0.0820 -0.3822
  804MPD2    C211893   4.640   2.291  16.996  0.3888  0.3239 -0.3847
  804MPD2    C311894   4.732   2.401  16.973  0.0812  0.6225  0.6051
  804MPD2    C411895   0.024   2.441  16.847  0.2817 -0.6543  0.9166
  804MPD2    C511896   4.715   2.373  16.742  0.0447  0.5919 -0.3579
  804MPD2     H11897   4.618   2.264  17.099  0.6253  1.8416  0.0687
  804MPD2    H111898   0.096   2.522  16.837  0.3980 -0.8046  0.5604
  804MPD2    H211899   4.594   2.227  16.670 -1.3784  0.5996  0.3539
  804MPD2    H311900   4.728   2.412  16.642  1.5046 -1.5444 -0.9930
  804MPD2     N11901   0.050   2.461  17.089  0.4059 -0.0824 -0.0974
  804MPD2    H511902   0.038   2.412  17.177 -0.2823  1.7515  0.8251
  804MPD2    N111903   4.498   2.118  16.904 -0.1441  0.0137 -0.2598
  804MPD2    H711904   4.471   2.084  16.996  0.7234  0.3199  0.1071
  805MPD2     C11905   4.170   0.686  15.506  0.3145 -0.3132 -0.2449
  805MPD2    C111906   4.198   0.553  15.533 -0.2898 -0.0392  0.2193
  805MPD2    C211907   4.322   0.522  15.568 -0.0128 -0.0125  0.4419
  805MPD2    C311908   4.422   0.617  15.579 -0.0591 -0.2858 -0.3533
  805MPD2    C411909   4.392   0.745  15.554  0.1558  0.2935  0.1189
  805MPD2    C511910   4.262   0.782  15.521 -0.0313 -0.5294  1.4071
  805MPD2     H11911   4.362   0.425  15.594  0.1416 -0.9849 -3.4335
  805MPD2    H111912   4.471   0.819  15.556 -2.3353  3.0556 -2.4201
  805MPD2    H211913   4.068   0.712  15.477  0.2210  0.9577  1.2237
  805MPD2    H311914   4.231   0.882  15.493  0.1188 -1.2630 -1.3584
  805MPD2     N11915   4.548   0.572  15.632 -0.4103  0.3501 -0.1775
  805MPD2    H511916   4.556   0.471  15.647  1.6602  0.5363 -0.0214
  805MPD2    N111917   4.107   0.445  15.517  0.0088 -0.2960  0.0399
  805MPD2    H711918   4.150   0.354  15.525  0.2110  0.0346  2.7056
  806MPD2     C11919   4.210   0.476   0.906 -0.0890  0.1875 -0.6486
  806MPD2    C111920   4.329   0.437   0.848  0.4057 -0.5599 -0.4881
  806MPD2    C211921   4.312   0.351   0.742  0.4067 -0.1245 -0.5330
  806MPD2    C311922   4.191   0.307   0.695 -0.1652  0.1988  0.8309
  806MPD2    C411923   4.080   0.343   0.768  0.3971  0.0755  0.1165
  806MPD2    C511924   4.093   0.419   0.875  1.0632 -1.3735 -0.3933
  806MPD2     H11925   4.395   0.307   0.689  0.2443  2.0578 -2.5808
  806MPD2    H111926   3.983   0.309   0.736  1.1571 -1.4270 -0.6047
  806MPD2    H211927   4.213   0.560   0.975 -0.3515 -1.3005  1.1922
  806MPD2    H311928   3.999   0.436   0.926  0.4344 -0.8221 -1.7245
  806MPD2     N11929   4.196   0.207   0.590 -0.5546  0.4256  0.4900
  806MPD2    H511930   4.290   0.184   0.557 -0.1550  0.5564  1.5286
  806MPD2    N111931   4.451   0.480   0.914 -0.7536 -1.1719 -0.3867
  806MPD2    H711932   4.445   0.546   0.991 -1.8113 -0.4549 -1.0831
  807MPD2     C11933   4.692   0.555   1.611  0.8122  0.3903 -0.8677
  807MPD2    C111934   4.599   0.515   1.521 -0.2099  0.9654  0.2393
  807MPD2    C211935   4.472   0.489   1.560  0.2434 -0.6088  0.3842
  807MPD2    C311936   4.432   0.505   1.692  0.3589  0.5537  0.3295
  807MPD2    C411937   4.527   0.537   1.791 -0.6336  0.5135 -0.1434
  807MPD2    C511938   4.657   0.560   1.745  0.1802 -0.6886  0.5328
  807MPD2     H11939   4.393   0.467   1.489 -0.4040  1.3276  0.5095
  807MPD2    H111940   4.496   0.542   1.895  0.8092 -0.1042  0.3198
  807MPD2    H211941   0.057   0.584   1.590  1.4880 -1.0351  0.5182
  807MPD2    H311942   4.726   0.594   1.821 -0.4167 -0.1084  0.8191
  807MPD2     N11943   4.298   0.467   1.728 -0.0333 -0.3656 -0.6069
  807MPD2    H511944   4.244   0.428   1.651  0.3239 -0.5779 -0.7497
  807MPD2    N111945   4.624   0.503   1.385  0.4127 -0.0619  0.6890
  807MPD2    H711946   4.546   0.492   1.322  1.3295 -0.1181 -0.4329
  808MPD2     C11947   4.730   1.442   9.913 -0.6799 -0.1210 -0.5975
  808MPD2    C111948   4.614   1.500   9.962 -0.1806 -0.1892 -0.2316
  808MPD2    C211949   4.601   1.638   9.971 -0.1755  0.1267 -0.2594
  808MPD2    C311950   4.701   1.730   9.940  0.0963 -0.3314 -0.4638
  808MPD2    C411951   0.083   1.676   9.904 -0.5795  0.1343 -0.1623
  808MPD2    C511952   0.095   1.538   9.891 -0.4074 -0.1356 -0.0800
  808MPD2     H11953   4.520   1.686  10.024 -0.4875  0.6304 -1.1809
  808MPD2    H111954   0.165   1.741   9.874  0.2126 -0.5562  0.5005
  808MPD2    H211955   0.011   1.335   9.907 -0.3830 -0.2154  1.7551
  808MPD2    H311956   0.194   1.512   9.855  1.0973  3.6968  1.3315
  808MPD2     N11957   4.691   1.868   9.966  0.4105 -0.0324  0.1122
  808MPD2    H511958   0.039   1.916   9.939 -0.4597  2.3080  1.5868
  808MPD2    N111959   4.506   1.425  10.011  0.3281 -0.5714 -0.1557
  808MPD2    H711960   4.434   1.485  10.049  0.5771 -0.1331 -0.3721
  809MPD2     C11961   4.260   2.654   9.630  0.4329 -0.6706 -0.8139
  809MPD2    C111962   4.343   2.703   9.727 -0.1579  0.1442 -0.6538
  809MPD2    C211963   4.399   2.616   9.813  0.1042 -0.1861  0.3257
  809MPD2    C311964   4.369   2.478   9.811  0.0798 -0.3313  0.0738
  809MPD2    C411965   4.283   2.435   9.717 -0.5904  0.5363  0.6107
  809MPD2    C511966   4.236   2.520   9.620  0.2758 -0.2882 -0.5269
  809MPD2     H11967   4.484   2.648   9.872  1.0539  2.3480 -2.4406
  809MPD2    H111968   4.247   2.334   9.702  1.5287 -0.1121 -0.1171
  809MPD2    H211969   4.232   2.715   9.545  3.1527 -0.9690 -1.9047
  809MPD2    H311970   4.164   2.497   9.543 -0.5181 -1.0403  0.4474
  809MPD2     N11971   4.407   2.382   9.909 -0.2409  0.1363  0.3305
  809MPD2    H511972   4.383   2.284   9.893 -0.3224 -0.0311  1.5128
  809MPD2    N111973   4.400   2.835   9.734 -0.4550 -0.2409  0.1271
  809MPD2    H711974   4.465   2.849   9.811 -1.5867  2.7376  0.5238
  810MPD2     C11975   4.621   0.971  10.506  0.3087 -0.0753  0.7126
  810MPD2    C111976   4.503   1.037  10.491 -0.2187  0.3390 -1.0319
  810MPD2    C211977   4.488   1.170  10.473 -0.1301  0.9436  0.3719
  810MPD2    C311978   4.601   1.247  10.472  0.0931  0.0186 -0.3476
  810MPD2    C411979   4.722   1.191  10.489  0.3836  0.9935 -0.5189
  810MPD2    C511980   4.731   1.055  10.505  0.5264  0.1551  0.3455
  810MPD2     H11981   4.387   1.208  10.464  0.1416  2.1291  2.1254
  810MPD2    H111982   0.074   1.253  10.498  1.4287 -0.3529 -1.4417
  810MPD2    H211983   4.637   0.865  10.520  0.0360 -0.3488 -1.0683
  810MPD2    H311984   0.090   1.006  10.517 -0.1919 -1.4219 -0.2790
  810MPD2     N11985   4.591   1.389  10.465 -0.5007  0.3003  0.6107
  810MPD2    H511986   4.677   1.434  10.495 -1.3616  2.4395 -0.1847
  810MPD2    N111987   4.380   0.964  10.504 -0.5224  0.2214 -0.8272
  810MPD2    H711988   4.291   1.011  10.503  0.0879  1.4491  1.9839
  811MPD2     C11989   3.562   0.953  10.359 -0.5057 -0.4392 -0.5050
  811MPD2    C111990   3.690   1.004  10.355 -0.5142 -0.4898 -0.1784
  811MPD2    C211991   3.706   1.130  10.300  0.6401 -0.1358 -0.0662
  811MPD2    C311992   3.606   1.208  10.254 -0.1994 -0.5187  0.2447
  811MPD2    C411993   3.480   1.154  10.248 -0.1439  0.3206 -0.4449
  811MPD2    C511994   3.460   1.027  10.301 -0.0382  0.1510  0.0765
  811MPD2     H11995   3.802   1.181  10.311  0.4683  0.1847 -0.0607
  811MPD2    H111996   3.402   1.207  10.196 -2.7077  0.3208  3.4153
  811MPD2    H211997   3.540   0.854  10.397 -3.0222  0.2364 -0.2264
  811MPD2    H311998   3.359   0.988  10.304 -0.2733  0.7768  0.5235
  811MPD2     N11999   3.631   1.345  10.216  0.5035 -0.0254  0.8289
  811MPD2    H512000   3.726   1.381  10.219  1.2252 -1.7224 -1.4484
  811MPD2    N112001   3.799   0.920  10.402 -0.2458 -0.0415 -0.4091
  811MPD2    H712002   3.776   0.827  10.434  0.5356  0.0226  0.3236
  812MPD2     C12003   2.518   1.202  12.771  1.1323 -0.5401 -0.0704
  812MPD2    C112004   2.636   1.225  12.707  0.2392 -0.2913 -0.2646
  812MPD2    C212005   2.746   1.163  12.764  0.0603  0.1219  0.0761
  812MPD2    C312006   2.745   1.086  12.875  0.0569  0.4551 -0.0911
  812MPD2    C412007   2.622   1.061  12.943 -0.9415 -0.8935 -0.0640
  812MPD2    C512008   2.509   1.121  12.890  0.6007 -0.3256  0.0780
  812MPD2     H12009   2.845   1.187  12.725  0.1708 -0.6338 -0.1077
  812MPD2    H112010   2.611   0.995  13.028  0.0195 -0.7652  0.1624
  812MPD2    H212011   2.426   1.245  12.731  1.4831  2.8630  2.7336
  812MPD2    H312012   2.407   1.110  12.927 -0.1007  2.0036 -1.1850
  812MPD2     N12013   2.869   1.031  12.924  0.5011 -0.2328 -0.1025
  812MPD2    H512014   2.956   1.051  12.876  0.7786 -0.3679  0.3517
  812MPD2    N112015   2.635   1.299  12.591 -0.1689 -0.6033 -0.1331
  812MPD2    H712016   2.541   1.325  12.561  0.0713 -1.0689 -1.2711
  813MPD2     C12017   2.112   2.896  12.515  0.7786 -0.7238 -0.4681
  813MPD2    C112018   2.159   2.913  12.648  0.2156  0.0186 -0.1677
  813MPD2    C212019   2.073   2.964  12.746 -0.1055  0.2436  0.4552
  813MPD2    C312020   1.947   3.011  12.712 -0.7623 -1.0582 -0.4018
  813MPD2    C412021   1.905   2.987  12.581 -0.4228 -0.2803  0.4443
  813MPD2    C512022   1.983   2.931  12.482 -0.1840 -0.5594 -0.0660
  813MPD2     H12023   2.106   2.972  12.849 -1.0560 -0.3389  0.8031
  813MPD2    H112024   1.803   3.005  12.551 -0.8909 -0.8660  1.7102
  813MPD2    H212025   2.181   2.855  12.442  1.1018  0.1007 -0.6311
  813MPD2    H312026   1.943   2.923  12.381  0.0923 -0.3525 -0.1909
  813MPD2     N12027   1.856   3.060  12.812 -0.6191 -0.1968  0.2699
  813MPD2    H512028   1.899   3.058  12.904 -2.9559  0.9501  1.3692
  813MPD2    N112029   2.299   2.880  12.665  0.1765  0.4999 -0.8780
  813MPD2    H712030   2.361   2.872  12.586  0.3061  1.0205 -0.8271
  814MPD2     C12031   2.519   4.405  12.529 -0.5896 -0.2895  0.4093
  814MPD2    C112032   2.621   4.386  12.437 -0.1798  0.0033  0.4615
  814MPD2    C212033   2.737   4.455  12.460 -0.3763 -0.0980  0.4189
  814MPD2    C312034   2.759   4.535  12.575 -0.4312 -0.4645  0.4746
  814MPD2    C412035   2.660   4.537  12.670 -0.2430  0.4996 -0.0029
  814MPD2    C512036   2.542   4.467  12.650 -0.4680 -1.0048 -0.0838
  814MPD2     H12037   2.819   4.451  12.389 -0.1349 -1.9202  0.7917
  814MPD2    H112038   2.670   4.596  12.760 -1.0425 -1.7500  1.5613
  814MPD2    H212039   2.421   4.359  12.518 -0.8697  0.1991  0.8888
  814MPD2    H312040   2.466   4.460  12.726 -0.6464  1.3226 -0.0400
  814MPD2     N12041   2.867   4.620  12.607 -0.1821  0.1371 -0.4014
  814MPD2    H512042   2.859   4.672  12.693  1.2024  1.5383 -1.1327
  814MPD2    N112043   2.604   4.305  12.313  0.6218  0.6326 -0.5923
  814MPD2    H712044   2.679   4.308  12.245 -0.4804 -2.3374 -1.9442
  815MPD2     C12045   3.230   2.781  11.369  0.3458  0.6574  0.4100
  815MPD2    C112046   3.284   2.664  11.418  0.2874 -0.2333  0.0590
  815MPD2    C212047   3.201   2.593  11.508  0.2267 -0.3705 -0.1820
  815MPD2    C312048   3.081   2.640  11.551 -0.5678 -0.0361  0.1667
  815MPD2    C412049   3.034   2.759  11.506 -0.6725  0.1466  0.5235
  815MPD2    C512050   3.113   2.830  11.418 -0.5580 -0.4219  0.1655
  815MPD2     H12051   3.229   2.495  11.545  0.4121 -0.5814 -0.8705
  815MPD2    H112052   2.931   2.791  11.522 -2.0553 -2.6756 -2.8465
  815MPD2    H212053   3.289   2.846  11.305 -0.6451  0.5033 -0.6579
  815MPD2    H312054   3.079   2.925  11.379  0.8092 -0.6626 -1.6281
  815MPD2     N12055   3.000   2.552  11.632 -0.3911 -0.0592  0.0636
  815MPD2    H512056   3.040   2.464  11.660  0.1613  0.9075  2.3309
  815MPD2    N112057   3.410   2.626  11.375  0.1776 -0.1703 -0.8480
  815MPD2    H712058   3.443   2.674  11.291 -1.7795  1.2292 -0.8262
  816MPD2     C12059   4.058   2.212  16.886  0.5266 -0.2699 -0.2462
  816MPD2    C112060   3.933   2.161  16.914 -0.3804  0.0556  0.3771
  816MPD2    C212061   3.898   2.039  16.858 -0.1936  0.2971  0.1963
  816MPD2    C312062   3.981   1.966  16.782  0.0568  1.2513 -0.3400
  816MPD2    C412063   4.107   2.021  16.751 -0.3852  0.6895 -0.3319
  816MPD2    C512064   4.140   2.141  16.811  0.1762  0.2713 -0.5201
  816MPD2     H12065   3.825   1.979  16.911  0.3737  0.4325  1.1205
  816MPD2    H112066   4.185   1.976  16.690 -1.2521  2.3353 -2.6642
  816MPD2    H212067   4.088   2.313  16.911 -1.2384  0.3725 -0.7678
  816MPD2    H312068   4.239   2.179  16.789  0.2544  0.0297 -0.5920
  816MPD2     N12069   3.941   1.840  16.739 -0.1781  0.3540  0.5786
  816MPD2    H512070   3.850   1.807  16.771 -0.9962  0.3188 -1.7593
  816MPD2    N112071   3.842   2.236  16.996 -0.0160  0.0872  0.3322
  816MPD2    H712072   3.867   2.330  17.025  2.3275 -0.8996  1.4753
  817MPD2     C12073   2.379   3.655  10.190  0.6500 -0.6314 -0.1038
  817MPD2    C112074   2.451   3.636  10.073 -0.2650  0.2217  0.0042
  817MPD2    C212075   2.473   3.746   9.993 -0.1010  0.2875  0.2394
  817MPD2    C312076   2.437   3.871  10.035  0.9932 -0.0681 -0.3189
  817MPD2    C412077   2.362   3.886  10.148  1.0282  0.6086 -0.2615
  817MPD2    C512078   2.332   3.780  10.223 -0.0070 -0.0583  0.5946
  817MPD2     H12079   2.527   3.726   9.901 -0.4683  1.1806 -0.1705
  817MPD2    H112080   2.330   3.983  10.185  3.6184  0.7226  1.6770
  817MPD2    H212081   2.371   3.569  10.255  2.3616  0.2764  1.3222
  817MPD2    H312082   2.285   3.800  10.318  0.0926  1.4200  0.3220
  817MPD2     N12083   2.481   3.987   9.959 -0.5261 -0.2740  0.3354
  817MPD2    H512084   2.534   3.960   9.876  0.9762 -0.8134  1.4774
  817MPD2    N112085   2.510   3.515  10.034  0.3905  0.0115  0.3621
  817MPD2    H712086   2.571   3.525   9.953  0.5399 -0.6449  0.3946
  818MPD2     C12087   1.740   3.952   9.738 -0.1659 -0.9603  0.4158
  818MPD2    C112088   1.756   3.835   9.806 -0.4777 -0.1607 -0.0152
  818MPD2    C212089   1.810   3.732   9.735 -0.1721 -0.3088  0.1790
  818MPD2    C312090   1.844   3.734   9.600 -0.2330 -0.0903 -0.1150
  818MPD2    C412091   1.827   3.857   9.534 -0.1189  0.0806  0.3176
  818MPD2    C512092   1.774   3.965   9.601 -0.5295 -0.2460 -0.5336
  818MPD2     H12093   1.819   3.638   9.789  0.4682 -1.0316 -1.1892
  818MPD2    H112094   1.841   3.862   9.427 -0.1232  0.7833  0.3503
  818MPD2    H212095   1.694   4.041   9.780  0.1083  0.0579 -1.4394
  818MPD2    H312096   1.762   4.060   9.550  1.2944 -0.3579 -1.1446
  818MPD2     N12097   1.886   3.633   9.519  0.5954  0.6156  0.7696
  818MPD2    H512098   1.913   3.660   9.424 -0.6338 -3.6474 -0.7954
  818MPD2    N112099   1.699   3.819   9.937 -0.7705  0.0893  0.3568
  818MPD2    H712100   1.705   3.727   9.980  1.7963 -0.1380 -0.4996
  819MPD2     C12101   0.206   0.074  15.426 -0.8034  0.7494  0.8073
  819MPD2    C112102   0.203   4.685  15.480  0.0594 -0.5116 -0.5909
  819MPD2    C212103   0.277   4.660  15.596 -0.1700  0.1295 -0.3780
  819MPD2    C312104   0.349   0.027  15.654  0.4010 -0.2780 -0.8436
  819MPD2    C412105   0.332   0.153  15.608  0.7220 -0.3547 -0.5145
  819MPD2    C512106   0.267   0.177  15.493  0.0071 -0.3310  0.2527
  819MPD2     H12107   0.277   4.562  15.643 -0.1114  0.0930 -0.4534
  819MPD2    H112108   0.385   0.236  15.652 -1.3533  0.3752  0.6314
  819MPD2    H212109   0.154   0.098  15.334  0.2779 -1.6487 -0.4485
  819MPD2    H312110   0.253   0.280  15.462  0.9629 -0.2491  0.1107
  819MPD2     N12111   0.437   4.727  15.759  0.6901 -0.1691 -0.1161
  819MPD2    H512112   0.434   4.629  15.784 -0.7113 -0.3030 -0.7961
  819MPD2    N112113   0.137   4.584  15.407  0.7818 -0.0405 -0.2084
  819MPD2    H712114   0.089   4.619  15.324 -0.1762  0.0633  0.3881
  820MPD2     C12115   3.919   4.409  15.294 -0.3545  0.7600 -0.0306
  820MPD2    C112116   3.997   4.504  15.349  0.2749  0.2022 -0.0460
  820MPD2    C212117   4.135   4.479  15.349 -0.3984  0.2393  0.6150
  820MPD2    C312118   4.188   4.361  15.304 -0.3016 -0.1012  0.2705
  820MPD2    C412119   4.103   4.265  15.255 -0.1857 -0.3923 -0.6477
  820MPD2    C512120   3.974   4.287  15.253 -0.6298  0.9458  0.1865
  820MPD2     H12121   4.199   4.558  15.388  1.8055 -0.9841 -0.5078
  820MPD2    H112122   4.133   4.171  15.211  0.0962  0.0395 -1.3811
  820MPD2    H212123   3.812   4.422  15.290 -0.1088  2.8705  0.0450
  820MPD2    H312124   3.901   4.213  15.223  0.6405 -0.1299 -0.2226
  820MPD2     N12125   4.327   4.331  15.304 -0.1728  0.0633 -0.4771
  820MPD2    H512126   4.352   4.238  15.271 -2.3036 -0.0828 -1.6273
  820MPD2    N112127   3.932   4.621  15.396 -0.1630  0.2766  0.4364
  820MPD2    H712128   3.831   4.627  15.391 -0.0628  1.3013 -0.3256
  821MPD2     C12129   4.492   1.687  12.953 -0.3873  0.3129 -0.0846
  821MPD2    C112130   4.590   1.661  13.045 -0.5715 -0.6545  0.5029
  821MPD2    C212131   4.702   1.740  13.053 -0.3863  0.5138  0.0515
  821MPD2    C312132   4.713   1.850  12.976 -0.3619 -0.0506  0.2169
  821MPD2    C412133   4.616   1.882  12.879  0.2636  0.3697 -0.3847
  821MPD2    C512134   4.502   1.798  12.869 -0.4236  0.4529  0.3956
  821MPD2     H12135   0.038   1.707  13.126  0.5393  0.2233 -1.0152
  821MPD2    H112136   4.630   1.955  12.801  1.7409 -0.8087 -1.2184
  821MPD2    H212137   4.405   1.625  12.932  0.3766 -0.7131 -0.2565
  821MPD2    H312138   4.430   1.827  12.793  0.5292  4.2998  0.9379
  821MPD2     N12139   0.100   1.924  12.970  0.3971 -0.0867  0.0742
  821MPD2    H512140   0.118   1.983  12.889 -1.4478  0.8004  0.3173
  821MPD2    N112141   4.597   1.545  13.129  0.6497  0.2056  0.1830
  821MPD2    H712142   4.681   1.543  13.185 -0.9242  0.8967  2.5656
  822MPD2     C12143   0.891   1.712  15.435  0.1673  0.0183  0.8150
  822MPD2    C112144   0.861   1.675  15.563 -0.1986  0.2547 -0.2494
  822MPD2    C212145   0.766   1.745  15.637  0.1591  0.4034 -0.4635
  822MPD2    C312146   0.695   1.847  15.582  0.1822  0.2303 -0.7787
  822MPD2    C412147   0.717   1.889  15.455  0.2058 -0.0274  0.1148
  822MPD2    C512148   0.815   1.817  15.385 -0.0762  1.3301 -0.0385
  822MPD2     H12149   0.754   1.711  15.739  2.3379 -0.3625 -0.4521
  822MPD2    H112150   0.663   1.974  15.416 -0.7201 -0.1637  1.1047
  822MPD2    H212151   0.961   1.655  15.375 -0.6538  1.0962 -1.1689
  822MPD2    H312152   0.826   1.843  15.280  1.8551 -1.8908 -0.6526
  822MPD2     N12153   0.605   1.910  15.674  0.5501  0.0187 -0.4161
  822MPD2    H512154   0.586   1.862  15.761 -1.0162  0.1421 -0.6728
  822MPD2    N112155   0.926   1.575  15.636  0.5337  0.3485 -0.1674
  822MPD2    H712156   0.911   1.570  15.736 -0.5342 -0.2509 -0.3527
  823MPD2     C12157   0.060   2.157  16.320  0.0637 -0.4429 -0.5087
  823MPD2    C112158   0.126   2.065  16.239 -0.6230  0.3153 -0.1349
  823MPD2    C212159   0.175   1.952  16.298  0.5046  0.3628  0.3701
  823MPD2    C312160   0.155   1.928  16.438 -0.9344  0.7546  0.2522
  823MPD2    C412161   0.084   2.018  16.514 -0.2468  0.2800 -0.1985
  823MPD2    C512162   0.041   2.135  16.452  0.2486  0.4925 -0.5609
  823MPD2     H12163   0.230   1.882  16.236 -0.2227  1.4948 -1.5637
  823MPD2    H112164   0.060   2.013  16.619  1.0889 -2.8701 -0.0567
  823MPD2    H212165   0.024   2.249  16.275  0.7458  0.7354  1.3693
  823MPD2    H312166   4.726   2.211  16.510  0.3201  0.0397  0.1035
  823MPD2     N12167   0.209   1.819  16.501 -0.4089  0.3352  0.2034
  823MPD2    H512168   0.174   1.797  16.594 -1.8622 -1.2899 -0.7248
  823MPD2    N112169   0.145   2.108  16.100  0.0881 -0.4349 -0.2181
  823MPD2    H712170   0.134   2.207  16.083  0.2759 -0.2552  0.7187
  824MPD2     C12171   1.155   0.724  15.762  0.6597  0.1330 -0.0908
  824MPD2    C112172   1.227   0.827  15.701 -0.4772 -0.2669  0.1687
  824MPD2    C212173   1.335   0.789  15.625  0.2066  0.0396  0.9354
  824MPD2    C312174   1.371   0.661  15.604  0.0454  0.3569  0.6188
  824MPD2    C412175   1.292   0.562  15.656  0.2441  0.1593  0.5869
  824MPD2    C512176   1.185   0.595  15.740  0.0819  0.1617 -0.0517
  824MPD2     H12177   1.392   0.868  15.576 -0.0552 -0.1913  0.2533
  824MPD2    H112178   1.324   0.459  15.643  1.4961  0.6319 -0.0778
  824MPD2    H212179   1.061   0.743  15.814 -0.5315 -1.5227 -1.6254
  824MPD2    H312180   1.126   0.513  15.778 -1.5999 -0.5883 -4.2633
  824MPD2     N12181   1.485   0.642  15.529 -0.2953 -0.0288 -0.1588
  824MPD2    H512182   1.521   0.720  15.476 -0.6118 -0.0280 -0.3772
  824MPD2    N112183   1.187   0.956  15.730  0.0217  0.1285 -0.2059
  824MPD2    H712184   1.104   0.969  15.786  0.1600  1.7378 -0.3693
  825MPD2     C12185   2.131   0.834  15.024 -0.0902 -0.9187  0.6957
  825MPD2    C112186   1.999   0.843  15.039  0.0368  0.0998 -0.4957
  825MPD2    C212187   1.934   0.954  14.982 -0.4039 -0.3248  0.3907
  825MPD2    C312188   2.009   1.047  14.911  0.1591 -0.0695  0.0129
  825MPD2    C412189   2.142   1.024  14.888  0.0771  0.5112  1.1527
  825MPD2    C512190   2.204   0.927  14.958  0.2012 -0.6877 -0.1104
  825MPD2     H12191   1.830   0.965  15.012  0.0851  1.1083  1.5807
  825MPD2    H112192   2.198   1.087  14.821 -0.7020 -1.8742 -1.7483
  825MPD2    H212193   2.193   0.751  15.057  0.7212 -0.0407  1.3839
  825MPD2    H312194   2.312   0.916  14.958  0.3222  0.4099  2.1441
  825MPD2     N12195   1.959   1.156  14.844 -0.8489 -0.2137  0.2749
  825MPD2    H512196   2.030   1.215  14.801 -0.9087 -0.2016  0.1937
  825MPD2    N112197   1.930   0.748  15.117 -0.8635 -0.0704  0.4318
  825MPD2    H712198   1.995   0.676  15.145 -1.6429 -0.4730  1.2088
  826MPD2     C12199   1.488   0.559  13.588 -0.0372  0.3051 -0.0394
  826MPD2    C112200   1.534   0.690  13.587 -0.2102  0.5017  0.1245
  826MPD2    C212201   1.444   0.793  13.573  0.4152  1.0681 -0.6724
  826MPD2    C312202   1.309   0.765  13.547 -0.4697  0.1780 -0.0796
  826MPD2    C412203   1.260   0.633  13.545  0.5114  0.0863  1.1150
  826MPD2    C512204   1.355   0.538  13.569 -1.1572 -0.1776  0.6738
  826MPD2     H12205   1.478   0.896  13.570 -0.4114  1.3691  0.2809
  826MPD2    H112206   1.156   0.611  13.523  0.5169  0.6753  0.4918
  826MPD2    H212207   1.560   0.477  13.593  0.4475  0.6671 -0.9455
  826MPD2    H312208   1.314   0.438  13.560 -1.0414 -0.2086  0.4930
  826MPD2     N12209   1.209   0.865  13.535 -0.6074 -0.1824  0.0349
  826MPD2    H512210   1.116   0.836  13.508 -0.5412 -0.4530  0.0987
  826MPD2    N112211   1.678   0.710  13.585 -0.1199 -0.2380 -0.4167
  826MPD2    H712212   1.735   0.629  13.605  0.1569  0.0131 -0.1997
  827MPD2     C12213   2.368   2.149   9.789 -0.1177  0.3313  0.0562
  827MPD2    C112214   2.279   2.089   9.871 -0.1822 -0.1187  0.1812
  827MPD2    C212215   2.144   2.063   9.827  0.1783 -0.5241  0.5977
  827MPD2    C312216   2.101   2.116   9.706  0.0205 -0.5687  0.1990
  827MPD2    C412217   2.191   2.173   9.624 -0.5130 -0.6258 -0.5930
  827MPD2    C512218   2.324   2.182   9.664  0.2397  0.1602  0.9751
  827MPD2     H12219   2.072   2.017   9.893 -1.0266 -2.9959 -2.4317
  827MPD2    H112220   2.156   2.185   9.522 -1.9177 -0.3497 -0.0795
  827MPD2    H212221   2.473   2.153   9.816 -0.2631  3.4154  0.1385
  827MPD2    H312222   2.396   2.207   9.587 -0.9901 -0.2597 -0.3082
  827MPD2     N12223   1.962   2.109   9.676  0.3611 -0.4911 -0.1629
  827MPD2    H512224   1.911   2.051   9.741  0.5071 -0.6281 -0.1720
  827MPD2    N112225   2.319   2.070  10.006  0.3819 -0.6639  0.5765
  827MPD2    H712226   2.418   2.057  10.021  1.0330  3.0882 -0.4236
  828MPD2     C12227   0.373   1.954  12.634 -0.1868 -0.1113  0.1643
  828MPD2    C112228   0.354   2.031  12.525 -0.8061  0.5910 -0.7803
  828MPD2    C212229   0.437   2.016  12.425 -0.7297 -0.1319 -0.1294
  828MPD2    C312230   0.525   1.914  12.418 -1.0337 -0.1469  1.5652
  828MPD2    C412231   0.543   1.839  12.535  0.9066  0.2017  0.9145
  828MPD2    C512232   0.467   1.861  12.645 -0.4510  0.0854  0.0241
  828MPD2     H12233   0.418   2.075  12.336  0.2121  1.1677  0.5393
  828MPD2    H112234   0.618   1.760  12.529  0.2062 -0.1886 -2.7212
  828MPD2    H212235   0.312   1.978  12.720 -1.5791 -1.0146 -0.5597
  828MPD2    H312236   0.472   1.800  12.735  2.6692 -2.6185 -1.9391
  828MPD2     N12237   0.595   1.879  12.295 -0.1538  0.1032 -0.0003
  828MPD2    H512238   0.661   1.802  12.297  1.9548  1.9448  2.3357
  828MPD2    N112239   0.245   2.120  12.514 -0.5740 -0.0219 -0.9389
  828MPD2    H712240   0.243   2.172  12.426  0.4901  1.9091  0.1640
  829MPD2     C12241   0.016   2.999  12.203 -0.1434  0.6003  0.5334
  829MPD2    C112242   0.061   2.887  12.144 -0.5688 -0.0491  0.3056
  829MPD2    C212243   0.038   2.771  12.217  0.0155  0.1893 -0.2852
  829MPD2    C312244   4.725   2.765  12.340  0.2623  0.4218  0.0422
  829MPD2    C412245   4.685   2.879  12.398 -0.0664  0.1304  0.1168
  829MPD2    C512246   4.707   2.993  12.329  0.3637  0.0289 -0.2802
  829MPD2     H12247   0.056   2.680  12.161 -1.4995  0.4868 -1.2629
  829MPD2    H112248   4.629   2.873  12.491  1.1622 -0.4209  0.8256
  829MPD2    H212249   0.033   3.098  12.161 -0.7443  0.0765 -0.9528
  829MPD2    H312250   4.674   3.087  12.372 -1.7100 -1.2463  0.9693
  829MPD2     N12251   4.695   2.642  12.403  1.1668  0.8726 -0.0012
  829MPD2    H512252   4.637   2.647  12.486 -1.6765 -1.5525 -1.8664
  829MPD2    N112253   0.117   2.888  12.009 -0.7280  0.0962 -0.3887
  829MPD2    H712254   0.098   2.975  11.959 -0.8300  0.4703  0.3058
  830MPD2     C12255   1.066   4.413  15.640  0.5253  0.3329 -0.5977
  830MPD2    C112256   1.003   4.535  15.662  0.0423  0.3599  0.6961
  830MPD2    C212257   1.039   4.640  15.575  0.2653  1.0254 -0.1082
  830MPD2    C312258   1.129   4.621  15.471  0.3575 -0.3534  1.0226
  830MPD2    C412259   1.178   4.495  15.448  0.2940 -0.4201 -0.4050
  830MPD2    C512260   1.155   4.388  15.533 -0.8455  0.4647 -0.7395
  830MPD2     H12261   0.992   4.736  15.592 -1.2031  0.2324  0.3283
  830MPD2    H112262   1.260   4.482  15.379 -2.0089 -0.4130 -3.1298
  830MPD2    H212263   1.050   4.323  15.699 -0.2186  1.0539  0.3136
  830MPD2    H312264   1.180   4.286  15.505 -0.8393  0.6335 -1.3468
  830MPD2     N12265   1.159   4.724  15.379  0.2223 -0.1302  0.5377
  830MPD2    H512266   1.189   4.705  15.284 -0.3386 -2.4594  0.8241
  830MPD2    N112267   0.895   4.558  15.755  0.0791  0.2620  1.4744
  830MPD2    H712268   0.845   4.646  15.749 -0.0876  0.0312 -0.4416
  831MPD2     C12269   0.734   2.069  16.072  1.3371  0.5368 -0.7927
  831MPD2    C112270   0.768   1.958  16.003 -0.2815  0.8039 -0.9968
  831MPD2    C212271   0.665   1.860  15.991  0.5597  0.5952  0.3140
  831MPD2    C312272   0.554   1.861  16.072 -0.3029 -0.2581 -0.3888
  831MPD2    C412273   0.532   1.964  16.159  0.2112  0.4267 -1.0015
  831MPD2    C512274   0.619   2.072  16.152  0.6934 -0.3371 -0.2312
  831MPD2     H12275   0.678   1.767  15.938  1.0485  1.4804 -1.1255
  831MPD2    H112276   0.443   1.968  16.221  0.8761 -2.9881  0.2165
  831MPD2    H212277   0.803   2.152  16.082 -0.7915  2.1920  0.2325
  831MPD2    H312278   0.595   2.149  16.225  1.8662  0.1383 -0.3583
  831MPD2     N12279   0.452   1.773  16.041  0.6116  0.5892 -0.0883
  831MPD2    H512280   0.371   1.779  16.103  2.0980 -0.8114  1.9910
  831MPD2    N112281   0.895   1.946  15.944  0.1836 -0.5803  0.7609
  831MPD2    H712282   0.949   2.032  15.932 -1.4334  0.0255 -2.2024
  832MPD2     C12283   4.172   3.066  17.174  0.5676 -0.2132 -0.1832
  832MPD2    C112284   4.196   3.187  17.101  0.3877 -0.1720  0.2982
  832MPD2    C212285   4.111   3.208  16.988  0.2336 -0.6312  0.1729
  832MPD2    C312286   4.039   3.106  16.931 -0.3552  0.6246 -0.7553
  832MPD2    C412287   4.028   2.991  17.001 -0.1902  0.4829  0.0869
  832MPD2    C512288   4.095   2.975  17.116 -0.2475  0.2728  0.3896
  832MPD2     H12289   4.131   3.301  16.936 -2.3764  0.6967  1.5076
  832MPD2    H112290   3.959   2.913  16.974  0.2547  0.7895 -1.9358
  832MPD2    H212291   4.237   3.046  17.259  0.7943  0.3045 -0.2320
  832MPD2    H312292   4.080   2.881  17.168  1.4108 -0.0090  0.3628
  832MPD2     N12293   3.952   3.115  16.815 -0.2728 -0.3459 -0.1102
  832MPD2    H512294   3.899   3.031  16.796 -0.2328 -0.9058  2.2275
  832MPD2    N112295   4.301   3.271  17.137  0.0497 -0.2146  0.4840
  832MPD2    H712296   4.347   3.254  17.227 -1.7271 -0.3789  1.3536
  833MPD2     C12297   0.989   4.340  12.556  0.0853  0.0387 -0.8128
  833MPD2    C112298   0.995   4.423  12.442  0.6244  0.1991  0.9655
  833MPD2    C212299   1.064   4.385  12.331 -0.0702 -0.0690 -0.2834
  833MPD2    C312300   1.147   4.271  12.333 -0.0501 -0.2492 -0.0700
  833MPD2    C412301   1.133   4.190  12.448 -0.3618 -0.1460 -0.0588
  833MPD2    C512302   1.058   4.228  12.556  0.6026 -0.1847 -0.0865
  833MPD2     H12303   1.056   4.437  12.236  0.8063 -3.0714 -2.0196
  833MPD2    H112304   1.186   4.096  12.460 -1.2303 -0.3053  2.4056
  833MPD2    H212305   0.919   4.366  12.635  1.0499 -2.6481  0.9315
  833MPD2    H312306   1.050   4.159  12.639  1.2596 -1.1565 -0.8192
  833MPD2     N12307   1.217   4.223  12.225  0.2469 -0.1787 -0.0418
  833MPD2    H512308   1.245   4.126  12.226  2.4886  0.4756  0.0811
  833MPD2    N112309   0.903   4.539  12.441 -0.1536 -0.8591 -0.1077
  833MPD2    H712310   0.829   4.546  12.510 -0.0465  0.4880 -0.1295
  834MPD2     C12311   0.974   3.469  11.692 -0.0079  0.0045 -0.0753
  834MPD2    C112312   1.058   3.549  11.612 -0.4697 -0.0970 -0.2171
  834MPD2    C212313   1.071   3.678  11.651  0.1995  0.5960  0.0068
  834MPD2    C312314   1.009   3.732  11.760 -0.3449  0.3643 -0.4160
  834MPD2    C412315   0.922   3.655  11.836 -0.3747  0.7008  0.3545
  834MPD2    C512316   0.914   3.524  11.798 -0.3336 -0.3615 -0.1746
  834MPD2     H12317   1.126   3.756  11.601  0.5854  0.8707  0.8602
  834MPD2    H112318   0.856   3.692  11.914  0.0440  0.7847  0.6701
  834MPD2    H212319   0.973   3.361  11.678 -0.0954  0.2570 -2.0121
  834MPD2    H312320   0.863   3.455  11.865  1.6892 -0.8489  0.8456
  834MPD2     N12321   1.040   3.873  11.782 -0.5788 -0.2362 -0.8727
  834MPD2    H512322   1.110   3.911  11.719 -0.2006 -1.9999 -1.5013
  834MPD2    N112323   1.127   3.487  11.503  0.7570  0.1693  0.4386
  834MPD2    H712324   1.081   3.410  11.454  2.8889 -1.5646  1.1932
  835MPD2     C12325   1.140   2.337  10.833 -0.2843  0.2021  0.1350
  835MPD2    C112326   1.046   2.298  10.926  0.7720 -0.2077  0.0110
  835MPD2    C212327   1.085   2.198  11.018 -0.3296 -0.2696 -0.0368
  835MPD2    C312328   1.215   2.166  11.036  0.0686 -0.4912  0.0135
  835MPD2    C412329   1.306   2.210  10.946  0.5654 -0.0527 -0.1104
  835MPD2    C512330   1.267   2.298  10.852  0.6389  0.3883 -0.1555
  835MPD2     H12331   1.014   2.153  11.087 -0.3538 -2.7349 -1.6625
  835MPD2    H112332   1.409   2.177  10.937  0.0962 -1.7257  0.6375
  835MPD2    H212333   1.122   2.421  10.767 -0.6672 -0.4508 -0.6018
  835MPD2    H312334   1.345   2.341  10.790  1.1470 -1.0144 -0.5053
  835MPD2     N12335   1.250   2.071  11.139  0.4377 -0.2481 -0.3968
  835MPD2    H512336   1.176   2.039  11.200  0.1154 -1.6132 -1.5264
  835MPD2    N112337   0.907   2.339  10.924 -0.1348 -0.0249 -0.9148
  835MPD2    H712338   0.844   2.301  10.994  1.2360 -0.7842 -0.0889
  836MPD2     C12339   1.151   1.832  11.967  0.1133  0.4237 -0.1105
  836MPD2    C112340   1.121   1.914  11.863  0.1079 -0.3232 -0.5304
  836MPD2    C212341   1.018   2.008  11.885  0.0901  0.0142 -0.1581
  836MPD2    C312342   0.962   2.030  12.010  0.5748 -0.4414 -0.2014
  836MPD2    C412343   1.011   1.953  12.119  0.7934  0.3847 -0.0416
  836MPD2    C512344   1.086   1.846  12.089  0.4721 -0.2149 -0.6542
  836MPD2     H12345   0.980   2.072  11.806  0.7329  0.4935 -0.0759
  836MPD2    H112346   0.952   1.957  12.210  0.3916  1.0536 -0.3296
  836MPD2    H212347   1.206   1.741  11.945 -0.6363 -0.9708  3.6643
  836MPD2    H312348   1.112   1.775  12.166 -2.3667 -0.0345  0.4643
  836MPD2     N12349   0.874   2.139  12.049  0.0736  0.2186 -0.0294
  836MPD2    H512350   0.859   2.147  12.149  1.4096 -1.1929  0.2979
  836MPD2    N112351   1.193   1.897  11.744 -0.6444  0.6719  0.2944
  836MPD2    H712352   1.273   1.834  11.745 -1.5111 -0.4198  0.7473
  837MPD2     C12353   4.119   1.985  10.204  0.1088  0.1065 -0.1092
  837MPD2    C112354   3.980   2.004  10.214  0.0042  0.7515 -0.3294
  837MPD2    C212355   3.934   2.132  10.237 -0.4834  0.8980  0.2252
  837MPD2    C312356   4.018   2.244  10.244 -0.5342  0.0744  0.1068
  837MPD2    C412357   4.155   2.222  10.239 -0.4532  0.7582  0.1746
  837MPD2    C512358   4.203   2.092  10.216 -0.2014 -0.2299  0.4697
  837MPD2     H12359   3.830   2.135  10.269  0.0136 -0.0065  1.9485
  837MPD2    H112360   4.230   2.300  10.236  0.0194  0.1860 -2.4407
  837MPD2    H212361   4.165   1.887  10.201  1.5084  0.7727 -0.4818
  837MPD2    H312362   4.308   2.068  10.218 -0.4891 -1.5548 -0.4070
  837MPD2     N12363   3.943   2.365  10.274  0.2819  0.2765 -0.2645
  837MPD2    H512364   3.842   2.356  10.282  0.2287  2.1418  1.3112
  837MPD2    N112365   3.876   1.910  10.197  0.2413 -0.4414 -0.1294
  837MPD2    H712366   3.784   1.941  10.229  0.9899 -1.2186  2.7771
  838MPD2     C12367   2.439   0.203  12.689 -0.0193 -0.9683 -0.0838
  838MPD2    C112368   2.396   0.098  12.613  0.4747  0.3382 -0.2971
  838MPD2    C212369   2.285   0.032  12.662  0.3721 -0.4183 -0.6387
  838MPD2    C312370   2.215   0.073  12.773  0.3867 -0.6108  0.2076
  838MPD2    C412371   2.261   0.169  12.852 -0.6629  0.1044 -0.4360
  838MPD2    C512372   2.375   0.228  12.811  0.0776  0.3490  0.2105
  838MPD2     H12373   2.259   4.679  12.607  0.7481 -0.1865 -1.1940
  838MPD2    H112374   2.214   0.201  12.944 -0.1716 -1.0485  0.2138
  838MPD2    H212375   2.529   0.255  12.659  0.4723 -1.7692 -0.0036
  838MPD2    H312376   2.414   0.311  12.869  0.9515  0.8752 -1.1312
  838MPD2     N12377   2.102   4.733  12.813 -0.4771 -0.6269  0.5088
  838MPD2    H512378   2.081   4.650  12.759  2.3988 -1.5009  0.7392
  838MPD2    N112379   2.447   0.060  12.487 -0.0079  0.1535 -1.1677
  838MPD2    H712380   2.405   4.715  12.443  0.0313 -0.5357  0.0904
  839MPD2     C12381   2.129   4.184  11.994  0.1701 -0.3149  1.0223
  839MPD2    C112382   2.200   4.241  11.890  0.3539  0.0372 -0.3292
  839MPD2    C212383   2.287   4.341  11.929 -0.0963  0.0383 -0.0561
  839MPD2    C312384   2.309   4.385  12.056 -1.0688 -0.0667  0.4806
  839MPD2    C412385   2.227   4.333  12.152 -0.6650  0.5302  0.3128
  839MPD2    C512386   2.142   4.233  12.124 -0.2108 -0.1546 -0.7247
  839MPD2     H12387   2.344   4.393  11.853 -0.4867  0.0521 -0.3344
  839MPD2    H112388   2.237   4.360  12.257  3.3709  0.4486 -0.0451
  839MPD2    H212389   2.071   4.093  11.983 -0.9575  0.4429  0.6373
  839MPD2    H312390   2.086   4.182  12.202  1.3380  1.9139  1.7503
  839MPD2     N12391   2.397   4.489  12.103 -0.2566  0.4163  0.4714
  839MPD2    H512392   2.387   4.507  12.203 -1.3413  2.2985  0.0222
  839MPD2    N112393   2.189   4.196  11.754 -0.7705  1.0489  0.0957
  839MPD2    H712394   2.260   4.224  11.688 -1.1129 -0.8739 -1.1140
  840MPD2     C12395   2.638   2.573  10.250  0.2590 -0.0564 -0.3716
  840MPD2    C112396   2.646   2.481  10.348  0.7223  0.0293  0.3791
  840MPD2    C212397   2.728   2.505  10.455 -0.0993 -0.3569  0.7186
  840MPD2    C312398   2.802   2.619  10.465 -0.2804 -0.8855 -0.4622
  840MPD2    C412399   2.808   2.708  10.354 -0.4225  0.4633 -0.0630
  840MPD2    C512400   2.727   2.683  10.248 -0.0015 -0.0810  0.4502
  840MPD2     H12401   2.737   2.434  10.536  1.0680 -1.5919 -0.4971
  840MPD2    H112402   2.868   2.798  10.351 -0.3813  0.4380 -0.0164
  840MPD2    H212403   2.567   2.569  10.168 -0.2364 -1.3022  0.1250
  840MPD2    H312404   2.734   2.749  10.162 -2.9812  0.0874  0.3164
  840MPD2     N12405   2.885   2.650  10.576  0.8327 -0.1029  0.2293
  840MPD2    H512406   2.875   2.746  10.608  0.0709 -0.1797  0.2310
  840MPD2    N112407   2.563   2.367  10.337 -0.4938 -0.6969 -0.0183
  840MPD2    H712408   2.503   2.378  10.256  0.3754 -0.8435 -0.6781
  841MPD2     C12409   1.936   2.284  15.325  0.3800  0.5691 -0.4435
  841MPD2    C112410   1.913   2.236  15.197  0.5167 -0.2466  0.8030
  841MPD2    C212411   1.917   2.322  15.090 -0.0642  0.0785 -0.4273
  841MPD2    C312412   1.951   2.458  15.105  0.3143  0.4043 -0.6675
  841MPD2    C412413   1.973   2.505  15.237  0.1875  0.6688 -0.0942
  841MPD2    C512414   1.961   2.420  15.341 -0.1416  0.3068  1.4481
  841MPD2     H12415   1.896   2.282  14.992  0.2924  1.3640 -1.0329
  841MPD2    H112416   1.987   2.610  15.261  0.8063  0.5775 -0.0341
  841MPD2    H212417   1.959   2.217  15.407 -1.2318  2.3070  1.4177
  841MPD2    H312418   1.979   2.453  15.443  0.4904 -0.0694  1.4563
  841MPD2     N12419   1.962   2.542  14.992 -0.7636  0.2508 -0.2393
  841MPD2    H512420   1.936   2.500  14.903 -0.2097 -0.9674  0.1703
  841MPD2    N112421   1.891   2.106  15.158 -0.5002  0.3062  0.5144
  841MPD2    H712422   1.877   2.096  15.058  1.4017  2.8322  0.0068
  842MPD2     C12423   2.739   3.077  16.638  0.7464  0.2047  0.6750
  842MPD2    C112424   2.824   3.174  16.589 -0.0775 -0.7322 -0.5154
  842MPD2    C212425   2.962   3.151  16.611  0.3600 -0.0165  0.3048
  842MPD2    C312426   3.006   3.046  16.692 -0.4072  0.1016  0.3360
  842MPD2    C412427   2.914   2.949  16.741  1.0041  0.0128 -0.7152
  842MPD2    C512428   2.780   2.963  16.700 -0.2058  0.5140  0.1633
  842MPD2     H12429   3.034   3.227  16.583  1.6350 -0.8695  1.2362
  842MPD2    H112430   2.940   2.860  16.798  0.2610 -1.8256 -3.2080
  842MPD2    H212431   2.632   3.077  16.620  0.7213  1.1184  0.8259
  842MPD2    H312432   2.711   2.887  16.734  0.5798 -0.3435 -0.1412
  842MPD2     N12433   3.144   3.020  16.730 -0.3681 -0.1218 -0.2665
  842MPD2    H512434   3.162   2.951  16.803 -0.3666 -0.3955 -0.5277
  842MPD2    N112435   2.770   3.289  16.528  0.4054 -0.5328  0.0088
  842MPD2    H712436   2.669   3.301  16.538  0.4847 -0.2138  0.4379
  843MPD2     C12437   0.522   3.659  17.452 -0.3267 -0.7931 -1.0506
  843MPD2    C112438   0.580   3.633  17.566  0.3021 -0.6392 -0.1068
  843MPD2    C212439   0.603   3.739  17.657  0.1346  0.2245 -0.0764
  843MPD2    C312440   0.595   3.873  17.614  0.6871  0.5994  0.0250
  843MPD2    C412441   0.555   3.891  17.481  0.0736 -0.1881 -0.5233
  843MPD2    C512442   0.503   3.788  17.414 -0.0708 -0.7827  0.0968
  843MPD2     H12443   0.640   3.711   0.009  0.5456  0.6118 -0.1189
  843MPD2    H112444   0.548   3.993  17.445 -0.3235  0.1666  0.5541
  843MPD2    H212445   0.482   3.581  17.388  1.2021 -2.3824 -0.0803
  843MPD2    H312446   0.462   3.813  17.317  2.1121  0.7034 -0.4504
  843MPD2     N12447   0.637   3.984  17.685 -0.1530  0.4958  0.2755
  843MPD2    H512448   0.661   4.068  17.632 -0.7632  2.4400  3.0995
  843MPD2    N112449   0.611   3.497  17.592 -0.0111 -0.3631 -0.6818
  843MPD2    H712450   0.586   3.435  17.516 -0.5725  1.0185 -1.6355
  844MPD2     C12451   3.728   2.451  16.470 -0.1366  0.0290 -0.1591
  844MPD2    C112452   3.771   2.545  16.385 -0.3958 -0.0758 -0.1243
  844MPD2    C212453   3.858   2.644  16.423  0.2987  0.2586  0.0555
  844MPD2    C312454   3.920   2.642  16.547 -0.2006  0.1524  1.1405
  844MPD2    C412455   3.881   2.539  16.631 -1.0355 -0.2853  0.3793
  844MPD2    C512456   3.791   2.442  16.590  0.8368  0.2762 -0.0111
  844MPD2     H12457   3.881   2.730  16.361  4.0644 -1.7328 -1.3498
  844MPD2    H112458   3.936   2.516  16.721 -0.8176 -0.5500  0.1780
  844MPD2    H212459   3.650   2.381  16.444 -2.3545  1.5381  2.3710
  844MPD2    H312460   3.771   2.357  16.654  1.5634  0.6147  0.6558
  844MPD2     N12461   4.038   2.727  16.578 -0.4122 -0.7067  0.3409
  844MPD2    H512462   4.080   2.769  16.495 -0.6868  1.9134  1.5607
  844MPD2    N112463   3.707   2.558  16.256  0.6519  0.5037  0.2874
  844MPD2    H712464   3.722   2.646  16.208  0.9075  0.5700  0.4847
  845MPD2     C12465   4.319   3.679  16.557 -0.5828 -0.4882 -0.0378
  845MPD2    C112466   4.297   3.645  16.687 -0.3711  0.2258 -0.5666
  845MPD2    C212467   4.288   3.507  16.723 -0.0158  0.1095  0.8289
  845MPD2    C312468   4.313   3.406  16.628 -0.0217 -0.2228 -0.3060
  845MPD2    C412469   4.336   3.444  16.496  0.0932 -1.1774  0.3815
  845MPD2    C512470   4.331   3.579  16.469 -0.1276 -0.3745  0.2686
  845MPD2     H12471   4.250   3.481  16.821 -1.7690  0.9790  0.3835
  845MPD2    H112472   4.357   3.368  16.421 -0.4970 -1.5779  0.6232
  845MPD2    H212473   4.342   3.781  16.531  1.3637 -0.8925  0.0871
  845MPD2    H312474   4.346   3.611  16.367  2.0997 -1.1194  0.3659
  845MPD2     N12475   4.313   3.268  16.671  0.2877  0.3083  0.0302
  845MPD2    H512476   4.333   3.258  16.770 -2.5868  1.9154  0.7958
  845MPD2    N112477   4.289   3.749  16.778 -0.2342 -0.2363 -0.1042
  845MPD2    H712478   4.309   3.841  16.740 -1.6179 -0.5495 -1.5795
  846MPD2     C12479   0.546   4.162  13.966 -0.7129 -0.0169 -0.4935
  846MPD2    C112480   0.453   4.134  13.870 -0.4325 -0.0280 -0.1109
  846MPD2    C212481   0.328   4.089  13.908 -0.0117 -0.2097  0.4962
  846MPD2    C312482   0.297   4.080  14.041  0.3967 -0.7707 -0.2054
  846MPD2    C412483   0.388   4.120  14.137 -0.5979  0.3377  0.0127
  846MPD2    C512484   0.512   4.163  14.101 -0.3129 -0.2985  0.4457
  846MPD2     H12485   0.255   4.062  13.832  1.3580 -0.3632 -0.7538
  846MPD2    H112486   0.364   4.118  14.243  0.3075 -3.6954  0.1198
  846MPD2    H212487   0.644   4.192  13.929  0.2800 -2.9183 -0.2368
  846MPD2    H312488   0.588   4.185  14.176 -0.4297  3.3464 -0.5075
  846MPD2     N12489   0.175   4.027  14.095  0.7937  0.4460  0.7793
  846MPD2    H512490   0.162   4.015  14.195 -1.2329  0.5966  0.5286
  846MPD2    N112491   0.490   4.144  13.730  0.9963 -0.5958  0.7341
  846MPD2    H712492   0.591   4.141  13.719  0.9685 -0.0328  0.3485
  847MPD2     C12493   0.536   4.730  14.565  0.5773 -0.1833 -0.3936
  847MPD2    C112494   0.592   0.109  14.610 -0.3018  0.5678 -0.0486
  847MPD2    C212495   0.728   0.118  14.612 -0.2597  0.2547  0.5013
  847MPD2    C312496   0.808   0.023  14.546  0.2440  0.1736  0.1699
  847MPD2    C412497   0.750   4.651  14.486 -0.3347 -0.2400 -0.6339
  847MPD2    C512498   0.616   4.641  14.494  0.0235  0.0049  0.7059
  847MPD2     H12499   0.782   0.201  14.657  1.0899 -0.7431  0.7342
  847MPD2    H112500   0.805   4.569  14.441  0.3456 -0.9040  1.4328
  847MPD2    H212501   0.435   4.708  14.598 -0.0521 -0.5273 -2.5476
  847MPD2    H312502   0.568   4.552  14.456 -0.6280  0.2512  0.9491
  847MPD2     N12503   0.950   0.019  14.560 -0.7351  0.1969 -0.1328
  847MPD2    H512504   1.004   4.670  14.549 -1.7831 -0.2337 -2.1123
  847MPD2    N112505   0.515   0.214  14.670  0.1833 -0.4045 -0.1941
  847MPD2    H712506   0.576   0.287  14.706  2.1530 -2.1032 -0.0956
  848MPD2     C12507   3.487   3.574  16.256  0.2530  0.2431  0.0236
  848MPD2    C112508   3.542   3.602  16.380 -0.0697  0.5373  0.0654
  848MPD2    C212509   3.542   3.733  16.421 -0.1701 -0.0612 -0.4545
  848MPD2    C312510   3.480   3.828  16.336  0.3548  0.2914 -0.3201
  848MPD2    C412511   3.429   3.793  16.217 -0.1248 -0.2014  0.1005
  848MPD2    C512512   3.440   3.666  16.173  0.5732 -0.5582  0.1323
  848MPD2     H12513   3.575   3.760  16.521 -1.1517  0.6553 -0.3187
  848MPD2    H112514   3.370   3.860  16.156 -0.9970 -0.1038  1.0619
  848MPD2    H212515   3.491   3.474  16.214 -5.0715  0.9579 -2.2117
  848MPD2    H312516   3.402   3.646  16.073  1.3256  1.1063 -0.4860
  848MPD2     N12517   3.469   3.963  16.365 -0.1047 -0.4248  0.1040
  848MPD2    H512518   3.423   4.021  16.295  1.3814  0.3932 -0.1978
  848MPD2    N112519   3.593   3.493  16.462  0.3945  0.0078  0.9594
  848MPD2    H712520   3.625   3.517  16.556  0.2253  2.0676  0.4985
  849MPD2     C12521   2.588   2.902  13.766  0.4490 -0.4337 -0.1397
  849MPD2    C112522   2.674   2.830  13.851 -0.3684 -0.4284  0.6646
  849MPD2    C212523   2.641   2.819  13.984 -0.2397  0.0576  0.2853
  849MPD2    C312524   2.520   2.863  14.030  0.5908 -0.4173 -0.3654
  849MPD2    C412525   2.436   2.934  13.947  0.0730 -0.0687 -0.0359
  849MPD2    C512526   2.471   2.949  13.818  0.9684  0.3808  0.9985
  849MPD2     H12527   2.717   2.786  14.053  0.9351  3.1792  0.4782
  849MPD2    H112528   2.340   2.974  13.980  0.1898 -0.2775  0.5505
  849MPD2    H212529   2.595   2.905  13.658 -0.7531 -0.7406 -0.2266
  849MPD2    H312530   2.397   2.974  13.743 -0.5257 -2.7004  1.4309
  849MPD2     N12531   2.499   2.826  14.164 -0.3652  0.2726 -0.5254
  849MPD2    H512532   2.576   2.780  14.212 -0.4722 -0.6942 -1.3006
  849MPD2    N112533   2.792   2.778  13.787 -0.5859 -0.2249 -0.0262
  849MPD2    H712534   2.812   2.794  13.689  0.7045 -0.0088  0.2715
  850MPD2     C12535   0.599   1.016  14.580  0.9273  0.6171  0.5924
  850MPD2    C112536   0.591   1.104  14.678 -0.1107 -0.4588 -0.4746
  850MPD2    C212537   0.715   1.156  14.717 -0.3005  0.0395 -0.3396
  850MPD2    C312538   0.830   1.119  14.654  0.9540 -0.1318  0.5882
  850MPD2    C412539   0.827   1.030  14.551  0.7514 -0.5541  0.3171
  850MPD2    C512540   0.709   0.974  14.514  1.2729 -0.6280  0.1499
  850MPD2     H12541   0.724   1.239  14.787 -0.5787 -1.2702  1.2550
  850MPD2    H112542   0.915   0.998  14.497  1.9464  1.7111  0.9457
  850MPD2    H212543   0.505   0.977  14.543  1.5821 -1.0436  0.6580
  850MPD2    H312544   0.703   0.910  14.426 -0.4065 -0.3445  0.0596
  850MPD2     N12545   0.959   1.153  14.709  0.2431 -0.9547  0.5448
  850MPD2    H512546   1.035   1.109  14.658 -0.5907  1.0647 -2.4434
  850MPD2    N112547   0.464   1.132  14.727  0.0490  0.2887  0.2144
  850MPD2    H712548   0.391   1.104  14.662  1.3618 -0.1721 -1.0696
  851MPD2     C12549   1.091   1.079  15.292 -0.1354  0.9470  0.3017
  851MPD2    C112550   0.969   1.022  15.249 -0.5077 -0.0027 -0.0046
  851MPD2    C212551   0.966   0.887  15.239  0.4293  0.2039 -0.0878
  851MPD2    C312552   1.067   0.810  15.277 -0.0029 -0.0061 -0.8435
  851MPD2    C412553   1.182   0.870  15.325  0.1824 -1.2736 -0.2721
  851MPD2    C512554   1.199   1.008  15.328  0.0352  0.2614  0.0865
  851MPD2     H12555   0.881   0.841  15.190 -0.1282  0.4987  0.6001
  851MPD2    H112556   1.264   0.814  15.368  0.4557  2.3664  3.9561
  851MPD2    H212557   1.105   1.187  15.302 -1.9762  1.0029  2.2854
  851MPD2    H312558   1.287   1.060  15.363  0.5125 -1.9737  2.2540
  851MPD2     N12559   1.058   0.669  15.271  0.4496  0.1870 -0.5659
  851MPD2    H512560   0.966   0.632  15.250 -0.0938  1.6470 -0.7777
  851MPD2    N112561   0.869   1.106  15.187  0.3131  1.2659 -0.3495
  851MPD2    H712562   0.890   1.205  15.182 -1.2274  1.5880 -0.4031
  852MPD2     C12563   0.284   3.577   9.805 -0.1299 -0.0488  0.3377
  852MPD2    C112564   0.256   3.551   9.938 -0.2295  0.5034  0.1034
  852MPD2    C212565   0.359   3.571  10.026  0.6413 -0.4726 -0.1163
  852MPD2    C312566   0.471   3.640   9.991  0.4898  0.7590 -0.7561
  852MPD2    C412567   0.494   3.682   9.858 -0.4402  0.5200 -0.7581
  852MPD2    C512568   0.397   3.636   9.767  0.5948 -0.5158 -0.2476
  852MPD2     H12569   0.344   3.538  10.128 -0.4861 -0.8032 -0.3919
  852MPD2    H112570   0.580   3.736   9.822  1.3200 -0.6514  1.6939
  852MPD2    H212571   0.215   3.544   9.728 -0.9867  2.5017  0.0054
  852MPD2    H312572   0.407   3.660   9.662 -0.7252 -1.8741 -0.6845
  852MPD2     N12573   0.564   3.657  10.091 -0.1966 -0.1618 -0.7506
  852MPD2    H512574   0.532   3.620  10.179  1.2089  3.6912  1.4099
  852MPD2    N112575   0.136   3.488   9.983  0.0097 -0.8511  0.5659
  852MPD2    H712576   0.132   3.473  10.083 -1.2042 -1.0677  0.4884
  853MPD2     C12577   1.280   3.743  12.008 -0.1868 -0.0334  0.3160
  853MPD2    C112578   1.237   3.618  12.004  0.4428  0.5001 -0.4778
  853MPD2    C212579   1.304   3.513  11.933  0.1018  0.0555 -0.3906
  853MPD2    C312580   1.406   3.553  11.847 -0.2248 -0.3447  0.0409
  853MPD2    C412581   1.444   3.685  11.841  0.1494 -0.4021  0.0837
  853MPD2    C512582   1.389   3.780  11.927 -0.1363  0.1140  0.6459
  853MPD2     H12583   1.254   3.417  11.931  0.9050 -0.4501  2.7054
  853MPD2    H112584   1.530   3.716  11.784  0.8668 -0.7494  0.9673
  853MPD2    H212585   1.236   3.818  12.073  0.7308  1.0946 -0.3504
  853MPD2    H312586   1.423   3.882  11.925  0.1911 -0.0158 -0.2620
  853MPD2     N12587   1.474   3.460  11.758 -0.4254  0.5785 -0.2689
  853MPD2    H512588   1.538   3.495  11.688 -0.1608  1.0285  0.1974
  853MPD2    N112589   1.120   3.605  12.082  0.8597  0.3597  0.9206
  853MPD2    H712590   1.090   3.693  12.123  0.8584  0.5900  0.4320
  854MPD2     C12591   3.386   3.862  13.090 -0.6916  0.1267 -0.4201
  854MPD2    C112592   3.445   3.854  12.967  0.2554  0.1426  0.4621
  854MPD2    C212593   3.515   3.739  12.937  0.2860 -0.0103  0.4713
  854MPD2    C312594   3.529   3.635  13.027 -0.0857  0.1821  0.1657
  854MPD2    C412595   3.468   3.653  13.152  1.1444 -0.7672 -0.5192
  854MPD2    C512596   3.398   3.762  13.184 -0.3225  0.1866 -0.2488
  854MPD2     H12597   3.565   3.738  12.841 -1.1815  2.7463 -0.2997
  854MPD2    H112598   3.495   3.580  13.228 -1.1866 -0.3300  0.7283
  854MPD2    H212599   3.324   3.947  13.116 -1.1698 -0.6588  0.9682
  854MPD2    H312600   3.359   3.771  13.285  1.3815 -2.2515  0.6425
  854MPD2     N12601   3.605   3.516  13.001 -0.0543 -0.1401 -0.2008
  854MPD2    H512602   3.615   3.446  13.074  1.9150 -2.0609 -2.3084
  854MPD2    N112603   3.422   3.963  12.882  0.2444  0.4491  0.5162
  854MPD2    H712604   3.369   4.041  12.920  1.4771  1.4253  0.2343
  855MPD2     C12605   4.082   3.462  13.610  1.0888  0.7044  0.4579
  855MPD2    C112606   4.070   3.335  13.571 -0.2316 -0.3040 -0.1646
  855MPD2    C212607   4.033   3.302  13.444  0.1845  0.1571 -0.1757
  855MPD2    C312608   4.009   3.409  13.354  0.4087  0.4815 -0.3526
  855MPD2    C412609   4.016   3.536  13.401 -0.8125 -0.8925 -0.2321
  855MPD2    C512610   4.054   3.565  13.527 -0.0526 -0.3160 -0.4925
  855MPD2     H12611   4.023   3.197  13.422 -1.1174  0.2636 -0.0980
  855MPD2    H112612   3.981   3.623  13.347 -0.3313  0.7783  2.1467
  855MPD2    H212613   4.104   3.489  13.713 -0.7574  1.8477  0.5449
  855MPD2    H312614   4.049   3.665  13.568  2.4930 -0.6609  0.6555
  855MPD2     N12615   3.977   3.395  13.220 -0.0892  0.0848  0.2787
  855MPD2    H512616   3.956   3.480  13.170  0.9909  1.1827  1.6710
  855MPD2    N112617   4.090   3.229  13.669  0.9416  0.0408 -0.3170
  855MPD2    H712618   4.042   3.142  13.651  0.0533  0.1062  1.7155
  856MPD2     C12619   2.223   3.630  13.779 -0.1322  0.4156 -0.6997
  856MPD2    C112620   2.247   3.755  13.725  0.1359  0.3348  0.7857
  856MPD2    C212621   2.139   3.834  13.683  0.0121 -0.4000  0.1335
  856MPD2    C312622   2.005   3.790  13.707  0.1079  0.0770 -0.1979
  856MPD2    C412623   1.982   3.666  13.765 -0.1589  0.9789  0.4826
  856MPD2    C512624   2.092   3.589  13.793  0.4206 -0.3588 -0.1508
  856MPD2     H12625   2.171   3.930  13.643 -0.8157  0.4258  1.4816
  856MPD2    H112626   1.885   3.625  13.790 -0.2231  0.9720  0.2147
  856MPD2    H212627   2.303   3.562  13.804 -1.0847 -0.8735 -1.1686
  856MPD2    H312628   2.067   3.490  13.829  0.5784  0.7116  2.9410
  856MPD2     N12629   1.894   3.873  13.676 -0.9774  0.1266 -0.0922
  856MPD2    H512630   1.799   3.840  13.688 -0.4200 -1.0358  1.1429
  856MPD2    N112631   2.380   3.813  13.714 -0.2363 -0.3789  0.2748
  856MPD2    H712632   2.390   3.904  13.670  1.8536 -0.5390  0.4563
  857MPD2     C12633   3.282   1.773  12.587 -0.0553 -0.1447  0.8085
  857MPD2    C112634   3.238   1.764  12.713  0.7065 -0.2009  0.3965
  857MPD2    C212635   3.174   1.879  12.763  0.4743 -0.2029 -0.1628
  857MPD2    C312636   3.162   1.998  12.696 -0.1624 -0.4847 -0.2294
  857MPD2    C412637   3.197   2.001  12.564 -0.5682 -0.2809 -0.3975
  857MPD2    C512638   3.256   1.889  12.515  0.3429 -0.3107  0.7653
  857MPD2     H12639   3.138   1.878  12.865  4.5149  1.1775  1.3023
  857MPD2    H112640   3.176   2.085  12.498 -1.2807  0.1213  0.3318
  857MPD2    H212641   3.343   1.695  12.543  1.6523  0.3099  2.3504
  857MPD2    H312642   3.298   1.883  12.416 -0.7567 -0.4101  0.3051
  857MPD2     N12643   3.096   2.109  12.765  0.4830  0.1720 -0.3121
  857MPD2    H512644   3.085   2.098  12.866  0.6308  1.9891 -0.1069
  857MPD2    N112645   3.262   1.645  12.783 -0.0494  0.5045 -0.0593
  857MPD2    H712646   3.313   1.567  12.743 -2.1841 -0.1095 -1.5429
  858MPD2     C12647   3.713   0.263  16.400  0.1779  0.6666 -0.3025
  858MPD2    C112648   3.847   0.300  16.408  0.0203 -0.3661 -0.0010
  858MPD2    C212649   3.879   0.392  16.507  0.0607  0.0086 -0.5132
  858MPD2    C312650   3.787   0.435  16.600 -0.3817 -0.7734  0.6862
  858MPD2    C412651   3.653   0.410  16.584  0.4849 -0.2057  0.4174
  858MPD2    C512652   3.622   0.329  16.482  0.0396 -0.8224  0.5535
  858MPD2     H12653   3.984   0.420  16.515 -0.8373  2.5952  1.9693
  858MPD2    H112654   3.576   0.462  16.639 -2.2126 -1.0660 -2.4904
  858MPD2    H212655   3.677   0.190  16.329 -1.0797  0.4792  0.5374
  858MPD2    H312656   3.518   0.298  16.478  0.0910 -0.6324 -2.5000
  858MPD2     N12657   3.828   0.522  16.699  0.5981 -1.0213 -0.1149
  858MPD2    H512658   3.755   0.574  16.746  1.7486  1.5388 -1.1395
  858MPD2    N112659   3.938   0.232  16.324 -0.2282 -0.2030 -0.2136
  858MPD2    H712660   3.904   0.157  16.266 -1.7850  0.9518 -0.7902
  859MPD2     C12661   2.641   2.962  15.543  0.6818 -0.5680  1.1161
  859MPD2    C112662   2.626   2.926  15.414 -0.2580 -0.0203  0.5396
  859MPD2    C212663   2.584   2.792  15.398 -0.7596  0.3220  0.2756
  859MPD2    C312664   2.526   2.722  15.499 -0.1830 -0.1003 -0.1927
  859MPD2    C412665   2.551   2.759  15.628 -0.3566  0.8416 -0.0813
  859MPD2    C512666   2.613   2.878  15.648 -0.6674  0.2103 -0.0884
  859MPD2     H12667   2.582   2.765  15.293  4.2885  0.6388  0.0915
  859MPD2    H112668   2.509   2.711  15.716  0.3670 -1.9042 -1.2300
  859MPD2    H212669   2.681   3.059  15.569 -0.6258  0.3289 -0.2589
  859MPD2    H312670   2.649   2.904  15.747  2.8809  0.2770 -1.3792
  859MPD2     N12671   2.452   2.602  15.477 -0.0272 -0.3091 -0.3410
  859MPD2    H512672   2.437   2.551  15.564 -0.5732  3.2740  1.6767
  859MPD2    N112673   2.668   3.016  15.310  0.0910  0.6629  0.8203
  859MPD2    H712674   2.682   3.110  15.346 -0.2046  1.5659 -1.4359
  860MPD2     C12675   4.579   3.293  11.167 -0.6758  0.1914 -0.1526
  860MPD2    C112676   4.629   3.365  11.273  0.1868  0.7697 -0.4153
  860MPD2    C212677   4.564   3.351  11.394  0.7412  0.8113 -0.1173
  860MPD2    C312678   4.464   3.271  11.410 -0.1249  0.0256 -0.2229
  860MPD2    C412679   4.402   3.209  11.311  0.4954  0.2190 -0.1228
  860MPD2    C512680   4.466   3.217  11.187  0.1299  0.4901  0.6886
  860MPD2     H12681   4.616   3.392  11.480 -1.7549  0.3186  1.6263
  860MPD2    H112682   4.307   3.156  11.317  1.0197 -0.4981  1.5577
  860MPD2    H212683   4.627   3.289  11.070 -1.5693 -0.8098 -0.5609
  860MPD2    H312684   4.425   3.163  11.102 -1.5477 -0.0219  1.8432
  860MPD2     N12685   4.418   3.275  11.547 -0.8958  0.0564 -0.2075
  860MPD2    H512686   4.469   3.332  11.615  0.6779 -0.8404 -0.6393
  860MPD2    N112687   0.010   3.433  11.283 -0.0104 -0.2613  0.1413
  860MPD2    H712688   0.028   3.479  11.372  0.5939  0.2561 -0.2475
  861MPD2     C12689   3.468   1.242  11.506 -0.1405 -0.0076  0.0750
  861MPD2    C112690   3.574   1.285  11.422  0.3753 -0.3903 -0.1637
  861MPD2    C212691   3.539   1.305  11.292 -0.4186  0.5238 -0.4388
  861MPD2    C312692   3.410   1.283  11.243 -0.1946 -0.3803 -0.3917
  861MPD2    C412693   3.314   1.237  11.331  0.5786  0.6248 -0.3932
  861MPD2    C512694   3.338   1.219  11.462  0.0490 -0.0052  0.1330
  861MPD2     H12695   3.611   1.338  11.217 -1.8035 -0.1810 -2.0621
  861MPD2    H112696   3.211   1.219  11.301  1.1975  0.2932 -2.3850
  861MPD2    H212697   3.489   1.214  11.609 -0.9093 -0.7566  0.0284
  861MPD2    H312698   3.259   1.181  11.525 -0.9008 -1.6048 -1.9900
  861MPD2     N12699   3.367   1.303  11.109 -0.1724  0.1883  0.6443
  861MPD2    H512700   3.270   1.296  11.081 -0.9238  0.9433  3.0648
  861MPD2    N112701   3.700   1.317  11.469 -0.1493 -0.3867 -0.0427
  861MPD2    H712702   3.768   1.333  11.396  0.6543  2.3275  1.3071
  862MPD2     C12703   2.733   1.337  10.769  0.4322 -0.1345  0.0642
  862MPD2    C112704   2.818   1.317  10.879  0.1947 -0.0820 -0.5249
  862MPD2    C212705   2.771   1.251  10.994  0.1211 -0.0239  0.7831
  862MPD2    C312706   2.642   1.200  10.989 -0.0148  0.6727 -0.2163
  862MPD2    C412707   2.556   1.233  10.884 -0.1340 -0.4647  0.4130
  862MPD2    C512708   2.601   1.306  10.776 -0.2217 -0.4331  0.3682
  862MPD2     H12709   2.835   1.256  11.081  0.1782  0.2723  0.7261
  862MPD2    H112710   2.456   1.192  10.874  0.1558 -0.9004 -0.5987
  862MPD2    H212711   2.769   1.388  10.680 -3.4375  0.9876 -0.8831
  862MPD2    H312712   2.536   1.336  10.695 -0.9423  1.9928  1.8525
  862MPD2     N12713   2.593   1.115  11.092 -0.1505  1.0328 -0.3085
  862MPD2    H512714   2.492   1.112  11.103 -0.2998  0.4894 -1.8939
  862MPD2    N112715   2.959   1.351  10.879  0.5380  0.4516 -0.3275
  862MPD2    H712716   3.008   1.329  10.966  1.5936  0.1572 -0.9988
  863MPD2     C12717   2.614   0.340  16.478  0.4008  0.3225 -0.4080
  863MPD2    C112718   2.522   0.263  16.549 -0.3035 -0.4651  0.0132
  863MPD2    C212719   2.568   0.174  16.639 -0.2443 -0.7284  0.2818
  863MPD2    C312720   2.699   0.168  16.678 -0.0131  0.1791  0.1785
  863MPD2    C412721   2.793   0.249  16.612  0.0644  0.1996  0.4702
  863MPD2    C512722   2.751   0.335  16.512  0.0000 -0.0973 -0.3388
  863MPD2     H12723   2.508   0.093  16.676 -0.3186 -0.3365  1.0300
  863MPD2    H112724   2.899   0.236  16.627  0.1678  0.4003 -0.0900
  863MPD2    H212725   2.574   0.415  16.411  1.2524  0.7372 -0.4557
  863MPD2    H312726   2.826   0.393  16.460 -0.2881 -0.8145 -1.5620
  863MPD2     N12727   2.745   0.093  16.783 -0.2187  0.2774  0.4697
  863MPD2    H512728   2.836   0.116  16.821 -0.3065  0.4503  0.5803
  863MPD2    N112729   2.385   0.281  16.514  0.0450 -0.1699  0.6946
  863MPD2    H712730   2.364   0.344  16.437  0.7217 -0.2065  0.4794
  864MPD2     C12731   3.082   0.896  17.171  0.4811 -0.8818  0.7572
  864MPD2    C112732   3.063   0.904  17.035  0.1711 -0.2988  0.3114
  864MPD2    C212733   3.146   0.978  16.953 -0.4563  0.2217  0.2380
  864MPD2    C312734   3.249   1.051  17.013 -0.2824  0.2624 -0.7794
  864MPD2    C412735   3.258   1.055  17.153  0.2579  0.3478  0.0382
  864MPD2    C512736   3.181   0.977  17.227 -0.5202 -0.1470 -0.2906
  864MPD2     H12737   3.141   0.981  16.845 -1.5060  0.1423  0.2865
  864MPD2    H112738   3.329   1.113  17.211 -0.4130 -0.0718  1.2705
  864MPD2    H212739   3.028   0.836  17.243 -1.7505  1.1107  0.7297
  864MPD2    H312740   3.184   0.970  17.335 -0.4613 -2.2907 -0.4366
  864MPD2     N12741   3.335   1.129  16.938 -0.1236  0.5059 -0.2730
  864MPD2    H512742   3.419   1.165  16.982 -2.1307  1.5416  2.7093
  864MPD2    N112743   2.955   0.826  16.987 -0.6004  1.0339 -0.3198
  864MPD2    H712744   2.903   0.778  17.060  1.2364 -0.5704 -0.0588
  865MPD2     C12745   3.107   1.749  16.165 -0.4571 -0.2824  0.2394
  865MPD2    C112746   3.043   1.643  16.225 -0.0912 -0.1732 -0.2355
  865MPD2    C212747   3.112   1.563  16.319  0.7986 -0.4718  0.2534
  865MPD2    C312748   3.238   1.606  16.364  0.6866  0.4147  0.1637
  865MPD2    C412749   3.291   1.721  16.318  0.1564  0.0824 -0.0762
  865MPD2    C512750   3.223   1.795  16.225  0.3083 -0.6068 -0.8790
  865MPD2     H12751   3.074   1.469  16.358  0.5693 -0.6084 -0.2981
  865MPD2    H112752   3.386   1.761  16.351 -0.5405  1.0593  0.7408
  865MPD2    H212753   3.064   1.801  16.080  2.2451  0.9699 -0.3674
  865MPD2    H312754   3.271   1.883  16.184  0.6975 -1.2523 -1.8117
  865MPD2     N12755   3.307   1.523  16.457 -0.1542  0.3115  0.5883
  865MPD2    H512756   3.259   1.437  16.482  0.7770 -0.6752 -0.9826
  865MPD2    N112757   2.928   1.601  16.159 -0.2928  0.1219 -0.1620
  865MPD2    H712758   2.896   1.650  16.077  0.5070  1.0659  0.0976
  866MPD2     C12759   4.604   1.619  10.791  0.2233 -0.2531  0.0249
  866MPD2    C112760   4.518   1.515  10.809  0.3745  0.1999 -0.0918
  866MPD2    C212761   4.386   1.541  10.843 -0.6556  0.3798 -0.4168
  866MPD2    C312762   4.342   1.674  10.856  0.1487  1.2479  0.5326
  866MPD2    C412763   4.423   1.779  10.828 -0.5189 -0.5099 -1.0963
  866MPD2    C512764   4.553   1.744  10.787  0.2302 -0.5230 -0.1358
  866MPD2     H12765   4.323   1.455  10.867  0.3332 -0.6483 -1.5080
  866MPD2    H112766   4.387   1.881  10.825 -1.2848 -0.8212 -2.4294
  866MPD2    H212767   4.706   1.592  10.768 -0.2096 -1.6903 -0.2051
  866MPD2    H312768   4.618   1.819  10.743 -0.3753 -0.8845 -1.6802
  866MPD2     N12769   4.211   1.719  10.890  0.6474 -0.5983  0.0284
  866MPD2    H512770   4.197   1.818  10.873  1.1156 -0.7319 -1.1865
  866MPD2    N112771   4.580   1.391  10.814 -0.0145 -0.3374  0.2998
  866MPD2    H712772   4.681   1.393  10.825 -0.0198 -0.6044  0.3889
  867MPD2     C12773   1.274   1.001  16.718 -0.5253 -0.3804 -0.2686
  867MPD2    C112774   1.379   1.015  16.803  0.2260 -0.6728 -0.0406
  867MPD2    C212775   1.370   1.115  16.896 -0.1050 -0.6551 -0.3462
  867MPD2    C312776   1.256   1.193  16.899  0.2683 -0.1202 -0.0276
  867MPD2    C412777   1.151   1.174  16.809  0.1664  0.2997 -1.0672
  867MPD2    C512778   1.158   1.071  16.727 -0.4845  0.2139 -0.1114
  867MPD2     H12779   1.452   1.133  16.965 -1.9031  0.5031  1.5088
  867MPD2    H112780   1.064   1.238  16.800 -0.0925 -0.4880 -4.3137
  867MPD2    H212781   1.266   0.922  16.644 -3.5779  1.1392 -1.5550
  867MPD2    H312782   1.081   1.064  16.651  1.4889  0.3457 -2.1248
  867MPD2     N12783   1.243   1.299  16.985  0.2305 -0.5557  0.5814
  867MPD2    H512784   1.164   1.361  16.967  3.0048  2.6208 -0.6331
  867MPD2    N112785   1.487   0.928  16.781 -0.6039 -0.6613 -0.3433
  867MPD2    H712786   1.476   0.869  16.699  0.5875  0.6743 -1.4478
  868MPD2     C12787   3.430   0.284  13.270  0.1721 -1.2420 -0.2747
  868MPD2    C112788   3.461   0.177  13.348  0.2871 -0.3735  0.1257
  868MPD2    C212789   3.430   0.186  13.484  0.6620  0.5647 -0.5420
  868MPD2    C312790   3.348   0.285  13.533 -0.1388  0.5864  0.0754
  868MPD2    C412791   3.320   0.396  13.451 -0.9488  0.1710 -0.0703
  868MPD2    C512792   3.351   0.390  13.316 -0.3038  0.0713  0.2655
  868MPD2     H12793   3.460   0.109  13.554  0.3537  0.6973 -0.2639
  868MPD2    H112794   3.267   0.486  13.480  0.7630  1.0685  0.3016
  868MPD2    H212795   3.456   0.277  13.165  0.0717 -1.4551 -0.2846
  868MPD2    H312796   3.344   0.476  13.249  2.5919  2.0465  2.4859
  868MPD2     N12797   3.315   0.282  13.671  0.8741 -0.4901 -0.1152
  868MPD2    H512798   3.348   0.203  13.725  2.5319  0.9714  1.0507
  868MPD2    N112799   3.542   0.074  13.282 -0.1938  0.1457  0.0492
  868MPD2    H712800   3.569   0.093  13.186 -2.9620  0.2916 -0.6914
  869MPD2     C12801   4.268   2.623   0.575  0.4218  0.0420  0.3939
  869MPD2    C112802   4.358   2.544   0.520  0.2709 -0.6015  0.0803
  869MPD2    C212803   4.494   2.576   0.527  0.2338  0.2717  0.6108
  869MPD2    C312804   4.539   2.679   0.602 -0.0875  0.9000 -0.4095
  869MPD2    C412805   4.448   2.764   0.662 -0.2841 -0.0367 -0.0435
  869MPD2    C512806   4.311   2.733   0.642  0.3443 -0.0323  0.3700
  869MPD2     H12807   4.563   2.505   0.484 -0.7804  0.5222 -1.4315
  869MPD2    H112808   4.472   2.851   0.722  1.9416 -0.8737  0.2797
  869MPD2    H212809   4.161   2.607   0.579  0.2604  1.1685  0.4672
  869MPD2    H312810   4.229   2.789   0.686  0.7478 -1.6692  3.2232
  869MPD2     N12811   4.676   2.712   0.619 -0.7913  0.5838 -0.6574
  869MPD2    H512812   4.696   2.796   0.672 -1.5777  0.1046  0.3813
  869MPD2    N112813   4.310   2.425   0.459 -0.2628 -0.6760  0.4045
  869MPD2    H712814   4.216   2.390   0.473 -1.1677  1.8000  0.5530
  870MPD2     C12815   4.297   2.312   1.264  0.0303 -1.1231 -0.3034
  870MPD2    C112816   4.315   2.220   1.163 -0.9989  0.1093 -0.3732
  870MPD2    C212817   4.204   2.156   1.104  0.4296  0.8441 -0.3057
  870MPD2    C312818   4.076   2.199   1.144 -0.4194 -0.3309  0.8213
  870MPD2    C412819   4.061   2.300   1.238  0.3579  0.0775  0.2333
  870MPD2    C512820   4.171   2.356   1.295  0.1163  0.3795  0.5539
  870MPD2     H12821   4.223   2.071   1.038 -2.0412 -0.6447  0.8821
  870MPD2    H112822   3.959   2.330   1.255  0.0322 -2.9274  3.5095
  870MPD2    H212823   4.382   2.360   1.311 -0.5781  0.0924 -0.4377
  870MPD2    H312824   4.161   2.423   1.379  2.4128  1.4202 -0.0052
  870MPD2     N12825   3.967   2.123   1.093 -0.3420  0.2483 -0.8933
  870MPD2    H512826   3.986   2.051   1.023  1.2162 -0.7731  0.5887
  870MPD2    N112827   4.451   2.176   1.145  0.1507  0.2157 -0.0684
  870MPD2    H712828   4.522   2.211   1.209  0.9131  0.4995 -1.0813
  871MPD2     C12829   0.706   1.398  16.065 -0.1874  0.0288 -0.0255
  871MPD2    C112830   0.657   1.315  16.168  0.8036  0.0626 -0.3494
  871MPD2    C212831   0.676   1.179  16.147  0.5067 -0.3247  0.0194
  871MPD2    C312832   0.738   1.128  16.030 -0.8131 -0.3690  0.1942
  871MPD2    C412833   0.786   1.215  15.935 -0.3918 -0.1112  0.1344
  871MPD2    C512834   0.767   1.351  15.951 -0.5805 -0.1104  0.2637
  871MPD2     H12835   0.652   1.107  16.224 -1.9489  1.2971  0.7444
  871MPD2    H112836   0.816   1.175  15.839  0.8674 -2.4740  1.5337
  871MPD2    H212837   0.695   1.506  16.065  1.5604  0.1998  1.2778
  871MPD2    H312838   0.790   1.419  15.870 -1.7494 -0.8336 -0.6730
  871MPD2     N12839   0.763   0.989  16.021  0.2934  0.3927  0.5769
  871MPD2    H512840   0.723   0.934  16.097  3.6510 -0.1688  1.9011
  871MPD2    N112841   0.592   1.379  16.268  0.1157  0.2507  0.0305
  871MPD2    H712842   0.612   1.479  16.273  0.7346  0.0111  2.3992
  872MPD2     C12843   1.715   3.418  13.987 -0.6604 -0.1656  0.6448
  872MPD2    C112844   1.666   3.388  13.860 -0.3455  0.2537  0.0659
  872MPD2    C212845   1.542   3.429  13.823  0.4211 -0.6934 -0.0612
  872MPD2    C312846   1.453   3.475  13.916 -0.8862  0.3912 -0.2985
  872MPD2    C412847   1.498   3.501  14.048  0.4838  0.0924  0.5917
  872MPD2    C512848   1.628   3.475  14.079 -0.3422 -0.1247 -0.2631
  872MPD2     H12849   1.509   3.423  13.719 -0.7519 -2.7510  0.4270
  872MPD2    H112850   1.427   3.542  14.119 -1.4233 -0.1732 -1.1593
  872MPD2    H212851   1.817   3.400  14.018  0.3913 -0.2750 -2.8473
  872MPD2    H312852   1.676   3.490  14.175  1.8026 -0.5494 -1.2726
  872MPD2     N12853   1.318   3.508  13.887 -0.3340 -0.0056  0.0551
  872MPD2    H512854   1.255   3.542  13.959 -2.5006 -0.9826 -1.3618
  872MPD2    N112855   1.753   3.345  13.754  0.7270 -0.0825 -0.1605
  872MPD2    H712856   1.718   3.330  13.660 -0.4253  0.0515  0.2505
  873MPD2     C12857   3.783   3.546   0.801 -0.3475 -0.3143 -0.2842
  873MPD2    C112858   3.649   3.568   0.807 -0.0307 -0.1306  0.1302
  873MPD2    C212859   3.556   3.458   0.799  0.2701 -0.5777  0.3282
  873MPD2    C312860   3.607   3.328   0.790 -0.1892  0.1204  0.7909
  873MPD2    C412861   3.740   3.311   0.768  0.0116 -0.0107  0.6313
  873MPD2    C512862   3.828   3.418   0.770 -0.1833  0.6628 -0.2898
  873MPD2     H12863   3.449   3.476   0.801  0.3290 -0.3317  1.0589
  873MPD2    H112864   3.776   3.210   0.782 -1.6555 -0.6501  0.2669
  873MPD2    H212865   3.855   3.627   0.807 -0.9844  0.1643  0.8974
  873MPD2    H312866   3.934   3.397   0.780 -0.6157 -2.1943 -1.6982
  873MPD2     N12867   3.524   3.215   0.798 -0.2914 -0.3567  0.3319
  873MPD2    H512868   3.558   3.120   0.790  1.6295  0.5025 -1.7152
  873MPD2    N112869   3.605   3.698   0.854  0.0762 -0.0921  0.0293
  873MPD2    H712870   3.682   3.763   0.866  0.1416 -0.2969  0.7454
  874MPD2     C12871   2.720   4.156  16.263  0.1026 -0.7336  0.1628
  874MPD2    C112872   2.813   4.066  16.301 -0.1007  0.0107 -0.8025
  874MPD2    C212873   2.939   4.102  16.344 -0.1772  0.7302 -0.0798
  874MPD2    C312874   2.969   4.234  16.360 -0.1422 -0.6879  0.4964
  874MPD2    C412875   2.877   4.326  16.326 -0.5410  0.4354  0.0394
  874MPD2    C512876   2.750   4.289  16.281 -0.7307  0.3753 -0.5153
  874MPD2     H12877   3.019   4.029  16.352  0.7365  1.5603 -1.6864
  874MPD2    H112878   2.897   4.433  16.328 -0.0492  0.3579 -0.6288
  874MPD2    H212879   2.624   4.121  16.228 -0.5306  0.6033  0.5759
  874MPD2    H312880   2.679   4.363  16.245 -1.0522 -0.2228 -1.1085
  874MPD2     N12881   3.106   4.255  16.385  0.3130  0.3925  0.3108
  874MPD2    H512882   3.153   4.174  16.424  0.9586  0.1091 -1.0604
  874MPD2    N112883   2.765   3.931  16.290 -0.0893 -0.4393  0.3727
  874MPD2    H712884   2.666   3.927  16.270 -0.7440  0.8058  3.2022
  875MPD2     C12885   4.084   1.852  14.834 -0.2337  0.4874 -0.1506
  875MPD2    C112886   3.965   1.879  14.904  0.8201 -0.3389 -0.5345
  875MPD2    C212887   3.970   1.962  15.021  0.0186  0.0715  0.6103
  875MPD2    C312888   4.091   2.010  15.065  0.1783  0.2842  0.2143
  875MPD2    C412889   4.203   1.980  14.996  0.0172  0.1402 -0.2648
  875MPD2    C512890   4.202   1.901  14.878  0.2212  0.0679 -0.2841
  875MPD2     H12891   3.881   2.002  15.068  0.7103  0.4181  1.6393
  875MPD2    H112892   4.294   2.031  15.026  0.2603 -0.7596  0.5359
  875MPD2    H212893   4.091   1.799  14.740 -0.1501 -0.7655  0.5583
  875MPD2    H312894   4.297   1.909  14.826 -1.1924  2.4263 -2.4949
  875MPD2     N12895   4.111   2.087  15.178 -0.3150  0.5709 -0.5129
  875MPD2    H512896   4.204   2.125  15.196 -1.0174  1.3422  1.4729
  875MPD2    N112897   3.848   1.820  14.869 -0.2959  0.7284 -0.2816
  875MPD2    H712898   3.770   1.858  14.921 -1.8001 -0.9285 -1.3171
  876MPD2     C12899   2.588   3.473  16.004  0.0083 -0.2347 -0.5399
  876MPD2    C112900   2.711   3.437  15.955  0.3155  0.1059  0.2170
  876MPD2    C212901   2.768   3.326  16.016 -0.4154  0.3337  0.3721
  876MPD2    C312902   2.700   3.256  16.118  0.0554  0.6192  0.2096
  876MPD2    C412903   2.566   3.288  16.150  0.2478  0.1335 -0.0950
  876MPD2    C512904   2.525   3.401  16.094 -0.7712 -0.9816 -0.1699
  876MPD2     H12905   2.874   3.309  16.000 -0.7045  0.5540 -1.7659
  876MPD2    H112906   2.495   3.239  16.216  0.4906 -0.0848  0.0056
  876MPD2    H212907   2.535   3.559  15.965 -0.3966  1.5261  3.9653
  876MPD2    H312908   2.423   3.432  16.114 -0.4711  1.9958 -3.0823
  876MPD2     N12909   2.770   3.151  16.171 -0.3910 -0.1592  0.3121
  876MPD2    H512910   2.868   3.144  16.145 -0.1835  1.3811  0.6754
  876MPD2    N112911   2.773   3.509  15.853 -0.0341 -0.0785 -0.5217
  876MPD2    H712912   2.716   3.585  15.818  0.9222  1.0390  0.3744
  877MPD2     C12913   2.636   3.619  15.117 -0.7854  0.0036  0.8233
  877MPD2    C112914   2.769   3.644  15.129  0.3615 -0.1930 -0.1378
  877MPD2    C212915   2.848   3.664  15.018 -0.1558 -0.0421 -0.4443
  877MPD2    C312916   2.795   3.637  14.889 -0.7000 -0.8153 -0.0256
  877MPD2    C412917   2.662   3.613  14.883 -0.7924  0.3917 -0.0212
  877MPD2    C512918   2.582   3.609  14.991 -0.0756  0.1777  0.1461
  877MPD2     H12919   2.955   3.680  15.033 -0.1217 -0.8466  0.1858
  877MPD2    H112920   2.618   3.593  14.786 -1.0401  3.7210 -0.5922
  877MPD2    H212921   2.568   3.633  15.200 -1.4430 -1.8103  0.5973
  877MPD2    H312922   2.478   3.591  14.967  0.0318 -1.1151  0.6683
  877MPD2     N12923   2.865   3.646  14.768 -0.6673  0.5160 -0.0368
  877MPD2    H512924   2.825   3.584  14.698 -0.5929 -0.9384  1.2404
  877MPD2    N112925   2.832   3.674  15.250  0.0138  0.0044  0.1934
  877MPD2    H712926   2.930   3.700  15.250 -0.7668  2.9445 -0.2008
  878MPD2     C12927   2.709   2.378  13.080  0.4272  0.3479 -0.2014
  878MPD2    C112928   2.731   2.507  13.111 -0.0553  0.1607 -0.3957
  878MPD2    C212929   2.801   2.539  13.231  0.6103 -0.5306 -0.3697
  878MPD2    C312930   2.846   2.445  13.319 -0.6736 -0.8403  0.2917
  878MPD2    C412931   2.825   2.315  13.280  0.3372  0.1518 -0.6498
  878MPD2    C512932   2.757   2.281  13.167 -0.2966  0.1354 -0.1587
  878MPD2     H12933   2.815   2.642  13.262  0.2874  0.4162 -3.3611
  878MPD2    H112934   2.833   2.237  13.356 -3.5642 -0.9239 -1.3351
  878MPD2    H212935   2.653   2.354  12.990  0.1713 -0.2205  0.1066
  878MPD2    H312936   2.733   2.176  13.152 -1.2926  0.4214 -0.5557
  878MPD2     N12937   2.900   2.485  13.441  0.1253  0.2150 -0.2187
  878MPD2    H512938   2.893   2.582  13.469  0.4023  0.1210  0.1740
  878MPD2    N112939   2.687   2.609  13.014 -0.5668 -0.3060  0.5851
  878MPD2    H712940   2.640   2.574  12.931 -2.6824  3.2699  0.2541
  879MPD2     C12941   3.123   4.597  16.774  0.8519  0.2567 -0.5271
  879MPD2    C112942   3.159   4.483  16.838 -0.1034 -0.4904  0.0547
  879MPD2    C212943   3.093   4.363  16.809  0.0738  0.9851 -1.0080
  879MPD2    C312944   2.979   4.362  16.736 -0.3717 -0.8460  0.0423
  879MPD2    C412945   2.940   4.485  16.680 -0.0143 -0.2488 -0.8417
  879MPD2    C512946   3.020   4.598  16.690 -0.2705  0.1974  0.8897
  879MPD2     H12947   3.119   4.273  16.865 -1.4173  0.9487 -0.3526
  879MPD2    H112948   2.855   4.500  16.614  0.7204  0.0082 -1.7223
  879MPD2    H212949   3.179   4.688  16.793  1.3838 -0.1052 -0.3746
  879MPD2    H312950   2.996   4.691  16.641 -1.2852 -1.6502 -2.1776
  879MPD2     N12951   2.904   4.244  16.713  0.5029 -0.2180  0.9371
  879MPD2    H512952   2.812   4.255  16.671  1.1967 -0.4635 -0.6471
  879MPD2    N112953   3.271   4.486  16.925 -0.4950 -0.1733  0.1168
  879MPD2    H712954   3.311   4.579  16.935  0.2769 -0.2936 -1.7870
  880MPD2     C12955   4.411   1.439   0.430 -0.2931  0.1664  0.0769
  880MPD2    C112956   4.380   1.408   0.298 -0.3836  0.7576 -0.0508
  880MPD2    C212957   4.479   1.366   0.219  0.0582  0.7447  0.0932
  880MPD2    C312958   4.607   1.335   0.273  0.2573  0.3265 -0.2342
  880MPD2    C412959   4.632   1.354   0.404  0.2742 -0.0179  0.3271
  880MPD2    C512960   4.534   1.412   0.479  0.4638  0.1849 -0.0525
  880MPD2     H12961   4.458   1.333   0.117 -1.3299  1.2589  0.2139
  880MPD2    H112962   4.725   1.339   0.457  0.4889  0.9550  0.2285
  880MPD2    H212963   4.342   1.485   0.500  0.1485  2.3332 -0.9044
  880MPD2    H312964   4.556   1.442   0.581 -2.1124  0.3806  0.4703
  880MPD2     N12965   4.706   1.279   0.188  0.2307  0.4274  0.0865
  880MPD2    H512966   4.701   1.287   0.087  0.4694  0.3344  0.0657
  880MPD2    N112967   4.247   1.432   0.256  0.6545  0.2354  0.4749
  880MPD2    H712968   4.188   1.472   0.328  0.3386  0.5373  0.0456
  881MPD2     C12969   3.975   2.029  17.289  0.3637  0.3281 -0.0624
  881MPD2    C112970   4.008   1.901  17.254 -0.3399  0.6999 -0.1707
  881MPD2    C212971   3.977   1.797  17.341 -0.1998 -0.6005 -0.6596
  881MPD2    C312972   3.898   1.824  17.449  0.0347  0.0203 -0.0407
  881MPD2    C412973   3.852   1.952  17.471 -0.3209  0.2357 -0.1602
  881MPD2    C512974   3.885   2.049  17.386  0.3764 -0.3874 -0.0594
  881MPD2     H12975   4.011   1.695  17.326 -1.9300 -1.0788 -1.3156
  881MPD2    H112976   3.790   1.966  17.559 -0.8464 -3.1462  0.0192
  881MPD2    H212977   3.987   2.108  17.216  1.4659  0.1218 -0.1098
  881MPD2    H312978   3.839   2.146  17.399  0.9892 -0.0644 -0.2970
  881MPD2     N12979   3.863   1.740  17.559  0.7134 -0.1538  0.5537
  881MPD2    H512980   3.826   1.793  17.636 -0.1609 -3.0254  2.1087
  881MPD2    N112981   4.108   1.894  17.149  0.2926  0.0564 -0.6287
  881MPD2    H712982   4.134   1.983  17.106 -0.0932  0.8526  0.7695
  882MPD2     C12983   2.977   3.171  14.100  0.1818  0.4069  0.2048
  882MPD2    C112984   2.914   3.276  14.167 -0.2449  0.6699  0.0076
  882MPD2    C212985   2.793   3.317  14.133  0.0135  0.5166  0.6665
  882MPD2    C312986   2.727   3.248  14.021  0.1603 -0.4596 -0.6902
  882MPD2    C412987   2.796   3.142  13.958  0.0188  0.2693 -0.2149
  882MPD2    C512988   2.917   3.112  13.998 -0.1669 -0.3189 -0.1550
  882MPD2     H12989   2.744   3.399  14.185  0.8255  1.3086  0.2019
  882MPD2    H112990   2.751   3.075  13.886 -1.5483  2.3388 -1.1692
  882MPD2    H212991   3.067   3.128  14.143 -0.2069  0.1315  0.7328
  882MPD2    H312992   2.961   3.019  13.964  1.9577 -0.8946  4.1809
  882MPD2     N12993   2.591   3.259  13.998 -0.3510  0.0998 -0.3739
  882MPD2    H512994   2.548   3.186  13.943 -1.1052 -0.2645  0.6921
  882MPD2    N112995   2.988   3.328  14.275 -0.4187  1.0919  0.4291
  882MPD2    H712996   3.075   3.280  14.295 -1.6734 -1.8817 -1.2995
  883MPD2     C12997   0.037   3.219  15.863  0.2057  0.5736  0.4042
  883MPD2    C112998   0.123   3.322  15.828  0.5633 -1.2696  0.0446
  883MPD2    C212999   0.230   3.358  15.909 -0.1961 -0.3165 -0.2233
  883MPD2    C313000   0.252   3.299  16.035  0.1429  0.2179 -0.1034
  883MPD2    C413001   0.156   3.198  16.073  0.5838 -0.3476  0.2554
  883MPD2    C513002   0.053   3.165  15.987 -0.1756 -0.8726 -0.3892
  883MPD2     H13003   0.307   3.426  15.874 -0.1337  0.2763  1.0885
  883MPD2    H113004   0.156   3.148  16.169  2.4444 -0.7434  0.0441
  883MPD2    H213005   4.700   3.174  15.798 -0.8972 -0.6124  2.4863
  883MPD2    H313006   4.732   3.077  16.016  0.9356 -2.0447 -1.7356
  883MPD2     N13007   0.363   3.338  16.115 -0.0993  0.0160  0.5466
  883MPD2    H513008   0.410   3.422  16.085 -0.3323  0.0479  0.2708
  883MPD2    N113009   0.125   3.370  15.696  0.5496 -0.2493 -0.2542
  883MPD2    H713010   0.206   3.426  15.670 -0.0524  1.7780  2.2099
  884MPD2     C13011   2.240   4.104  14.772  0.2648  0.1807 -0.2684
  884MPD2    C113012   2.226   4.241  14.794 -0.2233 -0.3099  0.7137
  884MPD2    C213013   2.102   4.298  14.824  0.3361 -0.3396 -0.0058
  884MPD2    C313014   1.997   4.214  14.847 -0.5504 -0.1457 -0.2433
  884MPD2    C413015   2.003   4.081  14.820 -0.2658 -0.0232 -0.3477
  884MPD2    C513016   2.124   4.035  14.776  0.1715 -0.4381  0.6198
  884MPD2     H13017   2.091   4.406  14.823 -0.8265 -0.4565 -0.2967
  884MPD2    H113018   1.921   4.009  14.819 -0.0287 -0.3094  0.7807
  884MPD2    H213019   2.338   4.063  14.753  0.2285  0.3674 -0.8576
  884MPD2    H313020   2.128   3.931  14.746 -1.3174 -1.1804  2.9377
  884MPD2     N13021   1.870   4.266  14.884  0.3952  0.5562  0.3958
  884MPD2    H513022   1.793   4.201  14.878 -0.3957  1.7065 -1.9879
  884MPD2    N113023   2.348   4.315  14.794  0.0006  0.3288 -0.1732
  884MPD2    H713024   2.431   4.260  14.775 -0.3393  1.4903 -5.1031
  885MPD2     C13025   0.300   4.320   0.030  0.4679  0.7405  0.0267
  885MPD2    C113026   0.383   4.435   0.034  0.5265 -0.4720  0.2114
  885MPD2    C213027   0.391   4.517  17.661 -0.1907 -0.4446 -0.2480
  885MPD2    C313028   0.313   4.491  17.555  0.6962  0.5860 -0.5696
  885MPD2    C413029   0.239   4.375  17.554  0.2796  0.3590  0.2354
  885MPD2    C513030   0.239   4.287  17.661  0.0726  0.0293  0.8215
  885MPD2     H13031   0.444   4.611  17.654  0.8667 -1.0483 -0.3044
  885MPD2    H113032   0.177   4.341  17.472  0.5009 -1.8465  0.9898
  885MPD2    H213033   0.283   4.256   0.117  0.8713  0.1718 -0.3196
  885MPD2    H313034   0.168   4.206  17.674  0.1780 -0.3946 -1.2713
  885MPD2     N13035   0.325   4.571  17.442  0.0107 -0.7689 -1.3028
  885MPD2    H513036   0.393   4.646  17.449 -0.8667 -0.0810 -0.0491
  885MPD2    N113037   0.459   4.455   0.150  0.1627  0.4966  0.2868
  885MPD2    H713038   0.459   4.384   0.222  0.3905 -1.2364 -1.4109
  886MPD2     C13039   1.426   2.857  14.954  0.7251  0.1572 -0.0751
  886MPD2    C113040   1.556   2.897  15.002  0.0660 -0.1400  0.0666
  886MPD2    C213041   1.637   2.989  14.931 -0.5316 -0.5681 -0.8169
  886MPD2    C313042   1.586   3.048  14.827  0.3853  0.3614  0.0010
  886MPD2    C413043   1.456   3.025  14.788 -0.1934  0.2114  0.3635
  886MPD2    C513044   1.368   2.934  14.851 -0.1783 -0.9886 -0.3136
  886MPD2     H13045   1.733   3.021  14.968 -2.1734  0.3281  2.6726
  886MPD2    H113046   1.407   3.075  14.706  0.7395  1.8488  0.8045
  886MPD2    H213047   1.360   2.797  15.015 -2.1385  0.4665 -2.8986
  886MPD2    H313048   1.273   2.911  14.804 -1.0511  1.3066  0.3125
  886MPD2     N13049   1.660   3.153  14.767 -0.0954 -0.0485 -0.2119
  886MPD2    H513050   1.754   3.170  14.801 -0.0475 -0.0011 -0.3697
  886MPD2    N113051   1.609   2.857  15.130 -0.0530 -0.4307 -0.0584
  886MPD2    H713052   1.708   2.879  15.134 -0.1513 -0.2582  1.2261
  887MPD2     C13053   2.183   2.845  15.741 -0.0917 -0.4171 -0.1105
  887MPD2    C113054   2.070   2.911  15.703  0.1717 -0.6110  0.2260
  887MPD2    C213055   2.055   3.043  15.732 -0.5581 -0.2203  0.6137
  887MPD2    C313056   2.157   3.112  15.789 -0.0674  0.0012 -0.7698
  887MPD2    C413057   2.271   3.050  15.828 -0.4027 -0.5029  0.2738
  887MPD2    C513058   2.285   2.914  15.806  0.3168 -0.0945  0.2098
  887MPD2     H13059   1.968   3.100  15.701 -0.9795 -1.0412  0.2596
  887MPD2    H113060   2.356   3.105  15.867  0.9918 -0.9821 -2.1008
  887MPD2    H213061   2.199   2.738  15.729  0.0827 -0.6833  2.5552
  887MPD2    H313062   2.376   2.860  15.830  0.3628 -0.6615 -1.2366
  887MPD2     N13063   2.141   3.242  15.831 -0.2621 -0.1407  0.4308
  887MPD2    H513064   2.046   3.278  15.827 -0.5812 -0.9608  0.6680
  887MPD2    N113065   1.970   2.835  15.636 -0.1654 -0.1127  0.0815
  887MPD2    H713066   1.976   2.734  15.644  0.2215  0.0016  1.3701
  888MPD2     C13067   3.690   2.545  14.881 -0.5396 -0.5092 -0.7453
  888MPD2    C113068   3.723   2.583  15.006  0.4275 -0.5532 -0.1845
  888MPD2    C213069   3.785   2.697  15.027 -0.4087 -0.0042 -0.0558
  888MPD2    C313070   3.840   2.774  14.923  0.1510  0.1598 -0.0091
  888MPD2    C413071   3.830   2.722  14.797  0.4633 -0.3462  0.3160
  888MPD2    C513072   3.748   2.615  14.776 -0.8407  0.3742  0.3708
  888MPD2     H13073   3.790   2.732  15.129 -3.1600  0.5683 -0.1166
  888MPD2    H113074   3.854   2.772  14.704 -2.7875 -0.7679 -0.7468
  888MPD2    H213075   3.646   2.447  14.864 -0.6807 -0.1870 -2.2215
  888MPD2    H313076   3.717   2.589  14.676 -1.1671  0.3086  0.4870
  888MPD2     N13077   3.902   2.899  14.954 -0.0667 -0.2983  0.7396
  888MPD2    H513078   3.879   2.937  15.045  1.5239  1.5596  0.3642
  888MPD2    N113079   3.682   2.515  15.124  0.3736 -0.6316  0.0269
  888MPD2    H713080   3.688   2.552  15.218  0.3343  0.9156 -0.5834
  889MPD2     C13081   2.907   2.937  12.575  0.4742  0.2464  0.5001
  889MPD2    C113082   2.982   2.916  12.686  0.3255  0.1298 -0.2784
  889MPD2    C213083   3.014   3.026  12.767  0.6751 -0.2479  0.2952
  889MPD2    C313084   2.984   3.153  12.721 -0.0311  0.5247 -0.3267
  889MPD2    C413085   2.915   3.178  12.603 -0.0501 -0.0685 -0.4616
  889MPD2    C513086   2.872   3.068  12.533 -0.1386 -0.1032  0.0715
  889MPD2     H13087   3.066   3.006  12.859  0.4370 -0.8746  0.2995
  889MPD2    H113088   2.884   3.276  12.568  1.6425  0.7419  0.3068
  889MPD2    H213089   2.890   2.855  12.506 -0.9241  1.4689 -0.5987
  889MPD2    H313090   2.820   3.077  12.438  0.3700  1.4418 -0.0710
  889MPD2     N13091   3.020   3.258  12.806  0.3587 -0.5717  0.0239
  889MPD2    H513092   3.049   3.233  12.900  0.1131 -0.3624  0.1571
  889MPD2    N113093   3.000   2.785  12.741  0.0908  0.0226 -0.8694
  889MPD2    H713094   3.074   2.782  12.810 -0.5398  0.5603 -0.1696
  890MPD2     C13095   2.795   4.548  14.519 -1.0160  0.0229  0.9438
  890MPD2    C113096   2.899   4.517  14.599  0.3823 -0.6241 -0.1202
  890MPD2    C213097   2.895   4.399  14.673 -0.0963 -0.7235  0.8891
  890MPD2    C313098   2.787   4.313  14.666 -0.3459  0.0326 -0.1514
  890MPD2    C413099   2.682   4.348  14.583  0.6386 -0.2978 -0.1122
  890MPD2    C513100   2.678   4.464  14.505  0.3791 -0.3580 -0.1105
  890MPD2     H13101   2.977   4.379  14.741  1.9441  0.6347 -1.2174
  890MPD2    H113102   2.589   4.293  14.579  1.3965 -1.4963 -1.0601
  890MPD2    H213103   2.787   4.641  14.465  0.0091  0.1146  0.9355
  890MPD2    H313104   2.599   4.486  14.435  0.2537 -0.7610 -0.0981
  890MPD2     N13105   2.789   4.197  14.744 -0.7189  0.0746  1.0557
  890MPD2    H513106   2.872   4.184  14.801 -0.1277  2.6695  0.8090
  890MPD2    N113107   2.992   4.622  14.614  0.1187  0.2470  0.2654
  890MPD2    H713108   2.971   4.706  14.561 -1.0574 -1.5214 -2.0653
  891MPD2     C13109   1.115   2.895  16.417  0.3783 -0.0678 -0.1485
  891MPD2    C113110   1.004   2.813  16.460  1.0474 -0.2136 -0.2719
  891MPD2    C213111   1.032   2.711  16.549 -0.1261  0.4675  0.3282
  891MPD2    C313112   1.157   2.692  16.603 -0.0841 -0.2225  0.6593
  891MPD2    C413113   1.254   2.788  16.574 -0.1522 -0.2841  0.6130
  891MPD2    C513114   1.234   2.885  16.482 -0.0726 -0.1355  0.3948
  891MPD2     H13115   0.956   2.643  16.586  1.0012 -0.6247  0.6502
  891MPD2    H113116   1.351   2.791  16.623  0.5219 -0.8031 -0.6730
  891MPD2    H213117   1.100   2.976  16.346 -1.0757 -0.9715 -0.8846
  891MPD2    H313118   1.319   2.948  16.458 -1.1762  0.9957 -0.5244
  891MPD2     N13119   1.178   2.583  16.690 -0.2495  0.1180 -0.3028
  891MPD2    H513120   1.100   2.523  16.712  0.6552 -0.8781  0.1636
  891MPD2    N113121   0.876   2.854  16.421 -0.3277 -0.1456 -0.4480
  891MPD2    H713122   0.879   2.927  16.351 -2.3875  3.0561  2.7835
  892MPD2     C13123   2.174   4.110  14.185  0.2364  0.2385  0.0395
  892MPD2    C113124   2.091   4.025  14.263 -0.4377  0.3994 -0.0994
  892MPD2    C213125   2.091   3.884  14.242 -0.4018  0.9220 -0.1880
  892MPD2    C313126   2.167   3.828  14.139 -0.2168  0.4635 -0.0194
  892MPD2    C413127   2.245   3.913  14.064  1.1501 -0.6659 -0.5405
  892MPD2    C513128   2.236   4.049  14.081 -0.3986 -0.1281 -0.6538
  892MPD2     H13129   2.045   3.812  14.309 -0.6990  0.2411 -1.1148
  892MPD2    H113130   2.316   3.878  13.989 -0.3862  0.0495 -2.3370
  892MPD2    H213131   2.186   4.218  14.191 -0.3991  0.2636  0.8431
  892MPD2    H313132   2.294   4.109  14.012  0.5495  0.4158  0.6132
  892MPD2     N13133   2.174   3.692  14.105  0.1695 -0.0053  0.0357
  892MPD2    H513134   2.227   3.668  14.022 -1.7080 -0.4256 -1.0361
  892MPD2    N113135   2.006   4.071  14.369  0.0405 -0.0078  0.1487
  892MPD2    H713136   1.962   4.013  14.441  0.3772  0.1221  0.4586
  893MPD2     C13137   3.474   3.099   1.187 -0.7079  0.2115 -0.2292
  893MPD2    C113138   3.425   2.992   1.117 -0.4658 -0.3678  0.9873
  893MPD2    C213139   3.290   2.971   1.106 -0.0537  0.2849 -0.0141
  893MPD2    C313140   3.202   3.061   1.160 -0.4256  0.1725  0.3095
  893MPD2    C413141   3.253   3.165   1.235 -0.5494 -0.0414 -0.5933
  893MPD2    C513142   3.391   3.190   1.242  0.0819  0.4384 -0.9043
  893MPD2     H13143   3.253   2.877   1.065  2.9938 -0.5643 -0.8295
  893MPD2    H113144   3.187   3.246   1.265  1.4806  1.5972 -0.5731
  893MPD2    H213145   3.580   3.116   1.198 -0.9349  2.0247 -0.8085
  893MPD2    H313146   3.425   3.278   1.295 -1.6710  0.2207  0.6023
  893MPD2     N13147   3.057   3.046   1.164 -0.0158 -0.2348  0.1733
  893MPD2    H513148   3.010   3.128   1.201  2.0075  0.4740  1.1435
  893MPD2    N113149   3.518   2.900   1.065 -0.3832 -0.7120  0.5216
  893MPD2    H713150   3.612   2.936   1.078 -0.4369 -0.0230 -1.0207
  894MPD2     C13151   2.108   0.210   1.306 -0.0912  0.3083  0.9018
  894MPD2    C113152   1.990   0.168   1.250 -0.2775  0.0423  0.7739
  894MPD2    C213153   1.992   0.142   1.116 -0.4181  0.0567 -0.4960
  894MPD2    C313154   2.112   0.158   1.037 -0.6383 -0.0022 -0.0795
  894MPD2    C413155   2.226   0.189   1.100 -0.1877 -0.4808 -0.3644
  894MPD2    C513156   2.227   0.220   1.232 -0.6834  0.3749 -0.2116
  894MPD2     H13157   1.903   0.105   1.066 -2.4930  2.5942  1.3595
  894MPD2    H113158   2.319   0.199   1.045  0.3771  0.3229  0.7487
  894MPD2    H213159   2.107   0.232   1.412  3.4195  0.9402  0.7723
  894MPD2    H313160   2.318   0.243   1.285 -1.0007  0.1178  0.4382
  894MPD2     N13161   2.091   0.162   0.895  0.0985 -0.1546  0.3481
  894MPD2    H513162   2.000   0.127   0.866  1.2744 -2.0453 -1.0728
  894MPD2    N113163   1.868   0.167   1.312  0.5123 -0.4984 -0.0734
  894MPD2    H713164   1.797   0.117   1.261  1.4474  0.3278 -2.1886
  895MPD2     C13165   1.186   3.219  13.343  0.0189 -0.5052 -0.1610
  895MPD2    C113166   1.122   3.155  13.245 -0.2389 -0.0732  0.2601
  895MPD2    C213167   1.185   3.064  13.168  0.1606 -0.5957  0.0205
  895MPD2    C313168   1.295   2.997  13.223 -0.2600 -0.5874 -0.0297
  895MPD2    C413169   1.348   3.053  13.338  0.4337 -0.4538 -0.3774
  895MPD2    C513170   1.297   3.166  13.393 -0.1173 -0.0381 -0.0144
  895MPD2     H13171   1.124   3.009  13.097 -1.1575  0.0394  0.6678
  895MPD2    H113172   1.433   3.003  13.383  0.8356 -0.4858 -1.1673
  895MPD2    H213173   1.142   3.300  13.399  2.2526 -0.5534  1.6817
  895MPD2    H313174   1.339   3.196  13.489 -0.6528 -1.9062  0.8130
  895MPD2     N13175   1.368   2.889  13.174  0.2413 -0.1889  1.0094
  895MPD2    H513176   1.454   2.866  13.223  0.9408  1.5451  0.5857
  895MPD2    N113177   0.986   3.181  13.201 -0.4541  0.5681 -0.1157
  895MPD2    H713178   0.948   3.106  13.143 -0.5777  1.1848 -0.8345
  896MPD2     C13179   4.232   1.093   1.309  0.0902 -0.7486 -0.0296
  896MPD2    C113180   4.228   1.018   1.196  0.7609 -0.4249  0.3027
  896MPD2    C213181   4.105   0.969   1.159 -0.2402  0.4799  0.2539
  896MPD2    C313182   3.989   1.008   1.219  0.0668  0.2507  0.1298
  896MPD2    C413183   3.992   1.094   1.324 -0.5192  0.1715  0.0402
  896MPD2    C513184   4.119   1.131   1.373 -0.4814 -0.6559 -0.2395
  896MPD2     H13185   4.096   0.909   1.070 -2.5145 -0.8539  1.3775
  896MPD2    H113186   3.903   1.132   1.373  0.4495  0.1090  1.8495
  896MPD2    H213187   4.327   1.140   1.329 -0.1923 -0.5390  0.8139
  896MPD2    H313188   4.120   1.187   1.466 -0.7390 -0.7274 -0.1923
  896MPD2     N13189   3.867   0.974   1.156 -0.9183 -0.2347 -0.0524
  896MPD2    H513190   3.863   0.902   1.086  0.6836 -1.5255  1.1721
  896MPD2    N113191   4.345   1.018   1.114 -0.2721 -0.5579 -0.6412
  896MPD2    H713192   4.429   1.070   1.140 -0.6384  0.7456 -2.0476
  897MPD2     C13193   4.506   2.422  10.415  0.3421 -0.1154  0.0133
  897MPD2    C113194   4.419   2.529  10.435 -0.2021  0.1627  0.3188
  897MPD2    C213195   4.338   2.536  10.542 -0.4715  0.5435 -0.2709
  897MPD2    C313196   4.359   2.451  10.648  0.3784  0.4138  0.0240
  897MPD2    C413197   4.453   2.352  10.633 -0.1553 -0.8271 -0.5769
  897MPD2    C513198   4.524   2.339  10.520 -0.8543  0.1910 -0.1121
  897MPD2     H13199   4.269   2.618  10.558  1.5696  1.6862  2.7270
  897MPD2    H113200   4.466   2.275  10.709 -0.5009  0.3477  0.6679
  897MPD2    H213201   4.573   2.408  10.331  1.0501  3.8650 -0.0691
  897MPD2    H313202   4.604   2.267  10.515 -1.9154 -0.8809 -1.5469
  897MPD2     N13203   4.282   2.478  10.764 -0.6793 -0.1613  0.8664
  897MPD2    H513204   4.220   2.558  10.766  0.1187  0.4346  1.6824
  897MPD2    N113205   4.393   2.617  10.324  0.0468  0.2871 -0.0516
  897MPD2    H713206   4.437   2.596  10.235  0.2897  0.5962 -0.0058
  898MPD2     C13207   1.775   3.228  17.542  0.5456  0.6565  0.8237
  898MPD2    C113208   1.872   3.321  17.582 -0.5531  0.2283 -0.1621
  898MPD2    C213209   1.847   3.461  17.559  0.4147 -0.1453 -0.5929
  898MPD2    C313210   1.725   3.492  17.497  0.7544  0.0636  0.1763
  898MPD2    C413211   1.642   3.394  17.451 -0.0062  0.2780 -0.2719
  898MPD2    C513212   1.654   3.260  17.485  0.2258  0.0792  0.5987
  898MPD2     H13213   1.920   3.535  17.590  2.3433 -1.8037 -1.2203
  898MPD2    H113214   1.550   3.418  17.398 -0.7470 -0.9338  0.4679
  898MPD2    H213215   1.780   3.121  17.559 -1.3869  0.3515 -0.5565
  898MPD2    H313216   1.568   3.197  17.465  1.2513 -0.2388 -2.8167
  898MPD2     N13217   1.712   3.628  17.453 -0.0236 -0.1196  0.1179
  898MPD2    H513218   1.798   3.682  17.460 -0.2165  0.1534  0.3917
  898MPD2    N113219   1.999   3.289  17.631 -0.2440  0.0338  0.1158
  898MPD2    H713220   2.055   3.369  17.659 -0.6181  0.4135 -0.2271
  899MPD2     C13221   2.661   4.064  17.000  0.0408  0.1545  0.0372
  899MPD2    C113222   2.716   4.143  17.099 -0.0035 -0.4301  0.5790
  899MPD2    C213223   2.708   4.090  17.227  1.0105  0.4948  0.2269
  899MPD2    C313224   2.664   3.964  17.252 -0.6475 -0.1742  0.6030
  899MPD2    C413225   2.629   3.877  17.144  0.4959 -0.6814  0.1849
  899MPD2    C513226   2.632   3.930  17.018 -0.7722 -0.1447 -0.5728
  899MPD2     H13227   2.729   4.162  17.306  0.3179  0.2443  0.6364
  899MPD2    H113228   2.597   3.776  17.166 -2.4820  0.1940 -0.0672
  899MPD2    H213229   2.649   4.089  16.895  1.2311 -1.7908 -0.5607
  899MPD2    H313230   2.588   3.881  16.932 -0.8491 -1.0073 -0.0370
  899MPD2     N13231   2.649   3.908  17.384 -0.3019  0.4074 -0.2427
  899MPD2    H513232   2.649   3.807  17.396 -1.8387  0.1936 -2.0825
  899MPD2    N113233   2.765   4.270  17.057  0.2283 -0.1093  0.2671
  899MPD2    H713234   2.739   4.301  16.965  0.2231 -1.3727 -0.1534
  900MPD2     C13235   2.238   0.823  13.192 -0.1089 -0.2404 -0.7033
  900MPD2    C113236   2.149   0.721  13.168 -0.1533  0.5367  0.4445
  900MPD2    C213237   2.020   0.751  13.125  0.2207  0.0684  0.0946
  900MPD2    C313238   1.990   0.884  13.095  0.1702  0.3099  0.2568
  900MPD2    C413239   2.085   0.981  13.106 -0.1955  0.1891 -0.1212
  900MPD2    C513240   2.208   0.954  13.152 -0.2346  0.1068  0.5429
  900MPD2     H13241   1.944   0.675  13.110  1.1718 -1.1216  1.3171
  900MPD2    H113242   2.060   1.085  13.090 -1.8078 -0.2541 -0.4278
  900MPD2    H213243   2.338   0.821  13.234 -0.3772 -0.4916 -0.0681
  900MPD2    H313244   2.273   1.038  13.168  0.2579  0.0418 -1.0844
  900MPD2     N13245   1.856   0.906  13.063 -0.2876  0.1579  0.0512
  900MPD2    H513246   1.795   0.825  13.070  2.3516 -1.9379 -1.0441
  900MPD2    N113247   2.199   0.592  13.197  0.3097 -0.4310  0.9841
  900MPD2    H713248   2.291   0.593  13.241 -0.5693  4.4380  2.8233
  901MPD2     C13249   2.061   4.268  13.040  0.4109 -0.0694 -0.6741
  901MPD2    C113250   2.193   4.293  13.013 -0.6973  0.2749 -0.2626
  901MPD2    C213251   2.235   4.422  13.038  0.6964  0.3686  0.2706
  901MPD2    C313252   2.161   4.511  13.114  0.0505  0.7703  0.2169
  901MPD2    C413253   2.032   4.481  13.142 -0.2793 -0.8871  0.9248
  901MPD2    C513254   1.984   4.357  13.106  0.1353 -0.4316  0.6853
  901MPD2     H13255   2.325   4.464  12.995  1.1386 -0.7504  0.0954
  901MPD2    H113256   1.961   4.536  13.201  0.4932  1.8481 -0.6832
  901MPD2    H213257   2.010   4.173  13.025 -0.7553  0.1338  1.9505
  901MPD2    H313258   1.888   4.319  13.141  0.6205  1.4312  4.0713
  901MPD2     N13259   2.225   4.636  13.150  0.8013  0.2154  0.3739
  901MPD2    H513260   2.312   4.652  13.100  0.0669 -0.4653 -1.1185
  901MPD2    N113261   2.269   4.195  12.941 -0.4833 -0.2660  0.0846
  901MPD2    H713262   2.228   4.106  12.916  1.5341 -1.7668  2.1085
  902MPD2     C13263   0.597   3.552  12.806 -0.2072 -0.5382 -0.1561
  902MPD2    C113264   0.560   3.583  12.673 -1.0165  0.0016  0.4081
  902MPD2    C213265   0.589   3.491  12.577 -0.3989  0.0922  0.0442
  902MPD2    C313266   0.655   3.374  12.613  0.2880  0.2312 -0.1704
  902MPD2    C413267   0.696   3.349  12.743  0.0143  0.1697 -0.2882
  902MPD2    C513268   0.666   3.442  12.841  0.3857 -0.2170  0.4544
  902MPD2     H13269   0.555   3.510  12.475 -0.5123 -0.6491 -0.0595
  902MPD2    H113270   0.753   3.263  12.775  1.3492  0.7519 -1.0795
  902MPD2    H213271   0.563   3.619  12.884  0.5959 -1.2557  0.8009
  902MPD2    H313272   0.681   3.425  12.947  0.2495 -0.6531  0.4058
  902MPD2     N13273   0.690   3.280  12.516  0.2658  0.2726  0.3324
  902MPD2    H513274   0.741   3.200  12.554  0.5069  0.1837 -0.1728
  902MPD2    N113275   0.488   3.703  12.641  0.4401  0.0826  0.2144
  902MPD2    H713276   0.457   3.714  12.545 -0.3845 -2.3477  0.1922
  903MPD2     C13277   0.831   3.036  11.608 -0.5135  0.1590 -0.2461
  903MPD2    C113278   0.759   3.121  11.691  1.3367 -0.2798 -0.1064
  903MPD2    C213279   0.683   3.226  11.633 -0.2537 -0.3985 -0.4234
  903MPD2    C313280   0.679   3.244  11.492  0.2167  0.2379  0.6355
  903MPD2    C413281   0.746   3.141  11.413 -0.9247  0.5993  0.0295
  903MPD2    C513282   0.824   3.052  11.473 -0.3978 -0.6185 -0.5420
  903MPD2     H13283   0.650   3.307  11.696  2.4513  0.8426 -0.5944
  903MPD2    H113284   0.737   3.142  11.305 -0.2582  1.0584 -0.0234
  903MPD2    H213285   0.888   2.951  11.641  0.8394  1.0019 -0.4179
  903MPD2    H313286   0.889   2.994  11.408  1.4430 -1.2486  1.8859
  903MPD2     N13287   0.603   3.349  11.443  0.2169  0.5418  0.1093
  903MPD2    H513288   0.548   3.404  11.508 -0.5015 -1.6568  1.3559
  903MPD2    N113289   0.764   3.093  11.831 -0.2613 -0.4369 -0.7645
  903MPD2    H713290   0.814   3.011  11.862 -0.4086  0.4940  2.0042
  904MPD2     C13291   1.114   2.637  13.815 -0.2594 -0.3103 -0.3555
  904MPD2    C113292   1.180   2.747  13.762  0.3630  0.6247 -0.7187
  904MPD2    C213293   1.301   2.784  13.819  0.2849 -0.1398  0.1055
  904MPD2    C313294   1.361   2.720  13.925  0.1446 -0.2134 -0.1352
  904MPD2    C413295   1.295   2.618  13.977 -0.7390  0.0957  0.2825
  904MPD2    C513296   1.173   2.580  13.929  0.6289 -0.1068  1.0317
  904MPD2     H13297   1.353   2.867  13.771  2.9892 -1.3461  0.9346
  904MPD2    H113298   1.338   2.564  14.060  1.5272  1.7720  0.1895
  904MPD2    H213299   1.013   2.617  13.781 -0.3101  0.5431 -0.7114
  904MPD2    H313300   1.138   2.489  13.977 -0.0296  0.8120  2.2976
  904MPD2     N13301   1.495   2.755  13.953  0.3996  0.7264  0.1271
  904MPD2    H513302   1.534   2.826  13.892  0.1491 -0.7308 -1.6923
  904MPD2    N113303   1.109   2.813  13.660  0.0587 -0.3599  0.1727
  904MPD2    H713304   1.033   2.761  13.618  0.5731  1.2035 -2.7454
  905MPD2     C13305   0.539   2.683  13.157 -0.3606  0.2822 -0.5513
  905MPD2    C113306   0.655   2.747  13.165 -0.0422  0.3449 -0.8503
  905MPD2    C213307   0.746   2.740  13.052  0.6122 -0.2306  0.1218
  905MPD2    C313308   0.725   2.634  12.962  0.2757  0.2932 -0.3706
  905MPD2    C413309   0.601   2.573  12.957 -0.5144  0.0848  0.1889
  905MPD2    C513310   0.507   2.598  13.053  0.1096  0.6905  0.3133
  905MPD2     H13311   0.834   2.802  13.047 -0.1929  1.0119  1.2304
  905MPD2    H113312   0.572   2.501  12.881 -0.4113  1.2045 -0.9175
  905MPD2    H213313   0.475   2.669  13.243  2.7082 -0.3713  1.6337
  905MPD2    H313314   0.411   2.547  13.056  0.1613  0.5998  0.4230
  905MPD2     N13315   0.820   2.594  12.866  0.2505 -0.2014 -0.2249
  905MPD2    H513316   0.784   2.544  12.785  1.1754 -1.8926  0.4091
  905MPD2    N113317   0.686   2.821  13.279  0.0808 -0.6199 -0.5754
  905MPD2    H713318   0.613   2.815  13.349  2.7680  1.7411  2.3814
  906MPD2     C13319   3.099   2.314  11.357  0.2681 -0.3374  0.4601
  906MPD2    C113320   3.010   2.298  11.256 -0.1123 -0.2566  0.7352
  906MPD2    C213321   2.904   2.216  11.266 -0.3225  0.0061 -0.5491
  906MPD2    C313322   2.891   2.140  11.390  0.5065  0.3769 -0.0189
  906MPD2    C413323   2.978   2.169  11.497 -0.5652  0.3483  0.3046
  906MPD2    C513324   3.089   2.241  11.475  0.1528  0.7279  0.3880
  906MPD2     H13325   2.844   2.199  11.177  0.5288 -0.3379 -1.0527
  906MPD2    H113326   2.972   2.120  11.594 -0.5378  1.6795  0.9674
  906MPD2    H213327   3.199   2.356  11.346 -0.2897  0.6135 -0.9957
  906MPD2    H313328   3.170   2.254  11.545 -0.5132  0.5643  1.1823
  906MPD2     N13329   2.787   2.045  11.401  0.1158  0.2591  0.0212
  906MPD2    H513330   2.768   2.007  11.493 -1.6246  0.0462 -0.4220
  906MPD2    N113331   3.020   2.372  11.136 -0.0509  0.3234 -0.1738
  906MPD2    H713332   2.941   2.367  11.073 -0.1951  0.6152 -0.0110
  907MPD2     C13333   1.537   1.836  15.094  0.4672  0.1370  0.8091
  907MPD2    C113334   1.580   1.704  15.115  0.2846 -0.0551  0.0970
  907MPD2    C213335   1.595   1.659  15.243  0.4277  0.7312 -0.3428
  907MPD2    C313336   1.592   1.743  15.356  0.0375 -0.2350 -0.2074
  907MPD2    C413337   1.537   1.873  15.337 -0.5835 -0.7931 -0.4954
  907MPD2    C513338   1.513   1.915  15.210 -0.2996  0.3485  0.0311
  907MPD2     H13339   1.640   1.560  15.251 -3.4209 -1.2531 -3.6735
  907MPD2    H113340   1.512   1.943  15.415  1.2784 -0.2534 -0.4020
  907MPD2    H213341   1.528   1.880  14.995  1.9514  0.0701  0.6460
  907MPD2    H313342   1.470   2.014  15.198  1.4323  1.1579  0.4438
  907MPD2     N13343   1.623   1.689  15.481  0.5330 -0.4854  0.7253
  907MPD2    H513344   1.654   1.593  15.492  0.6382 -0.4143  1.0351
  907MPD2    N113345   1.615   1.610  15.013  0.5933 -0.0848 -0.7879
  907MPD2    H713346   1.637   1.519  15.052  1.0511  0.2995 -0.1377
  908MPD2     C13347   3.812   2.252   9.869  0.0161  0.8391 -0.6156
  908MPD2    C113348   3.948   2.235   9.873 -0.1317  0.0740 -0.2807
  908MPD2    C213349   4.028   2.350   9.904 -0.1971 -0.0476 -0.1158
  908MPD2    C313350   3.970   2.476   9.909  0.1460  0.5021 -0.0950
  908MPD2    C413351   3.840   2.492   9.879 -0.1575  0.1568  0.6661
  908MPD2    C513352   3.764   2.377   9.867 -0.7695  0.0360 -0.2090
  908MPD2     H13353   4.136   2.338   9.906 -0.4579 -2.5067  0.1266
  908MPD2    H113354   3.791   2.587   9.898  0.3634  1.1260 -2.8411
  908MPD2    H213355   3.749   2.165   9.856 -1.9344  1.9840  0.9797
  908MPD2    H313356   3.656   2.387   9.857 -0.7570  2.2860  1.7510
  908MPD2     N13357   4.054   2.576   9.951  0.2582  0.7554 -1.1836
  908MPD2    H513358   4.150   2.548   9.970  0.1372  0.6659 -0.7008
  908MPD2    N113359   4.000   2.108   9.853  0.0000 -0.3013  0.3568
  908MPD2    H713360   3.940   2.036   9.815  1.6320 -0.5003 -1.9011
  909MPD2     C13361   4.692   0.466  12.122 -1.1773 -0.0754  0.7749
  909MPD2    C113362   4.643   0.578  12.055  0.0966  0.0455 -0.3900
  909MPD2    C213363   4.561   0.675  12.120  0.1359 -0.0192  0.7034
  909MPD2    C313364   4.540   0.667  12.252 -0.0334  0.4783 -0.4998
  909MPD2    C413365   4.589   0.559  12.326  0.4836 -0.2529 -0.2395
  909MPD2    C513366   4.669   0.465  12.258 -0.2458 -0.3090  0.3050
  909MPD2     H13367   4.528   0.765  12.069  2.3056  2.1435  3.1195
  909MPD2    H113368   4.588   0.557  12.434  0.4415 -0.6643 -0.2447
  909MPD2    H213369   0.033   0.402  12.083  0.1072  1.3453  1.0172
  909MPD2    H313370   4.713   0.392  12.325  0.0088 -0.4046  0.0300
  909MPD2     N13371   4.464   0.775  12.314  0.1064  0.1206  0.2616
  909MPD2    H513372   4.446   0.863  12.267 -0.0291 -0.3235 -0.5276
  909MPD2    N113373   4.689   0.603  11.923 -0.1811  0.2130  0.0172
  909MPD2    H713374   4.655   0.689  11.881 -0.4653 -0.5352 -1.2983
  910MPD2     C13375   1.529   2.528  16.022 -0.1604  0.2135  0.7436
  910MPD2    C113376   1.431   2.432  16.004 -0.0431 -0.3625  0.3562
  910MPD2    C213377   1.361   2.440  15.890 -0.4651  0.0192 -0.3227
  910MPD2    C313378   1.358   2.554  15.806  0.1055  0.4747 -0.3982
  910MPD2    C413379   1.452   2.649  15.828 -0.3530 -0.2091  0.0309
  910MPD2    C513380   1.534   2.636  15.936 -0.1601  0.4106  0.0387
  910MPD2     H13381   1.301   2.354  15.862  0.5820 -1.1988  1.2174
  910MPD2    H113382   1.472   2.725  15.753  0.3176  0.4859  0.9101
  910MPD2    H213383   1.604   2.518  16.099 -0.9365 -1.2285  1.3146
  910MPD2    H313384   1.621   2.700  15.943 -0.8692  1.1740  1.7737
  910MPD2     N13385   1.273   2.570  15.698 -0.1425  0.4737  0.2028
  910MPD2    H513386   1.292   2.653  15.643 -3.4527  0.1227 -1.4951
  910MPD2    N113387   1.412   2.317  16.080 -0.8543  0.4461  0.6412
  910MPD2    H713388   1.341   2.256  16.040  0.5607  1.0978 -2.8380
  911MPD2     C13389   4.126   2.785  15.902 -0.4999  0.5243  0.2647
  911MPD2    C113390   4.122   2.777  16.033 -0.2392  0.3875 -0.3165
  911MPD2    C213391   4.088   2.897  16.099  0.1325  0.2061  0.2195
  911MPD2    C313392   4.076   3.017  16.035 -0.3739 -0.0456 -0.0042
  911MPD2    C413393   4.083   3.018  15.899  0.2595 -0.3583 -0.0608
  911MPD2    C513394   4.102   2.900  15.828 -0.2383  0.4621 -0.4185
  911MPD2     H13395   4.072   2.902  16.207 -1.9114 -1.1167 -0.0146
  911MPD2    H113396   4.090   3.115  15.851 -2.8224 -0.5209 -0.8382
  911MPD2    H213397   4.141   2.695  15.843 -0.3963 -0.1475  1.3233
  911MPD2    H313398   4.108   2.903  15.720  1.1639 -1.8672 -0.4120
  911MPD2     N13399   4.055   3.136  16.097  0.6780 -0.0970  0.4608
  911MPD2    H513400   4.057   3.216  16.035 -1.4580 -0.4263 -0.0293
  911MPD2    N113401   4.166   2.656  16.093  0.1814  0.1342 -0.2440
  911MPD2    H713402   4.210   2.587  16.032  1.6856 -0.5699  1.6589
  912MPD2     C13403   3.813   3.123  15.659  0.7500 -0.5761  0.5576
  912MPD2    C113404   3.762   3.115  15.787 -0.2102 -0.4034 -0.0748
  912MPD2    C213405   3.713   2.995  15.838  0.5538 -0.3056 -0.2895
  912MPD2    C313406   3.726   2.878  15.760 -0.4564  0.6340 -0.2804
  912MPD2    C413407   3.793   2.885  15.642 -0.6389 -0.0733  0.5421
  912MPD2    C513408   3.840   3.004  15.595 -0.2367  0.1013 -0.9805
  912MPD2     H13409   3.661   2.983  15.932  2.3464  0.2896  0.7754
  912MPD2    H113410   3.820   2.795  15.589  0.8386 -0.3016  1.6741
  912MPD2    H213411   3.847   3.215  15.613  0.0947 -0.8805 -0.5535
  912MPD2    H313412   3.910   3.001  15.513  1.1508  4.0026  0.0929
  912MPD2     N13413   3.664   2.763  15.813  0.4260 -0.2067  0.1404
  912MPD2    H513414   3.638   2.765  15.911  0.6415  1.3695  0.1610
  912MPD2    N113415   3.761   3.228  15.873 -0.3764  0.2323 -0.2067
  912MPD2    H713416   3.808   3.309  15.835 -2.0296  1.5256  0.5328
  913MPD2     C13417   3.710   4.115  10.529  0.2765  0.2032  0.4485
  913MPD2    C113418   3.802   4.114  10.638  0.0883 -0.5085  0.2887
  913MPD2    C213419   3.935   4.151  10.613 -0.6818  0.4367 -0.3679
  913MPD2    C313420   3.971   4.185  10.483  0.2715  0.2043  0.0631
  913MPD2    C413421   3.880   4.180  10.379 -0.5452 -0.3354 -0.2400
  913MPD2    C513422   3.752   4.145  10.407 -0.4783  0.2160 -0.1258
  913MPD2     H13423   4.012   4.131  10.686  0.3589 -0.2124 -1.6295
  913MPD2    H113424   3.911   4.208  10.279  0.1061  3.0251  0.8954
  913MPD2    H213425   3.604   4.092  10.527  0.8492 -2.3079 -1.1250
  913MPD2    H313426   3.691   4.144  10.317 -1.0010 -2.7452  0.2735
  913MPD2     N13427   4.098   4.227  10.447 -0.1354 -0.0695  0.2916
  913MPD2    H513428   4.108   4.259  10.351 -0.8113 -1.1565 -0.1398
  913MPD2    N113429   3.755   4.076  10.769  0.6896 -0.0068 -0.4769
  913MPD2    H713430   3.655   4.059  10.770  0.7789 -0.5118 -0.3617
  914MPD2     C13431   1.737   4.038  12.861 -0.6467 -0.3676 -0.3377
  914MPD2    C113432   1.796   4.139  12.789 -0.7501 -0.1238  1.0220
  914MPD2    C213433   1.921   4.111  12.730  0.2393  0.5486  0.4976
  914MPD2    C313434   1.980   3.988  12.745  0.3608  0.3195  0.5463
  914MPD2    C413435   1.920   3.907  12.832 -0.7360 -0.1013 -0.6919
  914MPD2    C513436   1.802   3.923  12.894 -0.2171  0.5484  0.2737
  914MPD2     H13437   1.962   4.184  12.661  0.2549 -0.1898 -0.2675
  914MPD2    H113438   1.967   3.810  12.851 -2.0837 -0.7888 -0.8856
  914MPD2    H213439   1.658   4.081  12.922 -0.1484  1.7317 -1.1655
  914MPD2    H313440   1.773   3.861  12.978  1.6228 -0.4806  0.1400
  914MPD2     N13441   2.112   3.973  12.689  0.9216  0.6549  0.3424
  914MPD2    H513442   2.147   4.048  12.631  0.5674  2.0770  1.9902
  914MPD2    N113443   1.749   4.273  12.797  0.8931 -0.5938 -0.5461
  914MPD2    H713444   1.677   4.302  12.862  3.1486  1.0524  1.2520
  915MPD2     C13445   0.760   4.252  15.281 -0.4037 -0.8108  0.3011
  915MPD2    C113446   0.625   4.251  15.289 -0.4286 -0.8457 -0.0927
  915MPD2    C213447   0.568   4.228  15.413  1.2538  0.4372  0.1187
  915MPD2    C313448   0.647   4.217  15.527 -0.4229 -0.6155  0.2166
  915MPD2    C413449   0.786   4.220  15.512 -0.3850  1.0767  0.7623
  915MPD2    C513450   0.845   4.230  15.388  0.2647 -0.8616  0.2414
  915MPD2     H13451   0.462   4.211  15.422  1.2644 -0.3443 -1.3302
  915MPD2    H113452   0.853   4.204  15.596 -1.5959 -1.5388  1.2336
  915MPD2    H213453   0.808   4.281  15.188 -0.9211  0.8254  0.5323
  915MPD2    H313454   0.953   4.232  15.379  0.0875  2.3569 -1.0265
  915MPD2     N13455   0.595   4.179  15.655 -0.2271  0.1170  0.7309
  915MPD2    H513456   0.658   4.176  15.735  0.9626 -0.6509 -0.2477
  915MPD2    N113457   0.547   4.268  15.169 -0.4860  0.6291  0.0730
  915MPD2    H713458   0.602   4.288  15.086 -0.0596  0.8500  0.4121
  916MPD2     C13459   3.341   3.095  15.995  0.4386  0.2326  0.3651
  916MPD2    C113460   3.263   2.993  16.020 -0.3068 -0.2638 -0.0544
  916MPD2    C213461   3.245   2.896  15.927  0.2097 -0.1162  0.9100
  916MPD2    C313462   3.316   2.904  15.807  0.2920 -0.0451  0.1540
  916MPD2    C413463   3.387   3.014  15.777 -0.4947  0.0577  0.7937
  916MPD2    C513464   3.401   3.105  15.872  0.3763 -0.2000  0.0241
  916MPD2     H13465   3.181   2.809  15.939 -0.2499  0.3075  1.5674
  916MPD2    H113466   3.449   3.013  15.688  0.5002  2.0591  1.4813
  916MPD2    H213467   3.359   3.171  16.070  0.0367  0.6469  0.0395
  916MPD2    H313468   3.479   3.177  15.849 -0.3557  0.4316 -0.5219
  916MPD2     N13469   3.300   2.792  15.719 -0.6544  0.4836  0.0640
  916MPD2    H513470   3.241   2.716  15.751  3.1535 -1.5356  2.3994
  916MPD2    N113471   3.193   2.979  16.143  0.1427 -0.3935  0.0025
  916MPD2    H713472   3.185   3.065  16.196 -1.8672 -0.9986  0.7076
  917MPD2     C13473   3.396   0.234  11.410  0.2271 -0.1265 -0.2024
  917MPD2    C113474   3.428   0.275  11.535 -0.4139 -0.2251 -0.3648
  917MPD2    C213475   3.525   0.377  11.549  0.5671  0.3724 -0.1113
  917MPD2    C313476   3.574   0.446  11.440  0.2975 -0.2142 -0.0142
  917MPD2    C413477   3.529   0.411  11.316  0.5101  0.2250 -0.4307
  917MPD2    C513478   3.437   0.306  11.295  0.1367  0.6789  0.2888
  917MPD2     H13479   3.567   0.397  11.647 -0.0486  0.8192  0.0607
  917MPD2    H113480   3.547   0.474  11.230 -1.2873  0.3035 -0.7496
  917MPD2    H213481   3.330   0.152  11.383  0.4485 -0.1942 -0.5362
  917MPD2    H313482   3.412   0.270  11.196 -0.1360 -0.0960  0.6396
  917MPD2     N13483   3.644   0.564  11.456  0.6038  0.7541  0.0500
  917MPD2    H513484   3.636   0.629  11.379 -2.2232  2.6603  1.9767
  917MPD2    N113485   3.369   0.197  11.640 -0.3055  0.4582 -0.0533
  917MPD2    H713486   3.304   0.121  11.621  0.9538 -0.7546  0.5423
  918MPD2     C13487   3.487   0.475  12.587 -0.0142 -0.1885  0.4365
  918MPD2    C113488   3.590   0.440  12.504 -0.2335  0.7702  0.0756
  918MPD2    C213489   3.556   0.362  12.396  1.1655 -0.3054 -0.6541
  918MPD2    C313490   3.428   0.309  12.372  0.5410  0.1299 -0.8562
  918MPD2    C413491   3.331   0.352  12.457 -0.7531 -0.6827  0.6650
  918MPD2    C513492   3.362   0.438  12.558  0.2472  0.0937 -0.3210
  918MPD2     H13493   3.634   0.325  12.330  1.4829 -0.7830 -0.0139
  918MPD2    H113494   3.228   0.322  12.447 -0.6623 -0.4172 -1.0346
  918MPD2    H213495   3.501   0.538  12.675  1.0841 -0.4551  0.4616
  918MPD2    H313496   3.286   0.469  12.629 -1.3069  0.3476 -2.1029
  918MPD2     N13497   3.404   0.239  12.256  0.2705  0.1497  0.3149
  918MPD2    H513498   3.488   0.216  12.203  0.5104 -0.5777  1.0178
  918MPD2    N113499   3.725   0.472  12.528 -0.1641 -0.0547  0.0880
  918MPD2    H713500   3.800   0.439  12.467 -1.5497  1.9140 -2.6675
  919MPD2     C13501   3.712   4.038  11.944  0.0104  0.1367  0.6861
  919MPD2    C113502   3.682   3.947  11.841  0.1961  0.0334 -0.0396
  919MPD2    C213503   3.642   3.993  11.724  0.5315 -0.3280 -0.2064
  919MPD2    C313504   3.618   4.129  11.706  0.8874  0.2599 -0.0753
  919MPD2    C413505   3.649   4.223  11.808 -0.0845  0.2919  0.2906
  919MPD2    C513506   3.698   4.172  11.923 -0.6087 -0.4038 -0.1910
  919MPD2     H13507   3.642   3.919  11.645 -1.2440 -0.2302 -0.2906
  919MPD2    H113508   3.631   4.330  11.805 -1.8642 -0.0028  0.5340
  919MPD2    H213509   3.745   4.023  12.046 -0.4239 -0.5301  0.7339
  919MPD2    H313510   3.714   4.238  12.008  0.3293 -1.6883  0.6270
  919MPD2     N13511   3.559   4.176  11.589  0.2431  0.8514  0.3562
  919MPD2    H513512   3.558   4.277  11.573 -2.4429  1.0981  1.9174
  919MPD2    N113513   3.680   3.808  11.858 -0.0746 -0.0296  0.3559
  919MPD2    H713514   3.658   3.747  11.780  1.2474 -0.0929  0.0336
  920MPD2     C13515   3.893   4.524  10.690  0.4649 -0.1784  0.0561
  920MPD2    C113516   3.759   4.556  10.674 -0.7778  0.1661 -0.5713
  920MPD2    C213517   3.673   4.514  10.780  0.0666  0.4493 -0.3438
  920MPD2    C313518   3.716   4.443  10.892  0.5890 -0.6708 -0.5480
  920MPD2    C413519   3.851   4.407  10.897  0.4777 -0.0943  0.1780
  920MPD2    C513520   3.929   4.449  10.797  1.0470 -0.4121 -0.3265
  920MPD2     H13521   3.572   4.551  10.768 -0.3555 -0.0947  1.6165
  920MPD2    H113522   3.900   4.346  10.972  1.3912 -0.8897 -1.0608
  920MPD2    H213523   3.968   4.550  10.616  1.0503  0.8624  1.0163
  920MPD2    H313524   4.036   4.433  10.799  1.0869 -0.0873  0.1204
  920MPD2     N13525   3.620   4.402  10.987  0.1415  0.4199 -0.3042
  920MPD2    H513526   3.523   4.416  10.958 -1.1640 -1.4041  3.1721
  920MPD2    N113527   3.715   4.620  10.554  0.3457 -0.5744  0.2314
  920MPD2    H713528   3.614   4.626  10.550  0.4105  0.4951  0.0852
  921MPD2     C13529   0.109   2.849  16.727 -0.4199  0.2088 -0.4382
  921MPD2    C113530   0.136   2.779  16.612 -0.7410  0.6303  0.7893
  921MPD2    C213531   0.047   2.684  16.563  0.5944  0.1434 -0.5865
  921MPD2    C313532   4.660   2.664  16.621 -0.3939  0.0839 -0.4449
  921MPD2    C413533   4.636   2.728  16.744 -0.1227  0.2507  0.3919
  921MPD2    C513534   4.732   2.819  16.793 -0.4089  0.3489 -0.5926
  921MPD2     H13535   0.057   2.648  16.461  1.1522  0.4774 -0.6466
  921MPD2    H113536   4.541   2.711  16.794 -0.1166 -2.1700 -0.4260
  921MPD2    H213537   0.172   2.929  16.765 -1.5835  1.0095 -0.2018
  921MPD2    H313538   4.721   2.872  16.887  0.6938  0.1637 -0.3590
  921MPD2     N13539   4.551   2.589  16.569 -0.0087  0.0795 -0.0949
  921MPD2    H513540   4.468   2.584  16.627  1.3512  0.4660  1.8693
  921MPD2    N113541   0.255   2.804  16.542  0.5000 -0.1525  0.0367
  921MPD2    H713542   0.320   2.867  16.588 -0.9573  1.2564  0.1835
  922MPD2     C13543   0.926   0.976  17.032 -0.2036  0.2252  0.2638
  922MPD2    C113544   0.816   0.971  17.115  0.5275 -0.0276 -0.5255
  922MPD2    C213545   0.726   0.864  17.105  0.4780 -0.3280  0.0329
  922MPD2    C313546   0.734   0.784  16.993 -0.2406  0.1138 -0.0603
  922MPD2    C413547   0.844   0.792  16.912 -0.3066 -0.3728 -0.5478
  922MPD2    C513548   0.932   0.890  16.924 -0.0031 -0.4185  0.2929
  922MPD2     H13549   0.640   0.848  17.169  0.0834  1.2989 -0.0826
  922MPD2    H113550   0.858   0.741  16.817 -0.4978 -0.6729 -0.4127
  922MPD2    H213551   0.994   1.059  17.047 -1.0897  1.2100 -1.1847
  922MPD2    H313552   1.015   0.897  16.854 -1.8334  0.4305 -1.7869
  922MPD2     N13553   0.632   0.694  16.964 -0.5276  0.7830  0.4305
  922MPD2    H513554   0.549   0.697  17.022 -1.0141 -0.0259 -0.2162
  922MPD2    N113555   0.779   1.068  17.210  0.2498 -0.7405 -0.1916
  922MPD2    H713556   0.698   1.052  17.269 -0.6175  1.5954 -0.7362
  923MPD2     C13557   1.990   3.470   8.682 -0.4495 -0.2027 -0.4900
  923MPD2    C113558   1.982   3.492   8.819 -0.0261  0.1973  0.1176
  923MPD2    C213559   2.060   3.433   8.910  1.0349  0.5018 -0.1594
  923MPD2    C313560   2.130   3.328   8.867 -0.2420 -0.2625 -0.6199
  923MPD2    C413561   2.139   3.289   8.732  0.7575  0.6131  0.2293
  923MPD2    C513562   2.068   3.363   8.635  0.6917  0.3251 -0.8474
  923MPD2     H13563   2.052   3.445   9.017 -0.0936  0.7827 -0.2727
  923MPD2    H113564   2.192   3.198   8.705  1.8017  1.6447 -1.1993
  923MPD2    H213565   1.931   3.525   8.610 -0.6085 -0.7451 -0.7754
  923MPD2    H313566   2.076   3.343   8.529  1.8954  2.2973 -1.1303
  923MPD2     N13567   2.226   3.261   8.955  0.0948  0.4282 -0.5244
  923MPD2    H513568   2.270   3.180   8.913  1.6059  0.3648  1.1635
  923MPD2    N113569   1.891   3.594   8.855 -0.0259  0.2375 -0.1347
  923MPD2    H713570   1.829   3.618   8.778  1.2385  0.3043 -1.1277
  924MPD2     C13571   1.685   0.901  15.861  0.2664 -0.2834 -0.2525
  924MPD2    C113572   1.711   0.984  15.966  0.4267 -0.0196  0.0434
  924MPD2    C213573   1.748   1.112  15.934 -0.9866  0.2330 -0.1136
  924MPD2    C313574   1.768   1.151  15.805  0.0600  0.0907  0.6560
  924MPD2    C413575   1.746   1.061  15.703  0.4086  0.9374  0.4521
  924MPD2    C513576   1.705   0.938  15.731 -0.2073  0.4678 -0.0596
  924MPD2     H13577   1.775   1.182  16.013 -1.5919 -1.1919  1.3601
  924MPD2    H113578   1.756   1.090  15.599  1.7766 -1.0671  0.0195
  924MPD2    H213579   1.644   0.804  15.884 -0.8699  0.0225 -1.0205
  924MPD2    H313580   1.671   0.876  15.650  0.7094  0.9007 -0.7756
  924MPD2     N13581   1.796   1.283  15.766 -1.1361 -0.2828 -0.6787
  924MPD2    H513582   1.803   1.305  15.667  0.1746 -0.1553 -0.5575
  924MPD2    N113583   1.691   0.939  16.099 -0.3981  0.7538 -0.4010
  924MPD2    H713584   1.663   0.842  16.111 -0.3248  1.1748  3.1602
  925MPD2     C13585   0.860   3.988  14.168  0.3005  0.7043 -0.6844
  925MPD2    C113586   0.953   3.886  14.165 -0.0875 -0.6985 -0.3001
  925MPD2    C213587   1.000   3.834  14.282  0.2658  0.5597 -0.3985
  925MPD2    C313588   0.955   3.875  14.408  0.2403 -0.0884  0.7260
  925MPD2    C413589   0.863   3.984  14.404 -0.2531 -0.1670  0.0411
  925MPD2    C513590   0.812   4.028  14.293 -0.8526 -0.1692  0.0911
  925MPD2     H13591   1.068   3.750  14.280 -1.4054 -0.8801  3.1519
  925MPD2    H113592   0.817   4.023  14.494  1.7075 -1.5784  1.6497
  925MPD2    H213593   0.816   4.026  14.076 -1.8337 -2.9936 -1.2094
  925MPD2    H313594   0.730   4.099  14.296 -1.8719 -1.2754 -1.1674
  925MPD2     N13595   0.991   3.810  14.525  0.1142 -0.0394 -0.0058
  925MPD2    H513596   1.030   3.717  14.514  3.5206  1.2228  1.4590
  925MPD2    N113597   1.003   3.827  14.043  0.6719  0.0116  0.2275
  925MPD2    H713598   1.059   3.743  14.056  2.1224  0.8041 -0.8317
  926MPD2     C13599   4.096   1.959  13.522  0.7972 -0.2388  0.3289
  926MPD2    C113600   4.007   2.058  13.490  0.3263  0.9089 -0.2629
  926MPD2    C213601   4.034   2.144  13.386 -0.2257 -0.1958  0.6546
  926MPD2    C313602   4.156   2.132  13.317 -0.1366 -0.1523 -0.1493
  926MPD2    C413603   4.239   2.027  13.341  0.3969 -0.2179  0.2195
  926MPD2    C513604   4.210   1.942  13.449 -0.0153 -0.4092  0.7327
  926MPD2     H13605   3.956   2.213  13.356  1.7067  0.5601 -2.6539
  926MPD2    H113606   4.329   2.004  13.285  0.9360  0.5696  0.7686
  926MPD2    H213607   4.083   1.880  13.595 -0.4230  0.3002  0.6831
  926MPD2    H313608   4.271   1.859  13.481  0.8521 -0.4714 -1.0839
  926MPD2     N13609   4.200   2.223  13.215 -0.4674 -0.1559  0.5291
  926MPD2    H513610   4.287   2.199  13.169 -0.2001  1.0447  0.4249
  926MPD2    N113611   3.888   2.086  13.564  0.4841  0.3417  0.8243
  926MPD2    H713612   3.841   2.170  13.531  0.1001 -1.1248 -2.3491
  927MPD2     C13613   4.731   4.035  17.477  0.7993  0.6646  0.0009
  927MPD2    C113614   4.627   4.123  17.455  0.5935  0.5669  0.4331
  927MPD2    C213615   4.632   4.205  17.341  0.1846  1.0590 -0.3832
  927MPD2    C313616   0.003   4.202  17.247 -0.3339  0.2401  0.5166
  927MPD2    C413617   0.101   4.106  17.270 -0.4666  0.0122  0.0432
  927MPD2    C513618   0.093   4.024  17.378 -0.2640 -0.3715 -0.7835
  927MPD2     H13619   4.556   4.280  17.322 -1.4115 -0.3186  0.5719
  927MPD2    H113620   0.183   4.094  17.200 -0.9387 -3.0267  0.0008
  927MPD2    H213621   4.725   3.959  17.554 -0.2142  0.4614 -0.2729
  927MPD2    H313622   0.168   3.946  17.394  0.2463  0.6677  1.9677
  927MPD2     N13623   4.730   4.293  17.139  0.0400  0.1141 -0.6912
  927MPD2    H513624   4.652   4.358  17.129 -1.6717 -2.2317 -2.6809
  927MPD2    N113625   4.523   4.139  17.555 -0.2587  0.5606  0.0610
  927MPD2    H713626   4.541   4.086  17.640  0.0691  2.1826  0.9889
  928MPD2     C13627   2.109   2.877   0.225 -0.1409  0.3880 -0.7008
  928MPD2    C113628   2.173   2.965   0.302  0.3205 -0.4952  0.1519
  928MPD2    C213629   2.308   2.950   0.315  0.3120 -0.3189 -1.1866
  928MPD2    C313630   2.372   2.849   0.248 -0.0971  0.1270  0.1854
  928MPD2    C413631   2.306   2.749   0.183 -0.0248 -0.2976 -0.8536
  928MPD2    C513632   2.172   2.771   0.166 -0.5489 -0.0489 -0.2466
  928MPD2     H13633   2.372   3.015   0.374 -1.0436 -0.6875  0.6943
  928MPD2    H113634   2.362   2.665   0.146  1.0325  0.1806 -0.3411
  928MPD2    H213635   2.003   2.884   0.205 -0.5557 -2.1261  0.6773
  928MPD2    H313636   2.112   2.702   0.108 -1.0199  0.2407 -0.1070
  928MPD2     N13637   2.515   2.841   0.254  0.2161 -0.3114  0.6718
  928MPD2    H513638   2.555   2.771   0.192 -0.7954 -0.2275 -0.0695
  928MPD2    N113639   2.096   3.065   0.369 -0.5471 -0.3890  0.4230
  928MPD2    H713640   1.995   3.062   0.364 -0.6495 -0.1347  2.3304
  929MPD2     C13641   1.975   2.552   9.312 -0.0859  0.1320 -0.2402
  929MPD2    C113642   2.031   2.623   9.416 -0.5166 -0.3950 -0.8994
  929MPD2    C213643   2.033   2.760   9.412  0.4974 -0.1812  0.2007
  929MPD2    C313644   1.987   2.829   9.299  0.3602  0.5526 -0.3738
  929MPD2    C413645   1.941   2.761   9.192 -0.3317 -0.3043  0.0536
  929MPD2    C513646   1.936   2.623   9.203 -0.0133  0.5198 -0.0678
  929MPD2     H13647   2.052   2.814   9.505  0.6350  0.4209 -0.1771
  929MPD2    H113648   1.910   2.798   9.095  0.1902  0.1552  0.0612
  929MPD2    H213649   1.974   2.443   9.312 -0.3883  0.1369  0.9049
  929MPD2    H313650   1.904   2.575   9.112 -3.3903  0.1693  1.3018
  929MPD2     N13651   1.989   2.971   9.281 -0.0933 -0.0138 -0.2848
  929MPD2    H513652   1.968   3.003   9.187 -1.9843 -0.6360 -0.0764
  929MPD2    N113653   2.059   2.545   9.529 -0.6686  0.1684 -0.1827
  929MPD2    H713654   2.020   2.451   9.533 -0.0526 -0.0516  0.6231
  930MPD2     C13655   3.980   4.142  14.035 -0.1595 -0.2340 -0.1937
  930MPD2    C113656   4.057   4.253  14.059  0.0427  0.1422  0.5630
  930MPD2    C213657   4.041   4.367  13.986  0.1021 -0.2826 -0.1128
  930MPD2    C313658   3.942   4.375  13.890  0.7680  0.2265  0.5048
  930MPD2    C413659   3.861   4.269  13.867  0.5529 -0.0561 -0.1371
  930MPD2    C513660   3.883   4.151  13.936 -0.2470  0.0235 -0.1325
  930MPD2     H13661   4.120   4.440  14.001  0.3030 -0.3058 -1.0207
  930MPD2    H113662   3.786   4.271  13.789  0.0379 -0.0475  0.3580
  930MPD2    H213663   4.001   4.049  14.087  1.5142  2.1889  3.4172
  930MPD2    H313664   3.832   4.062  13.900  1.7551 -0.2096 -2.4025
  930MPD2     N13665   3.928   4.493  13.821 -0.8206 -0.4492  0.2910
  930MPD2    H513666   4.015   4.546  13.819 -1.1441  0.0038 -1.3079
  930MPD2    N113667   4.154   4.256  14.159 -0.2674  0.2256 -0.2565
  930MPD2    H713668   4.192   4.348  14.182  0.3895 -0.6708  2.1882
  931MPD2     C13669   4.378   3.600   0.135  0.1033  0.3453  0.1694
  931MPD2    C113670   4.352   3.713   0.207  0.3280 -0.5175  0.3100
  931MPD2    C213671   4.359   3.701   0.348  0.0713  0.6181  0.1015
  931MPD2    C313672   4.414   3.583   0.406 -0.2210  0.0512  0.1432
  931MPD2    C413673   4.441   3.474   0.326  0.2044  0.0582  0.2660
  931MPD2    C513674   4.416   3.481   0.195 -0.0400 -0.8041  0.7308
  931MPD2     H13675   4.338   3.781   0.417  1.0256  1.0686 -0.1350
  931MPD2    H113676   4.474   3.378   0.363  1.0867 -0.9952 -3.2306
  931MPD2    H213677   4.385   3.601   0.027 -0.6303  0.7248  0.1287
  931MPD2    H313678   4.450   3.398   0.134 -1.6006 -0.4471 -0.6123
  931MPD2     N13679   4.463   3.579   0.540  0.7513 -0.0282 -0.2469
  931MPD2    H513680   4.473   3.488   0.584 -0.1946  0.8208  1.6889
  931MPD2    N113681   4.323   3.823   0.130  0.2194 -0.0365  0.1088
  931MPD2    H713682   4.325   3.818   0.029 -1.1383  3.9278 -0.1056
  932MPD2     C13683   0.969   3.006  11.050  0.0720  0.6188  0.2415
  932MPD2    C113684   1.072   3.007  11.138  0.0510  0.6692 -0.4881
  932MPD2    C213685   1.117   2.896  11.204 -0.5058  0.2674  0.1989
  932MPD2    C313686   1.046   2.778  11.195  0.1815  0.1504 -0.4034
  932MPD2    C413687   0.934   2.783  11.114 -0.3630 -0.0557 -0.3172
  932MPD2    C513688   0.895   2.890  11.044  0.8014  0.4856 -0.3993
  932MPD2     H13689   1.201   2.897  11.272  0.7438  2.1784 -1.3790
  932MPD2    H113690   0.875   2.692  11.115  1.1930 -1.0744 -2.1714
  932MPD2    H213691   0.934   3.097  11.003 -0.4965  0.6940  0.8227
  932MPD2    H313692   0.805   2.892  10.984 -0.4771 -1.6117  1.4468
  932MPD2     N13693   1.085   2.651  11.259 -0.1536  1.4498  0.4621
  932MPD2    H513694   1.032   2.571  11.227 -0.2013  0.9545  1.8131
  932MPD2    N113695   1.145   3.130  11.159 -0.4087 -0.4902  0.0286
  932MPD2    H713696   1.198   3.140  11.246 -3.9470  0.0181  2.1404
  933MPD2     C13697   1.484   3.231   0.251  0.3385  0.0932  0.1850
  933MPD2    C113698   1.577   3.328   0.267  0.2768  0.1140  0.8066
  933MPD2    C213699   1.571   3.448   0.194  0.9894  0.2300 -0.3216
  933MPD2    C313700   1.461   3.474   0.114  0.8625 -0.8600 -0.3202
  933MPD2    C413701   1.364   3.376   0.103 -0.2222  0.0473 -0.7514
  933MPD2    C513702   1.378   3.257   0.171 -0.5471 -0.9526 -0.0120
  933MPD2     H13703   1.649   3.523   0.188  1.7939 -0.7685 -2.3610
  933MPD2    H113704   1.279   3.391   0.037 -0.0972 -1.4756 -1.2598
  933MPD2    H213705   1.484   3.139   0.309 -3.5947 -0.3081 -0.4512
  933MPD2    H313706   1.299   3.183   0.159  0.3440 -2.0277  0.8744
  933MPD2     N13707   1.467   3.600   0.048  0.0336 -0.3640 -0.7097
  933MPD2    H513708   1.545   3.659   0.074  1.5418 -1.9996 -1.5334
  933MPD2    N113709   1.684   3.305   0.351  0.2692  1.0477 -0.4910
  933MPD2    H713710   1.699   3.210   0.384  2.5192  1.2374 -1.0066
  934MPD2     C13711   3.425   0.881   1.392 -0.1678 -0.9005  0.0410
  934MPD2    C113712   3.482   0.759   1.375  0.4511 -0.2138 -0.1207
  934MPD2    C213713   3.409   0.667   1.302  0.3043  0.2471 -0.2592
  934MPD2    C313714   3.282   0.697   1.246  0.7497  0.8194  0.2016
  934MPD2    C413715   3.228   0.816   1.271 -0.6834  0.3768 -0.1025
  934MPD2    C513716   3.303   0.908   1.337 -0.7594 -0.8872 -0.0440
  934MPD2     H13717   3.458   0.571   1.294  2.2368  1.4311 -2.5875
  934MPD2    H113718   3.135   0.854   1.232 -1.6698  0.6453  2.5472
  934MPD2    H213719   3.475   0.964   1.440  0.2405 -0.7539 -0.6558
  934MPD2    H313720   3.265   1.007   1.356 -1.8595 -1.5700  1.2815
  934MPD2     N13721   3.212   0.613   1.164 -0.3120  0.1184 -0.3524
  934MPD2    H513722   3.123   0.645   1.128  0.1718 -0.8391 -2.4508
  934MPD2    N113723   3.616   0.727   1.400 -0.0621 -0.1765 -0.3179
  934MPD2    H713724   3.649   0.635   1.373 -0.2915 -0.4797  0.4454
  935MPD2     C13725   3.562   4.443   0.903 -0.4651  0.8735 -0.4345
  935MPD2    C113726   3.442   4.451   0.832 -0.4381  0.0731 -0.0164
  935MPD2    C213727   3.359   4.559   0.855 -0.5150 -0.1994  0.6851
  935MPD2    C313728   3.393   4.655   0.943 -0.0045 -0.4045 -0.1550
  935MPD2    C413729   3.508   4.642   1.018  0.5000 -0.8329  0.6449
  935MPD2    C513730   3.587   4.535   0.992 -0.0545  0.1285  0.2847
  935MPD2     H13731   3.267   4.569   0.798  0.0681  0.7010 -0.0808
  935MPD2    H113732   3.540   4.710   1.096  0.4909  2.0579 -1.8892
  935MPD2    H213733   3.618   4.350   0.902  0.5962  1.5161 -0.3140
  935MPD2    H313734   3.681   4.516   1.043 -0.6302 -0.7399  1.0228
  935MPD2     N13735   3.320   0.040   0.968 -0.2153  0.4904  0.5574
  935MPD2    H513736   3.354   0.113   1.029 -0.7112 -0.0662  1.4865
  935MPD2    N113737   3.390   4.346   0.749 -0.2232 -0.1129  0.2008
  935MPD2    H713738   3.293   4.351   0.717 -1.3600 -0.9195  3.5452
  936MPD2     C13739   1.555   1.593  12.683  0.4196 -0.2951 -0.2214
  936MPD2    C113740   1.534   1.725  12.719  0.3871 -0.4592 -0.1782
  936MPD2    C213741   1.560   1.823  12.631 -0.3055 -0.2244 -0.0020
  936MPD2    C313742   1.622   1.797  12.507 -0.2744 -0.3516  0.3325
  936MPD2    C413743   1.643   1.668  12.470 -0.2276 -0.7819 -0.1684
  936MPD2    C513744   1.611   1.569  12.558  0.8216  0.4010 -0.1983
  936MPD2     H13745   1.532   1.926  12.651 -0.1825 -0.2826  0.4708
  936MPD2    H113746   1.671   1.640  12.369 -1.0814  0.6706 -0.8026
  936MPD2    H213747   1.530   1.507  12.743 -0.0506  2.7392  3.9476
  936MPD2    H313748   1.616   1.466  12.526  2.2915  0.5423 -0.4365
  936MPD2     N13749   1.657   1.911  12.433 -0.1943 -0.2253 -0.3189
  936MPD2    H513750   1.647   2.003  12.475  1.6228 -0.2097  0.1232
  936MPD2    N113751   1.493   1.759  12.850 -0.1634 -0.4927  0.8595
  936MPD2    H713752   1.496   1.857  12.873  1.1954 -0.5847  1.0567
  937MPD2     C13753   3.783   3.235  11.530  0.9678  0.1553 -1.1810
  937MPD2    C113754   3.891   3.302  11.591 -0.0944  0.6466  0.2636
  937MPD2    C213755   3.988   3.354  11.502 -0.6312  0.1141  0.5882
  937MPD2    C313756   3.996   3.315  11.364 -0.6007  0.0560  0.5971
  937MPD2    C413757   3.883   3.252  11.313  0.2914  0.4069  0.4275
  937MPD2    C513758   3.780   3.223  11.394 -0.7702  0.0037 -0.2855
  937MPD2     H13759   4.059   3.428  11.538  1.8488 -1.4756 -1.0466
  937MPD2    H113760   3.869   3.224  11.210  2.0903  2.0232 -0.2566
  937MPD2    H213761   3.704   3.183  11.583  2.1211 -1.2690 -0.8703
  937MPD2    H313762   3.701   3.170  11.342 -2.3922  1.8326  0.3327
  937MPD2     N13763   4.099   3.359  11.292 -0.5754 -0.0272  0.1876
  937MPD2    H513764   4.170   3.411  11.344 -0.1542 -0.5579  0.1421
  937MPD2    N113765   3.870   3.360  11.715  0.3452  0.0288 -0.2923
  937MPD2    H713766   3.908   3.452  11.733 -2.2168  1.2037 -0.8409
  938MPD2     C13767   2.516   0.070   0.443 -0.4983  0.0620  0.0539
  938MPD2    C113768   2.599   0.128   0.540 -0.5816  0.4486  0.0434
  938MPD2    C213769   2.604   0.078   0.663  0.6371  0.6653 -0.4403
  938MPD2    C313770   2.518   4.710   0.712 -0.2336  0.0952 -0.3370
  938MPD2    C413771   2.445   4.649   0.611 -0.4649 -0.4632 -0.3822
  938MPD2    C513772   2.453   4.697   0.483 -0.2417  0.3985 -0.5073
  938MPD2     H13773   2.668   0.129   0.734 -1.5338  0.2085  1.8131
  938MPD2    H113774   2.398   4.551   0.619 -1.3260 -0.1168 -1.1336
  938MPD2    H213775   2.498   0.108   0.343 -1.7442 -1.1380 -0.1763
  938MPD2    H313776   2.389   4.654   0.407 -1.6675 -1.1056  1.5534
  938MPD2     N13777   2.517   4.672   0.849  0.1591 -0.1502  0.3974
  938MPD2    H513778   2.594   4.703   0.908 -0.0776  0.4337  0.4036
  938MPD2    N113779   2.668   0.253   0.517 -0.7954  0.5117 -0.1811
  938MPD2    H713780   2.732   0.286   0.588 -2.1121  1.0265  0.7600
  939MPD2     C13781   3.468   1.384   0.325 -0.2879 -0.3094 -0.8868
  939MPD2    C113782   3.545   1.379   0.438  0.5392 -0.2503 -0.2355
  939MPD2    C213783   3.678   1.343   0.429 -0.0433 -0.7356 -0.1070
  939MPD2    C313784   3.726   1.295   0.307 -0.0682 -0.2768 -0.5837
  939MPD2    C413785   3.647   1.286   0.194  0.4818  0.1902 -0.3991
  939MPD2    C513786   3.518   1.331   0.207 -0.4152  0.3159 -0.7116
  939MPD2     H13787   3.744   1.356   0.514  1.5394  0.2705 -1.4956
  939MPD2    H113788   3.675   1.239   0.100 -0.4588 -2.7702  0.8152
  939MPD2    H213789   3.369   1.428   0.338  0.2693  0.1824  1.6193
  939MPD2    H313790   3.459   1.323   0.117  0.2973  1.2667 -1.2713
  939MPD2     N13791   3.853   1.235   0.315 -0.2960 -0.7896 -0.4512
  939MPD2    H513792   3.922   1.270   0.380 -0.3065 -1.3983 -0.1110
  939MPD2    N113793   3.485   1.435   0.556 -0.2795  0.0645  0.0933
  939MPD2    H713794   3.400   1.490   0.552 -0.2825  0.1109  0.7318
  940MPD2     C13795   2.379   2.239  13.547 -0.2732 -0.6020  0.0152
  940MPD2    C113796   2.266   2.158  13.534 -0.0135 -0.3425 -0.0250
  940MPD2    C213797   2.206   2.143  13.409  0.3870 -0.1024 -0.4520
  940MPD2    C313798   2.266   2.199  13.299 -0.1840  0.4900  0.5806
  940MPD2    C413799   2.385   2.265  13.306  0.0976  0.5380  0.5294
  940MPD2    C513800   2.439   2.286  13.431  0.1948 -0.6994  0.0986
  940MPD2     H13801   2.112   2.091  13.405 -0.5381  1.4421  1.1883
  940MPD2    H113802   2.438   2.295  13.216  2.4532 -1.6060  1.2004
  940MPD2    H213803   2.435   2.253  13.639  0.4427  1.4601 -0.7317
  940MPD2    H313804   2.536   2.332  13.445  0.4266 -1.3046  0.4662
  940MPD2     N13805   2.198   2.192  13.171  0.6893  0.6283 -0.1075
  940MPD2    H513806   2.253   2.225  13.092  2.2760  0.5786  0.9775
  940MPD2    N113807   2.202   2.095  13.641  0.0032  0.2175  0.0127
  940MPD2    H713808   2.134   2.021  13.625 -0.2799  0.8053 -1.5055
  941MPD2     C13809   1.855   0.415   9.456 -0.3548  0.9874 -0.2352
  941MPD2    C113810   1.847   0.391   9.594 -0.3846 -0.4625 -0.0654
  941MPD2    C213811   1.816   0.268   9.649  0.0005 -0.2214  0.4689
  941MPD2    C313812   1.777   0.161   9.561  0.0523 -0.3008 -0.3153
  941MPD2    C413813   1.780   0.188   9.424 -0.2488  0.0394  0.0699
  941MPD2    C513814   1.814   0.309   9.380 -0.3828  0.1231 -0.3076
  941MPD2     H13815   1.817   0.248   9.755 -1.2409 -1.5907  0.2237
  941MPD2    H113816   1.757   0.110   9.353  0.2505  1.3746 -1.5653
  941MPD2    H213817   1.907   0.498   9.410  0.0785  1.5077  1.1759
  941MPD2    H313818   1.825   0.305   9.273 -0.9676 -1.4159 -0.2956
  941MPD2     N13819   1.729   0.031   9.607  0.3410 -0.3867  0.0309
  941MPD2    H513820   1.711   4.705   9.529 -1.2766  0.6503 -0.4296
  941MPD2    N113821   1.876   0.489   9.693  0.1202  0.0251 -0.3768
  941MPD2    H713822   1.872   0.456   9.789  1.2092  1.6683  0.2357
  942MPD2     C13823   0.536   2.090  10.019  0.1775 -0.3531 -0.3751
  942MPD2    C113824   0.592   2.153   9.909 -0.7827 -0.1393  0.2340
  942MPD2    C213825   0.701   2.100   9.851  0.2208 -0.3184  0.0661
  942MPD2    C313826   0.753   1.985   9.895 -0.5115  0.0584 -0.2661
  942MPD2    C413827   0.696   1.913   9.996 -0.7187 -0.1790 -1.1825
  942MPD2    C513828   0.592   1.973  10.063  0.0235 -0.6757  0.1872
  942MPD2     H13829   0.734   2.153   9.763  2.0657  1.0023  1.5654
  942MPD2    H113830   0.726   1.815  10.030 -1.3547  0.3890  0.9890
  942MPD2    H213831   0.453   2.138  10.071 -2.0704 -2.0987 -2.3399
  942MPD2    H313832   0.539   1.920  10.142  0.5866 -2.3751 -0.5703
  942MPD2     N13833   0.868   1.923   9.840  0.5441  0.0328 -0.7248
  942MPD2    H513834   0.887   1.833   9.882  0.0748  0.6284  0.7396
  942MPD2    N113835   0.540   2.272   9.852 -0.4152 -0.1436 -0.4473
  942MPD2    H713836   0.610   2.328   9.805 -0.7855  3.0818  2.7653
  943MPD2     C13837   0.609   4.410   9.899 -0.4730 -0.3041 -0.3706
  943MPD2    C113838   0.518   4.438   9.997  0.6148  0.8815  0.0024
  943MPD2    C213839   0.383   4.461   9.967  0.4155  0.3848  0.0422
  943MPD2    C313840   0.343   4.466   9.836 -0.0678  0.2151 -0.0902
  943MPD2    C413841   0.433   4.431   9.736 -0.1994 -0.8735  0.4854
  943MPD2    C513842   0.565   4.406   9.769 -0.3171  0.2946 -0.5103
  943MPD2     H13843   0.308   4.483  10.041 -0.1113 -1.5474  0.0687
  943MPD2    H113844   0.401   4.426   9.633  0.8784  3.1106 -0.0751
  943MPD2    H213845   0.715   4.410   9.922 -0.0070  0.6453 -2.5070
  943MPD2    H313846   0.639   4.397   9.690  0.0527  0.4778 -0.1917
  943MPD2     N13847   0.214   4.504   9.789 -0.0959  0.3343 -0.1171
  943MPD2    H513848   0.199   4.495   9.689 -2.5096  1.9727  0.1027
  943MPD2    N113849   0.555   4.448  10.137 -0.8107  0.3083  0.1464
  943MPD2    H713850   0.483   4.462  10.207 -1.8054  2.6547 -1.3776
  944MPD2     C13851   4.414   4.226  11.358  0.0970  0.3435  1.4521
  944MPD2    C113852   4.539   4.281  11.325 -0.0490 -0.1174  0.8053
  944MPD2    C213853   4.576   4.398  11.384 -0.3428  0.5860  0.3913
  944MPD2    C313854   4.495   4.452  11.480  0.2117  0.2875 -0.1306
  944MPD2    C413855   4.370   4.395  11.516  0.2039  0.2568  0.4728
  944MPD2    C513856   4.332   4.284  11.448 -0.1652 -0.2746  0.0741
  944MPD2     H13857   4.674   4.439  11.363 -0.9729  1.3672 -1.0592
  944MPD2    H113858   4.299   4.428  11.590 -1.0355 -0.3860 -0.4332
  944MPD2    H213859   4.378   4.129  11.326  3.7494 -0.3568 -0.5390
  944MPD2    H313860   4.232   4.245  11.462 -0.9919  1.6192 -0.4802
  944MPD2     N13861   4.536   4.575  11.542  0.3470 -0.1614  0.3935
  944MPD2    H513862   4.619   4.621  11.508  1.1908 -2.5881 -0.8064
  944MPD2    N113863   4.605   4.226  11.212 -0.4651 -0.5034  0.0311
  944MPD2    H713864   4.556   4.168  11.144 -1.9177  0.2972  0.3965
    1TMC1    C113865   3.446   0.466  14.808 -0.1067 -0.2048  1.2059
    1TMC1    C213866   3.403   0.484  14.677  0.0688  0.1339  0.3116
    1TMC1    C313867   3.421   0.382  14.588 -0.6405 -0.1775 -1.1530
    1TMC1    C413868   3.498   0.349  14.850  0.1279 -0.0062 -0.6684
    1TMC1    C513869   3.504   0.249  14.761 -0.1738 -0.0625  0.4941
    1TMC1    C613870   3.470   0.258  14.633 -0.5233  0.4033 -0.2611
    1TMC1     C13871   3.445   0.574  14.910  0.6639  0.6473 -0.0979
    1TMC1     O13872   3.504   0.547  15.016  0.2880 -0.3130 -0.1306
    1TMC1     H13873   3.364   0.580  14.645 -0.6167 -0.0333  0.6551
    1TMC1    H113874   3.545   0.333  14.946 -1.7216  0.8872  0.3878
    1TMC1    H213875   3.471   0.165  14.578  1.5643  1.0141 -1.2648
    1TMC1    C713876   3.579   0.130  14.794 -0.5370  0.0030  0.1651
    1TMC1    C813877   3.366   0.386  14.458 -0.3949  0.1603  0.4167
    1TMC1    O113878   3.605   0.097  14.910  0.4190 -0.2929 -0.4060
    1TMC1    O213879   3.319   0.283  14.417  0.6239  0.6551 -0.0585
    1TMC1    O313880   3.668   0.119  14.691 -0.2136 -0.2225 -0.0252
    1TMC1    H313881   3.653   0.192  14.628 -0.2532 -1.6775 -1.6888
    1TMC1    O513882   3.311   0.512  14.436  0.1903  0.4707  0.0688
    1TMC1    H513883   3.366   0.589  14.460 -1.3063  1.0207  1.7400
    2MPD2     C13884   3.316   1.035  15.083 -0.4935 -0.3836 -0.5384
    2MPD2    C113885   3.265   1.023  14.955  0.2539  0.9088 -0.0605
    2MPD2    C213886   3.276   0.902  14.893 -0.0553  0.0512 -0.6141
    2MPD2    C313887   3.332   0.791  14.958 -0.2648  0.4225  0.1904
    2MPD2    C413888   3.371   0.805  15.088  0.6943  0.0490 -0.3400
    2MPD2    C513889   3.374   0.931  15.142 -0.0258  0.4691 -0.3550
    2MPD2     H13890   3.235   0.890  14.794  2.2927 -1.2314 -1.4477
    2MPD2    H113891   3.415   0.724  15.144  0.6459  0.1609 -0.1401
    2MPD2    H213892   3.315   1.124  15.144 -0.0009 -0.7714  0.0376
    2MPD2    H313893   3.414   0.949  15.241  0.6934 -0.1398 -0.5340
    2MPD2     N13894   3.364   0.679  14.879 -0.7950 -0.3658 -0.3431
    2MPD2    H513895   3.325   0.680  14.785 -3.3046 -0.7100  0.6939
    2MPD2    N113896   3.221   1.144  14.897 -0.6311 -0.3469  0.1700
    2MPD2    H713897   3.218   1.223  14.961  0.1450 -0.5934  0.5112
    3TMC2    C113898   3.147   1.296  14.735  0.6492 -0.5451  0.2667
    3TMC2    C213899   3.097   1.377  14.835 -0.0984  0.1628  0.4944
    3TMC2    C313900   3.064   1.505  14.798 -0.5545 -1.6689 -0.1510
    3TMC2    C413901   3.146   1.328  14.602  0.0132  0.9098  0.4272
    3TMC2    C513902   3.118   1.458  14.574 -0.2712  0.2556 -0.2748
    3TMC2    C613903   3.074   1.549  14.668 -0.1471  0.7356  0.8810
    3TMC2     C13904   3.180   1.160  14.765 -0.3836  0.3976 -0.2085
    3TMC2     O13905   3.190   1.087  14.670 -0.3086 -1.0014  0.5483
    3TMC2     H13906   3.089   1.333  14.934  0.2755  0.0862  0.4925
    3TMC2    H113907   3.170   1.249  14.531  1.0359  0.2104  1.5528
    3TMC2    H213908   3.049   1.652  14.643 -0.4208  0.8724  1.6899
    3TMC2    C713909   3.082   1.491  14.433  0.4525  0.1584 -0.5938
    3TMC2    C813910   3.025   1.601  14.900 -0.1835  0.1540 -0.1322
    3TMC2    O113911   3.110   1.403  14.350  0.1060  0.0135 -0.0813
    3TMC2    O213912   2.992   1.714  14.875  0.4121  0.2183  0.0516
    3TMC2    O513913   3.034   1.540  15.020  0.1397 -0.2044 -0.2456
    3TMC2    H513914   3.098   1.466  15.025  0.2063 -0.2614 -1.9506
    4TMC2    C113915   2.463   2.229  14.143 -0.6856  0.2876 -0.6498
    4TMC2    C213916   2.504   2.295  14.030 -0.1474  0.2287  0.0261
    4TMC2    C313917   2.621   2.265  13.977 -0.8041 -0.0556 -0.4255
    4TMC2    C413918   2.541   2.135  14.199  0.2571  0.0160  0.3676
    4TMC2    C513919   2.666   2.111  14.145 -0.2767  0.1229 -0.2169
    4TMC2    C613920   2.695   2.163  14.028  0.1620  0.2715 -0.0643
    4TMC2     C13921   2.326   2.234  14.196  1.2249  0.2640  0.3803
    4TMC2     O13922   2.304   2.223  14.318  0.4432  0.0741  0.2478
    4TMC2     H13923   2.434   2.361  13.979 -0.5044  0.1435  0.4092
    4TMC2    H113924   2.499   2.091  14.288 -0.3987  1.7808  0.9350
    4TMC2    H213925   2.783   2.137  13.970  0.7430  2.0028  0.0298
    4TMC2    C713926   2.746   1.999  14.208 -0.3357 -0.5828 -0.1293
    4TMC2    C813927   2.682   2.361  13.898 -0.4636  0.6348  0.0909
    4TMC2    O113928   2.707   1.949  14.316 -0.2017  0.0760 -0.5232
    4TMC2    O213929   2.759   2.332  13.801 -0.0100  0.0671 -0.4663
    4TMC2    O513930   2.635   2.486  13.921 -0.3482  0.8337  0.0478
    4TMC2    H513931   2.592   2.484  14.009 -0.6979 -1.5902 -0.1829
    5MPD2     C13932   1.810   2.354  14.154 -0.0255  0.3635  0.1560
    5MPD2    C113933   1.879   2.393  14.035  0.0482 -0.1634 -0.0075
    5MPD2    C213934   2.013   2.354  14.015 -0.5179  0.4303  0.1835
    5MPD2    C313935   2.087   2.299  14.123  0.2087  1.0034 -0.1719
    5MPD2    C413936   2.022   2.282  14.244  0.4838  0.6579  0.6119
    5MPD2    C513937   1.881   2.302  14.250 -0.1081  0.1062  0.4117
    5MPD2     H13938   2.063   2.364  13.920 -0.1005 -0.5900  0.2894
    5MPD2    H113939   2.067   2.240  14.333  1.0310  2.1880  1.0436
    5MPD2    H213940   1.707   2.387  14.161 -0.3193 -0.9646  2.1699
    5MPD2    H313941   1.827   2.281  14.342  1.6362  0.3376  1.4831
    5MPD2     N13942   2.230   2.276  14.106 -0.7728 -0.1304 -0.6387
    5MPD2    H513943   2.269   2.296  14.014 -1.1030  4.1420  0.1408
    5MPD2    N113944   1.792   2.442  13.930  0.1860  0.4381  0.2656
    5MPD2    H713945   1.692   2.440  13.945  0.1318  0.1705 -0.1222
    6MPD1     C13946   1.465   2.539  11.934  0.6528 -0.2484 -0.5675
    6MPD1    C113947   1.500   2.441  12.019  0.4863 -0.2553 -0.4351
    6MPD1    C213948   1.464   2.449  12.150  0.0219  0.5764 -1.1626
    6MPD1    C313949   1.419   2.572  12.202  0.5685 -0.6385 -0.3414
    6MPD1    C413950   1.398   2.677  12.119  0.4311  0.2889  0.4641
    6MPD1    C513951   1.425   2.658  11.985  0.3923  0.3805  0.2081
    6MPD1     H13952   1.492   2.372  12.221  0.6876 -0.7848 -2.9087
    6MPD1    H113953   1.374   2.776  12.156  1.2709 -0.1457  2.1490
    6MPD1    H213954   1.487   2.531  11.828 -0.3055  1.4531 -0.8922
    6MPD1    H313955   1.406   2.742  11.919 -1.9088 -1.2330 -1.1781
    6MPD1     N13956   1.382   2.589  12.337  0.3655 -0.0726  0.3935
    6MPD1    H513957   1.364   2.684  12.369  0.8343  0.0679  0.2526
    6MPD1    N113958   1.539   2.317  11.965 -0.3218 -0.6764  0.0723
    6MPD1    H613959   1.609   2.321  11.891 -0.3591  0.7738  0.1115
    6MPD1    H713960   1.575   2.252  12.035  2.3004  0.2376 -0.4429
    7MPD2     C13961   1.229   2.302  13.162 -0.4127  0.2834 -0.5410
    7MPD2    C113962   1.325   2.401  13.131 -0.4735 -0.3568  0.5402
    7MPD2    C213963   1.385   2.477  13.232  0.8830  0.0310  0.5344
    7MPD2    C313964   1.350   2.450  13.364 -0.1392  0.5976 -0.1066
    7MPD2    C413965   1.263   2.350  13.392  0.5993  0.5046  0.2548
    7MPD2    C513966   1.205   2.277  13.293  0.6704  0.1442 -0.4196
    7MPD2     H13967   1.451   2.556  13.199 -1.0378  0.5861 -1.9841
    7MPD2    H113968   1.245   2.315  13.493  1.3842 -3.1276 -0.8880
    7MPD2    H213969   1.174   2.249  13.085 -1.4650 -0.1285  0.4998
    7MPD2    H313970   1.136   2.196  13.314 -1.1544  0.8412 -3.7783
    7MPD2     N13971   1.426   2.519  13.461  0.3251  0.4043  0.0430
    7MPD2    H513972   1.497   2.583  13.426  0.5151  0.2502  0.1403
    7MPD2    N113973   1.352   2.439  12.997  0.4084 -0.5134  0.0129
    7MPD2    H713974   1.394   2.531  12.983 -0.4848 -0.4133 -1.9980
    8TMC3    C113975   1.517   2.574  13.658 -0.3028  0.2441  0.5616
    8TMC3    C213976   1.606   2.503  13.727 -0.7510  0.2929 -0.2321
    8TMC3    C313977   1.742   2.523  13.706  0.1727 -0.2403  1.1809
    8TMC3    C413978   1.561   2.678  13.586 -0.3289 -0.0732  0.8020
    8TMC3    C513979   1.692   2.698  13.554 -0.0622  0.3378 -0.1167
    8TMC3    C613980   1.785   2.621  13.615 -0.1198  0.2545  0.1603
    8TMC3     C13981   1.418   2.487  13.595 -0.5512  0.1126 -0.5490
    8TMC3     O13982   1.380   2.390  13.655  0.4142 -0.1006 -0.2725
    8TMC3     H13983   1.567   2.441  13.808  2.3488 -1.0109  0.2694
    8TMC3    H113984   1.476   2.741  13.562 -1.3858 -1.3411  1.2018
    8TMC3    H213985   1.890   2.623  13.588 -0.0598 -0.9653  0.2998
    8TMC3    C713986   1.696   2.724  13.413  0.0019  0.1683  0.4315
    8TMC3    C813987   1.837   2.477  13.809 -0.2816 -0.3137  0.7311
    8TMC3    O113988   1.586   2.759  13.368  0.4879 -0.0421  0.5483
    8TMC3    O213989   1.948   2.489  13.762 -0.6254  0.3528 -0.0329
    9TMC3    C113990   1.383   2.541  12.567 -0.2825  0.1488  0.3258
    9TMC3    C213991   1.479   2.635  12.601 -0.3582  0.0248  0.6764
    9TMC3    C313992   1.528   2.630  12.731 -0.7738 -0.1101  0.7352
    9TMC3    C413993   1.332   2.450  12.654  0.3514  0.2025  0.0641
    9TMC3    C513994   1.391   2.448  12.781 -0.5516 -0.1655 -0.5439
    9TMC3    C613995   1.481   2.532  12.820 -0.0485  0.1042 -0.4336
    9TMC3     C13996   1.386   2.491  12.430 -0.9006 -0.1341  0.4365
    9TMC3     O13997   1.366   2.373  12.413  0.6789  0.2237  0.1560
    9TMC3     H13998   1.529   2.705  12.536 -3.7302  0.0267 -1.9241
    9TMC3    H113999   1.257   2.377  12.626  0.3751  0.3964 -0.5162
    9TMC3    H214000   1.542   2.524  12.909  2.1429  2.3426 -1.7409
    9TMC3    C714001   1.329   2.370  12.886 -0.2738 -0.4128 -0.6877
    9TMC3    C814002   1.636   2.714  12.762  0.1671  0.4807  0.1539
    9TMC3    O114003   1.267   2.268  12.858  0.0484  0.0803  0.0697
    9TMC3    O214004   1.726   2.709  12.679  0.0076  0.2683 -0.1567
   10MPD2     C14005   1.964   2.697  13.158  0.1064 -0.2184 -0.1777
   10MPD2    C114006   1.836   2.709  13.204 -0.4224  0.6458  0.1684
   10MPD2    C214007   1.730   2.726  13.113  0.0088 -0.4964 -0.4367
   10MPD2    C314008   1.756   2.741  12.977 -0.7087 -0.1583 -0.1788
   10MPD2    C414009   1.885   2.733  12.933 -0.7729 -0.2953 -0.2959
   10MPD2    C514010   1.988   2.726  13.026 -0.3781 -0.9551  0.3561
   10MPD2     H14011   1.626   2.712  13.143  0.0025 -0.5936 -0.5029
   10MPD2    H114012   1.915   2.759  12.832 -0.1056  1.7869  0.4263
   10MPD2    H214013   2.042   2.679  13.231  0.0980 -2.2856 -0.6757
   10MPD2    H314014   2.090   2.717  12.989 -0.7605  0.8675 -1.1202
   10MPD2     N14015   1.638   2.742  12.897  0.0819 -0.2561  0.1009
   10MPD2    H514016   1.553   2.729  12.951 -1.1040 -0.0586 -1.7105
   10MPD2    N114017   1.820   2.702  13.347 -0.0364 -0.6180  0.4270
   10MPD2    H714018   1.902   2.683  13.404 -1.6064 -0.5278  2.7322
   11MPD2     C14019   3.090   1.628  14.165 -1.2806  0.6865  1.3030
   11MPD2    C114020   3.014   1.672  14.274 -0.0980  0.4218 -0.2522
   11MPD2    C214021   2.936   1.784  14.271  0.3608  0.3067 -0.5272
   11MPD2    C314022   2.924   1.843  14.147 -0.4619 -0.1886  0.1129
   11MPD2    C414023   2.988   1.795  14.027  0.2660  0.0089  0.7559
   11MPD2    C514024   3.076   1.689  14.044 -0.3873 -0.6407  0.1593
   11MPD2     H14025   2.880   1.812  14.359  2.3496  1.3449  0.4203
   11MPD2    H114026   2.975   1.831  13.926 -0.6638 -0.5773  0.6640
   11MPD2    H214027   3.164   1.549  14.164  0.9587  2.8209 -0.0449
   11MPD2    H314028   3.126   1.647  13.958 -0.9060 -1.7357  0.3982
   11MPD2     N14029   2.833   1.951  14.120  0.2288 -0.0517 -0.5135
   11MPD2    H514030   2.844   2.008  14.037  1.7644  2.0609  1.1517
   11MPD2    N114031   3.042   1.618  14.403 -0.4708  0.7004 -0.3228
   11MPD2    H714032   3.006   1.678  14.477  1.2952  0.8814  0.3923
    1MPD1     C14033   0.392   3.208   0.170 -0.6683  0.0340  0.8149
    1MPD1    C114034   0.371   3.310   0.082  0.0717  0.1691  0.4690
    1MPD1    C214035   0.371   3.270  17.694  0.0288  0.1632 -1.2921
    1MPD1    C314036   0.408   3.141  17.651  0.0267  0.4558  0.0427
    1MPD1    C414037   0.435   3.047  17.742 -0.1264 -0.0715 -0.2543
    1MPD1    C514038   0.421   3.080   0.128  0.1163  0.4782 -0.4357
    1MPD1     H14039   0.334   3.344  17.624 -1.4768 -0.3768 -1.0749
    1MPD1    H114040   0.465   2.944  17.722  1.7409 -0.1130  2.7441
    1MPD1    H214041   0.385   3.215   0.278 -0.5014  2.0084  0.6949
    1MPD1    H314042   0.444   3.006   0.204 -1.3703 -1.7721 -2.2090
    1MPD1     N14043   0.397   3.104  17.521  0.5078  0.4398 -0.4023
    1MPD1    H514044   0.388   3.005  17.500 -1.8990  0.7682 -0.9171
    1MPD1    N114045   0.319   3.435   0.128  0.2130  0.9879 -0.3058
    1MPD1    H614046   0.350   3.510   0.067 -0.0486  3.4263  2.5789
    1MPD1    H714047   0.344   3.461   0.223  2.7662  0.7380 -0.9120
    2MPD1     C14048   0.994   2.919  16.924  0.2585 -0.5183  0.1103
    2MPD1    C114049   0.994   2.902  17.057  0.0984  0.9052 -0.1315
    2MPD1    C214050   0.873   2.900  17.126 -0.6201  0.0231 -0.3517
    2MPD1    C314051   0.751   2.908  17.056 -0.4647 -0.3367  0.0685
    2MPD1    C414052   0.763   2.921  16.919 -0.6027 -0.2657  0.3558
    2MPD1    C514053   0.883   2.929  16.853 -0.6944  0.0584 -0.4643
    2MPD1     H14054   0.869   2.909  17.234 -0.0979  0.8085 -0.4018
    2MPD1    H114055   0.677   2.960  16.866 -0.7344 -1.5585 -0.3698
    2MPD1    H214056   1.092   2.926  16.878 -0.4139  0.5485 -1.1748
    2MPD1    H314057   0.891   2.965  16.751  1.3625  0.5421 -0.1267
    2MPD1     N14058   0.632   2.914  17.127 -0.3917  0.4424  0.4257
    2MPD1    H514059   0.647   2.934  17.225  0.8026 -2.9963  0.9627
    2MPD1    N114060   1.113   2.902  17.133  0.2200  0.5995  0.1506
    2MPD1    H614061   1.191   2.870  17.076 -1.4251 -3.8612  0.3926
    2MPD1    H714062   1.092   2.830  17.201  0.1931  1.3190  0.9042
    3TMC3    C114063   0.403   2.952  17.134  0.1564 -0.1583 -0.1281
    3TMC3    C214064   0.318   3.018  17.048 -0.0175  0.0877 -0.0617
    3TMC3    C314065   0.297   3.150  17.075 -0.0362  0.1306  0.1727
    3TMC3    C414066   0.431   3.001  17.265 -0.4123 -0.8695 -0.3241
    3TMC3    C514067   0.388   3.129  17.295  0.0183 -0.0323  0.0775
    3TMC3    C614068   0.339   3.207  17.195  0.4030 -0.1864  0.0353
    3TMC3     C14069   0.515   2.879  17.065  0.1407 -0.0962 -0.1821
    3TMC3     O14070   0.489   2.845  16.950 -0.1523  0.4126  1.0979
    3TMC3     H14071   0.311   2.968  16.952 -0.7538  1.0709 -0.5284
    3TMC3    H114072   0.486   2.931  17.326 -0.6701 -2.1812 -1.6003
    3TMC3    H214073   0.320   3.312  17.212  5.4381  1.1213 -2.4282
    3TMC3    C714074   0.406   3.195  17.418  0.3246  0.3539  0.1788
    3TMC3    C814075   0.219   3.239  16.987 -0.2856  0.4711  0.3962
    3TMC3    O114076   0.449   3.314  17.421  0.5434 -0.2138 -0.1322
    3TMC3    O214077   0.164   3.340  17.032  0.3096 -0.4209 -0.3151
    4MPD1     C14078   4.701   3.354  16.559 -0.3436 -0.2845  0.1143
    4MPD1    C114079   0.059   3.263  16.534 -0.2003 -0.2472 -0.0001
    4MPD1    C214080   0.147   3.214  16.631 -0.3981  0.0706 -0.1085
    4MPD1    C314081   0.133   3.253  16.764  0.2702 -0.1075 -0.1058
    4MPD1    C414082   0.032   3.337  16.794 -0.4477  0.5496  0.0928
    4MPD1    C514083   4.682   3.377  16.694 -0.2633 -0.0669 -0.2282
    4MPD1     H14084   0.226   3.144  16.606 -0.3278  0.6541 -1.5055
    4MPD1    H114085   4.735   3.358  16.895  2.7836  2.5033  0.7482
    4MPD1    H214086   4.626   3.390  16.488 -2.4431 -1.3998  1.7903
    4MPD1    H314087   4.607   3.449  16.725 -2.3488 -2.8618  1.2161
    4MPD1     N14088   0.214   3.192  16.860 -0.2372  1.0847  0.4661
    4MPD1    H514089   0.280   3.121  16.832 -0.8523  1.2166 -1.3275
    4MPD1    N114090   0.066   3.203  16.410  0.8880 -0.0011  0.5896
    4MPD1    H614091   0.159   3.165  16.392 -0.1316 -1.7864 -0.8363
    4MPD1    H714092   0.035   3.264  16.333  1.7707  0.3513  0.5100
    1TCq1    O114093   1.599   3.493  11.273  0.4526 -0.4732 -0.0850
    1TCq1    C114094   1.666   3.563  11.179 -0.5530  0.7990  0.3504
    1TCq1    O214095   1.668   3.687  11.182  0.5278 -0.0156  0.2410
    1TCq1    C214096   1.694   3.485  11.061 -0.5971 -0.0814  0.3541
    1TCq1    C314097   1.723   3.353  11.079  0.4718  0.0358 -0.4501
    1TCq1    C414098   1.755   3.282  10.966 -0.0675 -0.0507 -0.3151
    1TCq1    C514099   1.749   3.335  10.842  0.6078  0.2164  0.0549
    1TCq1    C614100   1.734   3.472  10.836  0.1259  0.3047  0.4344
    1TCq1    C714101   1.704   3.548  10.946  1.0984 -0.2253  0.4153
    1TCq1    C814102   1.777   3.546  10.719 -0.0869  0.1820 -0.0746
    1TCq1    O414103   1.744   3.660  10.703 -0.1578  0.0896 -0.0247
    1TCq1    C914104   1.765   3.136  10.985 -0.1152  0.1192 -0.9999
    1TCq1    O514105   1.806   3.072  10.884 -0.3742 -0.2208  0.2617
    1TCq1    O614106   1.688   3.098  11.076  0.0758  0.5404  0.1457
    1TCq1    H114107   1.587   3.399  11.246  2.0996 -0.0444 -2.3017
    1TCq1    H214108   1.736   3.305  11.176 -0.4613 -2.8929 -1.7825
    1TCq1    H314109   1.736   3.269  10.757  0.4754  0.1537  0.1230
    1TCq1    H414110   1.700   3.655  10.932 -1.1559 -0.2950  0.4951
    2MPD1     C14111   2.078   3.602  10.323 -0.5780 -0.0476 -0.7184
    2MPD1    C114112   2.058   3.470  10.337  0.4071 -0.2977  0.1632
    2MPD1    C214113   1.980   3.426  10.443  0.3867 -0.3668  0.4696
    2MPD1    C314114   1.934   3.513  10.539  0.3665 -0.0091 -0.7315
    2MPD1    C414115   1.959   3.650  10.522  0.5626  0.1593 -0.7026
    2MPD1    C514116   2.024   3.694  10.412  0.4327  0.4018  0.1486
    2MPD1     H14117   1.968   3.319  10.456 -0.9524 -0.3158 -0.3537
    2MPD1    H114118   1.921   3.733  10.580 -0.2199  0.1744 -1.2315
    2MPD1    H214119   2.126   3.648  10.237 -0.5899 -1.9688 -1.7547
    2MPD1    H314120   2.033   3.801  10.396 -0.8366  0.5326  0.2861
    2MPD1     N14121   1.855   3.464  10.645  0.1994 -0.2130 -0.2260
    2MPD1    H514122   1.864   3.365  10.668  2.7390  0.0496 -0.0480
    2MPD1    N114123   2.100   3.379  10.242  0.2023  0.2524  0.3027
    2MPD1    H614124   2.117   3.283  10.270  1.8167  0.3694 -0.3029
    2MPD1    H714125   2.159   3.415  10.167 -1.5156  0.5448 -0.9190
    1TMC1    C114126   1.590   1.345   9.958  0.5679  0.0006 -0.3687
    1TMC1    C214127   1.481   1.315  10.035  0.1760 -0.0267 -0.0071
    1TMC1    C314128   1.483   1.363  10.161  0.0936 -0.6008  0.5876
    1TMC1    C414129   1.703   1.413  10.010 -0.9152  0.7236 -0.0486
    1TMC1    C514130   1.695   1.463  10.139  0.5460  0.7563 -0.1579
    1TMC1    C614131   1.580   1.439  10.214  0.1508  0.0863 -0.8569
    1TMC1     C14132   1.607   1.279   9.830  0.2480 -1.0906 -0.2027
    1TMC1     O14133   1.666   1.347   9.745 -0.0535 -0.2821  0.0511
    1TMC1     H14134   1.398   1.262   9.990 -0.6543  0.6761  0.6991
    1TMC1    H114135   1.790   1.430   9.946  0.2796 -1.3154  1.0293
    1TMC1    H214136   1.583   1.470  10.318 -1.8183 -3.6495  0.3241
    1TMC1    C714137   1.777   1.581  10.162 -1.2476  0.6474  0.5145
    1TMC1    C814138   1.364   1.355  10.247  0.7828 -0.3087 -0.0826
    1TMC1    O114139   1.798   1.661  10.073 -0.0580  0.2947  0.0137
    1TMC1    O214140   1.349   1.430  10.342  0.2141 -0.0514  0.0959
    1TMC1    O314141   1.824   1.580  10.288 -0.0969  0.3895  0.1243
    1TMC1    H314142   1.816   1.491  10.330 -1.0487  1.3827  2.0964
    1TMC1    O514143   1.309   1.234  10.243 -0.6354 -0.5955  0.0030
    1TMC1    H514144   1.308   1.184  10.159  0.9718 -0.4768 -0.0993
    2MPD1     C14145   1.540   0.888   9.499 -0.1071  0.2736 -0.0060
    2MPD1    C114146   1.481   0.860   9.621 -0.2932  0.5654  0.4554
    2MPD1    C214147   1.475   0.953   9.718  0.3584  0.3494 -0.4215
    2MPD1    C314148   1.546   1.073   9.708 -0.1581  0.3048  0.1570
    2MPD1    C414149   1.596   1.107   9.583  0.2444 -0.0427  0.5795
    2MPD1    C514150   1.587   1.016   9.479  0.2509  0.6605  0.8965
    2MPD1     H14151   1.419   0.929   9.808 -2.6426 -1.0338 -2.6757
    2MPD1    H114152   1.651   1.196   9.553  1.0619 -0.4298  0.9474
    2MPD1    H214153   1.527   0.824   9.412 -3.0930 -1.1892  1.5080
    2MPD1    H314154   1.614   1.040   9.377  1.4068  0.4435  1.1419
    2MPD1     N14155   1.550   1.156   9.824  0.2234 -0.2395 -0.5338
    2MPD1    H514156   1.502   1.129   9.909  0.8901 -0.5638 -0.2617
    2MPD1    N114157   1.416   0.735   9.628 -0.2731  0.0335  0.4603
    2MPD1    H614158   1.475   0.667   9.580  0.7844  0.3437  1.3136
    2MPD1    H714159   1.406   0.712   9.727 -0.5000  1.1360  0.6964
    1MPD1     C14160   3.616   2.004  11.832 -0.2206  0.3661  0.7058
    1MPD1    C114161   3.579   2.051  11.706  0.1711 -0.3743  0.1920
    1MPD1    C214162   3.525   2.177  11.694  0.1726 -0.2435 -0.2346
    1MPD1    C314163   3.509   2.248  11.808 -0.5960  0.0994  0.8564
    1MPD1    C414164   3.533   2.195  11.932 -0.1810 -0.4027  0.0329
    1MPD1    C514165   3.605   2.079  11.940 -0.0145  0.4302  0.1622
    1MPD1     H14166   3.514   2.223  11.596  2.2034 -0.1073 -0.4086
    1MPD1    H114167   3.534   2.263  12.017 -0.6898 -0.2663 -0.0753
    1MPD1    H214168   3.653   1.903  11.845 -1.1610 -0.5110 -3.2981
    1MPD1    H314169   3.646   2.043  12.034 -0.2709  0.9677  0.4826
    1MPD1     N14170   3.439   2.374  11.791 -0.0442  0.5737 -0.0489
    1MPD1    H514171   3.411   2.406  11.699  0.1350  0.3301 -0.1881
    1MPD1    N114172   3.581   1.968  11.595 -0.3516 -0.7623 -0.0399
    1MPD1    H614173   3.641   1.886  11.594  0.8161  0.0781  0.6982
    1MPD1    H714174   3.595   2.029  11.515 -4.0459  0.0895 -0.0335
    2MPD1     C14175   1.820   2.603  11.353 -0.2594  0.3560 -0.2705
    2MPD1    C114176   1.950   2.579  11.399  0.7289  0.7017  0.5134
    2MPD1    C214177   2.054   2.551  11.308  0.1194 -0.4411  0.2718
    2MPD1    C314178   2.024   2.531  11.173 -0.1766 -1.0652  0.0521
    2MPD1    C414179   1.890   2.560  11.133  0.1520 -0.1715  0.4004
    2MPD1    C514180   1.793   2.594  11.219  0.2989  0.0316  0.2627
    2MPD1     H14181   2.154   2.546  11.349  0.0045 -2.0529  0.3310
    2MPD1    H114182   1.862   2.544  11.029 -4.0337 -0.3266  1.5689
    2MPD1    H214183   1.736   2.622  11.419 -2.1736 -0.8329 -2.3436
    2MPD1    H314184   1.691   2.606  11.182 -0.5850 -1.3713  2.2819
    2MPD1     N14185   2.119   2.514  11.073  0.1987 -0.5362 -0.4309
    2MPD1    H514186   2.084   2.513  10.977  0.5513  0.8200 -0.5786
    2MPD1    N114187   1.983   2.610  11.531 -0.1920 -1.0250  0.1108
    2MPD1    H614188   1.911   2.569  11.590  0.7598  0.8206  2.5489
    2MPD1    H714189   2.066   2.575  11.577  0.2461  0.5834  0.5744
    3MPD1     C14190   1.806   2.375  10.363  0.0453  0.5637  0.1541
    3MPD1    C114191   1.791   2.313  10.488 -0.4044  0.4305 -0.2998
    3MPD1    C214192   1.906   2.316  10.572 -0.0309 -0.3080 -0.0869
    3MPD1    C314193   2.027   2.367  10.536  0.2967 -0.3450  0.6787
    3MPD1    C414194   2.040   2.394  10.402 -0.3764  0.5290 -0.0678
    3MPD1    C514195   1.928   2.397  10.319 -0.4112  0.4879  1.0353
    3MPD1     H14196   1.896   2.287  10.677 -2.4449  2.2055  0.3933
    3MPD1    H114197   2.133   2.426  10.357  0.3024 -3.7865 -1.6884
    3MPD1    H214198   1.720   2.401  10.303 -0.4448 -2.9123 -0.6189
    3MPD1    H314199   1.928   2.459  10.230 -0.1002 -2.0388 -0.7109
    3MPD1     N14200   2.135   2.380  10.626  0.0663 -0.0355  0.5150
    3MPD1    H514201   2.116   2.339  10.717 -1.0392  0.5196  0.5319
    3MPD1    N114202   1.662   2.286  10.543 -0.9059  0.0628 -0.0174
    3MPD1    H614203   1.663   2.205  10.604 -0.4264 -0.9051 -1.2965
    3MPD1    H714204   1.602   2.261  10.464  0.0057  2.3981 -1.4277
    4MPD2     C14205   2.917   2.995  11.846 -0.2740  0.5002  0.5530
    4MPD2    C114206   3.042   2.987  11.791  0.3758  0.8360 -0.1282
    4MPD2    C214207   3.071   3.052  11.674 -0.1875  0.3194  0.2218
    4MPD2    C314208   2.971   3.117  11.602 -0.2958 -0.2387 -1.1014
    4MPD2    C414209   2.844   3.111  11.645  0.1140 -0.8917 -0.5506
    4MPD2    C514210   2.820   3.058  11.767  0.0667 -0.6530 -0.4915
    4MPD2     H14211   3.170   3.034  11.634 -0.8856 -1.2788 -0.7996
    4MPD2    H114212   2.762   3.160  11.595 -0.3948 -0.1914  0.9524
    4MPD2    H214213   2.889   2.938  11.934 -1.4616  0.7517  0.3482
    4MPD2    H314214   2.719   3.063  11.806 -0.7294 -1.0244 -2.4894
    4MPD2     N14215   2.999   3.176  11.477 -0.6034 -0.0367 -0.3596
    4MPD2    H514216   2.924   3.206  11.417  0.2326  1.5095 -0.6208
    4MPD2    N114217   3.142   2.908  11.845 -0.1459 -0.3967 -0.3577
    4MPD2    H714218   3.234   2.921  11.804  1.3845 -3.2767  2.1724
    5TMC3    C114219   3.263   2.767  11.979 -0.2815 -0.2207 -0.7697
    5TMC3    C214220   3.259   2.628  11.950 -0.4809  0.1076 -0.6556
    5TMC3    C314221   3.347   2.582  11.861 -0.5481 -0.5824  0.6545
    5TMC3    C414222   3.360   2.843  11.913  0.0565 -0.1368  0.0659
    5TMC3    C514223   3.437   2.785  11.825  0.3735 -0.4025 -0.4470
    5TMC3    C614224   3.443   2.653  11.804  0.1989 -0.0551  0.0818
    5TMC3     C14225   3.128   2.819  11.954 -0.1592  0.0466  0.0818
    5TMC3     O14226   3.034   2.762  12.011 -0.0155  1.0761  0.4182
    5TMC3     H14227   3.188   2.553  11.985  0.3011  0.1997  1.1161
    5TMC3    H114228   3.361   2.951  11.917 -2.4909 -0.0187 -2.6312
    5TMC3    H214229   3.506   2.605  11.730  1.2170 -0.6508  1.3379
    5TMC3    C714230   3.470   2.869  11.707 -0.0698  0.1715 -0.6091
    5TMC3    C814231   3.402   2.456  11.894  0.4252 -0.0945  0.2191
    5TMC3    O114232   3.414   2.980  11.705 -0.2690 -0.0839 -0.0432
    5TMC3    O214233   3.381   2.418  12.009  0.2359 -0.2908  0.9283
    6TMC3    C114234   2.332   2.501  10.964 -0.3198  0.7446  0.0799
    6TMC3    C214235   2.266   2.460  10.850  0.1362  1.2400 -0.2642
    6TMC3    C314236   2.326   2.480  10.728 -0.0354  0.8717  0.6982
    6TMC3    C414237   2.459   2.557  10.949 -0.0347 -0.2271 -0.8322
    6TMC3    C514238   2.507   2.581  10.826 -0.1284  0.7408  0.5145
    6TMC3    C614239   2.448   2.540  10.709 -0.1046  0.2477  0.5851
    6TMC3     C14240   2.258   2.525  11.089  0.6234 -0.8974  0.2191
    6TMC3     O14241   2.327   2.556  11.182  0.5697 -0.6913  0.3930
    6TMC3     H14242   2.160   2.436  10.851  0.1825  1.0296 -0.5694
    6TMC3    H114243   2.511   2.596  11.035  1.0992 -1.3318 -1.0121
    6TMC3    H214244   2.496   2.551  10.612 -0.9549 -1.3422 -0.0030
    6TMC3    C714245   2.625   2.667  10.826 -0.5929  0.2555  0.2379
    6TMC3    C814246   2.244   2.461  10.608 -0.0573 -0.0297 -0.1945
    6TMC3    O114247   2.702   2.656  10.921 -0.3548 -0.1515 -0.8004
    6TMC3    O214248   2.286   2.518  10.512 -0.0853  0.2056 -0.4903
    7MPD2     C14249   3.622   2.951  11.232 -0.2692  0.8638 -0.3497
    7MPD2    C114250   3.516   2.997  11.300 -0.3278 -0.2766 -0.3821
    7MPD2    C214251   3.498   2.956  11.432  0.5086 -0.5955  0.2086
    7MPD2    C314252   3.588   2.871  11.487  0.3467 -0.3935 -0.4004
    7MPD2    C414253   3.696   2.821  11.417  0.3259 -0.0622  0.2220
    7MPD2    C514254   3.710   2.865  11.291 -0.5059 -0.0799  0.1337
    7MPD2     H14255   3.418   2.990  11.496  2.1392  1.3847  1.2010
    7MPD2    H114256   3.779   2.767  11.460 -0.1734  0.3215  1.6540
    7MPD2    H214257   3.635   2.971  11.126  1.3334  0.4436 -0.2225
    7MPD2    H314258   3.783   2.816  11.227 -1.7725  0.5253 -1.7664
    7MPD2     N14259   3.564   2.824  11.617  0.3074  0.0044 -0.1533
    7MPD2    H514260   3.617   2.747  11.657  1.0935  0.8997  0.5221
    7MPD2    N114261   3.414   3.086  11.252 -0.2897 -0.4207  0.5877
    7MPD2    H714262   3.353   3.129  11.321 -1.4986 -1.9075  0.4555
    8TMC3    C114263   3.282   3.209  11.110 -0.6170  0.4993  0.0878
    8TMC3    C214264   3.189   3.163  11.022 -1.3962 -0.1890 -0.0307
    8TMC3    C314265   3.064   3.132  11.067 -0.1468 -0.1600  0.3103
    8TMC3    C414266   3.242   3.249  11.234  0.3369 -0.1522 -1.0051
    8TMC3    C514267   3.117   3.219  11.280 -0.2241  0.7550  0.4272
    8TMC3    C614268   3.030   3.144  11.198  0.1792 -0.4167 -0.6244
    8TMC3     C14269   3.392   3.116  11.118 -0.3772  0.4140  0.1909
    8TMC3     O14270   3.428   3.062  11.014 -0.1816 -0.1049 -0.2676
    8TMC3     H14271   3.220   3.131  10.923  2.3743 -1.7037  1.6636
    8TMC3    H114272   3.309   3.301  11.301  1.4438 -0.9896 -1.4570
    8TMC3    H214273   2.932   3.113  11.233  1.2460 -1.8106  1.1297
    8TMC3    C714274   3.125   3.197  11.421 -0.2550  0.6054  0.3657
    8TMC3    C814275   2.972   3.049  10.999 -0.8486  0.3144  0.9272
    8TMC3    O114276   3.239   3.187  11.468  0.2792  0.3882  0.1261
    8TMC3    O214277   2.894   2.977  11.061 -0.8293 -0.5126 -0.6039
    9MPD2     C14278   2.861   3.092  10.652  0.0109 -0.4147 -0.2682
    9MPD2    C114279   2.879   3.022  10.769  0.6900  0.0074 -0.7399
    9MPD2    C214280   2.801   2.906  10.798 -0.6733 -0.0049 -0.2528
    9MPD2    C314281   2.715   2.863  10.698  0.3209  0.1542  0.4734
    9MPD2    C414282   2.699   2.938  10.583 -0.0680 -0.3979  0.4328
    9MPD2    C514283   2.770   3.047  10.560  0.2103 -0.5064 -0.1676
    9MPD2     H14284   2.811   2.842  10.884 -1.0902  2.0000  1.2822
    9MPD2    H114285   2.625   2.908  10.509 -0.5636  0.1052  0.7278
    9MPD2    H214286   2.914   3.183  10.629 -1.8094  0.3388 -1.4651
    9MPD2    H314287   2.762   3.098  10.465  0.1478 -1.4141 -0.6458
    9MPD2     N14288   2.630   2.751  10.715 -0.2245  0.6761  0.1246
    9MPD2    H514289   2.553   2.753  10.648 -0.6890  1.1979  0.6661
    9MPD2    N114290   2.954   3.092  10.870 -0.0328  0.1612  0.5087
    9MPD2    H714291   2.991   3.182  10.843 -2.4647  0.9731 -0.0788
    1MPD1     C14292   2.631   1.231  15.291 -0.2498  0.1744 -0.0885
    1MPD1    C114293   2.693   1.352  15.276 -0.5645 -0.2046  0.3673
    1MPD1    C214294   2.651   1.451  15.368 -0.0986 -0.1173  0.4578
    1MPD1    C314295   2.563   1.420  15.471 -0.3958 -0.2262  0.2414
    1MPD1    C414296   2.517   1.292  15.486  0.1493  0.2753 -0.4426
    1MPD1    C514297   2.543   1.198  15.392 -0.3885  0.4258  0.1229
    1MPD1     H14298   2.689   1.552  15.362  0.9057 -0.5100  0.3149
    1MPD1    H114299   2.440   1.270  15.559 -0.0094 -0.2622 -0.7723
    1MPD1    H214300   2.652   1.160  15.213 -1.4458 -0.2877  0.0013
    1MPD1    H314301   2.502   1.097  15.393 -0.6244  0.5099 -0.7350
    1MPD1     N14302   2.527   1.508  15.573  0.1734  0.7585  1.2419
    1MPD1    H514303   2.455   1.471  15.634  0.5666 -0.5628  0.9106
    1MPD1    N114304   2.765   1.377  15.152 -0.4776  0.6089  0.1542
    1MPD1    H614305   2.813   1.297  15.113  0.7474  0.3450  2.1960
    1MPD1    H714306   2.841   1.442  15.170  0.2168 -0.4108  0.8884
    2TMC2    C114307   2.564   1.789  15.919 -0.4399 -0.1924  0.1375
    2TMC2    C214308   2.437   1.792  15.951  0.4033 -0.2595 -0.2033
    2TMC2    C314309   2.345   1.752  15.856 -0.3308 -0.0658 -0.4989
    2TMC2    C414310   2.606   1.747  15.798 -0.3433  0.5483  0.1447
    2TMC2    C514311   2.519   1.714  15.699 -0.2150 -1.1045  0.4988
    2TMC2    C614312   2.383   1.709  15.735 -0.5529  0.2978  0.0602
    2TMC2     C14313   2.654   1.814  16.034 -1.1598 -0.0921 -0.9243
    2TMC2     O14314   2.772   1.827  16.001  0.5865  0.3059  0.9520
    2TMC2     H14315   2.394   1.819  16.047  0.8349  0.9201 -0.3389
    2TMC2    H114316   2.713   1.751  15.780 -0.2888  0.5940  0.4686
    2TMC2    H214317   2.314   1.676  15.658  1.2668 -0.2049 -1.3613
    2TMC2    C714318   2.585   1.636  15.601  0.3338  0.0256  0.0555
    2TMC2    C814319   2.210   1.779  15.870 -0.9024  0.6445  0.5007
    2TMC2    O114320   2.660   1.695  15.523 -0.0063  0.6170 -0.2937
    2TMC2    O214321   2.135   1.725  15.795  0.1019  0.5942 -0.2716
    2TMC2    O514322   2.188   1.891  15.938 -0.0365 -0.2991 -0.6310
    2TMC2    H514323   2.266   1.934  15.980  0.9808 -0.3212 -2.4868
    3MPD1     C14324   2.763   1.968  16.505 -0.4093  0.0292  0.0586
    3MPD1    C114325   2.666   1.874  16.511  0.3695 -0.0758  0.3658
    3MPD1    C214326   2.613   1.826  16.392 -0.4679  0.1877  0.2001
    3MPD1    C314327   2.672   1.854  16.274  0.3853  0.2982 -0.4422
    3MPD1    C414328   2.770   1.948  16.269 -0.1188 -0.0992  0.3087
    3MPD1    C514329   2.805   2.009  16.385 -0.3610  0.6328  0.1660
    3MPD1     H14330   2.539   1.748  16.404 -0.6910  0.4676  0.6055
    3MPD1    H114331   2.807   1.984  16.174 -1.4334 -1.4799 -0.7143
    3MPD1    H214332   2.814   1.998  16.596 -0.5050  1.1282 -0.2602
    3MPD1    H314333   2.873   2.093  16.377  0.2700  0.0584 -0.5397
    3MPD1     N14334   2.603   1.801  16.162 -0.8468 -0.3621 -0.0512
    3MPD1    H514335   2.525   1.741  16.185 -1.4463 -0.7129 -3.0435
    3MPD1    N114336   2.612   1.834  16.632 -0.2666 -0.8232  0.2211
    3MPD1    H614337   2.692   1.836  16.695  1.2011 -0.9981 -1.6485
    3MPD1    H714338   2.577   1.738  16.633  0.3100 -1.0026  2.3174
    1TMC1    C114339   0.600   2.219  14.202  0.3145  0.5261 -0.0793
    1TMC1    C214340   0.637   2.091  14.170 -0.3169 -0.3535 -1.0286
    1TMC1    C314341   0.735   2.033  14.245  0.0102  0.8009  0.2946
    1TMC1    C414342   0.649   2.278  14.323 -0.4572  0.4528  0.0034
    1TMC1    C514343   0.740   2.210  14.399  0.0981 -0.0913  0.0265
    1TMC1    C614344   0.795   2.095  14.357 -0.2454  0.5024 -0.0050
    1TMC1     C14345   0.481   2.281  14.149 -0.2343  0.1950  0.1572
    1TMC1     O14346   0.471   2.403  14.156 -0.3182 -0.8779 -0.0901
    1TMC1     H14347   0.598   2.035  14.086  2.2336 -3.5116 -0.1094
    1TMC1    H114348   0.609   2.376  14.349 -1.4023  0.1205 -0.1979
    1TMC1    H214349   0.864   2.039  14.420 -0.6839 -0.6055 -0.5111
    1TMC1    C714350   0.805   2.275  14.499 -0.6000 -0.2128  0.3891
    1TMC1    C814351   0.793   1.906  14.202  0.0333 -0.2542 -0.2692
    1TMC1    O114352   0.745   2.306  14.606  0.6878  0.7046 -0.0577
    1TMC1    O214353   0.794   1.866  14.084 -0.7501  0.1504  0.0263
    1TMC1    O314354   0.886   2.353  14.431  0.4753  0.0869 -0.1474
    1TMC1    H314355   0.919   2.300  14.355  1.8256  4.3979 -2.5765
    1TMC1    O514356   0.810   1.826  14.310  0.1613  0.4839 -0.1775
    1TMC1    H514357   0.748   1.845  14.384 -1.7335  0.3999 -1.7449
    2MPD2     C14358   0.193   2.313  14.033  0.3080 -0.6337  0.2634
    2MPD2    C114359   0.265   2.200  14.045  0.6381 -0.0369 -0.7375
    2MPD2    C214360   0.210   2.085  13.996  0.0716  0.2347 -0.1326
    2MPD2    C314361   0.079   2.082  13.950  0.3575 -0.0577  0.8957
    2MPD2    C414362   0.002   2.195  13.947 -0.2525 -0.6138 -0.3986
    2MPD2    C514363   0.061   2.313  13.982  0.2997  0.2030  0.1490
    2MPD2     H14364   0.252   1.985  14.003  2.0106  0.9105 -2.2721
    2MPD2    H114365   4.636   2.200  13.910 -0.9297 -1.9194  1.3304
    2MPD2    H214366   0.233   2.411  14.057  1.3879 -1.6373  2.6395
    2MPD2    H314367   0.003   2.404  13.980  0.1419  0.1386  1.6001
    2MPD2     N14368   0.032   1.966  13.887  0.0244  0.0981  0.8750
    2MPD2    H514369   0.108   1.900  13.876  0.0340 -0.1265  2.3019
    2MPD2    N114370   0.391   2.186  14.111 -1.0381 -0.0155 -0.2357
    2MPD2    H714371   0.428   2.092  14.109  1.1891  0.8381 -0.0873
    3TCq1    O114372   4.434   1.690  13.458  0.5964  0.2987  0.3792
    3TCq1    C114373   4.548   1.626  13.486 -0.5669  0.2134 -0.6240
    3TCq1    O214374   4.636   1.601  13.402 -0.1773  0.5312 -0.0334
    3TCq1    C214375   4.569   1.623  13.628  1.2165 -0.1763  0.5234
    3TCq1    C314376   4.667   1.544  13.667 -0.5041 -0.2194 -0.1288
    3TCq1    C414377   0.010   1.582  13.770 -0.2903 -0.2679  0.0294
    3TCq1    C514378   4.730   1.699  13.844 -0.3042 -0.6728  0.2592
    3TCq1    C614379   4.637   1.785  13.798 -0.0077  0.9837 -0.1128
    3TCq1    C714380   4.555   1.747  13.690  0.0915 -0.0242 -0.1530
    3TCq1    C814381   4.644   1.934  13.821  0.2052 -0.2731  0.3336
    3TCq1    O414382   4.553   2.011  13.796 -0.5368  0.0263  0.9884
    3TCq1    C914383   0.113   1.489  13.796 -0.0396 -0.6016  0.0416
    3TCq1    O514384   0.213   1.528  13.863  0.1186 -0.0518  0.4619
    3TCq1    O614385   0.110   1.376  13.743 -0.6545  0.3266  0.9036
    3TCq1    H114386   4.382   1.671  13.539  0.6649 -0.9030  0.1501
    3TCq1    H214387   4.694   1.463  13.600 -1.8497 -0.0798 -0.8433
    3TCq1    H314388   0.060   1.726  13.924  0.3053 -1.5820  0.0487
    3TCq1    H414389   4.500   1.829  13.644  1.3518  1.7282  1.4952
    1MPD2     C14390   1.099   2.247  14.706 -0.1786  0.3010 -1.2838
    1MPD2    C114391   1.016   2.136  14.701 -0.1260  0.2175  0.0628
    1MPD2    C214392   1.055   2.036  14.622 -0.7973  0.1028 -0.7556
    1MPD2    C314393   1.174   2.032  14.558 -0.0507 -0.6122 -1.1732
    1MPD2    C414394   1.243   2.148  14.547  0.1465  0.2104 -0.3696
    1MPD2    C514395   1.204   2.255  14.617 -0.2787 -0.3312 -0.3550
    1MPD2     H14396   1.002   1.942  14.624 -2.2698  0.9198 -1.1248
    1MPD2    H114397   1.332   2.156  14.485  0.2107  2.4922  0.0371
    1MPD2    H214398   1.084   2.333  14.772  2.2814  0.4263 -0.8930
    1MPD2    H314399   1.255   2.350  14.611 -1.5877  0.4147  0.3794
    1MPD2     N14400   1.192   1.916  14.483 -0.1860  0.1227 -0.1532
    1MPD2    H514401   1.116   1.850  14.486  0.3253 -0.4359  0.5062
    1MPD2    N114402   0.904   2.131  14.788 -0.2468  0.1935 -0.1817
    1MPD2    H714403   0.868   2.208  14.843  1.9214 -0.7087  2.5275
    2TMC3    C114404   0.712   2.027  14.890  1.1519  0.2454 -0.8026
    2TMC3    C214405   0.666   1.901  14.911  0.1329 -0.3326 -0.2762
    2TMC3    C314406   0.531   1.873  14.897 -0.3684  0.2344  0.1910
    2TMC3    C414407   0.628   2.125  14.850  0.1893 -0.6460 -0.4034
    2TMC3    C514408   0.493   2.096  14.839 -0.0616  0.2021  0.3208
    2TMC3    C614409   0.444   1.972  14.864  0.8860 -0.9143 -0.0457
    2TMC3     C14410   0.826   2.018  14.805 -0.1866 -0.2322 -0.4820
    2TMC3     O14411   0.845   1.903  14.761  0.3037  0.4516  0.1416
    2TMC3     H14412   0.722   1.813  14.940  1.2636  0.6210  0.3776
    2TMC3    H114413   0.670   2.222  14.827  2.5102 -1.1853  1.5956
    2TMC3    H214414   0.341   1.944  14.842  0.1882  1.4250  0.2268
    2TMC3    C714415   0.394   2.193  14.784 -0.0360  0.1283 -0.0305
    2TMC3    C814416   0.509   1.745  14.816 -0.4555 -0.9189 -0.6501
    2TMC3    O114417   0.275   2.168  14.783 -0.0867 -0.3494  0.6553
    2TMC3    O214418   0.407   1.683  14.816 -0.1192 -0.3551  0.1969
    3TCq1    O114419   0.479   3.152  14.095 -0.1332  0.7584  0.2693
    3TCq1    C114420   0.609   3.140  14.079 -0.1216 -0.3043  0.1600
    3TCq1    O214421   0.679   3.234  14.057  0.4724  0.4183  0.4463
    3TCq1    C214422   0.640   3.038  14.174  0.0875 -0.3252  0.5577
    3TCq1    C314423   0.732   3.076  14.270 -0.4941 -0.5582 -0.3225
    3TCq1    C414424   0.731   3.004  14.383  0.2229  0.8179 -0.0112
    3TCq1    C514425   0.650   2.901  14.404  0.6347  0.1363 -0.0794
    3TCq1    C614426   0.565   2.859  14.302  0.0055  0.0851  0.2808
    3TCq1    C714427   0.557   2.929  14.186  0.2678  0.1732 -0.2321
    3TCq1    C814428   0.469   2.755  14.319  0.1787 -0.0905 -0.5242
    3TCq1    O414429   0.372   2.759  14.241  0.0359 -0.4916 -0.0742
    3TCq1    C914430   0.833   3.033  14.484 -0.5091 -0.3609 -0.3945
    3TCq1    O514431   0.822   2.994  14.608  0.3498  0.3897  0.1347
    3TCq1    O614432   0.923   3.118  14.460  0.7043  0.1411 -0.1204
    3TCq1    H114433   0.443   3.068  14.132 -1.3935  1.3728  0.4326
    3TCq1    H214434   0.791   3.167  14.262 -0.9450 -0.4284 -2.2122
    3TCq1    H314435   0.659   2.846  14.497  0.7214  0.8417  0.3215
    3TCq1    H414436   0.495   2.889  14.106 -0.6042  0.6780  0.1899
    4MPD2     C14437   0.278   2.555  14.425 -0.3050 -0.3638  0.3016
    4MPD2    C114438   0.411   2.564  14.466 -0.0775  0.2031  0.2549
    4MPD2    C214439   0.463   2.470  14.554  0.5047  0.1700  0.7062
    4MPD2    C314440   0.380   2.371  14.610  1.5003  0.1095  0.1799
    4MPD2    C414441   0.250   2.361  14.570 -0.7798  0.3610  0.5731
    4MPD2    C514442   0.202   2.455  14.478 -0.0224  0.3601 -0.6236
    4MPD2     H14443   0.560   2.482  14.600  0.7665 -0.7562  0.3939
    4MPD2    H114444   0.184   2.281  14.604 -0.7444  0.5529  1.1035
    4MPD2    H214445   0.238   2.622  14.350 -3.0394 -1.3097  0.8983
    4MPD2    H314446   0.101   2.451  14.439 -0.3628 -2.8586  0.5968
    4MPD2     N14447   0.447   2.299  14.717 -0.0249 -0.0515 -0.0661
    4MPD2    H514448   0.547   2.309  14.728 -0.3980  3.6004 -0.0835
    4MPD2    N114449   0.500   2.668  14.423 -0.1340  0.3782  0.1848
    4MPD2    H714450   0.598   2.656  14.447  0.3237 -2.7918 -3.1361
    5TMC2    C114451   1.152   1.591  14.378 -0.1120  0.7036  0.7272
    5TMC2    C214452   1.239   1.512  14.444  0.3347  0.8119  0.4974
    5TMC2    C314453   1.370   1.550  14.448  1.0226  0.0451  0.4993
    5TMC2    C414454   1.180   1.713  14.339  0.5655 -0.1229  0.2509
    5TMC2    C514455   1.308   1.757  14.366  0.0363  0.0445 -0.5116
    5TMC2    C614456   1.407   1.673  14.405  0.4360 -0.1360 -0.8375
    5TMC2     C14457   1.022   1.611  14.445 -0.1494 -0.5462  0.1732
    5TMC2     O14458   1.009   1.724  14.490 -0.0383 -0.0346  0.2330
    5TMC2     H14459   1.210   1.416  14.484 -0.1830  1.3778  1.5102
    5TMC2    H114460   1.103   1.781  14.305  1.0726 -0.0573 -0.7602
    5TMC2    H214461   1.508   1.707  14.425  0.6726 -0.6384 -1.1561
    5TMC2    C714462   1.311   1.883  14.428  0.5418  1.1055  0.1361
    5TMC2    C814463   1.470   1.480  14.527  0.6360  0.4838  0.1706
    5TMC2    O114464   1.425   1.932  14.433  0.2352  0.0314  0.7010
    5TMC2    O214465   1.580   1.432  14.491  0.2718 -0.8847 -0.9130
    5TMC2    O514466   1.442   1.510  14.650 -0.6134  0.2572 -0.1775
    5TMC2    H514467   1.366   1.571  14.658 -1.7018 -0.9713 -1.0815
    6MPD2     C14468   0.565   1.504  14.630 -0.2493 -0.5878  0.0177
    6MPD2    C114469   0.651   1.609  14.664 -0.0464  0.1024 -0.1938
    6MPD2    C214470   0.774   1.617  14.598  0.6494  0.5048 -0.6886
    6MPD2    C314471   0.818   1.511  14.521  0.2250  0.4835  0.2349
    6MPD2    C414472   0.736   1.409  14.496 -0.3086 -0.4950  0.4812
    6MPD2    C514473   0.613   1.406  14.546  0.1103  0.0883  0.4242
    6MPD2     H14474   0.826   1.709  14.620  1.5560 -0.1731  0.0452
    6MPD2    H114475   0.760   1.328  14.429  0.3793  1.3469 -1.4606
    6MPD2    H214476   0.462   1.502  14.663  0.0506 -0.8616  0.9602
    6MPD2    H314477   0.543   1.327  14.522 -0.5369  1.4862 -2.2664
    6MPD2     N14478   0.944   1.499  14.465  0.7774  0.0699  0.1363
    6MPD2    H514479   0.964   1.409  14.422 -0.1250 -0.3672  0.6440
    6MPD2    N114480   0.622   1.722  14.742 -0.3333 -0.2021 -0.0990
    6MPD2    H714481   0.703   1.782  14.748 -0.1745 -0.3590 -0.7226
  945NH3     N114482   0.053   0.192  14.951  0.4614  0.1773 -0.6456
  945NH3     H214483   0.084   0.140  15.032 -1.0904  1.0633  0.5343
  945NH3     H314484   0.059   0.291  14.973 -1.2292  0.0042  0.5813
  945NH3     H414485   4.690   0.178  14.937  0.8163 -0.5370 -2.5106
  946SOD     NA14486   2.259   3.455  15.500 -0.1481  0.3223  0.1597
  947SOD     NA14487   4.551   0.380  13.765  0.0514  0.5519  0.0690
  948SOD     NA14488   0.336   1.350  13.784  0.2072  0.2458  0.2559
  949SOD     NA14489   0.291   0.239   5.691  0.0398  0.7211  0.0426
  950SOD     NA14490   2.249   1.925   7.488  0.2746 -0.0946 -0.3947
  951SOD     NA14491   2.467   2.875  11.739  0.1386 -0.3821 -0.0512
  952SOD     NA14492   4.447   0.479  16.392 -0.1660  0.0923 -0.1464
  953SOD     NA14493   3.388   3.815  10.488  0.0294  0.0568 -0.1119
  954SOL     OW14494   1.270   4.317   9.661  0.1515 -0.4637  0.0726
  954SOL    HW114495   1.239   4.402   9.691 -0.9737 -1.3419  1.3940
  954SOL    HW214496   1.185   4.273   9.672 -0.0712  0.0446  0.3742
  955SOL     OW14497   2.767   0.923  10.063 -0.2823 -0.8544 -0.2093
  955SOL    HW114498   2.803   0.896  10.148 -0.3067 -0.2323  0.0045
  955SOL    HW214499   2.833   0.896   9.999 -0.3498  1.2605 -1.1813
  956SOL     OW14500   0.114   2.674  14.044 -0.3467 -0.2352  0.4428
  956SOL    HW114501   0.134   2.763  14.071  0.1714 -0.0623 -0.5263
  956SOL    HW214502   0.201   2.649  14.011 -0.8910  1.0888 -1.9730
  957SOL     OW14503   2.442   3.201  11.472 -0.3258  0.2260 -0.4185
  957SOL    HW114504   2.425   3.210  11.379 -0.7138  2.6600 -0.1170
  957SOL    HW214505   2.522   3.150  11.476 -0.3778  0.2948  1.7134
  958SOL     OW14506   3.912   1.348   2.109 -0.2943  0.8754  0.5747
  958SOL    HW114507   3.929   1.413   2.177  1.1328  0.3246  0.7411
  958SOL    HW214508   3.851   1.293   2.157  0.9010 -2.5029 -1.8037
  959SOL     OW14509   0.352   1.295   3.749 -0.2199 -0.0347  0.2181
  959SOL    HW114510   0.362   1.321   3.657 -1.3857 -1.6107 -0.3516
  959SOL    HW214511   0.419   1.228   3.760  2.4428  2.3386 -1.5650
  960SOL     OW14512   4.081   4.353   6.505 -0.1665 -0.1736 -0.1826
  960SOL    HW114513   3.989   4.378   6.511  0.2079  1.0277  0.4176
  960SOL    HW214514   4.107   4.411   6.434  0.3047 -0.2029 -0.0372
  961SOL     OW14515   4.033   2.077   4.356 -0.0113 -0.6388 -0.7354
  961SOL    HW114516   4.098   2.142   4.332  1.0982 -1.2336  0.6436
  961SOL    HW214517   3.968   2.122   4.411 -1.1856 -1.1648 -1.6889
  962SOL     OW14518   4.277   2.513  12.036 -0.3497 -0.4900 -0.2316
  962SOL    HW114519   4.225   2.510  11.956 -1.2610  1.8150  0.2435
  962SOL    HW214520   4.209   2.542  12.097  0.4414  0.2960  0.2702
  963SOL     OW14521   3.428   2.339   5.283  0.0999  0.2778 -0.6101
  963SOL    HW114522   3.517   2.321   5.256  0.8891 -0.4351  2.4320
  963SOL    HW214523   3.392   2.251   5.274  1.2131 -0.1846 -0.4300
  964SOL     OW14524   4.234   0.208   1.049 -0.4549  0.2442  0.3802
  964SOL    HW114525   4.183   0.261   0.987 -0.5361  1.0154  1.1077
  964SOL    HW214526   4.161   0.168   1.095 -2.0012  0.6392 -1.7334
  965SOL     OW14527   0.688   2.091   1.643  0.0070 -0.5963  0.0942
  965SOL    HW114528   0.753   2.039   1.690  2.7927  1.6585 -1.2758
  965SOL    HW214529   0.745   2.143   1.586 -0.5133  1.0888  1.1081
  966SOL     OW14530   2.632   0.923   4.886 -0.3792 -0.0206  0.5696
  966SOL    HW114531   2.711   0.964   4.919  0.3916 -0.0157 -1.2599
  966SOL    HW214532   2.628   0.838   4.929  0.7405  0.1267  0.9452
  967SOL     OW14533   2.132   3.706   7.218  0.4235 -0.3954 -0.2528
  967SOL    HW114534   2.196   3.718   7.288 -0.1374  1.4792 -0.0589
  967SOL    HW214535   2.160   3.623   7.181  3.3809  1.3717 -1.9717
  968SOL     OW14536   2.607   1.963   2.679  0.1801 -0.9636 -0.5256
  968SOL    HW114537   2.658   2.044   2.689  1.5021 -1.6549 -1.7417
  968SOL    HW214538   2.617   1.929   2.768  1.8617 -0.6541 -0.5891
  969SOL     OW14539   3.698   0.082  13.952 -0.5460  0.1322 -0.1113
  969SOL    HW114540   3.635   0.085  14.024  0.6495 -0.5845  0.9693
  969SOL    HW214541   3.763   0.026  13.993 -1.6934  0.7155  2.4806
  970SOL     OW14542   4.640   0.469  11.090 -0.1767  0.6806 -0.1088
  970SOL    HW114543   4.633   0.466  10.994  0.7870 -1.0065 -0.1195
  970SOL    HW214544   4.602   0.384  11.112  0.9179 -0.3901 -2.2788
  971SOL     OW14545   2.857   0.654   3.890 -0.0832  0.3277 -0.2858
  971SOL    HW114546   2.927   0.606   3.845  0.5034  0.0793  0.8989
  971SOL    HW214547   2.914   0.717   3.934  0.0224 -1.0124  1.4800
  972SOL     OW14548   3.983   0.836  12.382 -0.1912  0.0008 -0.3966
  972SOL    HW114549   3.996   0.931  12.381 -0.4908  0.0312 -3.9666
  972SOL    HW214550   3.888   0.831  12.369 -0.4153 -0.5966  1.4845
  973SOL     OW14551   0.427   1.000  17.132  0.0540  0.0720 -0.3097
  973SOL    HW114552   0.426   0.908  17.159 -0.6549  0.0374 -0.4422
  973SOL    HW214553   0.360   1.000  17.064 -1.3290  0.2973  1.0507
  974SOL     OW14554   2.954   2.857   4.526  1.1274  0.0358  0.0031
  974SOL    HW114555   2.941   2.805   4.605  0.4298  0.4471  0.1558
  974SOL    HW214556   2.918   2.938   4.561  0.4304 -0.2464 -0.0522
  975SOL     OW14557   4.227   0.311   8.103  0.1433 -0.2734  0.7944
  975SOL    HW114558   4.237   0.242   8.037 -2.1129  0.6211 -0.4810
  975SOL    HW214559   4.259   0.256   8.175 -0.8290 -0.6052  0.9752
  976SOL     OW14560   3.465   3.357   2.711  0.0830  0.1625 -0.8393
  976SOL    HW114561   3.428   3.445   2.711  1.0888  0.5765  0.0662
  976SOL    HW214562   3.392   3.308   2.749 -0.2789 -0.1294 -1.9060
  977SOL     OW14563   0.995   1.998   8.400 -0.3125  0.3861  0.1783
  977SOL    HW114564   1.023   1.976   8.311  2.3401  0.3853  1.0027
  977SOL    HW214565   0.901   2.013   8.392 -0.3481 -0.3231 -0.7133
  978SOL     OW14566   0.532   1.858   0.818  0.3314 -0.4598  0.1340
  978SOL    HW114567   0.514   1.844   0.725  1.5146  1.6961 -0.4242
  978SOL    HW214568   0.445   1.885   0.846 -0.1659 -3.8463  1.7967
  979SOL     OW14569   1.506   3.067   1.127  0.0345 -0.1840 -0.2442
  979SOL    HW114570   1.541   3.012   1.197 -0.3612 -0.1731 -0.0373
  979SOL    HW214571   1.410   3.063   1.133  0.0946 -0.7454  0.3381
  980SOL     OW14572   1.717   0.762  11.275  0.5202  0.2429  0.5904
  980SOL    HW114573   1.647   0.781  11.213  0.0446  0.4793  1.2009
  980SOL    HW214574   1.799   0.793  11.236  1.6427 -0.7117  2.1714
  981SOL     OW14575   3.848   2.362  13.928  0.2088 -0.0358 -0.0821
  981SOL    HW114576   3.923   2.321  13.887  0.1348 -1.3811  1.1412
  981SOL    HW214577   3.902   2.418  13.983 -1.0345 -1.3824  2.5386
  982SOL     OW14578   3.187   0.932   4.223  0.4660 -0.3062  0.5486
  982SOL    HW114579   3.175   0.869   4.294  1.0655 -0.9731  0.0512
  982SOL    HW214580   3.283   0.936   4.221  0.4788 -0.6507  0.6254
  983SOL     OW14581   4.394   2.155   7.283  0.1366  0.0648  0.1955
  983SOL    HW114582   4.423   2.111   7.363 -0.1909 -0.6336 -0.0641
  983SOL    HW214583   4.467   2.129   7.226 -0.2810  0.8767 -0.7067
  984SOL     OW14584   0.740   2.335   6.595 -0.4118 -0.0884 -0.2180
  984SOL    HW114585   0.810   2.343   6.531  0.1546  0.0920  0.4295
  984SOL    HW214586   0.761   2.252   6.638 -1.0892 -0.2160 -0.1295
  985SOL     OW14587   0.143   3.535   6.070  0.0103 -0.0825 -0.3218
  985SOL    HW114588   0.125   3.556   6.161 -0.8970 -0.6099 -0.3801
  985SOL    HW214589   0.105   3.613   6.029  2.1594 -0.2245 -2.6387
  986SOL     OW14590   2.360   4.640   6.940 -0.0807 -0.1079  0.0298
  986SOL    HW114591   2.414   4.678   6.870 -1.0849 -1.8866 -1.6928
  986SOL    HW214592   2.394   4.551   6.944  1.1375  0.4439  2.0112
  987SOL     OW14593   2.718   4.638  15.449  0.2567 -0.1492 -0.1271
  987SOL    HW114594   2.632   4.661  15.485 -0.0106 -0.4544 -0.5758
  987SOL    HW214595   2.699   4.588  15.369  0.5178  0.5484 -0.6262
  988SOL     OW14596   2.303   4.173   6.846  0.6891  0.9153 -0.3208
  988SOL    HW114597   2.290   4.251   6.792 -0.8990  1.9309  1.5008
  988SOL    HW214598   2.249   4.193   6.922  0.3085  3.1733 -1.1983
  989SOL     OW14599   3.922   1.167   5.166  0.5912 -0.3916 -0.0441
  989SOL    HW114600   3.977   1.160   5.244  1.6839  0.7464 -0.7053
  989SOL    HW214601   3.909   1.260   5.183 -1.8567 -0.7280 -0.1010
  990SOL     OW14602   1.648   2.993   9.757 -0.0745 -0.2613  0.2682
  990SOL    HW114603   1.740   2.970   9.743 -0.5488 -1.6680 -0.6136
  990SOL    HW214604   1.611   2.928   9.697 -0.2184 -0.8473  0.9897
  991SOL     OW14605   2.388   4.048   7.678 -0.0959 -0.0347  0.7784
  991SOL    HW114606   2.367   3.956   7.692  3.2207 -0.7660  0.8123
  991SOL    HW214607   2.483   4.045   7.691 -0.0137  0.8172  0.4103
  992SOL     OW14608   2.120   1.551   4.650 -0.4935  0.1760  0.3719
  992SOL    HW114609   2.185   1.482   4.643 -1.3189 -0.7991  2.3010
  992SOL    HW214610   2.110   1.585   4.561  1.4291  0.6271  0.3376
  993SOL     OW14611   1.632   0.484  10.891 -0.4478 -0.3989  0.4485
  993SOL    HW114612   1.628   0.437  10.808 -0.1368  1.6981 -0.7409
  993SOL    HW214613   1.555   0.541  10.885  0.7688  0.8634 -2.7500
  994SOL     OW14614   2.247   0.740   1.228  0.7646  0.5220  0.2885
  994SOL    HW114615   2.334   0.718   1.196 -0.1228 -1.2660 -0.8712
  994SOL    HW214616   2.235   0.826   1.188  1.3504  2.1224  3.5496
  995SOL     OW14617   4.410   0.693   1.248 -0.3631  0.1631  0.1107
  995SOL    HW114618   4.393   0.754   1.320  0.0090 -0.6490  0.8912
  995SOL    HW214619   4.471   0.736   1.188 -0.3269  0.7581  0.5706
  996SOL     OW14620   0.462   0.469  10.493 -0.0608 -0.4546 -0.3652
  996SOL    HW114621   0.548   0.511  10.490 -0.4008  0.2610 -0.0114
  996SOL    HW214622   0.414   0.525  10.431  2.2399  0.9662 -0.8488
  997SOL     OW14623   3.015   2.093  17.022  0.0869 -0.5304  0.0184
  997SOL    HW114624   3.056   2.036  16.957 -0.5368  1.1171 -1.8434
  997SOL    HW214625   2.934   2.100  16.970  1.0328 -0.2866 -1.4233
  998SOL     OW14626   3.256   2.360   8.911  0.3009  0.9118 -0.0409
  998SOL    HW114627   3.302   2.308   8.977  0.6281  1.4292  0.1301
  998SOL    HW214628   3.179   2.386   8.962 -0.6230 -0.0476 -0.9108
  999SOL     OW14629   0.177   0.057   8.786 -0.0927 -0.2396 -0.6657
  999SOL    HW114630   0.254   0.016   8.746  0.2570  0.0018 -0.2517
  999SOL    HW214631   0.181   0.136   8.733 -1.4858 -0.2323 -0.7483
 1000SOL     OW14632   3.080   0.922  12.645 -0.4666 -0.0185 -0.2418
 1000SOL    HW114633   3.047   0.938  12.556  1.4607  1.2828 -0.7167
 1000SOL    HW214634   3.025   0.852  12.681 -1.4246  0.6494 -0.4326
 1001SOL     OW14635   4.535   1.015   5.375 -0.1972 -0.0913 -0.0489
 1001SOL    HW114636   4.576   0.979   5.296  0.0499 -0.8652  0.4394
 1001SOL    HW214637   4.443   1.018   5.348 -0.3134 -0.7246  0.2753
 1002SOL     OW14638   1.662   1.933   0.613 -0.0971 -0.4799 -0.7593
 1002SOL    HW114639   1.639   1.879   0.538  0.8061  0.1513 -1.4847
 1002SOL    HW214640   1.726   1.993   0.575  0.4636 -0.0563  0.8560
 1003SOL     OW14641   2.927   0.202   2.670 -0.1380 -0.4118  0.0099
 1003SOL    HW114642   2.997   0.244   2.621 -0.2971 -0.5105 -0.3013
 1003SOL    HW214643   2.848   0.230   2.625  1.0484  2.6090 -0.2025
 1004SOL     OW14644   0.479   3.336   2.012  0.4777  0.4364  0.5681
 1004SOL    HW114645   0.526   3.254   2.028 -0.6246 -0.2152  0.4931
 1004SOL    HW214646   0.528   3.390   2.074  1.9637 -0.5684  0.2791
 1005SOL     OW14647   4.595   4.696   4.280 -0.1707  0.1894 -0.0311
 1005SOL    HW114648   4.556   4.672   4.363  0.5451 -0.6895  0.0476
 1005SOL    HW214649   4.638   4.617   4.248  0.4306  0.5504 -0.1185
 1006SOL     OW14650   3.471   4.064  16.945  0.5491 -0.4040  0.3203
 1006SOL    HW114651   3.417   4.142  16.953  0.5232 -0.3088 -0.8678
 1006SOL    HW214652   3.404   3.997  16.928 -1.0075  1.1485  0.3937
 1007SOL     OW14653   1.321   2.125   7.770 -0.4860  0.6540  0.3504
 1007SOL    HW114654   1.326   2.051   7.711  0.4321  0.9637  0.0403
 1007SOL    HW214655   1.233   2.159   7.755 -1.0379 -1.2188 -0.5035
 1008SOL     OW14656   1.095   4.495   0.301 -0.3414 -0.0359 -1.0958
 1008SOL    HW114657   1.138   4.413   0.328  0.6063  0.4624 -1.1187
 1008SOL    HW214658   1.155   4.563   0.331  0.7982 -2.1261  1.4192
 1009SOL     OW14659   2.732   4.497   7.168 -0.3894 -0.2580  0.2134
 1009SOL    HW114660   2.773   4.413   7.189 -4.0451 -2.1164 -0.0855
 1009SOL    HW214661   2.662   4.501   7.233 -0.2421  2.1259  0.2019
 1010SOL     OW14662   0.308   0.727   8.132  0.5072 -0.4305  0.2945
 1010SOL    HW114663   0.250   0.756   8.062 -2.8306  0.6976  3.5328
 1010SOL    HW214664   0.258   0.759   8.208  0.4160  0.9980 -0.3649
 1011SOL     OW14665   3.579   0.929   8.994 -0.0970 -0.5799  0.3659
 1011SOL    HW114666   3.634   0.899   8.921 -2.3150 -0.1198 -1.5062
 1011SOL    HW214667   3.625   0.890   9.068  1.4302  0.6474  0.0547
 1012SOL     OW14668   4.292   2.042  17.385  0.2297  0.3286  0.6128
 1012SOL    HW114669   4.369   2.095  17.402 -0.8256  2.4826 -1.3377
 1012SOL    HW214670   4.242   2.039  17.467 -0.7901  0.7953  0.0055
 1013SOL     OW14671   0.364   2.609  14.005  0.0587 -0.1184  0.1720
 1013SOL    HW114672   0.374   2.662  14.084  1.3556 -0.4011  0.2014
 1013SOL    HW214673   0.390   2.523  14.039 -1.5499 -0.6846 -0.0188
 1014SOL     OW14674   0.167   1.940   4.469  0.2462  0.5077  0.2514
 1014SOL    HW114675   0.156   2.034   4.480  1.3789  0.6524  0.1548
 1014SOL    HW214676   0.126   1.901   4.547  1.3363  0.9138  1.0300
 1015SOL     OW14677   3.011   4.552   3.193 -0.2683 -0.1418  0.4322
 1015SOL    HW114678   3.098   4.516   3.208  0.5053  1.7295  0.4168
 1015SOL    HW214679   2.982   4.504   3.115 -0.8241  0.6339  0.1542
 1016SOL     OW14680   2.266   3.557  10.569  0.1186  0.0513  0.2799
 1016SOL    HW114681   2.213   3.543  10.648  0.6558 -1.8410  0.3052
 1016SOL    HW214682   2.209   3.524  10.500 -2.0876 -0.7299  2.4540
 1017SOL     OW14683   1.941   1.418   3.370  0.0320 -0.3415  0.6982
 1017SOL    HW114684   2.012   1.435   3.432 -0.3820 -0.3078  1.1671
 1017SOL    HW214685   1.879   1.374   3.429 -2.2771 -1.3516 -2.4910
 1018SOL     OW14686   2.681   4.159   9.278  0.0276  0.1361  0.0311
 1018SOL    HW114687   2.588   4.137   9.288 -0.1327  1.1660  0.7692
 1018SOL    HW214688   2.706   4.179   9.369 -1.4639 -2.6201  1.0595
 1019SOL     OW14689   1.529   1.125   5.583  0.0197 -0.1897 -0.1534
 1019SOL    HW114690   1.452   1.159   5.537 -0.2602  1.8798  1.8231
 1019SOL    HW214691   1.491   1.141   5.669  0.3746 -0.8340  0.1288
 1020SOL     OW14692   1.099   4.288   3.957  0.1584  0.1439 -0.3389
 1020SOL    HW114693   1.021   4.252   3.915 -1.5583  0.8320  2.2800
 1020SOL    HW214694   1.074   4.379   3.940  1.5262  0.7589  1.0206
 1021SOL     OW14695   0.211   1.937   6.722 -0.3994  0.7628 -0.5976
 1021SOL    HW114696   0.235   1.888   6.643  0.3555  1.3385 -0.7231
 1021SOL    HW214697   0.273   2.010   6.719  0.0290  0.4479  0.5386
 1022SOL     OW14698   1.809   2.766   5.551  0.5911 -0.3525 -0.1428
 1022SOL    HW114699   1.794   2.851   5.509 -0.5815  0.0893  1.1539
 1022SOL    HW214700   1.820   2.798   5.641  2.2818  0.1295 -0.5233
 1023SOL     OW14701   4.104   1.586   1.943 -0.1872 -0.5114 -0.2301
 1023SOL    HW114702   4.076   1.608   1.854  3.7004  3.1927 -0.5451
 1023SOL    HW214703   4.018   1.574   1.983 -1.0724  1.5244 -1.5476
 1024SOL     OW14704   1.325   2.367   9.860 -0.0784  0.2880 -0.8288
 1024SOL    HW114705   1.370   2.416   9.791  0.1659  1.4782  0.1901
 1024SOL    HW214706   1.314   2.440   9.920  0.5275 -1.6009  1.5901
 1025SOL     OW14707   3.344   0.644  10.120  0.1486 -0.3199 -0.4966
 1025SOL    HW114708   3.373   0.553  10.121  0.0079 -0.3557  1.8770
 1025SOL    HW214709   3.265   0.641  10.066 -0.2256  2.9509 -0.1254
 1026SOL     OW14710   0.885   2.354   6.365 -0.0651 -0.2853 -0.1132
 1026SOL    HW114711   0.939   2.279   6.390  0.9289  1.7200  3.8124
 1026SOL    HW214712   0.891   2.360   6.270 -0.9614  0.3331 -0.1314
 1027SOL     OW14713   1.642   3.652   1.703 -0.4910  0.7467  0.4347
 1027SOL    HW114714   1.580   3.719   1.733 -2.9683 -1.2290 -0.2485
 1027SOL    HW214715   1.651   3.594   1.779  1.9517 -2.4319 -2.3033
 1028SOL     OW14716   3.650   4.422   5.594  0.4460 -0.0547 -0.6542
 1028SOL    HW114717   3.637   4.516   5.581  0.4199 -0.0948 -0.9092
 1028SOL    HW214718   3.638   4.402   5.501  0.1827 -2.3169 -0.1294
 1029SOL     OW14719   4.528   3.108   1.100  0.0534 -0.6937  0.8042
 1029SOL    HW114720   4.581   3.165   1.044  0.0417 -1.3122  0.1739
 1029SOL    HW214721   4.566   3.025   1.071  0.6874  0.0287 -0.4481
 1030SOL     OW14722   1.381   4.049   1.921  0.1764  0.3295  0.3832
 1030SOL    HW114723   1.288   4.029   1.926  0.3697 -1.3673 -2.3582
 1030SOL    HW214724   1.377   4.142   1.944  1.5775  0.3101  0.7200
 1031SOL     OW14725   3.615   4.499   4.036 -0.3896  0.6964  0.3050
 1031SOL    HW114726   3.689   4.475   4.092 -0.0970  0.7827 -0.0432
 1031SOL    HW214727   3.568   4.552   4.102  1.0384 -0.1763  2.0264
 1032SOL     OW14728   3.461   4.018   5.093  0.1733  0.1603 -0.6400
 1032SOL    HW114729   3.468   3.936   5.045  0.0915 -0.4736  0.4224
 1032SOL    HW214730   3.426   4.079   5.029 -2.5499  0.7140  1.3499
 1033SOL     OW14731   4.506   3.149   2.762  0.3370 -0.0676  0.4338
 1033SOL    HW114732   4.475   3.095   2.835 -0.0548  0.7331  0.8642
 1033SOL    HW214733   4.496   3.082   2.695  3.0021 -0.0393  0.0350
 1034SOL     OW14734   1.400   0.526   3.140  0.3667 -0.2847  0.3910
 1034SOL    HW114735   1.450   0.606   3.125  0.7278 -0.9183 -1.7582
 1034SOL    HW214736   1.370   0.531   3.231 -0.6938  1.8334 -0.0673
 1035SOL     OW14737   1.722   1.763  11.099 -0.2023  0.2863 -0.0976
 1035SOL    HW114738   1.739   1.680  11.054  1.2153  0.9507 -0.8001
 1035SOL    HW214739   1.714   1.732  11.189 -2.1589  2.2031  0.3654
 1036SOL     OW14740   2.113   2.147   4.653  0.0274  0.2031  0.0285
 1036SOL    HW114741   2.203   2.178   4.641 -0.0640  0.6486  0.4986
 1036SOL    HW214742   2.126   2.092   4.730  2.2587 -1.6314 -1.6432
 1037SOL     OW14743   1.754   2.039   1.339 -0.4347  0.0897 -0.4043
 1037SOL    HW114744   1.758   1.950   1.304 -0.6058 -0.9366  2.2364
 1037SOL    HW214745   1.804   2.026   1.419  0.5573 -0.3128 -1.0845
 1038SOL     OW14746   2.087   2.971   6.220  0.2486 -0.1098 -0.9693
 1038SOL    HW114747   2.035   2.917   6.160 -0.4523 -1.3563  0.7555
 1038SOL    HW214748   2.129   2.900   6.268 -0.7780  0.2620  0.4821
 1039SOL     OW14749   1.471   2.183   7.967  0.2472 -0.2529 -0.2522
 1039SOL    HW114750   1.416   2.152   7.895 -0.9184  0.3684  0.3674
 1039SOL    HW214751   1.488   2.277   7.958 -2.6220  0.4079  1.3084
 1040SOL     OW14752   2.733   2.284  12.386 -0.4509  0.2983  0.0040
 1040SOL    HW114753   2.759   2.376  12.380 -0.4637  0.2349 -1.0848
 1040SOL    HW214754   2.740   2.274  12.481  1.3489 -1.3372 -0.2956
 1041SOL     OW14755   4.555   1.437   4.226 -0.0648 -0.3182 -0.3516
 1041SOL    HW114756   4.579   1.384   4.150 -1.2382 -0.8465 -0.3675
 1041SOL    HW214757   4.534   1.516   4.177  3.6475  0.8347 -0.0628
 1042SOL     OW14758   1.665   2.648  16.775  0.7100  0.3278  0.0199
 1042SOL    HW114759   1.665   2.687  16.863 -2.4224 -0.9786  0.5831
 1042SOL    HW214760   1.578   2.666  16.740  1.6442  4.1401 -0.3530
 1043SOL     OW14761   2.504   2.353   0.576 -0.1529 -0.6885 -0.0773
 1043SOL    HW114762   2.598   2.369   0.575 -0.2369 -0.1264  1.1407
 1043SOL    HW214763   2.479   2.422   0.637 -0.9510 -1.1884  0.1603
 1044SOL     OW14764   1.422   2.650   3.490 -0.5139 -0.1842  0.2361
 1044SOL    HW114765   1.387   2.690   3.569 -1.5534  1.9177 -1.2849
 1044SOL    HW214766   1.400   2.558   3.505  1.0888 -0.6032 -0.0415
 1045SOL     OW14767   0.695   0.265   1.883 -0.4801  0.4153  0.2152
 1045SOL    HW114768   0.688   0.360   1.875  0.4416  0.6705  2.5619
 1045SOL    HW214769   0.606   0.261   1.918  0.4380 -2.1383  2.2688
 1046SOL     OW14770   3.344   0.336   2.878  0.3693  0.1631 -0.6031
 1046SOL    HW114771   3.253   0.307   2.875  0.3435  0.0961  0.7564
 1046SOL    HW214772   3.380   0.333   2.789 -1.8567  1.4511 -1.5346
 1047SOL     OW14773   1.128   4.255   3.514  0.8683  0.5992  0.1220
 1047SOL    HW114774   1.056   4.314   3.537  1.3757  1.6832 -1.0694
 1047SOL    HW214775   1.146   4.276   3.422 -2.1673 -1.6372 -0.9927
 1048SOL     OW14776   2.733   0.043  13.301 -0.4303 -0.3599 -0.1474
 1048SOL    HW114777   2.708   0.057  13.210  1.0833 -2.3639 -0.8908
 1048SOL    HW214778   2.669   4.712  13.324 -0.1439 -0.2535  0.9524
 1049SOL     OW14779   1.582   1.008   7.987 -0.1853 -0.0840  1.1697
 1049SOL    HW114780   1.600   1.045   8.073 -1.7010 -1.4540  2.0992
 1049SOL    HW214781   1.540   0.925   8.010  2.9616 -2.1018 -0.3960
 1050SOL     OW14782   3.475   1.273   9.475  0.1514 -0.4444  0.1863
 1050SOL    HW114783   3.466   1.180   9.495  2.7225 -0.3820  1.6540
 1050SOL    HW214784   3.465   1.281   9.380 -0.0514 -0.2092  0.2268
 1051SOL     OW14785   2.311   3.158   8.054  0.2546 -0.6527 -0.4004
 1051SOL    HW114786   2.291   3.215   8.128  2.6398  0.0599 -0.2820
 1051SOL    HW214787   2.324   3.220   7.983  2.3342  1.5676  1.9276
 1052SOL     OW14788   3.314   4.482   4.770  0.3657 -0.0481  0.0350
 1052SOL    HW114789   3.293   4.428   4.694 -2.4861  2.1999 -0.8012
 1052SOL    HW214790   3.322   4.570   4.733  0.0768  0.8142  2.0448
 1053SOL     OW14791   1.533   1.963  11.931 -0.5169 -0.2345 -0.6138
 1053SOL    HW114792   1.480   1.988  12.006  0.2798  1.3046 -0.5696
 1053SOL    HW214793   1.511   1.870  11.942  0.9395 -0.3801  1.0591
 1054SOL     OW14794   0.918   0.374   7.641  0.6792 -0.0330 -0.4086
 1054SOL    HW114795   0.983   0.320   7.686  1.2178  0.2818 -0.8019
 1054SOL    HW214796   0.982   0.437   7.606 -0.0360 -0.0111 -1.6821
 1055SOL     OW14797   2.032   0.686   1.948 -0.4571 -0.0764 -0.4599
 1055SOL    HW114798   2.007   0.711   1.859 -1.9155 -0.8067 -0.2521
 1055SOL    HW214799   2.016   0.592   1.945  1.1133 -0.4027  1.6073
 1056SOL     OW14800   1.085   1.163   4.971  0.4878  0.6146 -0.3373
 1056SOL    HW114801   1.148   1.198   4.909  0.4941  1.9428  0.4093
 1056SOL    HW214802   1.035   1.110   4.909  2.8620 -2.2704  0.2141
 1057SOL     OW14803   3.776   1.608   8.163  0.1904  0.3353  0.1240
 1057SOL    HW114804   3.711   1.556   8.116 -0.0666  0.1147  0.7277
 1057SOL    HW214805   3.854   1.554   8.178 -0.6570 -1.0595 -0.4953
 1058SOL     OW14806   0.943   2.981   1.140 -0.2789  0.1815  0.1779
 1058SOL    HW114807   0.986   2.897   1.125  0.1063  0.2632  0.8248
 1058SOL    HW214808   0.862   2.942   1.175 -1.2874  1.6755 -0.4812
 1059SOL     OW14809   1.970   1.964   3.851 -0.2591  0.0146 -0.0611
 1059SOL    HW114810   1.882   1.989   3.879  0.2485  0.9495  0.6617
 1059SOL    HW214811   2.014   2.048   3.850 -2.7672  1.3077 -2.4654
 1060SOL     OW14812   2.587   3.140  14.341 -0.4165 -0.2995  0.0491
 1060SOL    HW114813   2.499   3.121  14.375 -0.1453  0.4883  1.1976
 1060SOL    HW214814   2.625   3.103  14.421 -1.0951 -1.2212 -0.0488
 1061SOL     OW14815   1.841   2.488   6.930 -1.0972  0.2186  0.2134
 1061SOL    HW114816   1.773   2.466   6.994 -0.0889 -3.2257  0.1047
 1061SOL    HW214817   1.780   2.527   6.867 -2.0185  0.6936  1.4065
 1062SOL     OW14818   2.763   2.299   7.898 -0.2863  0.4182 -0.0520
 1062SOL    HW114819   2.845   2.320   7.854 -1.3361  2.2671 -1.1896
 1062SOL    HW214820   2.742   2.208   7.880  1.7699 -0.3243  1.4657
 1063SOL     OW14821   0.189   4.405   9.472 -0.1167  0.5749 -0.1670
 1063SOL    HW114822   0.212   4.426   9.382  0.5889 -0.4663 -0.2335
 1063SOL    HW214823   0.244   4.327   9.481 -3.5349 -1.8067  0.5877
 1064SOL     OW14824   2.199   3.836   9.007  0.6694 -0.2751  0.2593
 1064SOL    HW114825   2.142   3.828   8.931  0.3324 -0.1086  0.4959
 1064SOL    HW214826   2.143   3.880   9.071  0.6318 -0.8854  0.6511
 1065SOL     OW14827   2.358   3.150  13.289 -0.0149  0.1841  0.4687
 1065SOL    HW114828   2.334   3.065  13.252  1.9227 -1.3768  2.7660
 1065SOL    HW214829   2.371   3.194  13.205  0.3543 -2.9073 -1.1174
 1066SOL     OW14830   3.176   0.751   1.622  0.1684  0.1882  0.5015
 1066SOL    HW114831   3.209   0.740   1.533  1.4499  1.9593  0.7622
 1066SOL    HW214832   3.149   0.663   1.646 -2.3518  0.3566 -1.6290
 1067SOL     OW14833   2.998   2.737   7.627  0.0200  0.2902  0.3628
 1067SOL    HW114834   2.933   2.802   7.599 -1.1046 -0.4141  1.3427
 1067SOL    HW214835   3.023   2.713   7.537  0.2426 -0.2837  0.5750
 1068SOL     OW14836   0.499   4.090   3.536  0.0379  0.8595  0.2334
 1068SOL    HW114837   0.409   4.057   3.531  0.1770  0.7758 -1.5985
 1068SOL    HW214838   0.539   4.025   3.595  0.5148 -0.6213 -1.6954
 1069SOL     OW14839   4.645   0.884   8.941 -0.2749  0.4235 -0.0411
 1069SOL    HW114840   4.728   0.884   8.987  0.1345 -0.6865 -0.7733
 1069SOL    HW214841   4.683   0.859   8.856 -0.9968  1.6295 -0.7209
 1070SOL     OW14842   3.557   3.803   4.932 -0.3209  0.2208  0.4073
 1070SOL    HW114843   3.521   3.779   4.846  1.5776 -0.6958 -0.1476
 1070SOL    HW214844   3.650   3.782   4.918 -0.5320 -2.0554  2.5560
 1071SOL     OW14845   1.086   1.397  10.680  0.3460  0.0615 -0.6147
 1071SOL    HW114846   1.161   1.340  10.662 -1.2155 -2.0934 -0.2453
 1071SOL    HW214847   1.073   1.428  10.590 -0.4507 -0.6911 -0.7523
 1072SOL     OW14848   4.123   0.058   5.117  0.4421  0.4374 -0.4413
 1072SOL    HW114849   4.065   4.735   5.165 -1.0466  3.6415  1.6782
 1072SOL    HW214850   4.073   0.138   5.131 -2.7050 -0.8337 -4.0842
 1073SOL     OW14851   2.195   2.319   1.409  0.2446  0.1497  0.6846
 1073SOL    HW114852   2.194   2.283   1.498  0.7790  0.4906  0.8281
 1073SOL    HW214853   2.135   2.257   1.367 -0.1461  0.1001  1.3124
 1074SOL     OW14854   3.191   2.240   1.424  0.2143 -0.2964  0.4923
 1074SOL    HW114855   3.185   2.151   1.460 -0.4697 -0.4600 -0.0221
 1074SOL    HW214856   3.256   2.275   1.485 -0.6856  2.9247 -0.4208
 1075SOL     OW14857   2.203   2.958   7.182  0.0077 -0.1236 -0.5236
 1075SOL    HW114858   2.141   3.013   7.136 -0.2547 -1.0786 -1.3086
 1075SOL    HW214859   2.260   3.022   7.224  0.0043  0.3788 -1.2948
 1076SOL     OW14860   1.314   2.860  12.378  0.0466 -0.2661  0.0421
 1076SOL    HW114861   1.230   2.902  12.400 -0.4048 -1.2402  0.1621
 1076SOL    HW214862   1.378   2.930  12.364 -0.4872  0.5852  1.8938
 1077SOL     OW14863   0.531   0.502  10.082  0.2636 -0.3332  0.2383
 1077SOL    HW114864   0.543   0.438  10.012  1.2818 -0.1804  0.2830
 1077SOL    HW214865   0.542   0.583  10.032  0.1448 -1.4573 -1.6118
 1078SOL     OW14866   1.944   0.323   6.375  0.0602 -0.5348  0.6784
 1078SOL    HW114867   2.013   0.302   6.439 -1.1359 -0.8695  1.8565
 1078SOL    HW214868   1.874   0.323   6.440 -0.7298  0.0506 -0.1667
 1079SOL     OW14869   4.426   1.558  11.157  0.3020  0.6641  0.6128
 1079SOL    HW114870   4.426   1.575  11.063 -0.0229 -1.4759  0.2308
 1079SOL    HW214871   4.333   1.545  11.171  0.3133 -1.5679 -1.4613
 1080SOL     OW14872   0.078   1.596   2.082 -0.2094  0.0765  0.4843
 1080SOL    HW114873   0.103   1.567   1.995 -2.2990 -2.7698  0.8360
 1080SOL    HW214874   4.725   1.623   2.061 -0.5819 -0.6738  1.1128
 1081SOL     OW14875   1.220   3.284   5.902  0.6628 -0.2722  0.0982
 1081SOL    HW114876   1.172   3.203   5.918 -0.2173  0.0343 -0.9976
 1081SOL    HW214877   1.215   3.324   5.989 -2.9116  0.3158 -0.3529
 1082SOL     OW14878   2.444   0.893   2.087 -0.5895  0.1009 -0.5611
 1082SOL    HW114879   2.423   0.941   2.167  2.6216  2.3048 -1.0405
 1082SOL    HW214880   2.403   0.953   2.024 -0.1541 -0.6631 -1.5718
 1083SOL     OW14881   0.290   0.366   2.910 -0.2771  0.0144  0.1872
 1083SOL    HW114882   0.243   0.357   2.826 -1.4368  1.3323  0.6968
 1083SOL    HW214883   0.361   0.303   2.898  1.8714  2.2468  1.3925
 1084SOL     OW14884   3.615   3.530   0.159 -0.0806 -0.3965  0.5574
 1084SOL    HW114885   3.522   3.554   0.159  0.1238  0.3663  1.2787
 1084SOL    HW214886   3.634   3.543   0.252  1.3014  0.4852  0.1545
 1085SOL     OW14887   1.028   2.236   0.837 -0.1083 -0.1744  0.1505
 1085SOL    HW114888   0.938   2.209   0.820  0.4617 -1.7692 -0.3751
 1085SOL    HW214889   1.029   2.327   0.807  0.7806 -0.4036 -0.5326
 1086SOL     OW14890   0.837   2.429   2.581 -0.1168 -0.5562 -0.1334
 1086SOL    HW114891   0.754   2.416   2.628  0.0278 -1.4462 -0.1148
 1086SOL    HW214892   0.902   2.400   2.645  2.5453  3.6226 -0.9185
 1087SOL     OW14893   2.187   0.178  12.211  0.3283 -0.3422  0.3466
 1087SOL    HW114894   2.165   0.179  12.118 -1.2395  1.1003  0.7293
 1087SOL    HW214895   2.115   0.119  12.235  1.2194 -0.8021  1.8713
 1088SOL     OW14896   1.038   1.065  17.546 -0.8144 -0.2244  0.0339
 1088SOL    HW114897   1.057   0.981  17.588  0.2740  0.6866  1.3355
 1088SOL    HW214898   1.063   1.035  17.458 -1.0670 -0.8448  0.1714
 1089SOL     OW14899   0.920   3.139  12.623  0.3575  0.1809 -0.0522
 1089SOL    HW114900   0.972   3.164  12.546  0.3161  0.3970 -0.0098
 1089SOL    HW214901   0.945   3.048  12.634  2.0622  1.1265  3.9749
 1090SOL     OW14902   1.215   3.263  17.302 -0.0739  0.3988 -0.1451
 1090SOL    HW114903   1.279   3.275  17.231 -0.0134  1.1028  0.0212
 1090SOL    HW214904   1.173   3.349  17.311  0.2345  0.4664  0.5682
 1091SOL     OW14905   3.863   4.701   8.696 -0.4008  1.0432  0.0934
 1091SOL    HW114906   3.809   4.641   8.645  2.4374 -1.3719 -0.0721
 1091SOL    HW214907   3.917   0.000   8.626 -0.5894  0.7989 -0.1785
 1092SOL     OW14908   4.115   3.526  17.196 -0.1726 -0.4042  0.0071
 1092SOL    HW114909   4.063   3.461  17.149  1.0105 -0.8070 -0.7274
 1092SOL    HW214910   4.146   3.571  17.118 -2.0004 -2.0607 -1.6580
 1093SOL     OW14911   1.966   2.880  11.430 -0.3427 -0.0218 -0.2347
 1093SOL    HW114912   1.925   2.886  11.344 -1.4133 -1.6691  0.1558
 1093SOL    HW214913   1.955   2.788  11.453 -1.8405  0.2175 -0.0420
 1094SOL     OW14914   2.501   3.014   2.864 -0.0326 -0.0589 -0.4208
 1094SOL    HW114915   2.409   3.037   2.860  0.1090  1.1526  3.0445
 1094SOL    HW214916   2.495   2.920   2.875  0.3102 -0.0999 -0.5679
 1095SOL     OW14917   4.245   2.796  11.834  0.3812 -0.0953 -0.6986
 1095SOL    HW114918   4.226   2.868  11.895  2.2720 -0.6331  0.5355
 1095SOL    HW214919   4.329   2.829  11.801  0.8883 -1.9686 -1.3003
 1096SOL     OW14920   3.137   3.337   1.986  0.6172 -0.4141  0.6007
 1096SOL    HW114921   3.203   3.270   1.968  0.7459 -0.4935  1.3358
 1096SOL    HW214922   3.161   3.351   2.078 -1.6961  1.6490  0.8742
 1097SOL     OW14923   2.350   3.576   3.246 -0.0091  0.0955  0.1070
 1097SOL    HW114924   2.408   3.538   3.313  0.7173 -0.0742 -0.6197
 1097SOL    HW214925   2.369   3.510   3.179  1.4635 -2.4068  2.9217
 1098SOL     OW14926   2.434   1.041  17.567  0.0079  0.1758 -0.2062
 1098SOL    HW114927   2.407   0.957  17.604 -1.6125  0.5188 -0.5938
 1098SOL    HW214928   2.525   1.039  17.596 -0.0805  0.9684  0.1393
 1099SOL     OW14929   2.209   1.962   3.179 -0.0645  0.1420 -0.4178
 1099SOL    HW114930   2.262   2.004   3.111  1.8241 -2.0504 -0.3143
 1099SOL    HW214931   2.272   1.958   3.251  0.9707 -1.9268 -1.4313
 1100SOL     OW14932   3.980   1.166   8.676  0.1774  0.4695  0.3127
 1100SOL    HW114933   3.931   1.232   8.725  0.7314  1.3432 -0.3053
 1100SOL    HW214934   4.061   1.172   8.727  0.4988  0.8692 -0.2384
 1101SOL     OW14935   0.569   4.175   3.276  0.1318  0.3427  0.2044
 1101SOL    HW114936   0.635   4.239   3.304 -0.0780  0.9248 -0.6464
 1101SOL    HW214937   0.532   4.140   3.357  0.0834  1.6359  0.7371
 1102SOL     OW14938   3.130   0.784   5.842  0.6049  0.6138  0.5583
 1102SOL    HW114939   3.102   0.813   5.755 -0.0152  0.3755  0.6793
 1102SOL    HW214940   3.216   0.750   5.819 -0.1960 -0.5511 -0.6445
 1103SOL     OW14941   2.173   1.759   6.611 -0.1056 -0.4231 -0.3593
 1103SOL    HW114942   2.160   1.817   6.536  1.8986 -0.7135 -0.9283
 1103SOL    HW214943   2.240   1.696   6.584  0.2939  0.1780 -0.7820
 1104SOL     OW14944   3.948   3.738   2.597 -0.0549  0.1358 -0.4647
 1104SOL    HW114945   3.931   3.811   2.655 -0.4761 -0.6242  0.3641
 1104SOL    HW214946   4.041   3.756   2.580 -0.0706 -2.4221 -3.3511
 1105SOL     OW14947   1.335   0.844  17.442  1.0603  0.3096  0.0778
 1105SOL    HW114948   1.287   0.908  17.389 -2.3822 -0.5982  2.0795
 1105SOL    HW214949   1.415   0.843  17.390  2.0795  0.1617  1.6521
 1106SOL     OW14950   1.923   1.319   8.183 -0.3848 -0.3410  1.0923
 1106SOL    HW114951   1.875   1.237   8.194 -3.1105  1.1467  0.4733
 1106SOL    HW214952   1.957   1.303   8.095  0.1109  0.3837  1.1562
 1107SOL     OW14953   4.124   4.080  10.105  0.1628  0.2042 -0.5899
 1107SOL    HW114954   4.211   4.110  10.080  0.5377 -1.3271 -1.0752
 1107SOL    HW214955   4.139   4.000  10.154  2.3370 -0.2575 -2.0260
 1108SOL     OW14956   3.134   3.165   4.355  0.8224  0.1577 -0.1877
 1108SOL    HW114957   3.067   3.199   4.414 -0.6558  0.0805 -1.8317
 1108SOL    HW214958   3.196   3.126   4.417  0.2900  0.8472  0.7842
 1109SOL     OW14959   0.227   1.651   9.605  0.1154  0.0134  0.3119
 1109SOL    HW114960   0.204   1.702   9.682 -1.3772 -0.4037  0.1463
 1109SOL    HW214961   0.142   1.656   9.560 -0.6427  0.0398  1.7316
 1110SOL     OW14962   3.425   2.460   7.448 -0.0776 -0.4535 -0.1074
 1110SOL    HW114963   3.394   2.520   7.516 -0.1982 -0.5978 -0.0355
 1110SOL    HW214964   3.520   2.464   7.459  0.0429 -1.8324 -0.5637
 1111SOL     OW14965   2.057   1.720  13.308 -0.2356  0.1070  0.1862
 1111SOL    HW114966   2.041   1.786  13.376  0.0693  0.8389 -0.4526
 1111SOL    HW214967   2.152   1.712  13.306 -0.1942  0.3188  1.2581
 1112SOL     OW14968   1.065   4.625   6.315  0.1845 -0.0648 -0.0732
 1112SOL    HW114969   1.115   4.684   6.258 -0.9328  1.0322  0.0808
 1112SOL    HW214970   1.128   4.554   6.325  0.9320  0.6785  0.4534
 1113SOL     OW14971   1.598   2.370   5.553  0.1126 -0.0682  0.2326
 1113SOL    HW114972   1.583   2.463   5.534 -1.3461  0.0245  1.8512
 1113SOL    HW214973   1.691   2.367   5.575  0.6240 -0.8942 -2.0808
 1114SOL     OW14974   3.575   1.876   4.547  0.1441 -0.4741 -0.2141
 1114SOL    HW114975   3.632   1.949   4.526 -1.0350  1.1459  2.2551
 1114SOL    HW214976   3.500   1.913   4.594  0.0918  0.1913 -0.8309
 1115SOL     OW14977   4.238   1.363   1.716 -0.2580 -0.0412  0.2482
 1115SOL    HW114978   4.226   1.270   1.733 -0.3964  0.3362  2.3219
 1115SOL    HW214979   4.193   1.406   1.789 -1.6582 -1.2898  0.1111
 1116SOL     OW14980   4.063   3.919   9.769 -0.1516  0.3729  0.0732
 1116SOL    HW114981   4.110   3.979   9.711 -0.7630  1.1976  0.4327
 1116SOL    HW214982   4.080   3.832   9.733  1.8299 -0.1686  2.3309
 1117SOL     OW14983   3.068   3.447   6.118  0.1528 -0.2240  0.2556
 1117SOL    HW114984   3.121   3.450   6.038 -0.6765 -0.2347 -0.3019
 1117SOL    HW214985   2.996   3.507   6.099 -1.8757 -2.8638 -0.5338
 1118SOL     OW14986   2.198   4.200  15.114 -0.3896  0.2308 -0.6300
 1118SOL    HW114987   2.279   4.149  15.106 -0.8565 -0.4767 -0.8950
 1118SOL    HW214988   2.228   4.283  15.077  3.4133 -0.2355  1.4143
 1119SOL     OW14989   3.050   1.448   6.117  0.4439 -0.7113  0.3852
 1119SOL    HW114990   3.017   1.361   6.094  0.7233 -1.1725  1.7385
 1119SOL    HW214991   3.066   1.421   6.208  1.2896 -1.0024  0.1494
 1120SOL     OW14992   0.874   1.988  10.732  0.6721  0.0950  0.3360
 1120SOL    HW114993   0.908   1.962  10.818  0.9000  0.2153  0.2840
 1120SOL    HW214994   0.793   1.938  10.730  0.9782 -0.3293 -1.3842
 1121SOL     OW14995   1.942   4.333   2.227  0.2014  0.5519  0.0833
 1121SOL    HW114996   1.899   4.418   2.236 -1.8415 -0.4533 -0.1276
 1121SOL    HW214997   1.957   4.333   2.322 -0.1969 -2.3630  0.1497
 1122SOL     OW14998   0.190   3.466   9.033  0.0396 -0.0397  0.2630
 1122SOL    HW114999   0.258   3.403   9.056  1.2784  1.3469  0.3464
 1122SOL    HW215000   0.191   3.527   9.107  0.2010  0.6873 -0.3353
 1123SOL     OW15001   4.218   0.834   5.327  0.0546 -0.0262  0.5842
 1123SOL    HW115002   4.247   0.921   5.297 -1.3622 -0.0638 -0.9109
 1123SOL    HW215003   4.186   0.812   5.239 -0.5454 -2.0233  1.3216
 1124SOL     OW15004   2.018   0.443  11.646  0.6519  1.0380  0.4358
 1124SOL    HW115005   1.976   0.526  11.672 -0.7015  0.2930  0.5993
 1124SOL    HW215006   2.103   0.452  11.689  1.4227  0.0230 -0.8812
 1125SOL     OW15007   2.700   1.029  15.666 -0.0531 -0.4104  0.0516
 1125SOL    HW115008   2.725   1.017  15.575 -1.2868 -0.8746 -0.2137
 1125SOL    HW215009   2.740   0.950  15.703 -3.4311 -2.2929 -0.3938
 1126SOL     OW15010   0.705   3.400   1.451  0.6250 -0.1402  0.4595
 1126SOL    HW115011   0.667   3.471   1.399 -0.5936 -0.2563  1.1862
 1126SOL    HW215012   0.734   3.342   1.381 -1.1409  0.9999 -1.2176
 1127SOL     OW15013   3.426   1.656  10.450 -0.1752  0.2271 -0.2066
 1127SOL    HW115014   3.405   1.749  10.439 -0.2013  0.5466  2.5634
 1127SOL    HW215015   3.333   1.635  10.457 -0.0713 -0.9211 -2.2493
 1128SOL     OW15016   3.439   3.041   5.655 -0.3942 -0.7241  0.1388
 1128SOL    HW115017   3.410   2.965   5.605  2.0736 -0.1517 -2.1666
 1128SOL    HW215018   3.356   3.070   5.694 -1.1687 -0.6618 -1.5707
 1129SOL     OW15019   1.652   0.536   8.619  0.7777 -0.2548  0.2140
 1129SOL    HW115020   1.730   0.518   8.672 -0.8469  1.7273  3.3052
 1129SOL    HW215021   1.632   0.624   8.651 -3.3558 -1.7471  1.7739
 1130SOL     OW15022   0.385   3.690   8.165  0.2922  0.2474 -0.2992
 1130SOL    HW115023   0.336   3.770   8.144  1.0276  1.1703  1.5772
 1130SOL    HW215024   0.440   3.720   8.237 -0.8530  0.8586  0.3211
 1131SOL     OW15025   2.705   2.998   8.913  0.0147 -0.2798 -0.1273
 1131SOL    HW115026   2.699   3.090   8.888 -1.9895 -0.3883 -0.0225
 1131SOL    HW215027   2.638   2.957   8.858 -2.7983  0.7039  2.5242
 1132SOL     OW15028   0.343   0.023   9.590 -0.3694 -0.0415 -0.6188
 1132SOL    HW115029   0.345   0.087   9.519 -1.1606  0.6904  0.0142
 1132SOL    HW215030   0.253   0.041   9.619 -0.0448  2.9423 -1.4573
 1133SOL     OW15031   4.630   1.791   2.744 -0.1452  0.4678 -0.0170
 1133SOL    HW115032   4.575   1.869   2.729 -2.3392 -0.8852  1.0006
 1133SOL    HW215033   4.714   1.814   2.705  0.5690  1.6473  2.2495
 1134SOL     OW15034   1.172   1.756   2.783 -0.3310 -0.2475 -0.5320
 1134SOL    HW115035   1.105   1.710   2.731 -0.4687  0.3636 -0.9035
 1134SOL    HW215036   1.232   1.778   2.712  1.2010 -2.0364  0.1907
 1135SOL     OW15037   3.004   1.737   0.500  0.2079  0.2269 -0.2991
 1135SOL    HW115038   3.042   1.706   0.583  0.4030  0.1445 -0.4186
 1135SOL    HW215039   2.909   1.735   0.511  0.3879  0.5298  1.3784
 1136SOL     OW15040   0.111   3.546   4.754 -0.2335 -0.1927 -0.0330
 1136SOL    HW115041   0.039   3.484   4.769 -0.5611  0.3261  0.5451
 1136SOL    HW215042   0.076   3.631   4.781 -2.5434 -1.3147  0.5585
 1137SOL     OW15043   1.607   2.180   6.623 -0.2297  0.0185 -0.3073
 1137SOL    HW115044   1.675   2.132   6.670  0.0266 -1.0856 -1.8132
 1137SOL    HW215045   1.544   2.111   6.601 -0.7747 -0.1920  1.8235
 1138SOL     OW15046   2.359   0.686   8.526 -0.1212 -0.0152 -0.0916
 1138SOL    HW115047   2.299   0.758   8.546  0.3928  0.0810  1.0927
 1138SOL    HW215048   2.411   0.677   8.606  0.0342  0.7849 -0.0988
 1139SOL     OW15049   1.757   0.176   5.346  0.4951 -0.1842  0.1388
 1139SOL    HW115050   1.699   0.239   5.302  1.4465  0.8603  0.3746
 1139SOL    HW215051   1.691   0.130   5.396 -1.7035  1.3583 -1.3412
 1140SOL     OW15052   3.835   1.074   4.785  0.3470  0.2383  0.2537
 1140SOL    HW115053   3.908   1.133   4.767  1.9346 -1.5440  0.7252
 1140SOL    HW215054   3.773   1.101   4.718 -1.4345  1.1085  2.2479
 1141SOL     OW15055   2.460   3.194   3.637  0.2803  0.2489 -0.0372
 1141SOL    HW115056   2.437   3.139   3.561  1.3412 -0.4666  0.1614
 1141SOL    HW215057   2.439   3.279   3.599  1.7850  0.3053 -0.7569
 1142SOL     OW15058   1.222   2.246   8.589 -0.0401  0.1749  0.3966
 1142SOL    HW115059   1.182   2.320   8.635  0.5442  0.7404 -0.0012
 1142SOL    HW215060   1.316   2.258   8.598  0.1012 -1.5130  1.0453
 1143SOL     OW15061   2.474   4.716   3.724  0.2899 -0.6083  0.2436
 1143SOL    HW115062   2.555   4.674   3.696  0.7099  0.2641  0.1565
 1143SOL    HW215063   2.507   0.041   3.789  1.1677 -1.8289  0.9553
 1144SOL     OW15064   0.555   3.541   7.531  0.0860  0.0120 -0.9880
 1144SOL    HW115065   0.606   3.591   7.467  0.4693 -0.6995 -1.2325
 1144SOL    HW215066   0.522   3.613   7.584  0.9459  0.9956 -1.7792
 1145SOL     OW15067   3.578   1.479   1.573 -0.0788  0.4234 -0.4608
 1145SOL    HW115068   3.561   1.523   1.657  0.0245  1.7680 -1.1435
 1145SOL    HW215069   3.666   1.443   1.583 -1.3921 -1.3741  4.5821
 1146SOL     OW15070   1.718   0.216  10.294  0.1623 -0.4837  0.5053
 1146SOL    HW115071   1.709   0.131  10.337  1.9544 -1.3337 -0.7908
 1146SOL    HW215072   1.665   0.193  10.217  0.6202  0.8074 -0.2052
 1147SOL     OW15073   0.222   3.335   3.626  0.9477 -0.5229  0.3747
 1147SOL    HW115074   0.261   3.351   3.712  2.2371  0.0457 -0.3224
 1147SOL    HW215075   0.237   3.417   3.580  0.6097 -1.1805 -0.9357
 1148SOL     OW15076   1.710   4.200   9.276 -0.4884  0.1213 -0.1648
 1148SOL    HW115077   1.719   4.106   9.292  2.3001  0.5363  0.6510
 1148SOL    HW215078   1.734   4.243   9.358  1.4420  0.5394 -0.9536
 1149SOL     OW15079   4.030   0.602  17.513 -0.6668  0.1293 -0.1980
 1149SOL    HW115080   4.027   0.627  17.420 -0.7578 -0.6236 -0.3980
 1149SOL    HW215081   4.114   0.641  17.539 -1.2412  0.9107  0.4784
 1150SOL     OW15082   4.698   1.982   7.777 -0.4879 -0.1634 -0.3010
 1150SOL    HW115083   4.726   1.901   7.735  1.2029 -0.1482  0.8178
 1150SOL    HW215084   0.020   1.987   7.853  1.2888  0.8034 -1.7437
 1151SOL     OW15085   1.732   0.605  12.615 -0.0687 -0.1271  0.0464
 1151SOL    HW115086   1.665   0.555  12.662 -0.3026  0.9473  0.8595
 1151SOL    HW215087   1.759   0.533  12.558 -0.3546  1.3881 -1.9975
 1152SOL     OW15088   3.926   2.861  13.112 -0.0563  0.3218  0.0725
 1152SOL    HW115089   3.970   2.902  13.187 -2.0827 -1.5030  2.2501
 1152SOL    HW215090   3.997   2.866  13.047 -2.1168 -3.6417 -2.4920
 1153SOL     OW15091   2.353   3.796   5.258 -0.3683 -0.5388 -0.0951
 1153SOL    HW115092   2.384   3.873   5.304 -0.0125 -0.6004 -0.2348
 1153SOL    HW215093   2.313   3.821   5.174 -0.2929  1.5438  0.4817
 1154SOL     OW15094   3.154   1.264   8.819 -0.3370 -0.6755 -0.0054
 1154SOL    HW115095   3.195   1.337   8.773 -0.0912  0.1467  1.5289
 1154SOL    HW215096   3.120   1.306   8.898 -0.6030  0.2901 -0.6347
 1155SOL     OW15097   3.787   1.758   3.249  0.0599 -0.1722 -0.4460
 1155SOL    HW115098   3.744   1.841   3.270  2.0984  0.8002 -0.1972
 1155SOL    HW215099   3.811   1.730   3.338  1.2933 -0.3014 -0.8301
 1156SOL     OW15100   2.953   0.389   5.659  0.5117 -0.2635 -0.3640
 1156SOL    HW115101   2.984   0.342   5.582 -0.7737 -2.4830  0.4510
 1156SOL    HW215102   2.973   0.481   5.643  0.4459 -0.0639  0.6739
 1157SOL     OW15103   0.520   3.059   6.066 -0.0041  0.3892 -0.5075
 1157SOL    HW115104   0.562   3.094   6.145  0.7520 -0.9193 -0.3288
 1157SOL    HW215105   0.435   3.102   6.056  0.6360  1.3504 -1.9043
 1158SOL     OW15106   0.311   1.035   2.371  0.0036  0.1866 -0.7548
 1158SOL    HW115107   0.369   1.099   2.329 -1.1244  2.3986  1.0886
 1158SOL    HW215108   0.227   1.071   2.341 -0.6129  0.4689  1.3592
 1159SOL     OW15109   1.256   1.622   8.675 -0.2462 -0.3711  0.3055
 1159SOL    HW115110   1.211   1.632   8.759 -0.2251 -1.7180  0.4717
 1159SOL    HW215111   1.186   1.610   8.611 -2.1182  1.4318  2.0016
 1160SOL     OW15112   4.353   4.503   3.751 -1.2340  0.4321  0.2751
 1160SOL    HW115113   4.398   4.543   3.826  1.5073 -2.3491  0.1336
 1160SOL    HW215114   4.419   4.498   3.681 -1.2943 -0.9134  0.3040
 1161SOL     OW15115   2.800   1.988  12.939 -0.4103 -0.0649 -0.2409
 1161SOL    HW115116   2.829   1.899  12.962 -1.2963 -0.1951  0.3437
 1161SOL    HW215117   2.866   2.048  12.974 -0.5728 -0.5217  0.8438
 1162SOL     OW15118   4.568   4.387   4.470  0.3186 -0.4872 -0.1187
 1162SOL    HW115119   4.496   4.402   4.532  0.5101  0.1421 -0.0488
 1162SOL    HW215120   4.519   4.392   4.388  0.6115 -1.7043 -0.3637
 1163SOL     OW15121   2.461   3.340   8.583  0.6194 -0.1604  0.0041
 1163SOL    HW115122   2.393   3.401   8.555  0.5546  0.1973  0.9324
 1163SOL    HW215123   2.466   3.381   8.669  1.4762  0.6238 -0.4262
 1164SOL     OW15124   2.150   3.377   4.728  0.0064 -0.2651 -0.2341
 1164SOL    HW115125   2.240   3.400   4.703  0.5672 -0.8575  1.2827
 1164SOL    HW215126   2.166   3.283   4.734 -3.7600 -0.9309 -0.9574
 1165SOL     OW15127   1.943   4.041   5.589  0.3626 -0.0640  0.3474
 1165SOL    HW115128   1.975   3.952   5.573  0.1404 -0.3972  1.6893
 1165SOL    HW215129   1.999   4.082   5.524  1.3360 -2.4257 -0.2973
 1166SOL     OW15130   0.408   4.543  16.561 -0.0078 -0.3654 -0.1156
 1166SOL    HW115131   0.448   4.624  16.528  1.2587 -1.0321 -0.2065
 1166SOL    HW215132   0.341   4.566  16.625  0.8426 -1.0710  1.0235
 1167SOL     OW15133   4.063   2.520   6.458  0.3016  0.2171  0.2498
 1167SOL    HW115134   3.982   2.569   6.476 -0.7427 -0.3477 -3.0195
 1167SOL    HW215135   4.053   2.486   6.369  2.8501 -1.3484  0.5616
 1168SOL     OW15136   4.217   4.648   4.338  0.5153 -0.4439  0.0631
 1168SOL    HW115137   4.238   4.714   4.272  1.1179 -1.4595 -0.7632
 1168SOL    HW215138   4.245   4.564   4.300 -0.5396 -1.1920  0.9484
 1169SOL     OW15139   0.121   4.343   1.104  0.4673  0.9887  0.2938
 1169SOL    HW115140   0.146   4.337   1.196 -0.5967 -3.9440  0.2887
 1169SOL    HW215141   0.202   4.303   1.071  0.7337  1.1852  0.7132
 1170SOL     OW15142   0.650   4.266   2.955 -0.3185 -0.6768 -0.8848
 1170SOL    HW115143   0.730   4.289   3.001 -0.2621 -1.6532 -0.5014
 1170SOL    HW215144   0.667   4.172   2.946  0.6341 -0.5904  0.1436
 1171SOL     OW15145   2.573   1.121   5.568  0.2427 -0.0009 -0.3751
 1171SOL    HW115146   2.557   1.167   5.486  1.7502  0.9092 -0.1767
 1171SOL    HW215147   2.505   1.055   5.580  1.3077 -0.7960  1.3269
 1172SOL     OW15148   2.293   1.498   2.986 -0.3004 -0.1572 -0.4765
 1172SOL    HW115149   2.365   1.455   2.940  1.4475  0.9372  1.2441
 1172SOL    HW215150   2.276   1.448   3.066  0.3326  1.6111  0.7442
 1173SOL     OW15151   2.234   0.464  15.781  0.7624 -0.1846  0.1444
 1173SOL    HW115152   2.204   0.375  15.799  2.5987 -0.6023  1.0490
 1173SOL    HW215153   2.176   0.485  15.708  2.9428  3.2135 -0.5767
 1174SOL     OW15154   0.825   1.164   8.831 -0.1502  0.4211 -0.1118
 1174SOL    HW115155   0.896   1.221   8.803 -0.7878  1.4417  0.3640
 1174SOL    HW215156   0.861   1.076   8.817  0.8650  0.8514 -0.2109
 1175SOL     OW15157   0.411   0.751   6.483  0.4306  0.3176 -0.0543
 1175SOL    HW115158   0.436   0.705   6.403 -1.9063 -1.0012 -0.0181
 1175SOL    HW215159   0.449   0.700   6.554  1.7234  0.6249 -0.5208
 1176SOL     OW15160   3.122   2.765  13.494  0.5192 -0.5125  0.4217
 1176SOL    HW115161   3.154   2.806  13.574 -0.0136  0.1607  0.2958
 1176SOL    HW215162   3.189   2.699  13.479  2.3112  1.1547  1.1503
 1177SOL     OW15163   1.345   3.924   9.578  0.1711  0.1329  0.5174
 1177SOL    HW115164   1.378   3.938   9.667 -1.0408  3.4840  0.4496
 1177SOL    HW215165   1.304   3.838   9.586  1.7715 -0.6857 -0.1165
 1178SOL     OW15166   2.684   2.538   3.847 -0.2062 -0.4331 -0.8164
 1178SOL    HW115167   2.714   2.469   3.788 -0.1182  0.5141 -1.8952
 1178SOL    HW215168   2.634   2.486   3.910  0.0673 -1.4629 -1.4508
 1179SOL     OW15169   1.997   1.189   4.502 -0.0227  0.3381  0.2149
 1179SOL    HW115170   1.946   1.117   4.539  0.3625 -0.7237 -1.3166
 1179SOL    HW215171   2.046   1.139   4.437 -2.5070 -0.0926 -1.3432
 1180SOL     OW15172   0.057   2.422   5.043  0.0267 -0.0745  0.2108
 1180SOL    HW115173   0.114   2.386   4.975  3.0754 -0.3631  2.9580
 1180SOL    HW215174   0.123   2.469   5.094 -1.2310  1.9464 -0.0254
 1181SOL     OW15175   2.448   4.731  15.444  0.0642  0.0696 -0.3062
 1181SOL    HW115176   2.455   4.658  15.506 -0.1116 -1.1148 -1.6904
 1181SOL    HW215177   2.420   0.063  15.504 -1.1144  0.5533 -1.4204
 1182SOL     OW15178   0.906   1.803   7.635  0.0164 -0.6879 -0.0432
 1182SOL    HW115179   0.821   1.789   7.677  0.2536 -2.3241 -0.1020
 1182SOL    HW215180   0.911   1.734   7.569 -0.8841  0.4653 -1.3110
 1183SOL     OW15181   3.234   4.091   2.368  0.5044 -0.0120  0.2157
 1183SOL    HW115182   3.168   4.029   2.335  0.5532  1.2043 -2.1631
 1183SOL    HW215183   3.274   4.122   2.286 -0.7568 -2.3967 -1.3199
 1184SOL     OW15184   2.629   4.229   7.350  0.1510  0.2313  0.4187
 1184SOL    HW115185   2.717   4.235   7.313 -0.6622 -1.1146 -1.7726
 1184SOL    HW215186   2.647   4.188   7.434 -2.2885  0.3980  1.0315
 1185SOL     OW15187   4.509   2.961   7.072 -0.6088 -0.1615 -0.5327
 1185SOL    HW115188   4.469   2.991   6.990  0.2065 -0.6402 -1.1046
 1185SOL    HW215189   4.601   2.983   7.066  0.0540 -2.3674  1.4576
 1186SOL     OW15190   1.606   4.217  12.472  0.1967  0.0818 -0.3784
 1186SOL    HW115191   1.567   4.253  12.392  1.8456  0.6476 -0.9244
 1186SOL    HW215192   1.558   4.268  12.538 -0.3843  0.7465 -1.3188
 1187SOL     OW15193   3.829   2.938   4.523 -0.5375 -0.6792  0.1757
 1187SOL    HW115194   3.841   2.999   4.596 -1.6576  0.5544 -0.6667
 1187SOL    HW215195   3.893   2.976   4.464  1.1905 -1.5947  1.4748
 1188SOL     OW15196   4.500   3.144  16.306  0.4897  0.0960 -0.4214
 1188SOL    HW115197   4.543   3.096  16.377 -2.2445 -0.4048  0.9187
 1188SOL    HW215198   4.409   3.131  16.335  0.5725  1.5608  0.5000
 1189SOL     OW15199   2.138   1.892   1.640 -0.4011 -0.1960 -0.7555
 1189SOL    HW115200   2.233   1.893   1.626 -0.4815 -0.9963 -1.3600
 1189SOL    HW215201   2.131   1.852   1.727 -1.7118 -1.0969 -1.2723
 1190SOL     OW15202   1.840   0.847   5.269 -0.0815 -0.3633  0.3167
 1190SOL    HW115203   1.781   0.889   5.332  0.0675 -1.8912  1.4592
 1190SOL    HW215204   1.911   0.821   5.328 -0.5051 -0.4068  0.8059
 1191SOL     OW15205   0.852   3.681   5.103 -0.4028  0.3183  0.0276
 1191SOL    HW115206   0.940   3.693   5.139  1.0052 -1.8716 -2.7112
 1191SOL    HW215207   0.857   3.598   5.056 -0.8692 -0.4850  1.3860
 1192SOL     OW15208   4.022   1.711  15.447  0.4787  0.3823 -0.2576
 1192SOL    HW115209   4.017   1.748  15.360  0.4162  0.1578 -0.3509
 1192SOL    HW215210   4.015   1.618  15.426 -1.3580  0.4274  0.1463
 1193SOL     OW15211   1.165   1.248   1.113  0.3848 -0.4853  0.9075
 1193SOL    HW115212   1.126   1.209   1.191 -0.9749  1.5065  1.2301
 1193SOL    HW215213   1.177   1.341   1.130 -0.1880 -0.2844  0.2465
 1194SOL     OW15214   2.046   0.722   8.809 -0.3747  0.0679  0.1754
 1194SOL    HW115215   2.010   0.809   8.794  0.0617 -0.2994 -2.9529
 1194SOL    HW215216   2.080   0.736   8.898  0.0197  1.2132 -0.1622
 1195SOL     OW15217   1.248   1.404   8.984 -0.6246  0.0657  0.6153
 1195SOL    HW115218   1.198   1.470   8.936  0.2196  0.0563 -0.2721
 1195SOL    HW215219   1.264   1.338   8.917 -0.6966  1.3925 -0.6948
 1196SOL     OW15220   2.202   3.944   3.755 -0.0072  0.2508  0.1453
 1196SOL    HW115221   2.150   4.016   3.720 -0.8971 -0.0669  0.8131
 1196SOL    HW215222   2.136   3.894   3.803 -0.5693 -0.6264 -1.5462
 1197SOL     OW15223   0.268   1.113  16.524 -0.0839  0.0324  0.0979
 1197SOL    HW115224   0.221   1.061  16.459 -0.9519  0.0669  0.6995
 1197SOL    HW215225   0.315   1.179  16.472  1.5211 -0.4530  0.9319
 1198SOL     OW15226   3.930   2.549  17.592  0.1096  0.2461  0.0737
 1198SOL    HW115227   3.872   2.577  17.521 -0.1732 -0.5426  0.0013
 1198SOL    HW215228   3.950   2.638  17.622 -1.1972 -0.0063  1.7021
 1199SOL     OW15229   1.060   3.965   8.521 -0.3090 -0.0152 -0.7995
 1199SOL    HW115230   1.029   3.908   8.591 -3.1848  2.5739  0.0358
 1199SOL    HW215231   1.150   3.938   8.505 -0.3693  0.7008 -2.3192
 1200SOL     OW15232   1.899   3.661   2.571  0.6371 -0.1917 -0.0832
 1200SOL    HW115233   1.829   3.703   2.621  0.3305 -2.4002  1.3357
 1200SOL    HW215234   1.951   3.625   2.643  1.2998  1.0427  0.0604
 1201SOL     OW15235   4.165   1.443   2.915  0.1665 -0.5868  0.2577
 1201SOL    HW115236   4.172   1.423   2.821 -1.1595 -1.4670  0.3467
 1201SOL    HW215237   4.088   1.392   2.939 -0.3998  0.1921  0.0696
 1202SOL     OW15238   4.706   4.356   7.609 -0.1535 -0.2704 -0.2525
 1202SOL    HW115239   0.057   4.394   7.617  0.0619 -0.9311  0.6240
 1202SOL    HW215240   4.678   4.390   7.525 -1.1610 -1.2986 -0.3260
 1203SOL     OW15241   1.780   3.955   2.319  0.4080  0.1149 -0.0133
 1203SOL    HW115242   1.717   3.884   2.330  0.3316  0.2563  0.5033
 1203SOL    HW215243   1.730   4.014   2.263  1.2811  0.0372 -0.8719
 1204SOL     OW15244   3.561   0.692   7.940  0.2233 -0.0853  0.0051
 1204SOL    HW115245   3.503   0.675   8.014 -0.6926 -2.4737 -1.2613
 1204SOL    HW215246   3.611   0.770   7.963 -0.1864  0.0376  0.4830
 1205SOL     OW15247   1.288   0.911   2.673 -0.4661 -0.6383 -0.2329
 1205SOL    HW115248   1.339   0.981   2.713  0.9106 -0.8393 -1.6726
 1205SOL    HW215249   1.349   0.838   2.683 -0.8829 -0.6054  2.4608
 1206SOL     OW15250   3.477   3.548   3.855  0.5451  0.3734  0.7079
 1206SOL    HW115251   3.392   3.555   3.811  0.7483  0.2399  0.2964
 1206SOL    HW215252   3.479   3.452   3.859  2.0364  0.3308 -0.8350
 1207SOL     OW15253   0.557   0.340   9.877  0.7188  0.7913  0.3370
 1207SOL    HW115254   0.540   0.246   9.868 -2.1306  1.2578  0.7312
 1207SOL    HW215255   0.599   0.362   9.794 -0.9237  2.6569 -0.0102
 1208SOL     OW15256   1.741   1.185   2.696 -0.2448  0.5499  0.0251
 1208SOL    HW115257   1.786   1.248   2.754  1.8101 -0.1589 -0.7967
 1208SOL    HW215258   1.695   1.249   2.641 -0.3090  2.1546  1.9467
 1209SOL     OW15259   1.024   3.455   5.403 -0.5019 -0.0596 -0.2399
 1209SOL    HW115260   0.970   3.456   5.482 -0.3855  1.8512 -0.1821
 1209SOL    HW215261   0.963   3.447   5.330  0.4537  0.2299 -1.0722
 1210SOL     OW15262   4.035   0.613   7.216 -0.2608 -0.2246  0.0598
 1210SOL    HW115263   3.966   0.680   7.211  0.0127 -0.0005 -0.8058
 1210SOL    HW215264   4.072   0.636   7.301  0.4960 -1.4303  0.0501
 1211SOL     OW15265   3.025   1.965   0.335  0.4336  0.1343  0.1366
 1211SOL    HW115266   3.091   2.021   0.377 -1.1684  2.1351 -0.0403
 1211SOL    HW215267   3.035   1.895   0.399 -0.0768 -2.4566 -2.6223
 1212SOL     OW15268   3.819   0.149   3.680  1.1627 -0.7329 -0.0746
 1212SOL    HW115269   3.788   0.065   3.714  0.1356 -0.8424 -1.3153
 1212SOL    HW215270   3.867   0.127   3.601 -2.8994  0.7272 -2.9698
 1213SOL     OW15271   4.156   2.793  12.944  0.2853  0.4779 -0.3018
 1213SOL    HW115272   4.196   2.732  13.006  0.4241  0.6279 -0.2440
 1213SOL    HW215273   4.227   2.857  12.949 -0.1694  1.0068 -0.6070
 1214SOL     OW15274   1.986   2.746   1.034 -0.1845  0.0422  0.3600
 1214SOL    HW115275   2.062   2.759   0.977 -1.7278  0.0390 -1.6769
 1214SOL    HW215276   1.924   2.695   0.982 -0.4139  2.0489 -1.3093
 1215SOL     OW15277   4.100   1.394   1.072  0.7685  0.5751  0.2783
 1215SOL    HW115278   4.134   1.422   1.157 -0.2538 -3.1029  1.9135
 1215SOL    HW215279   4.008   1.390   1.097  1.1907  2.0260  2.0072
 1216SOL     OW15280   4.088   2.733   7.553 -0.3987  0.0460 -0.4325
 1216SOL    HW115281   4.102   2.650   7.509 -0.8611  0.8138 -2.0390
 1216SOL    HW215282   4.079   2.783   7.471  1.1264 -0.1897 -0.7571
 1217SOL     OW15283   3.052   2.359   3.232 -0.3332 -0.0206  0.1240
 1217SOL    HW115284   3.004   2.439   3.253 -1.3403 -0.9692  1.4506
 1217SOL    HW215285   3.056   2.350   3.137 -0.0994 -0.4724  0.1779
 1218SOL     OW15286   0.181   3.198   6.710 -0.1619  0.3657 -0.2535
 1218SOL    HW115287   0.193   3.121   6.656  2.6618 -0.0386  0.9081
 1218SOL    HW215288   0.250   3.190   6.776  0.4571  0.6566 -0.8603
 1219SOL     OW15289   0.981   0.060   1.735 -0.0661  0.0617  0.2631
 1219SOL    HW115290   0.951   0.052   1.644 -0.2200 -0.7287  0.3825
 1219SOL    HW215291   1.068   0.098   1.722 -0.6536  1.0215 -0.8593
 1220SOL     OW15292   4.574   2.734  11.904  0.1190 -0.2249 -0.1258
 1220SOL    HW115293   4.540   2.810  11.858 -0.7970  0.1354  1.1589
 1220SOL    HW215294   4.524   2.757  11.981  0.7375  3.0145 -0.6982
 1221SOL     OW15295   2.751   0.921   8.753 -0.3024 -0.2859  0.1236
 1221SOL    HW115296   2.802   1.001   8.757 -0.6786 -0.0497  0.1607
 1221SOL    HW215297   2.806   0.860   8.802  1.9663  1.5474 -0.1386
 1222SOL     OW15298   0.374   3.686   2.130  0.4089 -0.0721 -0.8148
 1222SOL    HW115299   0.347   3.775   2.154  1.1348  0.0246 -0.3560
 1222SOL    HW215300   0.289   3.643   2.119  0.4390 -0.6841  1.2522
 1223SOL     OW15301   1.556   3.985   1.676 -0.0901 -0.2864  0.3123
 1223SOL    HW115302   1.515   4.003   1.591  0.6164 -1.5104 -0.2860
 1223SOL    HW215303   1.484   4.015   1.732 -0.2393 -3.2345  1.7140
 1224SOL     OW15304   1.515   1.860   0.379  0.4692 -0.4873  0.1237
 1224SOL    HW115305   1.467   1.784   0.345 -0.4633 -0.8737  2.3223
 1224SOL    HW215306   1.441   1.917   0.396  1.3397  0.7553 -0.2967
 1225SOL     OW15307   3.532   0.573   5.350  0.0233 -0.4816 -0.5302
 1225SOL    HW115308   3.611   0.623   5.330  0.2764 -0.5620  0.2812
 1225SOL    HW215309   3.527   0.508   5.280 -1.6099 -2.5195  1.4517
 1226SOL     OW15310   1.259   1.739  10.513  0.0539 -0.0789 -0.1585
 1226SOL    HW115311   1.285   1.818  10.560  0.1831 -0.2840  0.1131
 1226SOL    HW215312   1.171   1.716  10.543  0.3474  0.1309  0.8652
 1227SOL     OW15313   2.996   2.728   8.914 -0.2240 -0.0634 -0.0977
 1227SOL    HW115314   2.979   2.729   9.008 -0.3233  0.7117 -0.1191
 1227SOL    HW215315   3.091   2.724   8.913 -0.2101 -0.0155  1.9276
 1228SOL     OW15316   2.041   3.911   2.270  0.2056 -0.3638  0.0470
 1228SOL    HW115317   2.014   3.895   2.179 -0.0098 -2.2758  0.4649
 1228SOL    HW215318   1.959   3.898   2.317  1.3550 -2.4422  1.4660
 1229SOL     OW15319   0.728   1.725   3.053 -0.6066  0.8122  0.4008
 1229SOL    HW115320   0.667   1.767   3.114 -1.1907  0.0475  0.3508
 1229SOL    HW215321   0.802   1.721   3.113  0.4663  0.7475 -0.9321
 1230SOL     OW15322   3.677   0.596   6.710 -0.7274  0.0085  0.0432
 1230SOL    HW115323   3.692   0.689   6.724 -1.7400 -0.1737  2.2152
 1230SOL    HW215324   3.767   0.564   6.715  0.0945  2.4624  0.6377
 1231SOL     OW15325   1.950   1.220  14.056 -0.2100  0.7462  0.0872
 1231SOL    HW115326   1.980   1.198  14.144 -0.1324 -1.2445 -0.4438
 1231SOL    HW215327   1.876   1.265  14.096 -0.8962 -1.3895  1.1980
 1232SOL     OW15328   1.225   1.219   5.784  0.2836  0.0518  0.0166
 1232SOL    HW115329   1.199   1.157   5.716  0.1184  3.3370 -2.9131
 1232SOL    HW215330   1.272   1.165   5.848 -0.1122 -1.3911 -0.9197
 1233SOL     OW15331   2.237   2.556   0.575 -0.1245 -0.2076 -0.0882
 1233SOL    HW115332   2.312   2.607   0.545  0.8322 -1.5330  0.0328
 1233SOL    HW215333   2.275   2.503   0.646  1.3429  1.4521  0.3527
 1234SOL     OW15334   3.647   3.692  12.559  0.2847  0.1039 -0.2527
 1234SOL    HW115335   3.649   3.639  12.639  0.1597  0.5534  0.0488
 1234SOL    HW215336   3.574   3.746  12.590 -0.3862 -0.9777  0.0540
 1235SOL     OW15337   2.273   4.530  10.014 -0.2788  0.3729  0.3471
 1235SOL    HW115338   2.308   4.490  10.093  0.1909 -0.3865 -0.2514
 1235SOL    HW215339   2.236   4.456   9.966  1.7670 -1.7203  1.9708
 1236SOL     OW15340   4.438   0.512   3.083 -0.5158  0.1922 -0.1441
 1236SOL    HW115341   4.453   0.444   3.017 -0.0992  0.6822 -0.5566
 1236SOL    HW215342   4.425   0.585   3.023  0.0881  0.2907 -0.1536
 1237SOL     OW15343   0.624   3.842   1.726  0.4733 -0.2943 -0.4147
 1237SOL    HW115344   0.541   3.888   1.719  1.0901  0.7791 -0.7190
 1237SOL    HW215345   0.630   3.830   1.820  0.3340 -0.0666 -0.3787
 1238SOL     OW15346   0.061   0.397   5.351  0.2632 -0.1337  0.4387
 1238SOL    HW115347   4.715   0.434   5.380 -0.8902 -2.8327  0.5781
 1238SOL    HW215348   0.115   0.472   5.376  0.7971 -0.8387  1.3715
 1239SOL     OW15349   3.340   4.404   5.306  0.0315  0.3830 -0.2578
 1239SOL    HW115350   3.268   4.396   5.244 -0.9231  0.3767  0.8334
 1239SOL    HW215351   3.329   4.494   5.337  1.3799  0.8643 -1.1704
 1240SOL     OW15352   0.010   3.530   7.875 -0.3442  0.6996 -0.0900
 1240SOL    HW115353   0.031   3.497   7.787 -0.0722  0.2074  0.1587
 1240SOL    HW215354   4.652   3.523   7.864 -0.1006  0.6050 -2.2108
 1241SOL     OW15355   2.936   2.169   8.148 -0.1304 -0.1039  0.5124
 1241SOL    HW115356   2.871   2.234   8.122  0.7879 -0.0206 -1.5154
 1241SOL    HW215357   2.876   2.100   8.176  0.3971 -1.7052 -2.3034
 1242SOL     OW15358   0.975   2.917   2.412  0.0176 -0.3948 -0.2141
 1242SOL    HW115359   1.050   2.976   2.398 -0.7890  0.7154  0.1262
 1242SOL    HW215360   1.014   2.855   2.473  1.9935  1.6366  0.5841
 1243SOL     OW15361   2.966   1.685   7.879  0.1362 -0.3067 -0.2085
 1243SOL    HW115362   2.916   1.752   7.926 -1.7283 -1.1603 -0.9694
 1243SOL    HW215363   2.920   1.622   7.934 -1.1322  0.1045 -0.8159
 1244SOL     OW15364   1.317   3.243   2.289  0.0564 -0.3975  0.0395
 1244SOL    HW115365   1.239   3.293   2.312  1.8072  0.9446  3.1117
 1244SOL    HW215366   1.301   3.172   2.350  1.3660 -1.6717 -1.1173
 1245SOL     OW15367   3.328   2.965   8.765 -0.2053  0.0616  0.1370
 1245SOL    HW115368   3.238   2.983   8.792 -1.1193 -0.0904 -2.7836
 1245SOL    HW215369   3.323   3.000   8.676 -0.1465  1.7613  0.8053
 1246SOL     OW15370   2.360   0.442   5.884 -0.3137  0.1940  0.4672
 1246SOL    HW115371   2.298   0.512   5.863  0.2222  1.2123  2.2326
 1246SOL    HW215372   2.404   0.445   5.800  0.2673  0.1845  0.7706
 1247SOL     OW15373   4.314   0.850  11.289 -0.3167 -0.0615  0.0481
 1247SOL    HW115374   4.240   0.810  11.336 -0.7402 -1.5736 -1.9011
 1247SOL    HW215375   4.391   0.795  11.305  1.5124  2.1314 -1.4179
 1248SOL     OW15376   2.476   1.907   7.415  0.3028 -0.2286 -0.3982
 1248SOL    HW115377   2.553   1.852   7.428  0.7254  0.8295  1.5177
 1248SOL    HW215378   2.506   1.952   7.336 -0.0852  0.7566  0.0222
 1249SOL     OW15379   1.525   4.037   7.130 -0.5401 -0.7980  0.1797
 1249SOL    HW115380   1.564   4.015   7.045  0.2811 -0.5050  0.4830
 1249SOL    HW215381   1.456   3.970   7.132 -0.8508 -0.4077  2.1353
 1250SOL     OW15382   0.182   1.935   8.132 -0.3277 -0.5619  0.0563
 1250SOL    HW115383   0.125   1.862   8.106 -1.7631  1.3236 -2.0748
 1250SOL    HW215384   0.140   2.013   8.096  0.2058 -0.7338 -0.9461
 1251SOL     OW15385   4.540   2.039   2.341  0.3600 -0.1738  0.1801
 1251SOL    HW115386   4.578   2.082   2.417  1.7025 -1.2091  0.0983
 1251SOL    HW215387   4.593   1.960   2.348 -0.9437 -1.0584  0.1251
 1252SOL     OW15388   0.548   3.771   8.367  0.0428  0.5732  0.4728
 1252SOL    HW115389   0.626   3.717   8.375 -1.3730 -1.3786  1.1899
 1252SOL    HW215390   0.519   3.773   8.458 -2.3760 -0.3344 -0.2721
 1253SOL     OW15391   0.009   2.840   5.339  0.3135 -0.2932 -0.4804
 1253SOL    HW115392   0.079   2.885   5.291  0.5393  0.7327  0.8143
 1253SOL    HW215393   4.674   2.890   5.299 -1.3528 -0.2246  2.5594
 1254SOL     OW15394   3.540   3.352   2.298  0.2907  0.2467 -0.4324
 1254SOL    HW115395   3.524   3.261   2.275 -1.0209  0.6765 -1.2412
 1254SOL    HW215396   3.635   3.355   2.303  0.2399  3.0261 -0.6232
 1255SOL     OW15397   2.677   1.531  12.884 -0.3211 -0.2172 -0.2864
 1255SOL    HW115398   2.681   1.462  12.819 -3.2952  0.9902 -1.7381
 1255SOL    HW215399   2.682   1.613  12.835 -0.3476  0.1155  0.2579
 1256SOL     OW15400   0.488   4.398  11.165 -0.0997  0.2222 -0.0141
 1256SOL    HW115401   0.486   4.310  11.203 -0.7794 -0.2043 -1.0153
 1256SOL    HW215402   0.555   4.449  11.210 -0.0285  0.5439 -0.4791
 1257SOL     OW15403   2.258   3.492   6.602 -0.2462  0.3615 -0.2291
 1257SOL    HW115404   2.288   3.583   6.605 -0.4954  0.4767 -1.1832
 1257SOL    HW215405   2.298   3.455   6.524 -1.6258 -3.8574  1.0653
 1258SOL     OW15406   2.002   0.264   3.967 -0.4203 -0.3444  0.0410
 1258SOL    HW115407   2.072   0.200   3.977 -1.3270 -1.4568 -0.5853
 1258SOL    HW215408   2.024   0.310   4.048 -0.5365  1.6642 -1.0887
 1259SOL     OW15409   1.818   3.055   8.473 -0.0763 -0.7238 -0.5250
 1259SOL    HW115410   1.810   3.151   8.473 -0.7407 -0.7751 -1.2711
 1259SOL    HW215411   1.757   3.020   8.538 -0.5702 -0.5340 -0.8847
 1260SOL     OW15412   3.013   0.604   3.141  0.1049  0.5358 -0.5384
 1260SOL    HW115413   2.922   0.628   3.123 -0.1549  0.1534  0.2339
 1260SOL    HW215414   3.057   0.676   3.096  1.1893 -0.1820 -0.6381
 1261SOL     OW15415   0.643   0.090   6.382  0.0511 -0.1619  0.2213
 1261SOL    HW115416   0.723   0.073   6.431  0.6749 -0.5693 -0.9299
 1261SOL    HW215417   0.659   0.176   6.343  0.3682  0.2131  1.1999
 1262SOL     OW15418   1.059   3.826   6.819 -0.2948  0.9235 -0.0567
 1262SOL    HW115419   1.122   3.860   6.755 -0.9231 -2.5516 -2.5298
 1262SOL    HW215420   1.003   3.904   6.822  0.2517  1.3484 -0.8780
 1263SOL     OW15421   0.394   2.439  16.338 -0.2954  0.1592  0.0711
 1263SOL    HW115422   0.349   2.510  16.292 -0.9365 -0.1502  0.2184
 1263SOL    HW215423   0.445   2.400  16.268  0.0752  1.1594 -0.2279
 1264SOL     OW15424   0.121   1.787   4.685  0.4540 -0.0419 -0.1890
 1264SOL    HW115425   0.194   1.732   4.712 -1.4490 -1.3882  2.2340
 1264SOL    HW215426   0.077   1.813   4.766 -0.3892 -2.1801  0.0578
 1265SOL     OW15427   3.699   2.254   8.474 -0.5018 -0.0769  0.3771
 1265SOL    HW115428   3.790   2.251   8.504 -0.7003 -3.8510  0.6309
 1265SOL    HW215429   3.714   2.299   8.391 -0.5271 -1.7353 -0.5045
 1266SOL     OW15430   2.276   0.091  14.733 -0.1651  0.1580 -0.3464
 1266SOL    HW115431   2.281   4.732  14.740 -0.2382  0.0421 -2.0222
 1266SOL    HW215432   2.187   0.095  14.697 -0.3387  2.2425  0.3186
 1267SOL     OW15433   1.913   1.719   3.414  0.7418  0.4886 -0.0116
 1267SOL    HW115434   1.968   1.729   3.491  1.1815 -1.6464 -0.0412
 1267SOL    HW215435   1.905   1.624   3.407 -0.0778  0.6058 -0.7278
 1268SOL     OW15436   3.603   3.344   5.255 -0.0554 -0.0504  0.0031
 1268SOL    HW115437   3.621   3.405   5.326  0.9561 -0.2625 -0.0727
 1268SOL    HW215438   3.592   3.405   5.182  0.6466  0.6498  0.4839
 1269SOL     OW15439   4.317   0.311   9.490 -0.3544 -0.7195  0.1084
 1269SOL    HW115440   4.403   0.345   9.466 -1.1147  1.9759  1.1971
 1269SOL    HW215441   4.341   0.219   9.500 -1.3782 -1.1654 -1.5199
 1270SOL     OW15442   4.153   2.013   6.352 -0.7837  0.0325 -0.4832
 1270SOL    HW115443   4.231   1.972   6.389 -1.5882 -0.6363  0.4674
 1270SOL    HW215444   4.154   1.979   6.263 -1.7449  5.2991 -2.5207
 1271SOL     OW15445   1.274   1.225  10.533  0.0298 -0.0628  0.1676
 1271SOL    HW115446   1.227   1.247  10.452  0.0549  0.6472  0.3490
 1271SOL    HW215447   1.336   1.159  10.500 -1.2929 -1.1796 -0.0859
 1272SOL     OW15448   3.301   4.263   5.033 -0.5284  0.1370  0.0680
 1272SOL    HW115449   3.372   4.323   5.007  0.6310 -1.3171 -0.1375
 1272SOL    HW215450   3.261   4.234   4.951  1.2212 -0.8240 -0.4486
 1273SOL     OW15451   4.517   2.539   9.415 -0.3549  0.3248  0.0485
 1273SOL    HW115452   4.495   2.474   9.348  0.1776  0.8969 -0.6706
 1273SOL    HW215453   4.428   2.559   9.443 -0.6890  1.7721 -2.0580
 1274SOL     OW15454   3.268   3.824  12.203 -0.6957 -0.8132  0.4043
 1274SOL    HW115455   3.330   3.771  12.254  1.1650  0.8167 -0.1773
 1274SOL    HW215456   3.188   3.808  12.254 -0.1216  0.5229  1.7240
 1275SOL     OW15457   3.827   4.598   3.489 -0.0679 -0.0695 -0.4137
 1275SOL    HW115458   3.901   4.568   3.435  0.4493 -0.5803  0.5903
 1275SOL    HW215459   3.826   4.690   3.461  0.1378 -0.2933 -1.1769
 1276SOL     OW15460   4.441   0.363  10.159  0.1907  0.1429 -0.1734
 1276SOL    HW115461   4.363   0.407  10.193  2.7682  4.4689  0.1558
 1276SOL    HW215462   4.428   0.273  10.191 -0.9944 -0.1157 -1.3965
 1277SOL     OW15463   0.069   1.560   5.349  0.4220  0.1525 -0.1954
 1277SOL    HW115464   0.076   1.589   5.440  1.9129  2.2133 -0.9623
 1277SOL    HW215465   0.109   1.632   5.300  0.0137  1.7726  1.8599
 1278SOL     OW15466   1.003   1.915   1.232  0.0901 -0.3126  0.0299
 1278SOL    HW115467   1.062   1.862   1.285  0.7479  1.1787  0.7922
 1278SOL    HW215468   1.064   1.981   1.198 -1.1589  1.2078  0.7844
 1279SOL     OW15469   0.585   0.450  13.476 -0.5597  0.5661  0.2626
 1279SOL    HW115470   0.569   0.358  13.456  2.0068  0.1684  0.0677
 1279SOL    HW215471   0.522   0.490  13.416  2.8213  2.2099 -2.2307
 1280SOL     OW15472   0.954   1.085   6.791  0.1312  0.3925  0.3794
 1280SOL    HW115473   1.045   1.059   6.805 -0.2499 -0.5674  1.0558
 1280SOL    HW215474   0.915   1.074   6.877  0.1830  0.7429  0.4478
 1281SOL     OW15475   4.113   2.956   4.248  0.3748  0.5558  0.0927
 1281SOL    HW115476   4.155   2.949   4.163 -0.1146 -1.9893  0.0848
 1281SOL    HW215477   4.174   2.913   4.308 -0.5640  0.4086  0.9426
 1282SOL     OW15478   1.149   2.136  16.051  0.1925 -0.5661 -0.0461
 1282SOL    HW115479   1.117   2.089  16.128  1.3047  0.3801  0.9947
 1282SOL    HW215480   1.105   2.220  16.060  1.5416  0.0349  0.9052
 1283SOL     OW15481   4.294   1.148  15.523  0.1719 -0.1792 -0.4252
 1283SOL    HW115482   4.302   1.224  15.466  0.1061 -0.2247 -0.4943
 1283SOL    HW215483   4.382   1.139  15.560  0.4469  1.5473 -0.6814
 1284SOL     OW15484   2.407   0.822  12.530  0.0424 -0.2250 -0.3881
 1284SOL    HW115485   2.379   0.845  12.619  1.5333  0.0233  0.0142
 1284SOL    HW215486   2.464   0.894  12.503  2.6533 -2.1778 -0.0607
 1285SOL     OW15487   1.194   1.451  11.729 -0.2960 -0.2402  0.6047
 1285SOL    HW115488   1.158   1.409  11.650  0.7107  0.5387 -0.2614
 1285SOL    HW215489   1.120   1.494  11.772  0.8254  0.6419  1.6552
 1286SOL     OW15490   1.753   1.012   3.729 -0.1845 -0.0813 -0.1876
 1286SOL    HW115491   1.686   1.016   3.797  1.1055 -0.0929  1.0850
 1286SOL    HW215492   1.831   1.043   3.776  0.1747 -0.3569 -0.6085
 1287SOL     OW15493   2.913   2.904   3.212  0.2611  0.3096 -0.2466
 1287SOL    HW115494   2.825   2.866   3.203  0.6144 -0.6769  0.3959
 1287SOL    HW215495   2.973   2.840   3.172  2.1106  1.8993 -0.0251
 1288SOL     OW15496   4.277   3.695   6.092  0.3187  0.2894 -0.0367
 1288SOL    HW115497   4.262   3.768   6.032  1.1128  0.7052  0.2758
 1288SOL    HW215498   4.198   3.690   6.146  1.9641  0.4062  2.3815
 1289SOL     OW15499   4.105   0.788   5.084 -0.0671  0.1022  0.2284
 1289SOL    HW115500   4.060   0.713   5.044 -0.7837  0.6323  0.0393
 1289SOL    HW215501   4.038   0.855   5.072  1.5253  1.3689 -1.6532
 1290SOL     OW15502   2.189   2.731   0.870  0.2224  0.3696 -0.4270
 1290SOL    HW115503   2.183   2.783   0.790 -2.5945  1.8575  0.7242
 1290SOL    HW215504   2.258   2.777   0.919  1.2265 -0.7262 -0.8274
 1291SOL     OW15505   1.417   2.201   5.683  0.3379 -0.4765  0.4231
 1291SOL    HW115506   1.500   2.244   5.661  0.8249 -1.1185  0.9896
 1291SOL    HW215507   1.379   2.191   5.596 -0.2551 -0.8695  0.7276
 1292SOL     OW15508   1.170   2.797   8.127 -0.3767 -0.2323  0.0545
 1292SOL    HW115509   1.178   2.702   8.121  2.8304  0.0980 -1.0980
 1292SOL    HW215510   1.092   2.817   8.075  0.1437  0.5185 -0.4268
 1293SOL     OW15511   2.989   2.395   1.277  0.1043 -0.6579  0.2129
 1293SOL    HW115512   3.037   2.478   1.270 -0.6945 -0.2500 -0.4738
 1293SOL    HW215513   3.038   2.347   1.343  5.3037  2.4196 -1.3864
 1294SOL     OW15514   4.099   0.976   3.230  0.4501  0.0992 -0.3892
 1294SOL    HW115515   4.027   1.035   3.248  0.2484  0.5536 -2.6755
 1294SOL    HW215516   4.098   0.915   3.304 -0.9923 -0.1672 -0.6371
 1295SOL     OW15517   3.199   0.467  15.653 -0.5745  0.4224  0.2109
 1295SOL    HW115518   3.144   0.425  15.587 -0.6047  0.9129 -0.0734
 1295SOL    HW215519   3.134   0.488  15.721 -0.9194 -0.5571  0.1786
 1296SOL     OW15520   0.511   2.816   8.585 -0.1549  0.3378 -0.7841
 1296SOL    HW115521   0.449   2.783   8.651  0.5400 -2.1581 -1.3701
 1296SOL    HW215522   0.453   2.870   8.532 -3.2479 -2.0705  0.1506
 1297SOL     OW15523   1.447   1.073   7.375 -0.0290  0.2223 -0.3228
 1297SOL    HW115524   1.397   1.017   7.434  0.8591 -1.8041 -1.4732
 1297SOL    HW215525   1.373   1.132   7.360 -0.3575 -0.2964 -0.7652
 1298SOL     OW15526   1.185   0.838   9.541 -0.1706 -0.0005  0.1064
 1298SOL    HW115527   1.277   0.816   9.554 -0.1052  0.7054  0.8352
 1298SOL    HW215528   1.144   0.753   9.524 -2.0697  1.2315 -1.3913
 1299SOL     OW15529   2.754   0.821  10.572  0.1092  0.0501  0.3568
 1299SOL    HW115530   2.824   0.759  10.592 -1.1981 -1.9211 -1.1790
 1299SOL    HW215531   2.753   0.878  10.649 -0.6686  3.1883 -1.9854
 1300SOL     OW15532   1.361   2.329   2.222  0.6697 -0.0132 -0.0064
 1300SOL    HW115533   1.377   2.243   2.260  1.8254  0.9791  1.8196
 1300SOL    HW215534   1.276   2.341   2.265  1.2499 -1.0476  1.4441
 1301SOL     OW15535   3.678   0.336   8.757 -0.0767 -0.4569  0.0298
 1301SOL    HW115536   3.769   0.310   8.741 -0.4295 -1.9458  0.5058
 1301SOL    HW215537   3.686   0.373   8.844  2.0750 -2.0702  0.5402
 1302SOL     OW15538   1.169   1.085   8.534  0.0431 -0.4415  0.3056
 1302SOL    HW115539   1.076   1.067   8.521 -0.0809  1.0875 -0.9977
 1302SOL    HW215540   1.206   0.998   8.518  0.7495  0.0542 -0.7273
 1303SOL     OW15541   1.129   3.208  16.451  0.4763  0.7787  0.1113
 1303SOL    HW115542   1.157   3.192  16.361  1.0530 -0.6495  0.5445
 1303SOL    HW215543   1.207   3.181  16.500  1.3918  0.4068 -1.5746
 1304SOL     OW15544   1.891   3.486   1.335  0.5374  0.5829 -0.5020
 1304SOL    HW115545   1.823   3.489   1.267 -1.3307 -2.1286  1.2185
 1304SOL    HW215546   1.866   3.564   1.385  2.8510  0.1112  1.3799
 1305SOL     OW15547   1.212   2.450  14.282 -0.3616  0.1962  0.2300
 1305SOL    HW115548   1.248   2.377  14.232  1.2570  1.6715 -0.7220
 1305SOL    HW215549   1.123   2.415  14.286 -1.1888  2.0505 -2.3435
 1306SOL     OW15550   3.996   4.151   5.503  0.1935 -0.2829 -0.0536
 1306SOL    HW115551   4.092   4.158   5.506  0.1811 -0.8610  1.7858
 1306SOL    HW215552   3.979   4.243   5.486 -1.6295 -0.8584 -1.3430
 1307SOL     OW15553   2.094   3.758   6.509  0.3118 -0.8656 -0.0543
 1307SOL    HW115554   2.065   3.845   6.538 -0.1404 -0.8166 -0.6660
 1307SOL    HW215555   2.184   3.756   6.543  0.3793  1.1516 -0.0989
 1308SOL     OW15556   2.053   1.275   7.054 -0.0690  0.0427 -0.4651
 1308SOL    HW115557   1.971   1.252   7.098  0.3221 -1.5885 -0.5751
 1308SOL    HW215558   2.040   1.245   6.964  2.4464 -1.1831 -0.4380
 1309SOL     OW15559   4.010   3.421   1.453  0.2390  0.3325 -0.7997
 1309SOL    HW115560   4.089   3.367   1.457  0.0913  0.1172 -0.7667
 1309SOL    HW215561   3.968   3.398   1.536 -1.8807 -0.7994 -2.2007
 1310SOL     OW15562   2.108   0.836   9.079 -0.2670 -0.3020  0.3278
 1310SOL    HW115563   2.040   0.855   9.143  0.6101  2.0381  0.5702
 1310SOL    HW215564   2.151   0.922   9.070 -1.5400  0.4525  1.4063
 1311SOL     OW15565   1.424   4.625   2.999 -0.7608  0.0108 -0.3531
 1311SOL    HW115566   1.508   4.654   2.962 -0.8337 -0.4522 -0.8852
 1311SOL    HW215567   1.403   4.688   3.068 -3.8306 -0.5792 -0.7268
 1312SOL     OW15568   3.581   3.660  11.640 -0.0642 -0.5219 -0.2858
 1312SOL    HW115569   3.493   3.658  11.676 -0.2010 -1.8279 -0.7142
 1312SOL    HW215570   3.567   3.636  11.548 -0.7384 -0.3286 -0.2329
 1313SOL     OW15571   3.193   1.809   5.165 -0.5063  0.0570 -0.1706
 1313SOL    HW115572   3.114   1.863   5.170 -1.2941 -0.8793 -2.4092
 1313SOL    HW215573   3.239   1.847   5.240  1.1711 -0.5384 -0.8989
 1314SOL     OW15574   2.979   1.058   1.142 -0.1480  0.0411  0.5452
 1314SOL    HW115575   2.899   1.094   1.104 -1.3113 -0.4915  2.4481
 1314SOL    HW215576   3.036   1.133   1.155  0.8428 -0.3373 -1.5762
 1315SOL     OW15577   2.760   2.124   9.391 -0.0315 -0.0703 -0.3437
 1315SOL    HW115578   2.833   2.129   9.329 -1.1152  2.2217 -1.4233
 1315SOL    HW215579   2.697   2.065   9.350 -0.5198  0.7263 -0.7311
 1316SOL     OW15580   2.279   2.555   8.218 -0.7482  0.6327  0.1818
 1316SOL    HW115581   2.198   2.589   8.257 -2.3418 -1.6106 -1.2024
 1316SOL    HW215582   2.332   2.635   8.218  0.4732 -0.1731  2.0911
 1317SOL     OW15583   3.641   3.445   1.484  0.6377 -0.0488  0.4459
 1317SOL    HW115584   3.678   3.457   1.397 -0.6675  0.5876 -0.0265
 1317SOL    HW215585   3.686   3.507   1.542 -1.2513  0.2628  1.5818
 1318SOL     OW15586   2.885   1.120  15.060 -0.7143 -0.2666 -0.1435
 1318SOL    HW115587   2.853   1.131  14.971 -0.4993 -0.6745 -0.2749
 1318SOL    HW215588   2.820   1.053  15.081 -1.3181  0.2144 -0.4906
 1319SOL     OW15589   1.906   0.357  12.387  0.2987 -0.5655 -0.2772
 1319SOL    HW115590   1.932   0.354  12.479 -1.9935 -1.7468  0.3446
 1319SOL    HW215591   1.973   0.418  12.358  0.5707 -1.1259 -0.8335
 1320SOL     OW15592   3.472   4.026  12.134  0.1091 -0.3580 -0.5235
 1320SOL    HW115593   3.545   3.974  12.100  1.9730  2.4075 -0.7157
 1320SOL    HW215594   3.402   3.967  12.162  0.9042 -0.0530  2.1083
 1321SOL     OW15595   3.488   4.305   3.049  0.2816  0.7305 -0.0720
 1321SOL    HW115596   3.496   4.249   2.972  1.1416 -0.3265  0.7646
 1321SOL    HW215597   3.455   4.388   3.017  0.7150 -0.1944 -2.8603
 1322SOL     OW15598   3.919   3.137   6.861  0.1056 -0.4563  0.2549
 1322SOL    HW115599   3.918   3.041   6.855  2.5352 -0.3990 -1.1173
 1322SOL    HW215600   4.000   3.174   6.826  0.0032 -0.6092 -0.1443
 1323SOL     OW15601   3.226   2.143  16.171  0.0314  0.1948  0.0042
 1323SOL    HW115602   3.242   2.226  16.126 -0.3255 -0.0955 -0.6554
 1323SOL    HW215603   3.140   2.126  16.132  0.0390  0.4043 -0.1054
 1324SOL     OW15604   1.177   0.306   7.119 -0.5439  0.2795 -0.2011
 1324SOL    HW115605   1.150   0.288   7.209 -1.6854  0.6759 -0.4643
 1324SOL    HW215606   1.142   0.239   7.061  0.3575  0.6076 -1.1116
 1325SOL     OW15607   0.646   4.611   4.772  0.2507  0.4871 -0.1127
 1325SOL    HW115608   0.560   4.581   4.741  0.2013  0.8364 -0.3140
 1325SOL    HW215609   0.649   4.696   4.729 -0.2882  0.1126 -0.8845
 1326SOL     OW15610   3.536   4.727   2.820  0.0813 -0.1433  0.3735
 1326SOL    HW115611   3.625   0.008   2.851 -0.4745  3.7940 -0.3061
 1326SOL    HW215612   3.527   0.054   2.750 -0.7176  1.0664  1.5853
 1327SOL     OW15613   4.011   4.328   7.086 -0.0330 -0.0821 -0.6219
 1327SOL    HW115614   4.052   4.360   7.166 -4.1645  1.9210  0.6945
 1327SOL    HW215615   3.923   4.298   7.111 -0.4473  0.8992 -0.9116
 1328SOL     OW15616   1.263   0.070   5.333 -0.0720  0.2448 -0.6823
 1328SOL    HW115617   1.183   0.018   5.338  0.5789 -0.7028  0.1320
 1328SOL    HW215618   1.259   0.081   5.238 -1.1586 -0.4106 -0.7143
 1329SOL     OW15619   2.088   3.547  15.624 -0.7999  0.2489 -0.5231
 1329SOL    HW115620   2.012   3.543  15.682  0.3086 -1.1451  0.8337
 1329SOL    HW215621   2.055   3.626  15.580 -0.7047  0.1859 -0.7066
 1330SOL     OW15622   3.509   1.902   9.737  0.5423 -0.3931 -0.4344
 1330SOL    HW115623   3.502   1.848   9.658  0.8554 -3.7885  1.8430
 1330SOL    HW215624   3.425   1.946   9.727  1.5185  1.5010 -0.1929
 1331SOL     OW15625   4.235   0.699   6.198  0.2945  0.4082 -0.2635
 1331SOL    HW115626   4.259   0.673   6.287  0.7442  0.6576 -0.3134
 1331SOL    HW215627   4.242   0.793   6.211  2.4133  0.7225 -3.7086
 1332SOL     OW15628   0.238   3.944   8.207 -0.0769  0.6715  0.1684
 1332SOL    HW115629   0.176   4.009   8.175 -1.3709  0.1399  1.5639
 1332SOL    HW215630   0.249   3.983   8.294  1.6384 -0.0924  0.2876
 1333SOL     OW15631   3.951   0.749  13.760 -0.2234  0.8260  0.1143
 1333SOL    HW115632   3.898   0.686  13.711  0.2863  0.5020 -0.0164
 1333SOL    HW215633   3.959   0.825  13.703  0.2215  1.3269  0.8439
 1334SOL     OW15634   4.495   3.743   7.335  0.3273  0.1604 -0.2576
 1334SOL    HW115635   4.510   3.691   7.414 -0.5083  1.7815  0.9698
 1334SOL    HW215636   4.485   3.834   7.363 -0.7515  0.2386 -0.9142
 1335SOL     OW15637   1.655   3.020  13.777  0.2972  0.2327  0.1687
 1335SOL    HW115638   1.636   3.091  13.838  0.9802 -0.2152  0.9019
 1335SOL    HW215639   1.584   3.029  13.714  0.2142 -0.7359  0.1191
 1336SOL     OW15640   2.717   0.909  15.100 -0.1002  0.2848 -0.1679
 1336SOL    HW115641   2.786   0.851  15.067 -0.6414  0.2513 -1.2173
 1336SOL    HW215642   2.639   0.862  15.072 -0.2406 -1.1357  2.6082
 1337SOL     OW15643   4.540   0.241   8.035  0.3852 -0.0057 -0.2364
 1337SOL    HW115644   4.615   0.193   8.000  0.0121  2.0531 -3.8278
 1337SOL    HW215645   4.523   0.193   8.116  0.8659  1.4246  0.7170
 1338SOL     OW15646   1.135   2.094   3.713  0.1357  0.3253 -0.7213
 1338SOL    HW115647   1.146   2.027   3.780  0.5162  0.5183 -0.5911
 1338SOL    HW215648   1.106   2.051   3.632 -3.6314 -1.2483  1.4754
 1339SOL     OW15649   0.368   2.227   2.652  0.2317 -0.0568 -0.0080
 1339SOL    HW115650   0.428   2.193   2.585 -0.7363  0.0936 -0.9565
 1339SOL    HW215651   0.392   2.167   2.722 -0.2631  2.3137  2.1998
 1340SOL     OW15652   1.330   1.005   3.043 -1.1014 -0.2874 -0.0916
 1340SOL    HW115653   1.324   0.913   3.016  0.4197 -0.3961 -0.0439
 1340SOL    HW215654   1.383   1.040   2.972 -0.6903 -0.4845  0.1187
 1341SOL     OW15655   0.016   0.444  17.566 -0.0510 -0.4605 -0.3345
 1341SOL    HW115656   4.697   0.391  17.624 -2.0587 -1.5724 -3.2957
 1341SOL    HW215657   0.052   0.511  17.624  1.2655 -0.8929 -0.6556
 1342SOL     OW15658   0.920   0.712   1.566 -0.8971 -0.4128 -0.1411
 1342SOL    HW115659   0.863   0.758   1.627 -0.3309  0.2212 -0.0946
 1342SOL    HW215660   0.980   0.779   1.533 -0.6358 -0.5919 -0.0227
 1343SOL     OW15661   0.844   2.854   7.954 -0.3398 -0.5791 -0.6956
 1343SOL    HW115662   0.835   2.915   8.027  2.3075 -1.0314  0.0004
 1343SOL    HW215663   0.883   2.913   7.889 -0.3798 -1.3542 -1.4326
 1344SOL     OW15664   2.774   0.879  12.246  0.0234 -0.2062  0.4436
 1344SOL    HW115665   2.738   0.868  12.334 -3.1797  0.8159 -0.7274
 1344SOL    HW215666   2.690   0.876  12.200  0.6645  0.5570 -0.7820
 1345SOL     OW15667   3.464   3.535  15.834 -0.7481  0.4031 -0.2276
 1345SOL    HW115668   3.386   3.526  15.888 -1.1397  1.4859 -0.6102
 1345SOL    HW215669   3.449   3.472  15.763  0.0145  0.5774 -0.5497
 1346SOL     OW15670   1.551   3.593  11.530 -0.3412 -0.6709 -0.6871
 1346SOL    HW115671   1.573   3.598  11.437  1.8756 -1.4841 -0.2031
 1346SOL    HW215672   1.456   3.602  11.527 -0.5013 -1.8283  1.1052
 1347SOL     OW15673   3.677   3.432   3.409 -0.6230  0.1171 -0.0631
 1347SOL    HW115674   3.691   3.356   3.353  1.6672  1.3509 -1.1428
 1347SOL    HW215675   3.725   3.410   3.490 -0.6916 -0.4560 -0.1772
 1348SOL     OW15676   2.452   3.186  17.413 -0.3530 -0.3770  0.2091
 1348SOL    HW115677   2.499   3.103  17.427  0.8776  1.0170  4.2746
 1348SOL    HW215678   2.515   3.230  17.355 -0.0706 -1.9520 -0.6951
 1349SOL     OW15679   3.003   0.213  15.695  0.2138  0.1302 -0.7271
 1349SOL    HW115680   3.000   0.302  15.729 -2.8120 -0.4326  0.4470
 1349SOL    HW215681   3.021   0.240  15.605  0.1598 -0.0200 -0.7834
 1350SOL     OW15682   3.993   4.535   7.639  0.2374  0.5628 -0.0527
 1350SOL    HW115683   3.982   4.622   7.677  0.2593  1.2242 -1.5296
 1350SOL    HW215684   3.946   4.481   7.702 -1.3084  0.6945 -1.1023
 1351SOL     OW15685   3.760   0.393   0.852  0.6345 -0.4224  0.0137
 1351SOL    HW115686   3.757   0.447   0.773  1.1744  3.5944  2.7455
 1351SOL    HW215687   3.735   0.459   0.916 -1.3032 -1.5292  0.4032
 1352SOL     OW15688   0.859   4.417   9.120  0.5705  0.1039 -0.5516
 1352SOL    HW115689   0.907   4.351   9.169 -1.0094  0.0919  0.9490
 1352SOL    HW215690   0.782   4.423   9.176  1.2712 -1.0593  0.5160
 1353SOL     OW15691   4.296   1.963   8.151 -0.1159 -0.4652  0.3905
 1353SOL    HW115692   4.221   1.970   8.093  0.3476  1.0126 -0.0414
 1353SOL    HW215693   4.248   1.960   8.234  1.1433  1.8894  1.2408
 1354SOL     OW15694   1.824   0.456   7.453  0.0520  0.3541 -0.6187
 1354SOL    HW115695   1.861   0.401   7.522 -1.9424 -1.7695 -1.2611
 1354SOL    HW215696   1.783   0.520   7.511 -0.5558  1.5956 -2.4197
 1355SOL     OW15697   0.477   1.246  17.240 -0.0837  0.0048  0.1624
 1355SOL    HW115698   0.444   1.218  17.325 -1.0588 -0.8774 -0.5098
 1355SOL    HW215699   0.462   1.167  17.188 -0.1796 -0.8007  1.4243
 1356SOL     OW15700   0.425   0.035  11.046  0.2767 -0.0562  0.1224
 1356SOL    HW115701   0.416   0.006  11.136 -3.1479  1.3762  0.2267
 1356SOL    HW215702   0.520   0.028  11.037 -0.0798 -3.0922 -1.3612
 1357SOL     OW15703   0.654   1.468   1.321  0.7370  0.2923  0.1372
 1357SOL    HW115704   0.609   1.385   1.305 -1.2017  1.1384  1.2633
 1357SOL    HW215705   0.619   1.533   1.260  0.8066  1.8323  1.7416
 1358SOL     OW15706   4.589   1.052   7.705  0.4292  0.4099 -0.2849
 1358SOL    HW115707   4.659   1.059   7.771 -0.0880  0.1453  0.2933
 1358SOL    HW215708   4.536   1.129   7.725  1.2218  0.5781  1.2170
 1359SOL     OW15709   2.845   1.924   4.451 -0.3623 -0.2007 -0.1184
 1359SOL    HW115710   2.838   1.984   4.525 -0.1088 -0.0263 -0.2367
 1359SOL    HW215711   2.912   1.973   4.403  0.3103 -1.3238 -0.3280
 1360SOL     OW15712   4.087   1.811  12.864 -0.1007  0.3038 -0.1205
 1360SOL    HW115713   4.067   1.854  12.781  3.1614 -0.1703 -1.1324
 1360SOL    HW215714   4.182   1.813  12.874 -0.2136  0.2616  0.9758
 1361SOL     OW15715   1.634   4.067   5.084  0.5306 -0.4357  0.4793
 1361SOL    HW115716   1.576   4.038   5.154  1.5805 -1.1604  1.0466
 1361SOL    HW215717   1.578   4.140   5.057  1.4177 -0.1639 -0.6176
 1362SOL     OW15718   3.137   0.399   5.872 -0.0796 -0.0021 -0.0202
 1362SOL    HW115719   3.064   0.404   5.810 -0.2425 -2.3826  0.0057
 1362SOL    HW215720   3.162   0.308   5.865 -0.7491 -0.1878 -0.0498
 1363SOL     OW15721   3.755   1.471   7.860 -0.6860 -0.2244  0.3781
 1363SOL    HW115722   3.674   1.495   7.905 -0.8656  1.3658 -0.7901
 1363SOL    HW215723   3.776   1.383   7.890 -0.2222  0.2053  1.3281
 1364SOL     OW15724   3.494   3.870  10.687 -0.3510  0.2417  0.1369
 1364SOL    HW115725   3.463   3.953  10.724  0.1590  0.7061 -0.4830
 1364SOL    HW215726   3.499   3.813  10.764 -0.2913  1.3297  0.9463
 1365SOL     OW15727   3.768   0.167   5.995 -0.1720 -0.5941 -0.1459
 1365SOL    HW115728   3.843   0.209   5.953 -1.9837  1.0862 -1.7350
 1365SOL    HW215729   3.704   0.163   5.923 -0.2293 -2.5351 -0.0056
 1366SOL     OW15730   1.550   0.284   5.174 -0.4295  0.1397 -0.5078
 1366SOL    HW115731   1.513   0.198   5.153  1.5166 -0.4205 -1.6518
 1366SOL    HW215732   1.578   0.313   5.087  0.2177  0.3966 -0.2144
 1367SOL     OW15733   3.222   0.477   6.977 -0.1120 -0.0419 -0.4107
 1367SOL    HW115734   3.203   0.429   6.896  0.0042 -1.1485  0.2194
 1367SOL    HW215735   3.292   0.538   6.956 -0.3274  0.1394 -0.6046
 1368SOL     OW15736   0.200   1.599  10.199 -0.4213  0.0129  0.3330
 1368SOL    HW115737   0.222   1.619  10.108  2.1924 -1.8180  0.5544
 1368SOL    HW215738   0.128   1.660  10.213 -1.0064 -0.8794  1.2332
 1369SOL     OW15739   1.660   3.344  12.043 -0.6704  0.0612  0.1276
 1369SOL    HW115740   1.641   3.431  12.077  0.4242  0.2664  0.2141
 1369SOL    HW215741   1.585   3.291  12.069 -1.7673  0.8513 -1.4296
 1370SOL     OW15742   3.160   4.579  15.483  0.4114 -0.2588  0.0182
 1370SOL    HW115743   3.249   4.574  15.449 -0.0885  1.2768 -1.4784
 1370SOL    HW215744   3.110   4.570  15.402  0.2090 -0.3075  0.1480
 1371SOL     OW15745   2.742   2.402  11.025  0.1220 -0.1342  0.3819
 1371SOL    HW115746   2.717   2.335  10.962 -2.1152 -0.8845  2.0376
 1371SOL    HW215747   2.700   2.480  10.988  1.7556  0.3744 -0.3827
 1372SOL     OW15748   3.739   0.012   4.173 -0.0151  0.4385 -0.3654
 1372SOL    HW115749   3.827   4.718   4.153  0.5926  1.4240  0.8087
 1372SOL    HW215750   3.768   0.100   4.195 -0.8518  0.9976 -1.4958
 1373SOL     OW15751   2.011   2.986   7.733  0.5092  0.0507 -0.6037
 1373SOL    HW115752   1.921   3.020   7.735  0.1264 -0.8665 -3.1543
 1373SOL    HW215753   2.010   2.923   7.661 -2.8319 -0.9850  0.3326
 1374SOL     OW15754   3.089   1.027  10.191  0.3533 -0.1166  0.3844
 1374SOL    HW115755   3.106   1.100  10.132 -1.0596 -0.0646  0.0499
 1374SOL    HW215756   3.008   1.048  10.237  0.6016 -0.1926  0.8589
 1375SOL     OW15757   2.698   2.934   1.512  0.1319 -0.0654 -0.2449
 1375SOL    HW115758   2.734   2.884   1.585 -0.8930  2.0177  1.6893
 1375SOL    HW215759   2.608   2.942   1.542 -0.4287 -1.2609 -1.6304
 1376SOL     OW15760   1.338   1.093   7.700  0.6199  0.6786  0.2344
 1376SOL    HW115761   1.430   1.109   7.717  0.7474 -0.9051  1.0296
 1376SOL    HW215762   1.310   1.043   7.777  1.4207  2.5721  1.7746
 1377SOL     OW15763   4.071   3.051   8.587 -0.1178  0.1773 -0.6496
 1377SOL    HW115764   4.034   3.004   8.512 -0.0738  1.8973 -1.7287
 1377SOL    HW215765   4.125   2.977   8.618 -1.3259 -0.2943  0.3095
 1378SOL     OW15766   2.105   1.039   1.287  0.5135  0.2719 -0.0857
 1378SOL    HW115767   2.182   1.041   1.344 -0.1830  1.0285  0.8242
 1378SOL    HW215768   2.050   1.000   1.355  1.7279 -0.4304  0.4973
 1379SOL     OW15769   3.737   4.233   7.171 -0.6749 -0.1609 -0.1543
 1379SOL    HW115770   3.680   4.287   7.226  2.9698  1.9810  1.5363
 1379SOL    HW215771   3.684   4.237   7.091  1.2709  1.1846 -1.3823
 1380SOL     OW15772   0.700   1.385   1.659 -0.1408 -0.2601 -0.2891
 1380SOL    HW115773   0.611   1.411   1.633 -0.1735 -0.2331 -0.1493
 1380SOL    HW215774   0.685   1.306   1.710 -2.0199 -0.0135 -0.4375
 1381SOL     OW15775   3.657   0.199   5.752  0.3264 -0.1853 -0.3912
 1381SOL    HW115776   3.658   0.277   5.696  1.4180  1.7530  2.3332
 1381SOL    HW215777   3.562   0.198   5.759  0.2595  0.6449 -1.2518
 1382SOL     OW15778   2.034   3.954   1.539  0.1163 -0.3415  0.7412
 1382SOL    HW115779   2.099   3.911   1.483 -0.6918 -1.5114  0.6922
 1382SOL    HW215780   1.965   3.888   1.530 -0.6116  0.7146 -1.6381
 1383SOL     OW15781   3.109   4.142   9.230  0.1586  0.6574  0.3148
 1383SOL    HW115782   3.033   4.165   9.177  0.9184  0.3615 -0.8996
 1383SOL    HW215783   3.126   4.054   9.197 -1.6285  0.4069  0.1021
 1384SOL     OW15784   3.813   3.320   6.581 -0.3495  0.8647 -0.7512
 1384SOL    HW115785   3.796   3.247   6.640  0.7153  0.1751 -1.2989
 1384SOL    HW215786   3.857   3.288   6.502  0.1390 -0.3951  0.0530
 1385SOL     OW15787   2.452   2.339   7.122  0.0147  0.1912  0.1958
 1385SOL    HW115788   2.356   2.334   7.118 -0.0914  1.1061  1.6743
 1385SOL    HW215789   2.470   2.430   7.143 -3.4367  0.4676  2.0170
 1386SOL     OW15790   0.939   0.443  17.654  0.0985  0.3037  0.0127
 1386SOL    HW115791   0.930   0.465   0.001 -1.8079 -1.5221  0.2605
 1386SOL    HW215792   0.976   0.525  17.619  1.1678  0.1881  0.8892
 1387SOL     OW15793   2.916   4.719   9.018  0.0261  0.1125  0.1584
 1387SOL    HW115794   2.864   0.043   8.965  2.0786  0.6105 -1.2916
 1387SOL    HW215795   2.846   4.665   9.053  2.2999 -1.1456  2.7788
 1388SOL     OW15796   0.048   4.228   8.013  0.4353 -0.1677  0.0616
 1388SOL    HW115797   0.120   4.288   8.032  0.9392 -0.2637 -1.5692
 1388SOL    HW215798   0.052   4.221   7.918 -0.7597  0.9352 -0.0805
 1389SOL     OW15799   4.437   0.471  13.590  0.1610  0.1890 -0.6389
 1389SOL    HW115800   4.476   0.538  13.534  0.3571  1.8369  1.4646
 1389SOL    HW215801   4.368   0.446  13.528  0.1436  1.7907 -1.2706
 1390SOL     OW15802   1.804   4.628  14.127  0.1445 -0.5444 -0.3613
 1390SOL    HW115803   1.759   4.653  14.047  1.7169  0.2915 -1.0008
 1390SOL    HW215804   1.772   4.538  14.139 -0.1260  0.2523  4.7528
 1391SOL     OW15805   3.413   3.704   5.247 -0.4588 -0.1225 -1.0454
 1391SOL    HW115806   3.420   3.790   5.287 -1.4101  0.9110 -3.1403
 1391SOL    HW215807   3.505   3.687   5.225 -0.5517 -0.0183 -1.5059
 1392SOL     OW15808   1.669   1.925   2.874  0.0987 -0.0208  0.5244
 1392SOL    HW115809   1.755   1.893   2.904 -0.6245 -3.5802 -1.1792
 1392SOL    HW215810   1.653   1.863   2.802 -1.4988  1.1946 -0.1565
 1393SOL     OW15811   1.809   4.146   3.497 -0.0539  0.1480 -0.2323
 1393SOL    HW115812   1.840   4.116   3.411  3.1881 -0.5692  1.1623
 1393SOL    HW215813   1.716   4.127   3.485  0.4243 -0.9618 -2.1475
 1394SOL     OW15814   2.361   1.690   5.971 -0.3645  0.1723  0.3647
 1394SOL    HW115815   2.422   1.632   6.017  1.4621  0.8282 -1.1982
 1394SOL    HW215816   2.279   1.680   6.018  0.1923  1.4387  1.6007
 1395SOL     OW15817   3.544   2.028   8.449  0.2776 -0.2606 -0.1219
 1395SOL    HW115818   3.619   1.978   8.418  2.2026  2.6314 -0.1468
 1395SOL    HW215819   3.589   2.101   8.491 -0.2160 -0.9514  1.6051
 1396SOL     OW15820   0.333   2.962   6.694  0.1288 -0.1436 -0.1540
 1396SOL    HW115821   0.303   2.879   6.658 -1.3022  0.1751  0.2932
 1396SOL    HW215822   0.327   2.946   6.788 -2.3488 -0.8039 -0.4198
 1397SOL     OW15823   0.190   3.729   6.965 -0.0355 -0.2085  0.1424
 1397SOL    HW115824   0.125   3.703   7.031  2.0563  0.7257  2.5707
 1397SOL    HW215825   0.272   3.732   7.014 -0.4093  0.3142  0.7432
 1398SOL     OW15826   3.262   4.485   4.520 -0.5919 -0.1764 -0.1397
 1398SOL    HW115827   3.209   4.517   4.447 -1.2855 -0.3740  0.2779
 1398SOL    HW215828   3.265   4.390   4.508  0.1561 -0.0435 -0.9885
 1399SOL     OW15829   2.119   2.410   7.679 -1.0825 -0.2070  0.3288
 1399SOL    HW115830   2.082   2.494   7.705  0.9885  1.0723 -0.9034
 1399SOL    HW215831   2.139   2.358   7.757  0.6784  0.8757  0.6081
 1400SOL     OW15832   3.751   0.483   3.140 -0.1191 -0.3667  1.0898
 1400SOL    HW115833   3.792   0.423   3.202  2.1566  0.7916  0.6869
 1400SOL    HW215834   3.670   0.512   3.183 -0.5037  0.3109 -0.0980
 1401SOL     OW15835   1.144   0.863   7.017  0.3224  0.7621 -0.1190
 1401SOL    HW115836   1.231   0.841   6.984 -0.4046  0.4053 -1.8153
 1401SOL    HW215837   1.092   0.809   6.958  1.1661  0.4447 -0.5669
 1402SOL     OW15838   4.305   1.651  14.516 -0.4913 -0.5866 -0.2970
 1402SOL    HW115839   4.288   1.745  14.510  2.8022 -0.0350 -1.0729
 1402SOL    HW215840   4.339   1.650  14.606 -0.0141 -0.3808 -0.4770
 1403SOL     OW15841   2.072   0.271   3.151  0.9124 -0.5914  0.0545
 1403SOL    HW115842   2.127   0.287   3.074  1.1606 -0.8055  0.1898
 1403SOL    HW215843   2.134   0.273   3.223 -0.7970 -0.5340  1.5390
 1404SOL     OW15844   0.588   1.553   2.920  0.2766 -0.1715  0.0556
 1404SOL    HW115845   0.633   1.618   2.974 -0.6825  0.0985  0.5195
 1404SOL    HW215846   0.497   1.577   2.938 -0.5734 -2.6053 -0.9173
 1405SOL     OW15847   3.806   3.641   5.884  0.1395 -0.6340  0.3255
 1405SOL    HW115848   3.823   3.547   5.887  2.2258 -0.2777  0.1059
 1405SOL    HW215849   3.834   3.659   5.795  2.6719 -2.0787  0.7977
 1406SOL     OW15850   1.111   3.209  11.888 -0.9810  0.4832  0.2157
 1406SOL    HW115851   1.196   3.239  11.856 -1.7824  1.1410 -1.2573
 1406SOL    HW215852   1.105   3.261  11.968 -0.2688  0.3368  0.3715
 1407SOL     OW15853   3.273   3.673   7.429  0.3061  0.5121  0.2428
 1407SOL    HW115854   3.311   3.602   7.480  0.6457  2.4410  2.6615
 1407SOL    HW215855   3.184   3.677   7.462  0.3600  0.5239  0.3847
 1408SOL     OW15856   4.525   3.392   5.241  0.0111 -0.2430  0.1700
 1408SOL    HW115857   4.430   3.383   5.238 -0.0501  0.1742  0.7833
 1408SOL    HW215858   4.545   3.464   5.302  0.2494  0.4615 -0.7469
 1409SOL     OW15859   2.734   3.767   2.461  0.1388  0.6741  0.1153
 1409SOL    HW115860   2.639   3.758   2.457  0.0253 -0.1721  4.4231
 1409SOL    HW215861   2.757   3.858   2.442  0.0544  0.7744  0.4869
 1410SOL     OW15862   3.680   3.210   7.182 -0.3004  0.8845  0.0532
 1410SOL    HW115863   3.650   3.195   7.092  0.6666  0.6127 -0.2296
 1410SOL    HW215864   3.683   3.305   7.180  0.7222  0.8151 -2.4095
 1411SOL     OW15865   2.713   1.438   4.247  0.0060 -0.8209 -0.2309
 1411SOL    HW115866   2.782   1.374   4.265 -1.6992 -2.6344 -0.1364
 1411SOL    HW215867   2.659   1.424   4.325 -1.4358 -0.0597 -1.1037
 1412SOL     OW15868   0.689   3.377   3.185 -0.1516 -0.0813  0.9139
 1412SOL    HW115869   0.739   3.445   3.231 -0.4130  0.7592 -0.0321
 1412SOL    HW215870   0.653   3.425   3.110  1.8211 -0.1787 -0.1094
 1413SOL     OW15871   2.486   4.344  13.212  0.2508 -0.1650 -0.4924
 1413SOL    HW115872   2.422   4.298  13.265  1.0154  0.2378  0.7787
 1413SOL    HW215873   2.467   4.311  13.124 -1.8032 -0.9837  0.2695
 1414SOL     OW15874   1.434   1.066   2.247  0.1775 -0.0111  0.1962
 1414SOL    HW115875   1.427   1.161   2.260  3.6314  0.5579 -2.0215
 1414SOL    HW215876   1.366   1.053   2.181 -0.2465 -1.1241  0.8497
 1415SOL     OW15877   1.629   0.063   8.792  0.7490 -0.2084  0.4128
 1415SOL    HW115878   1.667   0.057   8.879  1.3391 -3.2393 -0.0425
 1415SOL    HW215879   1.558   0.001   8.806  2.1719 -2.2541 -1.3482
 1416SOL     OW15880   0.487   0.978  16.703  0.1089  0.1263  0.2711
 1416SOL    HW115881   0.498   1.041  16.774 -0.7404  0.7623 -0.1596
 1416SOL    HW215882   0.429   1.023  16.641 -0.1619 -0.9615 -0.2675
 1417SOL     OW15883   1.644   1.989   4.143 -0.6569  0.1516  0.1413
 1417SOL    HW115884   1.673   1.939   4.219  0.5070  1.1899  0.3752
 1417SOL    HW215885   1.628   2.079   4.172 -0.4133  0.1675  0.2204
 1418SOL     OW15886   1.615   3.004   8.687  0.0174 -0.2018 -0.1745
 1418SOL    HW115887   1.544   2.943   8.669 -1.5988  1.7804 -0.5457
 1418SOL    HW215888   1.688   2.948   8.715 -0.0870  0.1956  0.8994
 1419SOL     OW15889   0.126   2.804  16.075 -0.4252 -0.2318  0.0613
 1419SOL    HW115890   0.121   2.760  16.160  0.0724 -0.0719  0.1739
 1419SOL    HW215891   0.080   2.756  16.006  0.1165 -1.4937  0.5931
 1420SOL     OW15892   3.059   2.441  16.961 -0.4734 -0.2383  0.0528
 1420SOL    HW115893   3.137   2.391  16.941  1.1825  2.0270  0.8804
 1420SOL    HW215894   3.007   2.372  17.002  0.5707 -0.2069  1.4381
 1421SOL     OW15895   0.995   2.660   6.134 -0.2369 -0.4178 -0.2314
 1421SOL    HW115896   1.070   2.720   6.141  1.0209 -2.0586  0.2103
 1421SOL    HW215897   1.026   2.572   6.154  2.1006  0.9126  1.9677
 1422SOL     OW15898   2.500   1.828   8.577  0.5836  0.1464 -0.5199
 1422SOL    HW115899   2.508   1.752   8.633  2.0833  1.4699  1.0559
 1422SOL    HW215900   2.428   1.811   8.516 -0.5097 -0.8713  1.0826
 1423SOL     OW15901   0.554   4.164   8.351 -0.2284  0.5314 -0.1407
 1423SOL    HW115902   0.516   4.237   8.399  1.1271 -0.0166  1.7598
 1423SOL    HW215903   0.648   4.165   8.368 -0.3105 -0.2814  0.3526
 1424SOL     OW15904   2.091   1.679   5.310  0.6076 -0.3929  0.0735
 1424SOL    HW115905   2.084   1.637   5.396  0.3114 -0.8882 -0.1909
 1424SOL    HW215906   2.027   1.633   5.255 -0.2789 -2.6774  3.0091
 1425SOL     OW15907   1.041   1.757  14.832 -0.1998 -0.2279  0.5012
 1425SOL    HW115908   0.981   1.815  14.785  0.0966  0.3103  0.7857
 1425SOL    HW215909   0.982   1.690  14.866 -1.5818  0.5160 -0.4232
 1426SOL     OW15910   1.260   3.021   0.878 -0.1968 -0.0917  0.2610
 1426SOL    HW115911   1.322   2.949   0.883  0.7957  0.6373 -1.8365
 1426SOL    HW215912   1.182   2.981   0.916  1.0722 -2.5294  0.2810
 1427SOL     OW15913   3.354   4.471  10.896 -0.3790  0.5382  0.2368
 1427SOL    HW115914   3.262   4.486  10.918 -1.0304 -1.5189 -1.0558
 1427SOL    HW215915   3.354   4.523  10.815 -1.6797 -0.7545 -0.5963
 1428SOL     OW15916   1.412   4.309   0.141  0.0601  0.3279  0.2756
 1428SOL    HW115917   1.328   4.270   0.165  0.3798  0.2058  1.2135
 1428SOL    HW215918   1.394   4.366   0.216 -0.0995  1.2210 -0.4474
 1429SOL     OW15919   4.199   2.368   4.934 -0.1126  0.6613  0.6828
 1429SOL    HW115920   4.289   2.334   4.938 -0.3312  0.0732  0.6272
 1429SOL    HW215921   4.191   2.389   5.027  1.2320  2.1432  0.4706
 1430SOL     OW15922   4.262   0.374   2.319 -0.1403  0.4323 -0.7338
 1430SOL    HW115923   4.342   0.390   2.268  0.0018  0.7398 -0.4145
 1430SOL    HW215924   4.266   0.279   2.330 -1.3417  0.6559  1.6181
 1431SOL     OW15925   4.272   0.456   5.043  0.1097 -0.4361 -0.1951
 1431SOL    HW115926   4.241   0.543   5.016 -3.7877 -1.2832  1.6980
 1431SOL    HW215927   4.298   0.410   4.963  2.7370  0.6490  0.0052
 1432SOL     OW15928   3.597   1.733   7.297 -0.0314  0.0549 -0.4203
 1432SOL    HW115929   3.549   1.670   7.244 -0.2154 -1.0871  1.1120
 1432SOL    HW215930   3.527   1.780   7.342 -1.2178 -0.1114 -2.1232
 1433SOL     OW15931   0.323   2.325   6.160 -0.4575 -0.7723  0.2087
 1433SOL    HW115932   0.350   2.288   6.244  0.4759 -0.2261  0.1503
 1433SOL    HW215933   0.322   2.239   6.118  2.6277 -0.9106  0.3617
 1434SOL     OW15934   0.398   4.496   5.710 -0.0529 -0.0761  0.4050
 1434SOL    HW115935   0.477   4.444   5.692 -0.0366  0.6607 -1.7331
 1434SOL    HW215936   0.362   4.512   5.623 -0.3909 -0.6096  0.4492
 1435SOL     OW15937   3.551   1.143   1.780 -0.1506 -0.5782 -0.8910
 1435SOL    HW115938   3.594   1.062   1.809  2.0842  2.0553  3.1357
 1435SOL    HW215939   3.572   1.162   1.688 -2.0386 -3.6383 -1.9459
 1436SOL     OW15940   3.171   3.932   3.642 -0.0686 -0.6806  0.7119
 1436SOL    HW115941   3.124   3.888   3.712  0.5055 -0.5389  1.1817
 1436SOL    HW215942   3.149   4.022   3.665  1.0167 -0.1798 -0.1786
 1437SOL     OW15943   1.969   4.172   4.827 -0.6421  0.0261 -0.1056
 1437SOL    HW115944   2.029   4.097   4.826 -2.2048 -1.2367  0.1184
 1437SOL    HW215945   1.955   4.178   4.921  1.8631  2.0310  0.1232
 1438SOL     OW15946   1.064   3.855   3.490  0.1697  1.0451 -0.3905
 1438SOL    HW115947   1.095   3.812   3.411  0.4595 -0.0427  0.3076
 1438SOL    HW215948   1.087   3.785   3.551  1.7635  0.2278 -1.9598
 1439SOL     OW15949   3.755   0.445  13.260  0.2850  0.1399 -0.2486
 1439SOL    HW115950   3.747   0.385  13.334 -0.5971 -1.6247 -1.7738
 1439SOL    HW215951   3.839   0.416  13.226  0.2017  0.1415 -0.4615
 1440SOL     OW15952   0.774   0.934   5.902  0.3063  0.4138  0.0518
 1440SOL    HW115953   0.845   0.925   5.966  1.0357 -0.8302 -0.9422
 1440SOL    HW215954   0.808   1.016   5.866 -0.8127  1.4602  1.3515
 1441SOL     OW15955   4.277   2.246   4.107  0.2485 -0.0268 -0.2136
 1441SOL    HW115956   4.273   2.316   4.041 -0.2176 -1.0229 -1.2481
 1441SOL    HW215957   4.288   2.163   4.061 -2.7127 -1.4276  1.5649
 1442SOL     OW15958   3.395   4.271  12.055 -0.3364 -0.1057  0.4070
 1442SOL    HW115959   3.399   4.318  12.139  0.9396  2.0883 -0.8764
 1442SOL    HW215960   3.432   4.186  12.079 -2.0822 -0.4273  1.9816
 1443SOL     OW15961   3.933   4.243   3.888 -0.6943  0.1519  0.4893
 1443SOL    HW115962   3.861   4.191   3.852  1.0381 -1.8603 -0.0215
 1443SOL    HW215963   3.916   4.328   3.846  1.6475 -0.1958 -1.1473
 1444SOL     OW15964   0.142   4.166   8.835 -0.1051  0.4365 -0.2865
 1444SOL    HW115965   0.113   4.252   8.805 -3.6263 -0.6144 -0.0039
 1444SOL    HW215966   0.236   4.172   8.818 -0.0327 -0.8899 -0.3937
 1445SOL     OW15967   3.509   3.521   9.546 -0.2816  0.5976 -0.1843
 1445SOL    HW115968   3.487   3.612   9.526  0.7732  0.5758 -1.4127
 1445SOL    HW215969   3.599   3.530   9.578  0.8012 -1.6028 -2.5441
 1446SOL     OW15970   3.250   3.471   4.138 -0.1178 -0.4601 -0.5428
 1446SOL    HW115971   3.200   3.500   4.062  0.9194  2.3091 -0.1673
 1446SOL    HW215972   3.190   3.409   4.180 -0.7567 -0.0291 -0.8274
 1447SOL     OW15973   0.129   3.950   8.627 -0.7194  0.2670  0.8116
 1447SOL    HW115974   0.153   3.977   8.538 -0.0336 -1.5401  0.4442
 1447SOL    HW215975   0.172   4.016   8.681  0.0773 -0.4685  1.0673
 1448SOL     OW15976   1.990   2.788   2.538  0.2402  0.8348  0.1494
 1448SOL    HW115977   1.904   2.809   2.572 -1.0181 -0.8926 -1.9342
 1448SOL    HW215978   1.958   2.710   2.493 -0.7219  0.5664  1.2909
 1449SOL     OW15979   1.747   4.352  15.730  0.1146 -0.3487 -0.5384
 1449SOL    HW115980   1.659   4.385  15.711  0.5292 -0.2134 -2.2631
 1449SOL    HW215981   1.749   4.316  15.818  0.1387  1.4912  0.2002
 1450SOL     OW15982   3.359   4.483  15.848 -0.2977 -0.1689  0.4202
 1450SOL    HW115983   3.301   4.544  15.803 -0.6556 -2.1003 -1.7186
 1450SOL    HW215984   3.418   4.549  15.882 -2.1072  1.5062  0.3029
 1451SOL     OW15985   4.303   2.603  17.172  0.2652  0.0010 -0.4068
 1451SOL    HW115986   4.334   2.678  17.121  0.7493  0.2801  0.3041
 1451SOL    HW215987   4.209   2.621  17.178  0.3106  0.3528 -0.7277
 1452SOL     OW15988   2.191   0.651   5.845 -0.1558  0.7763 -0.1455
 1452SOL    HW115989   2.211   0.720   5.782  1.2071  0.8698  0.3893
 1452SOL    HW215990   2.204   0.696   5.928  0.1402 -0.5632  0.5366
 1453SOL     OW15991   4.104   4.286   2.345 -0.0410  0.2963  0.1773
 1453SOL    HW115992   4.102   4.356   2.411  0.1908  1.2449 -0.8204
 1453SOL    HW215993   4.144   4.322   2.266 -1.3030 -0.8925 -0.9919
 1454SOL     OW15994   0.656   2.632   6.601 -0.1124 -0.1396 -0.0858
 1454SOL    HW115995   0.670   2.544   6.568 -1.6431 -0.5708  0.4089
 1454SOL    HW215996   0.590   2.666   6.541  0.9015  1.0859 -0.5208
 1455SOL     OW15997   4.708   0.677   4.712  0.1673 -0.4146  0.9877
 1455SOL    HW115998   4.648   0.690   4.639  0.8477  0.6032  0.5923
 1455SOL    HW215999   0.039   0.625   4.669  1.8393  1.5832  1.1595
 1456SOL     OW16000   2.785   0.564   2.728 -0.3984 -0.7656 -0.8219
 1456SOL    HW116001   2.746   0.485   2.691  0.6664 -0.4723 -2.5890
 1456SOL    HW216002   2.707   0.607   2.763  1.0771  1.2322 -0.0173
 1457SOL     OW16003   1.552   0.498   5.004  0.0572  0.3083  0.0642
 1457SOL    HW116004   1.572   0.575   4.950 -1.6620 -0.1762 -1.2649
 1457SOL    HW216005   1.462   0.511   5.035 -0.1322 -2.0559  0.5106
 1458SOL     OW16006   3.002   3.395   6.531 -0.7475 -0.1821  0.3725
 1458SOL    HW116007   3.040   3.368   6.615  1.3747  0.0830 -0.5002
 1458SOL    HW216008   3.072   3.380   6.468 -0.6574  0.7625  0.2464
 1459SOL     OW16009   2.206   1.197   8.723 -0.2594  0.3826 -0.0805
 1459SOL    HW116010   2.295   1.162   8.719 -0.8164 -0.7432 -2.3002
 1459SOL    HW216011   2.186   1.178   8.815  1.9421 -1.9580 -0.0938
 1460SOL     OW16012   1.266   3.287  14.501  0.3324 -0.3068  0.1176
 1460SOL    HW116013   1.206   3.226  14.543 -1.2468  1.3203  0.2479
 1460SOL    HW216014   1.350   3.256  14.536  0.0407 -1.4306 -0.2049
 1461SOL     OW16015   2.278   1.468   1.620 -0.0418  0.5262  0.0242
 1461SOL    HW116016   2.261   1.503   1.707  0.8560  0.0157  0.4022
 1461SOL    HW216017   2.283   1.544   1.561  1.3963  0.6630  0.3148
 1462SOL     OW16018   3.416   3.665  10.157 -0.0380  0.3753 -0.2611
 1462SOL    HW116019   3.486   3.699  10.211 -0.4714 -1.2077  1.2984
 1462SOL    HW216020   3.466   3.633  10.082 -0.4754 -1.1053  0.0655
 1463SOL     OW16021   1.805   0.541   5.268  0.2762 -0.3640  0.2525
 1463SOL    HW116022   1.806   0.637   5.275 -1.3131 -0.5682  3.1873
 1463SOL    HW216023   1.887   0.526   5.220  0.7146  0.5999  0.6905
 1464SOL     OW16024   3.379   0.191   7.348  0.0057 -0.7506  0.0729
 1464SOL    HW116025   3.432   0.152   7.416  1.6853 -0.8915 -1.3197
 1464SOL    HW216026   3.376   0.117   7.287  0.4650 -0.8491  0.1733
 1465SOL     OW16027   3.590   3.614   8.923  0.1299  0.0867  0.1060
 1465SOL    HW116028   3.628   3.699   8.899  3.8368 -2.0460 -1.6503
 1465SOL    HW216029   3.662   3.556   8.898 -0.9944 -1.6074  0.8484
 1466SOL     OW16030   0.990   0.049   1.441 -0.4149 -0.2403 -0.0901
 1466SOL    HW116031   0.921   0.114   1.427  0.1313 -0.0756 -1.9426
 1466SOL    HW216032   1.066   0.100   1.412 -0.4087 -0.0722  0.2199
 1467SOL     OW16033   1.668   3.451   1.200  0.1066 -0.0140 -0.0615
 1467SOL    HW116034   1.673   3.411   1.113 -2.1374  0.1837 -0.2784
 1467SOL    HW216035   1.623   3.377   1.241 -0.7528  0.1905 -0.6463
 1468SOL     OW16036   0.552   0.509   1.859 -0.0131  0.1394  0.5485
 1468SOL    HW116037   0.460   0.520   1.886 -0.3915  0.1152 -0.7379
 1468SOL    HW216038   0.588   0.596   1.843  0.0539 -0.4609 -2.4944
 1469SOL     OW16039   1.791   1.134   5.690  0.2033 -0.3643  0.0542
 1469SOL    HW116040   1.788   1.058   5.749 -1.1914 -0.5409 -0.2601
 1469SOL    HW216041   1.720   1.112   5.630 -0.0051 -1.2474  0.6223
 1470SOL     OW16042   4.499   1.450   7.998  0.4691  0.3274 -0.2618
 1470SOL    HW116043   4.421   1.418   8.042  0.4696  0.3455 -0.2482
 1470SOL    HW216044   4.494   1.544   7.981  1.4136  0.4569  0.1865
 1471SOL     OW16045   0.056   2.946   1.792 -0.5236 -0.5861  0.0707
 1471SOL    HW116046   0.044   3.037   1.766  0.1479 -0.5102  0.0185
 1471SOL    HW216047   0.095   2.902   1.717 -0.6767 -0.7793  0.1061
 1472SOL     OW16048   0.268   0.715   1.686 -0.4122  0.5319 -0.0582
 1472SOL    HW116049   0.357   0.716   1.650 -0.3643  1.5732  0.1077
 1472SOL    HW216050   0.276   0.665   1.767  0.6472  1.6685  0.5345
 1473SOL     OW16051   3.252   4.689  11.176  0.0868 -0.2201  0.1081
 1473SOL    HW116052   3.323   4.715  11.116  0.7946 -0.8726  0.6660
 1473SOL    HW216053   3.277   4.597  11.186 -0.3607 -0.5933 -2.0486
 1474SOL     OW16054   4.711   1.884   1.748  0.5197  0.4197 -0.1322
 1474SOL    HW116055   4.687   1.953   1.810  1.5316  0.5575  0.1072
 1474SOL    HW216056   0.052   1.859   1.799  0.8001 -1.8538 -1.6932
 1475SOL     OW16057   0.725   3.097   6.642  0.4752 -0.3043  0.1622
 1475SOL    HW116058   0.715   3.073   6.550 -0.2183 -2.0674  0.7024
 1475SOL    HW216059   0.689   3.020   6.686  1.5966 -0.8700  0.0963
 1476SOL     OW16060   3.143   0.852   7.752 -0.6717  0.9542  0.1714
 1476SOL    HW116061   3.104   0.846   7.665  0.2323  0.3822 -0.1971
 1476SOL    HW216062   3.108   0.771   7.789  1.0356  0.4609  0.7544
 1477SOL     OW16063   3.857   1.924   9.218  0.2043 -0.2191 -0.2249
 1477SOL    HW116064   3.823   1.841   9.250  0.6538 -0.6232 -0.8088
 1477SOL    HW216065   3.776   1.973   9.207  0.1830 -0.2498 -0.2037
 1478SOL     OW16066   0.257   0.371   6.691  0.2990 -0.0782  0.3072
 1478SOL    HW116067   0.349   0.395   6.689 -0.3663  2.4379 -0.2630
 1478SOL    HW216068   0.266   0.283   6.727  0.1879  0.5256  1.8154
 1479SOL     OW16069   3.554   3.852   5.500 -0.1861  0.2340  0.3514
 1479SOL    HW116070   3.472   3.900   5.504  0.2063  1.0127 -0.8489
 1479SOL    HW216071   3.614   3.926   5.514  0.3959 -0.3789  1.0944
 1480SOL     OW16072   3.443   1.880   5.658 -0.7875 -0.4497  0.7084
 1480SOL    HW116073   3.507   1.809   5.658 -1.8768 -1.4446  0.7331
 1480SOL    HW216074   3.483   1.940   5.596  1.0358 -2.4256 -0.0115
 1481SOL     OW16075   1.381   2.021   4.574 -0.3656  0.2802  0.1837
 1481SOL    HW116076   1.415   2.109   4.587 -3.1170  1.3883 -0.2619
 1481SOL    HW216077   1.313   2.018   4.641 -0.3132  0.1208  0.2306
 1482SOL     OW16078   1.638   0.161   1.775  0.3735 -0.2747  0.4788
 1482SOL    HW116079   1.640   0.255   1.794 -1.7213 -0.0716 -0.3723
 1482SOL    HW216080   1.731   0.140   1.786 -0.1012 -2.0846  0.9095
 1483SOL     OW16081   3.600   1.907   4.018 -0.1548  0.0013 -0.2178
 1483SOL    HW116082   3.518   1.927   3.973 -0.0135  0.0438 -0.4561
 1483SOL    HW216083   3.642   1.992   4.023 -0.1655 -0.0041 -0.0104
 1484SOL     OW16084   1.817   2.547   8.906 -0.2861  0.7337  1.1273
 1484SOL    HW116085   1.894   2.564   8.851  0.2338 -2.1354  1.0158
 1484SOL    HW216086   1.749   2.539   8.840 -0.1784  0.7986  1.0089
 1485SOL     OW16087   3.193   2.336   7.416  0.0157 -0.6818 -0.3900
 1485SOL    HW116088   3.271   2.388   7.438 -0.3974 -0.3970  0.4109
 1485SOL    HW216089   3.237   2.252   7.399 -2.7731 -2.2631  0.2561
 1486SOL     OW16090   1.073   2.221   5.821  0.3866 -0.0622  0.4568
 1486SOL    HW116091   1.162   2.256   5.835  0.6753 -0.3420 -0.6901
 1486SOL    HW216092   1.047   2.297   5.769  1.2922 -0.0692 -0.0137
 1487SOL     OW16093   0.281   2.381   3.031 -0.3165  0.1416  0.0576
 1487SOL    HW116094   0.289   2.476   3.030  2.7159 -0.1313 -1.6365
 1487SOL    HW216095   0.356   2.350   3.083 -1.2776  1.1250  2.0154
 1488SOL     OW16096   3.782   1.112   8.312 -0.2759  0.0783 -0.1191
 1488SOL    HW116097   3.860   1.138   8.360 -0.1279 -3.8781  1.7544
 1488SOL    HW216098   3.761   1.028   8.354 -1.9642 -0.6537 -2.4571
 1489SOL     OW16099   0.594   4.397  10.891  0.0995  0.4949 -0.4113
 1489SOL    HW116100   0.556   4.398  10.979  1.7774 -0.0330  0.3024
 1489SOL    HW216101   0.619   4.305  10.883 -0.7353 -0.1014  4.1496
 1490SOL     OW16102   2.366   0.740  17.077  0.4198 -0.6086  0.4621
 1490SOL    HW116103   2.434   0.771  17.017  1.3456 -0.8947  1.3649
 1490SOL    HW216104   2.351   0.821  17.127 -2.3626 -1.5445  1.1459
 1491SOL     OW16105   4.117   1.640  15.130 -0.0096  0.4534 -0.1653
 1491SOL    HW116106   4.110   1.688  15.048  1.9429  0.9161 -0.0565
 1491SOL    HW216107   4.209   1.612  15.132 -0.4449 -0.9930  0.1378
 1492SOL     OW16108   2.953   0.421   9.566 -0.0577 -0.0048 -0.3009
 1492SOL    HW116109   2.918   0.352   9.510 -0.3372 -0.3196  0.2567
 1492SOL    HW216110   2.934   0.388   9.654  0.6384  0.1674 -0.0814
 1493SOL     OW16111   3.712   0.785   4.003 -0.4946 -0.5363 -0.1406
 1493SOL    HW116112   3.660   0.739   4.068 -1.2212 -0.8585 -0.9432
 1493SOL    HW216113   3.800   0.795   4.040  0.0670 -0.7467 -1.3788
 1494SOL     OW16114   4.129   0.711  11.458 -0.1364 -0.2987 -0.5577
 1494SOL    HW116115   4.063   0.763  11.411  0.8174  1.5072  0.1070
 1494SOL    HW216116   4.084   0.626  11.462 -1.4965  0.6275  3.2795
 1495SOL     OW16117   1.626   1.729   3.980  0.5492 -0.3482 -0.5106
 1495SOL    HW116118   1.599   1.817   3.954  2.3106  0.5054  0.4911
 1495SOL    HW216119   1.692   1.741   4.049 -2.2677  1.2776  1.8909
 1496SOL     OW16120   2.217   1.117   8.988 -0.6523  0.9059  0.2282
 1496SOL    HW116121   2.218   1.162   9.072 -0.4467  0.2119  0.6028
 1496SOL    HW216122   2.312   1.110   8.984 -0.6710 -1.0069  2.5380
 1497SOL     OW16123   0.703   1.722   7.798 -0.6954 -0.5116  0.4156
 1497SOL    HW116124   0.687   1.714   7.892 -0.7118 -0.3647  0.4245
 1497SOL    HW216125   0.616   1.716   7.758 -0.9405 -1.7080  1.1206
 1498SOL     OW16126   3.171   4.080   8.139  0.7876 -0.4429 -0.0419
 1498SOL    HW116127   3.217   4.164   8.132 -0.4781  0.2432 -0.1697
 1498SOL    HW216128   3.079   4.100   8.155  0.3063  0.8544 -4.2489
 1499SOL     OW16129   2.576   2.556   6.910  0.4804 -0.8249  0.0705
 1499SOL    HW116130   2.578   2.593   6.999 -1.0821  0.8622 -0.5917
 1499SOL    HW216131   2.626   2.478   6.935 -0.5430 -0.6833  2.6303
 1500SOL     OW16132   4.044   2.897  15.353  0.1430 -0.0748 -0.3447
 1500SOL    HW116133   4.111   2.836  15.385 -0.0671  1.1508  2.4179
 1500SOL    HW216134   4.093   2.935  15.280 -1.2887  1.7889 -0.3361
 1501SOL     OW16135   1.645   4.587  12.478 -0.3544 -0.0969  0.1620
 1501SOL    HW116136   1.589   4.516  12.448  0.3875 -1.1070  1.1199
 1501SOL    HW216137   1.597   4.658  12.436  1.4501  0.8654 -0.3129
 1502SOL     OW16138   0.483   1.947   6.314  0.5766  0.4621  0.4706
 1502SOL    HW116139   0.435   1.894   6.251  0.1439  0.7773  0.5309
 1502SOL    HW216140   0.549   1.992   6.261 -0.5629 -0.3271 -1.6122
 1503SOL     OW16141   3.387   2.631   9.451 -0.7352 -0.5704 -0.5958
 1503SOL    HW116142   3.399   2.647   9.358  1.0173  2.4244  0.1569
 1503SOL    HW216143   3.293   2.649   9.443 -0.4938  1.0228  0.0541
 1504SOL     OW16144   1.646   3.530   8.659 -0.3275 -0.2577  0.1939
 1504SOL    HW116145   1.550   3.529   8.667 -0.3747 -0.3001 -0.3595
 1504SOL    HW216146   1.670   3.446   8.697  3.1996  1.0577  0.8086
 1505SOL     OW16147   2.568   1.545  16.712  0.6846 -0.2793  0.0297
 1505SOL    HW116148   2.529   1.503  16.636  1.8770 -1.7051  0.2245
 1505SOL    HW216149   2.656   1.510  16.705  0.3874 -0.7213 -1.5165
 1506SOL     OW16150   0.229   0.498   6.293 -0.1914  0.1672 -0.1369
 1506SOL    HW116151   0.323   0.516   6.284 -0.1946  0.8158  1.0924
 1506SOL    HW216152   0.189   0.570   6.244 -2.0526 -0.7626  0.0130
 1507SOL     OW16153   2.514   4.562   6.050 -0.1604 -0.1356 -0.5445
 1507SOL    HW116154   2.600   4.597   6.073 -1.0191  1.0001  1.0044
 1507SOL    HW216155   2.514   4.478   6.095  0.1471  0.0972 -0.0959
 1508SOL     OW16156   1.092   4.538   3.902 -0.0823  0.3844 -0.0390
 1508SOL    HW116157   1.162   4.525   3.838  0.8855 -2.7710  1.6492
 1508SOL    HW216158   1.084   4.633   3.901 -2.5809  0.1611 -2.1456
 1509SOL     OW16159   0.955   2.562   1.071 -0.2476 -0.0787  0.5259
 1509SOL    HW116160   0.930   2.535   0.982 -0.9080 -0.2086  0.7500
 1509SOL    HW216161   0.898   2.506   1.124 -2.4455  1.6498 -0.0217
 1510SOL     OW16162   0.046   4.176  13.745 -0.3279 -0.7571 -0.1132
 1510SOL    HW116163   0.039   4.098  13.799 -1.1681 -1.9280 -1.9010
 1510SOL    HW216164   0.133   4.173  13.704  0.2423 -0.8356  1.1104
 1511SOL     OW16165   0.447   1.506   1.668  0.1094  0.1405 -0.5068
 1511SOL    HW116166   0.403   1.576   1.715  1.3510 -0.3369  1.3692
 1511SOL    HW216167   0.508   1.544   1.604  1.1432  0.7447  0.8413
 1512SOL     OW16168   0.790   0.371   5.132  0.6020 -0.1666 -0.2281
 1512SOL    HW116169   0.761   0.370   5.041  2.6665 -0.5940 -0.8891
 1512SOL    HW216170   0.881   0.352   5.106 -0.1181 -0.8711 -2.2127
 1513SOL     OW16171   4.621   3.795   4.339  0.0471  0.3472 -0.7571
 1513SOL    HW116172   4.710   3.761   4.348  0.5554  1.9736  0.5540
 1513SOL    HW216173   4.623   3.861   4.409  2.3174  0.7344 -1.1981
 1514SOL     OW16174   3.814   3.944   0.797 -0.8694  0.2326 -0.3644
 1514SOL    HW116175   3.822   4.039   0.789  1.1131  0.1533  0.6252
 1514SOL    HW216176   3.891   3.920   0.746 -0.3797  1.1442 -0.0538
 1515SOL     OW16177   2.522   2.313   1.014 -0.0193  0.1573 -0.2120
 1515SOL    HW116178   2.489   2.352   0.933 -0.5996 -2.3920 -1.2152
 1515SOL    HW216179   2.470   2.364   1.076  0.7725  1.2159 -0.4116
 1516SOL     OW16180   1.143   1.182   3.711  0.7991 -0.3763 -0.3063
 1516SOL    HW116181   1.189   1.098   3.720  0.9801 -0.3501 -1.0051
 1516SOL    HW216182   1.176   1.211   3.626 -1.0489 -0.4254 -1.0469
 1517SOL     OW16183   2.058   1.547   8.169 -0.3140  0.2789 -0.4771
 1517SOL    HW116184   2.093   1.516   8.253 -1.5089 -2.1860 -0.8810
 1517SOL    HW216185   1.993   1.477   8.157 -0.0704 -0.3468  1.7700
 1518SOL     OW16186   0.105   0.995   6.087 -0.1393  0.3723 -0.6913
 1518SOL    HW116187   0.154   0.991   6.005  0.1706  1.7608 -0.5595
 1518SOL    HW216188   0.075   1.086   6.094  0.3790  0.3115  2.0960
 1519SOL     OW16189   1.169   4.110   9.428  0.2052 -0.1297 -0.1976
 1519SOL    HW116190   1.168   4.174   9.499  1.3236 -0.5975  0.2303
 1519SOL    HW216191   1.210   4.037   9.472 -0.1405 -0.7590 -0.9153
 1520SOL     OW16192   0.643   0.636  13.896  0.0690  0.1213 -0.2859
 1520SOL    HW116193   0.565   0.582  13.883 -0.1755 -0.0018  1.7107
 1520SOL    HW216194   0.655   0.635  13.991 -1.4643  2.6589 -0.0474
 1521SOL     OW16195   4.593   2.563   8.685 -0.3639  0.2145  0.2028
 1521SOL    HW116196   4.647   2.487   8.664 -1.2373 -0.4970  0.5769
 1521SOL    HW216197   4.522   2.514   8.726  1.3894 -0.2456  2.6509
 1522SOL     OW16198   4.185   1.151   2.359 -0.1585  0.3039 -0.0835
 1522SOL    HW116199   4.164   1.060   2.377  0.4693 -0.1147 -1.4318
 1522SOL    HW216200   4.134   1.193   2.428  0.3402  0.0468  0.4384
 1523SOL     OW16201   2.561   1.213   1.848 -0.5646  0.2382 -0.7514
 1523SOL    HW116202   2.529   1.132   1.886 -1.0068 -0.2347 -2.1331
 1523SOL    HW216203   2.589   1.165   1.770 -0.7029 -1.7613  0.4407
 1524SOL     OW16204   3.322   3.597  10.549  0.1320 -0.5110 -0.3599
 1524SOL    HW116205   3.372   3.558  10.620 -0.1698  0.5481  0.4447
 1524SOL    HW216206   3.235   3.559  10.559 -0.2306  0.0592 -1.3231
 1525SOL     OW16207   0.673   2.005  13.480 -0.0002 -0.1151 -0.4764
 1525SOL    HW116208   0.754   1.956  13.490  0.5727  0.6655 -1.3313
 1525SOL    HW216209   0.720   2.077  13.439  1.6529 -0.7306  0.3525
 1526SOL     OW16210   1.416   3.024   8.892 -0.0753  0.0476 -0.2974
 1526SOL    HW116211   1.478   3.055   8.825 -1.5233  0.6162 -1.3843
 1526SOL    HW216212   1.337   3.071   8.863 -0.1633  1.1277  1.7166
 1527SOL     OW16213   2.166   1.979   4.371 -0.3082 -0.2994 -0.2162
 1527SOL    HW116214   2.201   1.956   4.285  1.6535  0.9211  0.2733
 1527SOL    HW216215   2.246   2.000   4.419 -0.5019  0.8101 -0.3870
 1528SOL     OW16216   3.565   1.557   4.116 -0.1820  0.2397 -0.4222
 1528SOL    HW116217   3.573   1.462   4.108 -0.1299  0.2403 -0.3815
 1528SOL    HW216218   3.630   1.597   4.059 -0.0093 -1.1574 -1.2050
 1529SOL     OW16219   2.894   2.343   2.493  0.0874 -0.0717  0.3725
 1529SOL    HW116220   2.935   2.397   2.426  0.4797 -0.5272  0.2466
 1529SOL    HW216221   2.967   2.343   2.555  3.1090 -0.5092 -3.1733
 1530SOL     OW16222   2.009   3.298   4.126  0.1630  0.5228  0.1987
 1530SOL    HW116223   2.019   3.271   4.035 -2.6041  1.7962 -0.4910
 1530SOL    HW216224   1.936   3.360   4.127  1.3818  1.9848 -1.2517
 1531SOL     OW16225   0.316   0.332  12.943  0.0091 -0.0252  0.1478
 1531SOL    HW116226   0.292   0.344  12.852 -0.4732 -0.9885  0.1499
 1531SOL    HW216227   0.362   0.415  12.961  0.7870 -0.7251  1.4011
 1532SOL     OW16228   2.588   0.839   1.871  0.0403 -0.2835  0.5100
 1532SOL    HW116229   2.668   0.891   1.882  1.0254 -1.6123 -0.3934
 1532SOL    HW216230   2.546   0.843   1.957  0.1245 -1.9005  0.6247
 1533SOL     OW16231   1.079   1.925   8.131  0.0778 -0.3950 -0.2274
 1533SOL    HW116232   1.047   1.920   8.041 -0.9720 -0.5067  0.1575
 1533SOL    HW216233   1.174   1.935   8.123  0.2676 -1.4079  0.7509
 1534SOL     OW16234   3.602   1.053   4.575 -0.7532 -0.3003  0.4118
 1534SOL    HW116235   3.584   1.090   4.662  1.1467  0.2534  0.5629
 1534SOL    HW216236   3.540   1.100   4.519  1.6393 -0.4307 -2.3257
 1535SOL     OW16237   0.979   0.751  10.196  0.2085 -0.1182 -0.7225
 1535SOL    HW116238   0.990   0.677  10.136  2.4339  0.4248 -0.9667
 1535SOL    HW216239   0.889   0.739  10.227  0.8197 -0.6657  0.8406
 1536SOL     OW16240   4.230   1.790  14.167  0.3725 -0.2711  0.2931
 1536SOL    HW116241   4.253   1.844  14.242 -0.4645 -1.6490  1.5295
 1536SOL    HW216242   4.184   1.854  14.113 -2.5971 -1.5141  1.3881
 1537SOL     OW16243   1.287   1.301   7.310  0.1173 -0.1569  0.2464
 1537SOL    HW116244   1.315   1.365   7.245  1.6747 -0.5011  0.5962
 1537SOL    HW216245   1.241   1.241   7.250 -1.1110  1.7717 -0.7341
 1538SOL     OW16246   2.855   4.616   5.506 -0.1662  1.0510 -0.2575
 1538SOL    HW116247   2.934   4.667   5.522 -0.6643  1.0820  2.0784
 1538SOL    HW216248   2.799   4.654   5.573 -1.4509  0.8812 -1.2323
 1539SOL     OW16249   0.199   1.110   3.393 -0.0871  0.1157  0.4550
 1539SOL    HW116250   0.127   1.124   3.453 -0.6161 -2.5401  0.4488
 1539SOL    HW216251   0.195   1.193   3.345 -0.3226  0.0053  0.2814
 1540SOL     OW16252   2.218   2.613  17.350  0.2397  0.3059 -0.8844
 1540SOL    HW116253   2.133   2.657  17.341  1.0532  2.3096  1.0457
 1540SOL    HW216254   2.282   2.672  17.308  1.7131 -0.0231  0.8972
 1541SOL     OW16255   0.812   2.378   1.978  0.3133  0.2669 -0.0189
 1541SOL    HW116256   0.740   2.336   2.025  1.8124 -0.3013  1.7888
 1541SOL    HW216257   0.879   2.323   2.018  1.5769  1.2486 -0.7932
 1542SOL     OW16258   0.148   0.606   3.249  0.2331 -0.0655  0.3010
 1542SOL    HW116259   0.163   0.695   3.282  1.3626  0.1730 -0.8885
 1542SOL    HW216260   0.059   0.618   3.216  0.1250 -1.0299  0.2406
 1543SOL     OW16261   3.835   2.395   3.753  0.5088  0.6161 -0.0880
 1543SOL    HW116262   3.885   2.339   3.812 -0.0198 -2.6126 -2.7536
 1543SOL    HW216263   3.765   2.335   3.728  0.3236 -0.4997  3.0371
 1544SOL     OW16264   1.907   2.546  16.171  0.6379 -0.2266  0.4283
 1544SOL    HW116265   1.898   2.479  16.239 -3.1215  1.5104  1.6673
 1544SOL    HW216266   1.838   2.608  16.194 -0.4786  0.0785 -3.6979
 1545SOL     OW16267   2.756   0.762   1.530  0.2399  0.0635  0.5100
 1545SOL    HW116268   2.793   0.794   1.613  2.9408 -1.0802 -0.2805
 1545SOL    HW216269   2.787   0.674   1.553  1.4099  0.0985 -0.9920
 1546SOL     OW16270   0.661   2.301   2.820 -1.2059  0.6623  0.3878
 1546SOL    HW116271   0.584   2.293   2.875 -0.3669 -2.6153  1.0558
 1546SOL    HW216272   0.733   2.261   2.868 -0.7689 -0.3292 -1.1052
 1547SOL     OW16273   0.596   3.611   0.284  0.1600  0.4401  0.1704
 1547SOL    HW116274   0.641   3.590   0.201  0.7512 -0.7321  0.7878
 1547SOL    HW216275   0.637   3.555   0.349 -0.1823  1.2770  1.1033
 1548SOL     OW16276   3.066   0.186   0.419  0.1381 -0.6962 -0.0233
 1548SOL    HW116277   3.133   0.196   0.351 -0.3593  0.1124 -0.3969
 1548SOL    HW216278   3.076   0.095   0.447 -0.5439 -0.6285  0.4336
 1549SOL     OW16279   1.769   3.080   6.112  0.3995  0.0373  0.5585
 1549SOL    HW116280   1.736   3.071   6.202 -3.1969  0.9120 -0.6557
 1549SOL    HW216281   1.778   2.988   6.089 -2.0111 -0.3602  1.1964
 1550SOL     OW16282   3.542   0.235   6.629  0.1953  0.4228 -0.1081
 1550SOL    HW116283   3.626   0.216   6.670  0.2840  1.1120  0.0332
 1550SOL    HW216284   3.514   0.318   6.668 -0.5760 -0.0452  0.3268
 1551SOL     OW16285   3.097   4.489  11.016  0.2604 -0.2450  0.2687
 1551SOL    HW116286   3.141   4.458  11.096  1.7141  0.3288 -0.3041
 1551SOL    HW216287   3.007   4.516  11.034 -0.0171 -1.7881  1.1906
 1552SOL     OW16288   3.881   3.380  10.140  0.0726  0.1243  0.1078
 1552SOL    HW116289   3.832   3.386  10.221 -2.0051 -2.0380 -1.0153
 1552SOL    HW216290   3.919   3.292  10.144 -1.8144 -0.6744  0.4178
 1553SOL     OW16291   3.910   4.144   4.866  0.1342  0.1250  0.0647
 1553SOL    HW116292   3.852   4.107   4.799 -0.7921 -2.2346  2.1853
 1553SOL    HW216293   3.870   4.102   4.943 -0.4207 -2.5242 -1.6457
 1554SOL     OW16294   2.133   0.221   2.373  0.0751 -0.5631  0.0994
 1554SOL    HW116295   2.106   0.264   2.454  0.2970  1.9686 -1.1631
 1554SOL    HW216296   2.046   0.193   2.345 -0.5685 -0.8129  2.3410
 1555SOL     OW16297   2.578   2.402   8.425  0.3404  0.5580 -0.6133
 1555SOL    HW116298   2.589   2.345   8.500 -1.3809 -1.1227 -1.6283
 1555SOL    HW216299   2.523   2.470   8.464 -0.4883 -1.0706  1.0828
 1556SOL     OW16300   4.186   4.033   3.661  0.4821 -0.5965  0.5859
 1556SOL    HW116301   4.098   4.015   3.627  0.8682  0.5513 -0.9854
 1556SOL    HW216302   4.189   4.127   3.674  1.0118 -1.1072  4.1639
 1557SOL     OW16303   1.193   0.475   3.729  0.2684  0.3031  0.8467
 1557SOL    HW116304   1.246   0.420   3.787  1.3450  1.4181  0.9332
 1557SOL    HW216305   1.115   0.464   3.783 -0.4291  0.5467 -0.1219
 1558SOL     OW16306   1.345   1.462   4.154 -0.5210 -0.3796 -0.1058
 1558SOL    HW116307   1.435   1.429   4.153 -0.7725 -1.0659 -0.0219
 1558SOL    HW216308   1.364   1.553   4.176 -0.5233  0.0452 -1.8656
 1559SOL     OW16309   3.718   0.341  11.918 -0.5895 -0.4388  0.5581
 1559SOL    HW116310   3.739   0.435  11.913  1.3267 -0.8280  1.2197
 1559SOL    HW216311   3.634   0.343  11.872 -0.2539  3.0058  0.0447
 1560SOL     OW16312   1.290   1.375   3.172 -0.3176  0.0362  0.3505
 1560SOL    HW116313   1.282   1.454   3.226 -1.4387 -0.0093  0.2534
 1560SOL    HW216314   1.310   1.310   3.240  0.7769  1.3300  1.2623
 1561SOL     OW16315   2.884   2.568   5.804 -0.4751 -0.2079 -0.3755
 1561SOL    HW116316   2.848   2.513   5.874  0.2702 -0.3933 -0.1440
 1561SOL    HW216317   2.905   2.509   5.732  0.9505 -2.9033  2.2483
 1562SOL     OW16318   4.441   3.239  12.207 -0.2992  0.2813 -0.0628
 1562SOL    HW116319   4.530   3.272  12.212  0.0416 -0.6703  0.0594
 1562SOL    HW216320   4.449   3.170  12.141  0.1615 -0.2303  0.5285
 1563SOL     OW16321   4.365   1.708   7.700  0.5775  0.6082  0.2141
 1563SOL    HW116322   4.406   1.718   7.786  2.2627 -0.3694 -0.4671
 1563SOL    HW216323   4.444   1.699   7.647  0.9234 -0.2805  0.8855
 1564SOL     OW16324   3.807   0.909   7.574  0.3031 -0.3002 -0.2908
 1564SOL    HW116325   3.748   0.837   7.598 -0.8680  0.8987  0.4200
 1564SOL    HW216326   3.745   0.970   7.534  0.4168  0.2602  0.3940
 1565SOL     OW16327   0.054   1.299   4.629  0.0730  0.3394  0.2332
 1565SOL    HW116328   0.095   1.329   4.710  2.0090  3.0205 -1.7136
 1565SOL    HW216329   0.127   1.317   4.570 -0.2352 -1.4238 -0.6807
 1566SOL     OW16330   0.038   4.205  12.476  0.1587  0.1323  0.3083
 1566SOL    HW116331   0.038   4.283  12.422  1.2389 -0.6626 -0.8401
 1566SOL    HW216332   0.036   4.142  12.404  0.3182  0.5310 -0.0381
 1567SOL     OW16333   0.043   1.035   4.603 -0.4619 -0.4307 -0.2178
 1567SOL    HW116334   0.048   1.129   4.617 -0.4490 -0.4962  0.2148
 1567SOL    HW216335   0.001   1.034   4.517 -1.1772 -3.8644  0.1739
 1568SOL     OW16336   3.717   2.982   4.066  0.4150  0.7837 -0.4130
 1568SOL    HW116337   3.721   2.985   3.971  2.3513  0.1178 -0.3566
 1568SOL    HW216338   3.630   2.945   4.082  1.7447 -2.2690 -0.2920
 1569SOL     OW16339   3.869   3.053   1.752  0.2191  0.3865 -0.1166
 1569SOL    HW116340   3.795   3.048   1.813 -1.4050 -0.1622 -2.1270
 1569SOL    HW216341   3.880   2.959   1.735 -1.4373  0.2749 -0.5701
 1570SOL     OW16342   3.824   3.694   6.401  0.3053 -0.1679 -0.2896
 1570SOL    HW116343   3.791   3.604   6.408 -0.2101  0.1347  1.2839
 1570SOL    HW216344   3.753   3.745   6.362 -0.4509 -0.6177  0.4727
 1571SOL     OW16345   2.488   3.278  11.175  0.2631 -0.4082  0.8521
 1571SOL    HW116346   2.440   3.195  11.181 -0.6010 -0.0518 -1.2437
 1571SOL    HW216347   2.532   3.245  11.097 -1.3941  0.7856 -0.6045
 1572SOL     OW16348   3.751   3.938   9.388 -0.2109  0.7307 -0.1193
 1572SOL    HW116349   3.684   3.889   9.341  0.3459  0.6733 -0.8678
 1572SOL    HW216350   3.759   4.008   9.323 -1.1638 -0.1177 -1.1535
 1573SOL     OW16351   2.797   3.232   1.908 -0.3499 -0.0286 -0.5960
 1573SOL    HW116352   2.729   3.283   1.952 -0.9813 -0.6138 -0.9001
 1573SOL    HW216353   2.860   3.292   1.869  0.2400 -0.4825 -0.3402
 1574SOL     OW16354   2.969   1.717   6.454 -0.1752 -0.2822 -0.0672
 1574SOL    HW116355   3.039   1.744   6.395 -0.4212  0.5453  0.0233
 1574SOL    HW216356   3.007   1.652   6.513 -0.1647 -0.5125 -0.3280
 1575SOL     OW16357   1.002   2.156   9.021  0.7010  0.0568 -0.1812
 1575SOL    HW116358   0.977   2.148   9.113 -0.7989  0.7948 -0.5227
 1575SOL    HW216359   0.973   2.245   9.000  1.5609  1.0722  2.9836
 1576SOL     OW16360   1.839   2.928   2.258 -0.1238 -0.4705  0.0535
 1576SOL    HW116361   1.861   2.838   2.233  1.1815 -0.0985 -0.1110
 1576SOL    HW216362   1.746   2.905   2.260  0.4843 -2.9650  0.1915
 1577SOL     OW16363   1.832   0.134   2.381  0.0294  0.3279 -0.4666
 1577SOL    HW116364   1.823   0.208   2.441 -0.5941  1.5720 -2.0891
 1577SOL    HW216365   1.866   0.069   2.442 -0.1660  1.5906  1.0225
 1578SOL     OW16366   3.674   3.122   4.651 -0.3701  0.7965 -0.3795
 1578SOL    HW116367   3.681   3.065   4.574 -2.8819 -0.8729  0.6121
 1578SOL    HW216368   3.720   3.201   4.624  3.2266 -0.1260  2.9217
 1579SOL     OW16369   1.161   1.721   4.570  0.0796 -0.0444 -0.8130
 1579SOL    HW116370   1.188   1.730   4.661 -1.0807 -0.3826 -0.4314
 1579SOL    HW216371   1.148   1.626   4.571  1.5277 -0.2460 -0.6411
 1580SOL     OW16372   1.201   1.183   5.233 -0.2127 -0.1994 -0.4240
 1580SOL    HW116373   1.195   1.148   5.144  1.1126 -1.7796  0.1152
 1580SOL    HW216374   1.197   1.277   5.216  1.3232  0.1566  1.1128
 1581SOL     OW16375   4.048   4.241   4.261 -0.2272 -0.0661 -1.1877
 1581SOL    HW116376   4.026   4.156   4.224 -0.7194  0.0998 -1.2818
 1581SOL    HW216377   4.098   4.284   4.191  0.3911  1.7791  0.3660
 1582SOL     OW16378   0.227   0.827   7.373  0.2228 -0.0351  0.0487
 1582SOL    HW116379   0.186   0.908   7.405 -0.6013 -0.1135 -0.7890
 1582SOL    HW216380   0.157   0.785   7.323  2.2303 -3.2649 -0.0826
 1583SOL     OW16381   2.529   4.409   4.754 -0.0196  0.6825  0.6290
 1583SOL    HW116382   2.512   4.396   4.660 -0.4850 -0.8747  0.9458
 1583SOL    HW216383   2.549   4.321   4.785  2.9903  1.2015  0.1301
 1584SOL     OW16384   3.320   2.689   0.735  0.1787  0.4105 -0.3223
 1584SOL    HW116385   3.318   2.688   0.831 -1.7912  1.3305 -0.3582
 1584SOL    HW216386   3.232   2.717   0.711  0.8257  1.5161 -1.3960
 1585SOL     OW16387   3.987   1.079  11.259 -0.5886 -0.2021  0.3514
 1585SOL    HW116388   4.006   1.050  11.170  3.3204  2.1325  0.3874
 1585SOL    HW216389   3.973   1.173  11.246  2.3037  0.2703  0.5676
 1586SOL     OW16390   3.875   3.404   5.030 -0.4336  0.2036 -0.8295
 1586SOL    HW116391   3.887   3.312   5.053  2.3979  1.3040  2.0266
 1586SOL    HW216392   3.915   3.447   5.106 -0.0712 -1.3403 -0.1622
 1587SOL     OW16393   2.804   0.830  15.811  0.0067 -0.0251  0.3855
 1587SOL    HW116394   2.873   0.831  15.877  1.3407 -1.1820 -0.9639
 1587SOL    HW216395   2.801   0.735  15.798  1.8346 -0.0904  0.4714
 1588SOL     OW16396   4.409   2.839   5.373 -0.5976  0.0874 -0.3077
 1588SOL    HW116397   4.440   2.846   5.463 -1.3224  0.8100 -0.1110
 1588SOL    HW216398   4.466   2.901   5.327 -0.3028  1.2292  1.6049
 1589SOL     OW16399   4.230   3.691   3.796 -0.0661  0.8949  0.6406
 1589SOL    HW116400   4.302   3.630   3.815 -2.1032 -0.8917  2.5923
 1589SOL    HW216401   4.236   3.704   3.701 -0.6126  0.0262  0.4871
 1590SOL     OW16402   0.605   1.438   9.657 -0.0793 -0.8066 -0.3579
 1590SOL    HW116403   0.586   1.386   9.580  0.6015  0.5837 -1.4625
 1590SOL    HW216404   0.520   1.446   9.701 -1.1568  0.5932 -2.6785
 1591SOL     OW16405   3.965   2.035   5.014 -0.2673 -0.0655 -0.1828
 1591SOL    HW116406   3.885   2.017   4.966  0.1432 -1.6435 -0.2640
 1591SOL    HW216407   3.930   2.000   5.096 -2.3776 -0.0781 -1.0994
 1592SOL     OW16408   2.139   2.324   4.386 -0.0681 -0.0542 -0.1715
 1592SOL    HW116409   2.191   2.262   4.437 -0.6781  1.0570  1.7992
 1592SOL    HW216410   2.157   2.406   4.431  1.2292 -0.9344  0.9224
 1593SOL     OW16411   2.594   3.864   9.126 -0.5638  0.1413  0.1496
 1593SOL    HW116412   2.549   3.895   9.205  1.6406  0.5810  1.2402
 1593SOL    HW216413   2.687   3.856   9.149 -0.3292 -1.7123 -1.3971
 1594SOL     OW16414   4.550   4.575   7.928  0.0472 -0.4488 -0.0662
 1594SOL    HW116415   4.467   4.576   7.976  0.2329 -1.3926  0.2899
 1594SOL    HW216416   4.531   4.511   7.859 -0.6216 -0.7812  0.4175
 1595SOL     OW16417   3.715   0.838   5.196  0.0757 -0.6622  0.8577
 1595SOL    HW116418   3.759   0.780   5.257  0.9289  0.8823  1.7103
 1595SOL    HW216419   3.788   0.853   5.136 -1.2096  0.7169 -0.3675
 1596SOL     OW16420   0.764   0.900   4.989  0.3034 -0.0199  0.1201
 1596SOL    HW116421   0.762   0.861   4.902  2.1384 -2.5066  1.2089
 1596SOL    HW216422   0.730   0.989   4.974  0.8103  0.3932  1.3990
 1597SOL     OW16423   3.176   0.946   8.980  0.1037  0.3773 -0.2916
 1597SOL    HW116424   3.240   0.995   8.928  1.6266 -1.2409  0.0630
 1597SOL    HW216425   3.113   0.919   8.913 -1.8244 -0.5006  1.8857
 1598SOL     OW16426   0.417   1.884   8.270  0.4316 -0.0922 -0.4950
 1598SOL    HW116427   0.342   1.907   8.215  0.5200  0.3992 -0.4065
 1598SOL    HW216428   0.385   1.911   8.356 -0.6438  1.1185 -1.2751
 1599SOL     OW16429   3.208   1.696   6.291  0.2782 -0.4183  0.3035
 1599SOL    HW116430   3.250   1.612   6.309  2.1753  0.8936  2.0602
 1599SOL    HW216431   3.284   1.755   6.301 -1.6102  2.3358 -1.3835
 1600SOL     OW16432   4.450   0.419   3.553  0.4002 -0.8643  0.0375
 1600SOL    HW116433   4.535   0.460   3.568 -0.8241  3.0693 -3.7902
 1600SOL    HW216434   4.430   0.456   3.466  0.4316  0.7450  0.7117
 1601SOL     OW16435   1.799   2.824   8.734  0.2541 -0.3976 -0.0746
 1601SOL    HW116436   1.784   2.801   8.826  1.3241  2.4280  0.8069
 1601SOL    HW216437   1.895   2.820   8.741  0.5053  1.9033 -2.1624
 1602SOL     OW16438   1.910   0.081   8.600  0.6373  0.0010  0.0642
 1602SOL    HW116439   1.946   0.114   8.682  1.7399 -1.4342  0.1425
 1602SOL    HW216440   1.925   0.158   8.545 -1.1548  0.6558  0.5050
 1603SOL     OW16441   2.505   0.586  13.283  0.0841 -0.2076 -0.3602
 1603SOL    HW116442   2.524   0.610  13.373 -0.3038  2.4080 -0.9830
 1603SOL    HW216443   2.559   0.643  13.229 -0.2659  0.1460 -0.3415
 1604SOL     OW16444   0.568   1.415  13.785  0.1763  0.2041 -0.2360
 1604SOL    HW116445   0.556   1.496  13.835 -0.9366 -0.3560  0.4092
 1604SOL    HW216446   0.658   1.423  13.756  0.1751 -0.9804 -0.5387
 1605SOL     OW16447   2.684   3.282  15.422  0.5597  0.0710 -0.4742
 1605SOL    HW116448   2.673   3.291  15.517  1.3971  0.0291 -0.3806
 1605SOL    HW216449   2.739   3.359  15.411  0.6263  0.5749  3.1361
 1606SOL     OW16450   1.042   4.030  15.652  0.2444  0.0354 -0.3471
 1606SOL    HW116451   1.070   4.028  15.744  1.1731 -0.5732 -0.6447
 1606SOL    HW216452   0.967   3.971  15.661 -0.6147  1.0313 -0.9656
 1607SOL     OW16453   0.043   4.153   1.847 -0.3636 -0.0711 -0.1188
 1607SOL    HW116454   0.085   4.147   1.933  2.8519 -0.3686 -1.6984
 1607SOL    HW216455   4.700   4.199   1.873 -0.8585  0.6234 -2.9271
 1608SOL     OW16456   3.574   4.469   8.937 -0.0439 -0.2888  1.2607
 1608SOL    HW116457   3.631   4.406   8.894 -0.7093  0.7120 -1.1607
 1608SOL    HW216458   3.646   4.522   8.970  0.9015 -0.5287 -0.4119
 1609SOL     OW16459   1.669   3.078   6.369 -0.6324  0.0732 -0.2896
 1609SOL    HW116460   1.718   3.030   6.435 -2.2511 -1.2211 -0.0055
 1609SOL    HW216461   1.658   3.160   6.417 -0.1264  1.5309 -2.6370
 1610SOL     OW16462   2.396   3.178  16.800  0.4777  0.1945  0.4192
 1610SOL    HW116463   2.380   3.256  16.747  1.1223  1.3835  2.0027
 1610SOL    HW216464   2.346   3.114  16.749 -0.1724 -0.0753  1.3871
 1611SOL     OW16465   2.851   1.536  13.191  0.2633  0.3037 -0.0284
 1611SOL    HW116466   2.769   1.583  13.206 -0.9496 -1.2332 -1.9365
 1611SOL    HW216467   2.876   1.513  13.281 -0.0657 -2.6711 -0.7027
 1612SOL     OW16468   0.555   1.698   9.777  0.5713 -0.1108  0.1150
 1612SOL    HW116469   0.575   1.608   9.801  1.4305  0.2308  0.7020
 1612SOL    HW216470   0.639   1.742   9.793  0.1551  0.5486  0.4855
 1613SOL     OW16471   0.840   1.798   6.554  0.0933 -0.5804  0.3391
 1613SOL    HW116472   0.787   1.718   6.560  0.5982 -0.9254  0.2516
 1613SOL    HW216473   0.793   1.860   6.609  1.9648 -0.2592  1.5575
 1614SOL     OW16474   0.222   3.314   8.643 -0.0210  0.1669  0.3284
 1614SOL    HW116475   0.189   3.338   8.556  0.3510 -1.3546 -0.2187
 1614SOL    HW216476   0.185   3.389   8.690 -0.3949 -0.3718  0.8780
 1615SOL     OW16477   4.214   2.932   1.474  0.8626 -0.2246 -0.3135
 1615SOL    HW116478   4.278   2.993   1.439  2.3311 -1.8881 -0.5497
 1615SOL    HW216479   4.197   2.962   1.563 -1.3353 -2.1834 -0.0576
 1616SOL     OW16480   0.170   2.550  10.969 -0.1008 -0.4862 -0.7558
 1616SOL    HW116481   0.094   2.589  10.927  0.2472 -0.1016 -1.0312
 1616SOL    HW216482   0.198   2.491  10.898  1.1320 -2.9283  1.7667
 1617SOL     OW16483   1.390   0.928   5.983 -0.2978  0.4532  0.3637
 1617SOL    HW116484   1.377   0.846   5.935  0.4932  0.7110 -0.2981
 1617SOL    HW216485   1.368   0.905   6.073 -1.6623  1.2003  0.2194
 1618SOL     OW16486   0.803   1.957   3.790  0.3874  0.4552 -0.2661
 1618SOL    HW116487   0.764   1.888   3.845 -0.4354  1.4388  0.4014
 1618SOL    HW216488   0.842   2.016   3.855 -0.4137 -1.7599  2.2435
 1619SOL     OW16489   4.430   3.088   8.150  0.5002 -0.2612 -0.2822
 1619SOL    HW116490   4.388   3.076   8.065 -0.3648  0.4753  0.0403
 1619SOL    HW216491   4.488   3.013   8.150  1.2851  0.3456 -0.6422
 1620SOL     OW16492   3.184   4.634   8.237  0.1906 -0.2822 -0.2262
 1620SOL    HW116493   3.104   4.678   8.267 -0.5806 -1.8998  0.1351
 1620SOL    HW216494   3.186   4.686   8.157 -2.8908  1.0480  0.5469
 1621SOL     OW16495   1.695   4.694  14.790  0.3415 -0.0857  0.2860
 1621SOL    HW116496   1.610   4.675  14.751  0.0151  0.2776  0.8241
 1621SOL    HW216497   1.740   4.667  14.710 -1.5717 -1.1501 -0.4141
 1622SOL     OW16498   4.695   3.783   9.051  0.6760 -0.0014 -0.8506
 1622SOL    HW116499   4.647   3.798   9.133 -0.1270 -1.4349 -1.0488
 1622SOL    HW216500   4.725   3.873   9.047 -0.7981  0.4933 -0.9767
 1623SOL     OW16501   3.494   0.125   8.831  0.2316 -0.2046 -0.9018
 1623SOL    HW116502   3.431   0.192   8.858  0.8342  0.6866 -1.6664
 1623SOL    HW216503   3.540   0.173   8.762  0.9090  2.0462  1.0827
 1624SOL     OW16504   4.459   1.639   4.054 -0.2882 -0.5561 -0.0094
 1624SOL    HW116505   4.364   1.654   4.053 -0.4572 -1.6734 -0.8964
 1624SOL    HW216506   4.478   1.719   4.103 -0.7997  0.8225 -2.0476
 1625SOL     OW16507   0.888   1.890   5.970 -1.0917  0.9052  0.1239
 1625SOL    HW116508   0.947   1.965   5.983 -1.3420  0.9728  0.9156
 1625SOL    HW216509   0.804   1.934   5.957 -0.9030  0.4864 -2.3247
 1626SOL     OW16510   1.243   2.790   5.778 -0.0129  0.0278  0.2479
 1626SOL    HW116511   1.254   2.826   5.691 -4.3023 -0.2197 -0.3986
 1626SOL    HW216512   1.333   2.772   5.804 -0.0122 -0.1597  0.1134
 1627SOL     OW16513   1.740   1.657   7.553 -0.4387 -0.3970 -0.3096
 1627SOL    HW116514   1.722   1.664   7.647  0.8181  0.2318 -0.1077
 1627SOL    HW216515   1.830   1.625   7.555 -0.2070  0.1334 -2.2389
 1628SOL     OW16516   1.121   0.695   5.031 -0.5394 -0.1775 -0.2052
 1628SOL    HW116517   1.194   0.742   4.990  0.0024 -1.1425 -0.3554
 1628SOL    HW216518   1.168   0.628   5.080 -2.1534 -0.6096  0.7503
 1629SOL     OW16519   2.417   3.478  12.706  0.0038 -0.0812 -0.2891
 1629SOL    HW116520   2.439   3.390  12.738  0.7109  0.9016  1.9686
 1629SOL    HW216521   2.324   3.477  12.685  0.2626 -0.6921 -1.3466
 1630SOL     OW16522   3.736   0.569   2.743 -0.1712 -0.1416 -0.4378
 1630SOL    HW116523   3.816   0.559   2.795 -0.0381  0.0767 -0.5999
 1630SOL    HW216524   3.676   0.548   2.814  1.4444 -1.0201  0.6835
 1631SOL     OW16525   2.971   1.496  12.746  0.0612  0.5965  0.0824
 1631SOL    HW116526   3.019   1.464  12.670  0.8946  0.3034  0.7290
 1631SOL    HW216527   2.914   1.562  12.708 -1.6569  0.2712  2.0664
 1632SOL     OW16528   0.504   2.141   7.549  0.1466  0.4500  0.4387
 1632SOL    HW116529   0.593   2.154   7.582  0.4421 -0.0961 -0.1516
 1632SOL    HW216530   0.514   2.047   7.535 -0.4675  0.4439  0.0580
 1633SOL     OW16531   1.369   1.580  12.194  0.1388  0.5118  0.1902
 1633SOL    HW116532   1.420   1.646  12.149  0.4077 -1.0667 -1.8368
 1633SOL    HW216533   1.341   1.520  12.124 -0.4038 -0.8637  1.5654
 1634SOL     OW16534   1.521   3.549  13.459  0.2915  0.0292  0.5542
 1634SOL    HW116535   1.492   3.606  13.530  3.4522  4.0791 -1.3852
 1634SOL    HW216536   1.522   3.468  13.510 -1.0777 -0.7597 -0.7022
 1635SOL     OW16537   4.300   4.285  13.105  0.4079  0.3879  0.6117
 1635SOL    HW116538   4.338   4.231  13.174  1.3541  0.4798  0.1575
 1635SOL    HW216539   4.371   4.293  13.042 -0.8268 -0.0853 -0.8408
 1636SOL     OW16540   0.622   2.128   2.611  0.4725  0.2330 -0.1993
 1636SOL    HW116541   0.653   2.195   2.672  0.7272 -0.1399  0.0790
 1636SOL    HW216542   0.640   2.040   2.644 -0.2510  0.1908  0.0950
 1637SOL     OW16543   3.527   2.154   2.824 -0.3495 -0.0902 -0.2656
 1637SOL    HW116544   3.511   2.080   2.883  1.7715  0.5124  1.0818
 1637SOL    HW216545   3.600   2.199   2.867 -0.7027 -1.3262  1.6315
 1638SOL     OW16546   2.338   3.393   1.168  0.5586 -0.2118 -0.2317
 1638SOL    HW116547   2.389   3.322   1.206 -1.8691 -1.7175  0.2622
 1638SOL    HW216548   2.274   3.397   1.239  1.0514  0.7297  0.1470
 1639SOL     OW16549   2.551   1.464  17.645  0.4612 -0.0489  0.7836
 1639SOL    HW116550   2.600   1.473  17.564 -0.3832 -2.7150 -0.0080
 1639SOL    HW216551   2.459   1.458  17.619  0.8692 -1.7363 -0.2491
 1640SOL     OW16552   2.921   3.172  15.769  0.5692  0.8684  0.1438
 1640SOL    HW116553   2.985   3.176  15.698  2.0999  0.5109  1.4964
 1640SOL    HW216554   2.960   3.242  15.823  0.7195  1.2474 -0.4546
 1641SOL     OW16555   2.018   1.193   5.374 -0.1472  0.1637  0.1860
 1641SOL    HW116556   2.009   1.190   5.279  0.3041 -2.3189  0.2081
 1641SOL    HW216557   1.950   1.254   5.402 -0.3897 -0.0942  0.1647
 1642SOL     OW16558   0.097   1.238   5.491  0.2543 -0.0193 -0.0153
 1642SOL    HW116559   0.114   1.144   5.481  0.5031 -0.1357  1.4434
 1642SOL    HW216560   0.024   1.235   5.554  0.4204  0.0689  0.1807
 1643SOL     OW16561   4.301   0.095   7.488 -0.1147 -0.3983  0.0002
 1643SOL    HW116562   4.281   0.188   7.476 -0.7110 -0.8248 -2.3031
 1643SOL    HW216563   4.244   0.061   7.420  0.0933 -0.1168 -0.3130
 1644SOL     OW16564   4.054   3.975   4.174 -0.1534 -0.8094 -0.0450
 1644SOL    HW116565   3.973   3.946   4.132 -0.3346  0.9968 -0.9327
 1644SOL    HW216566   4.116   3.945   4.108 -1.5780  1.6005 -2.4798
 1645SOL     OW16567   2.022   0.107  14.606 -0.4680  0.3392 -0.1192
 1645SOL    HW116568   1.998   0.015  14.615  1.1759 -0.0477  0.3718
 1645SOL    HW216569   2.007   0.119  14.512 -0.6611 -1.4318 -0.3027
 1646SOL     OW16570   2.559   4.700   5.220  0.0272  0.0213 -0.0463
 1646SOL    HW116571   2.536   4.713   5.128 -1.5978  1.5411  0.5760
 1646SOL    HW216572   2.500   4.636   5.259 -0.3428  0.1509 -0.3944
 1647SOL     OW16573   1.928   1.045   7.840  0.1157 -0.1892 -0.4480
 1647SOL    HW116574   1.851   1.098   7.817 -1.0338 -1.4945  0.4019
 1647SOL    HW216575   1.917   1.045   7.935 -1.3478  3.2899 -0.5977
 1648SOL     OW16576   3.224   3.958  10.135 -0.0499  0.0170  0.1101
 1648SOL    HW116577   3.309   3.989  10.101 -0.6009 -0.9105 -2.0985
 1648SOL    HW216578   3.184   4.039  10.166  0.5868  0.6362 -0.6813
 1649SOL     OW16579   2.198   2.806   4.381 -0.3063  0.0257  0.2835
 1649SOL    HW116580   2.185   2.894   4.346 -1.9909 -0.7484 -1.0290
 1649SOL    HW216581   2.289   2.782   4.363 -0.0542 -0.5081  2.2221
 1650SOL     OW16582   3.627   2.204   6.998 -0.1371 -0.3368  0.0318
 1650SOL    HW116583   3.685   2.143   6.953  0.2957 -0.3611  0.6191
 1650SOL    HW216584   3.540   2.186   6.961 -0.8081 -1.8106  2.2979
 1651SOL     OW16585   0.773   4.508   3.762 -0.2507  0.3180 -0.1491
 1651SOL    HW116586   0.833   4.577   3.790  2.0676 -1.1306 -1.5159
 1651SOL    HW216587   0.729   4.480   3.842  1.8441 -0.7049  0.6452
 1652SOL     OW16588   0.690   1.578   7.380  0.4148 -0.1193  0.1424
 1652SOL    HW116589   0.777   1.561   7.416  1.0994  3.2247  0.0115
 1652SOL    HW216590   0.682   1.510   7.312 -0.8549  0.0686  0.0903
 1653SOL     OW16591   1.531   2.076   9.071 -0.5331  0.3989 -0.1160
 1653SOL    HW116592   1.467   2.015   9.108 -0.0281  0.2131  0.4611
 1653SOL    HW216593   1.473   2.137   9.026 -0.5324 -0.3787 -1.1878
 1654SOL     OW16594   3.116   0.665  14.687 -0.3745  0.0467  0.2985
 1654SOL    HW116595   3.086   0.755  14.677  2.1602  0.9282  0.6540
 1654SOL    HW216596   3.093   0.634  14.775  0.7435 -1.2904  0.1199
 1655SOL     OW16597   0.284   3.562   3.491 -0.0521  0.3280 -0.2724
 1655SOL    HW116598   0.306   3.602   3.407 -1.6997  0.9439 -0.4176
 1655SOL    HW216599   0.202   3.603   3.519 -0.3096 -0.0548 -0.4532
 1656SOL     OW16600   1.830   1.822   9.870  0.1743  1.0873 -0.3037
 1656SOL    HW116601   1.846   1.772   9.950  0.0932  1.0807 -0.2909
 1656SOL    HW216602   1.739   1.848   9.889  0.1429 -0.0352  1.0872
 1657SOL     OW16603   2.095   0.361   8.196  0.0962  0.4280 -0.0761
 1657SOL    HW116604   2.188   0.361   8.173 -0.3514  1.5043 -1.9399
 1657SOL    HW216605   2.073   0.441   8.148 -4.2566 -1.5165 -1.2896
 1658SOL     OW16606   1.681   2.697  17.050 -0.0513  0.8358  0.1555
 1658SOL    HW116607   1.692   2.766  17.115 -0.7381  0.6935  0.4262
 1658SOL    HW216608   1.706   2.621  17.103  0.3099 -0.2130 -1.5315
 1659SOL     OW16609   4.228   0.595   6.452  0.5436 -0.0267  0.1718
 1659SOL    HW116610   4.160   0.537   6.488 -1.6189  3.5053  1.7582
 1659SOL    HW216611   4.299   0.569   6.511 -0.6484 -0.8882  1.2236
 1660SOL     OW16612   1.232   3.399   3.285  0.2271  0.0643  0.3181
 1660SOL    HW116613   1.249   3.305   3.279  0.0974  0.0188  0.6629
 1660SOL    HW216614   1.319   3.427   3.311  0.0888  0.0192  0.8280
 1661SOL     OW16615   2.786   1.808  16.847  0.0392 -0.2908  0.7401
 1661SOL    HW116616   2.870   1.838  16.811  0.0895  0.3347  1.3771
 1661SOL    HW216617   2.825   1.738  16.900 -2.9247 -1.5749  1.2511
 1662SOL     OW16618   4.692   3.186   7.293 -0.0139  0.0537  0.8653
 1662SOL    HW116619   4.673   3.259   7.352  2.3593  1.4408 -0.1048
 1662SOL    HW216620   0.008   3.234   7.229  0.9981 -0.3687  1.3912
 1663SOL     OW16621   1.962   0.002   2.576 -0.3127 -0.2168  0.1359
 1663SOL    HW116622   1.979   0.050   2.657 -2.7939 -0.4994  0.8107
 1663SOL    HW216623   2.048   4.701   2.556 -1.2733 -2.8239  1.0012
 1664SOL     OW16624   4.705   2.825   2.649 -0.0243 -0.0620 -0.1301
 1664SOL    HW116625   0.010   2.753   2.600 -0.6917 -1.5306  1.4759
 1664SOL    HW216626   0.033   2.833   2.719  0.4631  1.6276 -0.7744
 1665SOL     OW16627   3.443   2.552  12.239 -0.2107 -0.5646  0.2683
 1665SOL    HW116628   3.508   2.598  12.186 -1.1472 -1.2868 -1.5219
 1665SOL    HW216629   3.401   2.495  12.173  0.0725  0.2064 -0.5821
 1666SOL     OW16630   3.361   0.741   3.825 -0.5686 -0.4193  0.1868
 1666SOL    HW116631   3.318   0.678   3.883  1.0172  0.5849  2.4124
 1666SOL    HW216632   3.438   0.687   3.806 -0.6695  0.2579 -2.1666
 1667SOL     OW16633   2.389   2.425  17.692  0.1690 -0.3111  0.2193
 1667SOL    HW116634   2.407   2.349  17.637  0.7419 -3.1639  4.4458
 1667SOL    HW216635   2.479   2.457  17.684 -1.0763  3.7324  2.1122
 1668SOL     OW16636   4.165   3.193   1.986  0.4164 -0.0499  0.2086
 1668SOL    HW116637   4.253   3.213   2.018  0.7547 -0.6221 -0.3652
 1668SOL    HW216638   4.180   3.100   1.969  0.1173 -0.0131 -0.2621
 1669SOL     OW16639   2.319   0.926   0.262 -0.2850 -0.7108 -0.1861
 1669SOL    HW116640   2.351   0.981   0.190 -0.4984  0.1609  0.3842
 1669SOL    HW216641   2.368   0.848   0.238 -0.8086 -0.8840 -0.6855
 1670SOL     OW16642   0.577   3.272   3.416 -0.3248 -0.2887 -0.3136
 1670SOL    HW116643   0.627   3.191   3.403 -2.3978 -1.6371  0.2612
 1670SOL    HW216644   0.601   3.322   3.338  1.9894  2.8107  2.3525
 1671SOL     OW16645   1.959   1.421  17.432  0.2476 -0.4426  0.4519
 1671SOL    HW116646   2.006   1.447  17.353  0.3460  3.2635  1.7617
 1671SOL    HW216647   1.885   1.479  17.416  0.0087 -0.9114 -0.1667
 1672SOL     OW16648   3.238   3.025   6.722  0.3170  0.3957  0.1996
 1672SOL    HW116649   3.163   3.047   6.668  0.9192 -2.1365 -1.7082
 1672SOL    HW216650   3.317   3.060   6.681  0.1559  2.6033  1.8106
 1673SOL     OW16651   0.802   3.894   7.372 -0.1839  0.1955  0.2127
 1673SOL    HW116652   0.783   3.987   7.359  1.3847  0.8450  2.6681
 1673SOL    HW216653   0.766   3.855   7.292  1.2152 -0.2608 -0.1922
 1674SOL     OW16654   1.604   4.498  16.878 -0.2082 -0.3991 -0.3249
 1674SOL    HW116655   1.635   4.558  16.947  1.8860 -0.6426 -1.0643
 1674SOL    HW216656   1.611   4.555  16.802  1.4119  0.5087  0.5045
 1675SOL     OW16657   0.812   2.685   4.437 -0.3976  0.0335  0.0946
 1675SOL    HW116658   0.770   2.759   4.481 -2.3459 -0.2549 -1.2657
 1675SOL    HW216659   0.867   2.651   4.507  0.7329  1.3181 -0.1700
 1676SOL     OW16660   3.795   0.286  12.969  0.4527 -0.2112 -0.1268
 1676SOL    HW116661   3.878   0.332  12.982  0.2384  0.3011 -0.5758
 1676SOL    HW216662   3.819   0.194  12.962  0.4212 -0.3461  1.6582
 1677SOL     OW16663   2.493   4.345   5.153 -0.5092 -0.7198 -0.5558
 1677SOL    HW116664   2.437   4.380   5.223 -2.2794  0.4239 -2.5561
 1677SOL    HW216665   2.551   4.282   5.195 -1.7168 -0.1506  1.9839
 1678SOL     OW16666   0.341   1.224   8.581  0.1337 -0.1386 -0.1364
 1678SOL    HW116667   0.393   1.149   8.552  2.1268  1.1135  0.2252
 1678SOL    HW216668   0.387   1.235   8.664  1.6283  0.9319 -1.1216
 1679SOL     OW16669   1.661   2.012   4.968 -0.1766 -0.3169 -0.3216
 1679SOL    HW116670   1.574   2.020   5.007 -0.5344 -1.8824 -0.7816
 1679SOL    HW216671   1.672   1.926   5.009 -0.3427  1.3805  3.2240
 1680SOL     OW16672   0.288   3.126  15.283  0.0300  0.3740 -0.2360
 1680SOL    HW116673   0.262   3.045  15.326 -0.1496  1.8888  2.4857
 1680SOL    HW216674   0.384   3.132  15.289  0.1327  0.5983 -1.9127
 1681SOL     OW16675   4.251   2.017  13.809  0.2198 -0.7454 -0.5483
 1681SOL    HW116676   4.299   2.093  13.774 -2.9772  0.4293 -2.3917
 1681SOL    HW216677   4.328   1.971  13.843  0.5255  0.1288 -0.0472
 1682SOL     OW16678   3.438   1.296   9.207  0.2180  0.4871  0.7481
 1682SOL    HW116679   3.407   1.381   9.174 -1.0019  0.2836  1.4039
 1682SOL    HW216680   3.471   1.263   9.123 -1.6651  1.1127 -0.2239
 1683SOL     OW16681   2.605   0.325   2.354 -0.3057  0.9858 -0.6036
 1683SOL    HW116682   2.632   0.236   2.375  0.6073  1.2830 -0.5346
 1683SOL    HW216683   2.648   0.336   2.270 -1.6282  0.9885 -1.2848
 1684SOL     OW16684   0.474   4.579   3.262  0.3191  0.4271 -0.4193
 1684SOL    HW116685   0.468   4.499   3.209 -1.0404  1.2590 -1.5116
 1684SOL    HW216686   0.420   4.637   3.209 -0.4612  0.9678  0.9787
 1685SOL     OW16687   3.329   1.200   5.180  0.2267  0.0652 -0.3990
 1685SOL    HW116688   3.312   1.294   5.189  1.5082  0.0987  1.5216
 1685SOL    HW216689   3.421   1.216   5.159  0.1294 -1.0373 -1.7209
 1686SOL     OW16690   2.598   0.049   6.612 -0.2099  0.1538  0.2162
 1686SOL    HW116691   2.669   0.026   6.552 -0.3307  0.9557 -0.2292
 1686SOL    HW216692   2.639   0.025   6.695 -1.1802 -0.2137  0.5915
 1687SOL     OW16693   1.911   1.189  10.648  0.0100  0.3582 -0.2540
 1687SOL    HW116694   1.950   1.111  10.689  0.1618  0.1509 -0.7911
 1687SOL    HW216695   1.900   1.240  10.728  0.3250  2.3547 -1.4948
 1688SOL     OW16696   3.600   3.444   4.974  0.5331 -0.2761 -0.2263
 1688SOL    HW116697   3.693   3.431   4.954  0.5648 -1.1849  0.4935
 1688SOL    HW216698   3.574   3.466   4.885 -0.1308  1.3800  0.3744
 1689SOL     OW16699   4.380   0.223  13.758 -0.1866  0.1326  0.4931
 1689SOL    HW116700   4.288   0.207  13.737  0.3959 -0.3860 -1.6146
 1689SOL    HW216701   4.413   0.145  13.714  1.5311  1.5088 -0.6531
 1690SOL     OW16702   1.553   3.248   2.079  0.1860  0.4537 -0.5566
 1690SOL    HW116703   1.460   3.244   2.055  0.0340 -2.0574  0.4782
 1690SOL    HW216704   1.546   3.271   2.172  1.1606  2.5732 -0.9933
 1691SOL     OW16705   0.383   2.846  15.363  0.9082 -0.2197  0.2438
 1691SOL    HW116706   0.416   2.795  15.437  0.8679 -1.2473 -0.4516
 1691SOL    HW216707   0.445   2.918  15.353  0.3781  0.2379  0.2918
 1692SOL     OW16708   4.392   0.710   2.903  0.0923  0.4800  0.2750
 1692SOL    HW116709   4.406   0.765   2.827  0.6997 -0.6012 -0.3866
 1692SOL    HW216710   4.345   0.773   2.959  0.6199  0.3245  0.8941
 1693SOL     OW16711   3.197   0.533   9.645 -0.9033 -0.1763  0.6568
 1693SOL    HW116712   3.124   0.480   9.614 -0.7348  0.2102 -0.4259
 1693SOL    HW216713   3.184   0.537   9.739 -1.7792  1.7626  0.4421
 1694SOL     OW16714   1.384   2.988   1.773 -0.8579 -0.4763 -0.3856
 1694SOL    HW116715   1.364   2.937   1.694  0.7078 -2.1047  0.2757
 1694SOL    HW216716   1.435   3.063   1.742 -0.7645 -1.2012 -1.9480
 1695SOL     OW16717   2.807   3.835  10.611  0.3274  0.1167 -0.6405
 1695SOL    HW116718   2.807   3.931  10.622  0.5075 -0.0479  0.8433
 1695SOL    HW216719   2.876   3.845  10.545  0.8705  0.3857 -0.0382
 1696SOL     OW16720   3.190   2.808   6.090  0.4322 -1.0653  0.0169
 1696SOL    HW116721   3.189   2.756   6.010  0.9616 -1.5701  0.3316
 1696SOL    HW216722   3.227   2.894   6.072 -1.1623 -1.0230 -3.0139
 1697SOL     OW16723   0.329   3.477   6.654  0.2191 -0.2844  0.0787
 1697SOL    HW116724   0.250   3.448   6.607  0.2957 -0.4523  0.0538
 1697SOL    HW216725   0.339   3.571   6.642 -3.3539  0.5383  3.3720
 1698SOL     OW16726   0.200   3.383   5.500  0.7744 -1.0175  0.1423
 1698SOL    HW116727   0.251   3.324   5.444  1.0262  0.9381 -1.6694
 1698SOL    HW216728   0.116   3.388   5.452  0.2068  0.4593  1.3027
 1699SOL     OW16729   1.805   3.271   1.729 -0.7576 -0.0819  0.4717
 1699SOL    HW116730   1.785   3.262   1.636  0.3572 -1.7545  0.4091
 1699SOL    HW216731   1.896   3.299   1.732 -0.3961 -1.1469 -0.6222
 1700SOL     OW16732   4.006   2.939   9.408  0.2349  0.1785 -0.7339
 1700SOL    HW116733   4.012   2.861   9.463  2.3933  1.5386  0.9524
 1700SOL    HW216734   4.085   2.926   9.355  0.3902  1.5127 -0.8431
 1701SOL     OW16735   4.023   3.533   5.225  0.6058 -0.7437 -0.4056
 1701SOL    HW116736   4.030   3.479   5.303  0.2946 -1.2167 -0.7012
 1701SOL    HW216737   4.113   3.528   5.192 -0.0868 -0.2080 -2.4087
 1702SOL     OW16738   2.560   1.120   0.699  0.3457 -0.4710  0.0479
 1702SOL    HW116739   2.602   1.051   0.750  0.1047 -0.4401  0.2855
 1702SOL    HW216740   2.523   1.172   0.770 -1.4235 -1.8967  0.1887
 1703SOL     OW16741   1.718   1.292  14.298 -0.1165  0.6243  0.0456
 1703SOL    HW116742   1.652   1.314  14.364  1.5320  4.6270  0.3703
 1703SOL    HW216743   1.792   1.254  14.347 -0.9262  0.1304  0.8912
 1704SOL     OW16744   2.591   2.330   4.045  0.4508 -0.0380 -0.3019
 1704SOL    HW116745   2.653   2.279   3.994 -1.0666 -2.1334 -0.0620
 1704SOL    HW216746   2.646   2.378   4.107 -1.3347 -0.2567  1.4598
 1705SOL     OW16747   4.423   0.609   2.556  0.5758  0.0985 -0.2529
 1705SOL    HW116748   4.435   0.689   2.607 -1.8843  0.2128  0.1140
 1705SOL    HW216749   4.461   0.640   2.474 -0.9574  1.2337 -0.5357
 1706SOL     OW16750   1.890   0.688   8.479  0.2587 -0.4760  0.6524
 1706SOL    HW116751   1.877   0.619   8.544 -0.9864  1.7451  2.7361
 1706SOL    HW216752   1.829   0.660   8.411 -0.4616 -1.0697  1.5469
 1707SOL     OW16753   4.132   3.629   7.925  0.0507  0.7478  0.2345
 1707SOL    HW116754   4.211   3.681   7.941  0.2565  0.3949  0.3541
 1707SOL    HW216755   4.130   3.581   8.008  1.6275 -0.9852 -0.7537
 1708SOL     OW16756   3.966   0.160   6.708 -0.8533  0.0432  0.0851
 1708SOL    HW116757   3.922   0.123   6.632 -1.3698  0.3636  0.2270
 1708SOL    HW216758   3.891   0.210   6.742  1.0270  3.6719 -1.0776
 1709SOL     OW16759   1.947   1.492   7.794 -0.5236  0.2800  0.3914
 1709SOL    HW116760   1.957   1.522   7.703 -0.4694 -0.8394  0.0372
 1709SOL    HW216761   1.966   1.576   7.836  0.2284 -0.1927  1.0002
 1710SOL     OW16762   1.161   1.715   2.255  0.1718 -0.3012 -0.1265
 1710SOL    HW116763   1.085   1.740   2.203 -0.6634 -1.9896  0.2907
 1710SOL    HW216764   1.213   1.696   2.177  0.0169 -1.3046  0.0209
 1711SOL     OW16765   1.170   2.573   2.006 -0.0354  0.1021  0.2016
 1711SOL    HW116766   1.128   2.643   1.956  1.7929  0.6834 -0.5392
 1711SOL    HW216767   1.126   2.591   2.088  0.7343 -0.6158  0.7785
 1712SOL     OW16768   0.761   1.634   3.396  0.2845 -0.2329 -0.5455
 1712SOL    HW116769   0.837   1.692   3.387  0.1140  0.3042  1.5977
 1712SOL    HW216770   0.694   1.688   3.355  0.1773  0.1373  0.1192
 1713SOL     OW16771   0.499   0.904   6.841  0.6035 -0.2525  0.1184
 1713SOL    HW116772   0.501   0.961   6.917 -1.1765 -1.9735  1.4466
 1713SOL    HW216773   0.403   0.894   6.838  0.4114  2.1012 -1.4324
 1714SOL     OW16774   0.119   2.227   3.901  0.2533 -0.0308  0.3583
 1714SOL    HW116775   0.053   2.278   3.854  1.9365  0.6769 -1.2083
 1714SOL    HW216776   0.143   2.289   3.970 -1.6403  0.1507  0.8545
 1715SOL     OW16777   3.061   2.314   8.338  0.0734  0.3721  0.3749
 1715SOL    HW116778   2.982   2.363   8.358  1.0796  2.6286 -1.2421
 1715SOL    HW216779   3.019   2.245   8.285  1.6362  0.3127 -0.8242
 1716SOL     OW16780   1.327   4.123  12.767  0.1841 -0.1615  0.1884
 1716SOL    HW116781   1.323   4.027  12.763  0.0558 -0.2587  2.5055
 1716SOL    HW216782   1.353   4.129  12.859 -2.2422  0.3317  0.8637
 1717SOL     OW16783   0.651   4.138   1.991 -0.2847 -0.3733 -0.0058
 1717SOL    HW116784   0.578   4.171   1.938 -1.1468 -2.1939  0.0529
 1717SOL    HW216785   0.710   4.090   1.933  0.4252  1.7574 -1.0606
 1718SOL     OW16786   2.746   3.319   6.636  0.1492 -0.2694  0.4441
 1718SOL    HW116787   2.817   3.361   6.588  0.9524 -0.3171  1.5969
 1718SOL    HW216788   2.785   3.268   6.707  0.6540  1.2585  1.2658
 1719SOL     OW16789   1.588   0.943  15.422 -0.4789  0.4524 -0.3503
 1719SOL    HW116790   1.567   0.922  15.331 -0.0935 -0.5227 -0.2132
 1719SOL    HW216791   1.537   1.024  15.424 -4.4797 -2.1309  1.8958
 1720SOL     OW16792   0.520   3.167   9.336  0.4593 -0.4819  0.5570
 1720SOL    HW116793   0.577   3.243   9.327 -0.5845 -0.1452 -3.4743
 1720SOL    HW216794   0.503   3.160   9.430  0.7590  2.0307  0.8095
 1721SOL     OW16795   1.881   2.570  12.495  0.0788  0.3952  0.0548
 1721SOL    HW116796   1.951   2.574  12.560  0.1083 -1.0439  0.1173
 1721SOL    HW216797   1.831   2.647  12.522  0.0313  0.3776  0.0169
 1722SOL     OW16798   4.509   0.215   1.340  0.3229  0.0366 -0.1659
 1722SOL    HW116799   4.551   0.205   1.425  1.2894 -0.6483 -0.7222
 1722SOL    HW216800   4.584   0.224   1.281 -2.3059 -0.3184 -3.5966
 1723SOL     OW16801   1.628   3.180  16.583 -0.2398 -0.1136  0.1662
 1723SOL    HW116802   1.697   3.166  16.517 -1.4492 -0.9093 -0.9435
 1723SOL    HW216803   1.678   3.234  16.644  0.8666  0.8559 -1.5810
 1724SOL     OW16804   1.150   1.082  12.706 -0.6259  0.1131  0.7410
 1724SOL    HW116805   1.204   1.145  12.754 -1.2663  0.2676  1.2621
 1724SOL    HW216806   1.071   1.091  12.759 -0.2308 -1.3412  1.5649
 1725SOL     OW16807   4.422   0.413   4.011 -0.3541 -0.3887  0.3717
 1725SOL    HW116808   4.421   0.378   3.922  0.1017 -3.5868  1.5854
 1725SOL    HW216809   4.483   0.352   4.053  0.1132 -0.9515 -1.1275
 1726SOL     OW16810   4.510   4.058   6.672 -0.9077  0.0823  0.3547
 1726SOL    HW116811   4.459   4.128   6.714 -0.1491  0.9002 -0.0839
 1726SOL    HW216812   4.442   3.996   6.646  1.1353 -1.7350 -0.5546
 1727SOL     OW16813   0.539   2.496   4.115 -0.1255 -0.4937 -0.3641
 1727SOL    HW116814   0.543   2.401   4.110 -0.8617 -0.4829 -1.1670
 1727SOL    HW216815   0.628   2.514   4.145 -1.0895  0.4361  1.9422
 1728SOL     OW16816   4.283   3.821   7.676  0.1147  0.0112  0.3022
 1728SOL    HW116817   4.213   3.803   7.614  1.0709  2.1221 -1.3993
 1728SOL    HW216818   4.311   3.904   7.638  1.5156 -0.1869  0.9047
 1729SOL     OW16819   4.156   1.050  15.729 -0.0820  0.1032  0.4145
 1729SOL    HW116820   4.081   1.058  15.670  0.7507 -0.6583 -0.7523
 1729SOL    HW216821   4.210   1.121  15.693 -0.1695  0.4738  1.0165
 1730SOL     OW16822   0.199   2.787   5.052  0.1131  0.5502 -0.2306
 1730SOL    HW116823   0.252   2.713   5.083 -0.8372 -0.6027 -1.3395
 1730SOL    HW216824   0.232   2.824   4.971  1.8568  1.4460  0.9037
 1731SOL     OW16825   0.337   1.779   8.798  0.3007 -0.2689  0.1443
 1731SOL    HW116826   0.278   1.816   8.864 -1.5066 -0.7003 -1.2544
 1731SOL    HW216827   0.323   1.684   8.806 -2.0756  0.1982  1.4260
 1732SOL     OW16828   4.087   1.649   7.596  0.2889  0.2199  0.1108
 1732SOL    HW116829   4.069   1.584   7.663 -0.2614  0.9734  0.6993
 1732SOL    HW216830   4.178   1.679   7.606  1.0336 -1.7347 -0.8602
 1733SOL     OW16831   4.205   1.313  11.329 -0.1104 -0.2524 -0.0120
 1733SOL    HW116832   4.112   1.317  11.351 -0.6949  0.2176 -2.5999
 1733SOL    HW216833   4.205   1.330  11.235  0.1784  0.0231  0.0395
 1734SOL     OW16834   4.565   1.252   9.370 -0.1116  0.1992 -0.6411
 1734SOL    HW116835   4.506   1.304   9.425  2.2879  1.4054  0.8506
 1734SOL    HW216836   4.587   1.317   9.302 -0.5500  0.2853 -0.6987
 1735SOL     OW16837   4.287   4.635   5.693 -0.6281  0.7539  0.0122
 1735SOL    HW116838   4.339   4.557   5.672 -1.0261  0.8568 -1.3811
 1735SOL    HW216839   4.218   4.591   5.744 -0.1576  0.1512  0.1344
 1736SOL     OW16840   2.186   1.701   6.189  0.3017  0.0216 -0.0603
 1736SOL    HW116841   2.177   1.775   6.249  1.3347  1.3773 -1.5748
 1736SOL    HW216842   2.227   1.635   6.244  0.9952 -0.0693 -0.6814
 1737SOL     OW16843   2.367   0.994   7.142 -0.5591 -0.0417  0.0608
 1737SOL    HW116844   2.404   0.910   7.117 -0.0631  0.6542 -1.5449
 1737SOL    HW216845   2.426   1.049   7.090 -0.4656  2.9547  3.3096
 1738SOL     OW16846   4.058   1.027   9.224  0.3294 -0.7721 -0.5689
 1738SOL    HW116847   3.983   1.004   9.278 -0.2627 -0.6731 -1.3479
 1738SOL    HW216848   4.023   1.013   9.136  0.2729 -0.2412 -0.6289
 1739SOL     OW16849   1.272   0.195   6.304 -0.3162  0.6971 -0.1948
 1739SOL    HW116850   1.329   0.187   6.381 -1.3117  1.2812  0.5944
 1739SOL    HW216851   1.196   0.226   6.352 -0.3496 -0.8486  0.7308
 1740SOL     OW16852   0.724   0.683   5.708  0.4714  0.1320  0.1220
 1740SOL    HW116853   0.726   0.659   5.800 -1.5516 -0.2645  0.0617
 1740SOL    HW216854   0.718   0.777   5.724 -0.0129  0.7185 -3.4634
 1741SOL     OW16855   0.243   3.141   6.033 -0.2960  0.0367  0.1850
 1741SOL    HW116856   0.192   3.151   6.113  0.3624  4.5575  0.0633
 1741SOL    HW216857   0.188   3.191   5.972 -0.1038 -0.5831 -0.4943
 1742SOL     OW16858   3.175   0.113   7.727 -0.3017 -0.2772  0.2735
 1742SOL    HW116859   3.122   0.037   7.705 -0.1957 -0.2253 -0.1464
 1742SOL    HW216860   3.266   0.087   7.745  0.6480  0.8245 -3.0811
 1743SOL     OW16861   1.131   4.410   1.742  0.1291  0.7508  0.0561
 1743SOL    HW116862   1.041   4.394   1.712 -0.2876  0.5449  1.4265
 1743SOL    HW216863   1.107   4.428   1.833  0.9819 -2.1504  0.8646
 1744SOL     OW16864   2.285   2.579  16.426 -0.0180 -0.8235  0.9175
 1744SOL    HW116865   2.245   2.505  16.471 -0.1292  0.1512  2.4280
 1744SOL    HW216866   2.244   2.640  16.487 -1.4807 -0.4763 -0.4206
 1745SOL     OW16867   0.217   1.198   8.151 -0.3829 -0.0175 -0.3623
 1745SOL    HW116868   0.186   1.289   8.148 -0.0572  0.0695 -0.9910
 1745SOL    HW216869   0.146   1.159   8.202 -0.1760 -0.1477 -0.1689
 1746SOL     OW16870   0.881   0.153   2.080  0.0746 -0.0655 -0.6124
 1746SOL    HW116871   0.962   0.134   2.033 -0.1894 -1.3226 -0.5692
 1746SOL    HW216872   0.845   0.225   2.029  0.4208 -1.1716 -2.3997
 1747SOL     OW16873   0.175   3.378  10.259 -0.2467  0.0674  0.1919
 1747SOL    HW116874   0.202   3.374  10.351 -5.0898  0.9509  1.6496
 1747SOL    HW216875   0.166   3.284  10.244 -3.0800  0.3816 -0.1475
 1748SOL     OW16876   3.615   0.011   4.555 -0.1353  0.2337 -0.4505
 1748SOL    HW116877   3.626   4.731   4.649 -1.0372 -3.1164 -0.9248
 1748SOL    HW216878   3.628   4.657   4.528 -0.4076  0.8225 -2.5311
 1749SOL     OW16879   2.413   3.765  10.539  0.0943 -0.1379  0.6323
 1749SOL    HW116880   2.359   3.688  10.551 -0.9046  0.3217 -0.9435
 1749SOL    HW216881   2.371   3.831  10.594 -2.7092 -0.4465 -1.1693
 1750SOL     OW16882   1.023   3.414   0.880 -0.0752 -0.5895  0.2301
 1750SOL    HW116883   1.047   3.506   0.870 -0.8732 -0.2660  1.3011
 1750SOL    HW216884   1.084   3.386   0.948  0.7732 -0.9756 -0.6921
 1751SOL     OW16885   2.004   2.207   3.080  0.1543 -0.6129  0.2298
 1751SOL    HW116886   2.016   2.262   3.157  0.8420 -0.9720  0.3747
 1751SOL    HW216887   1.963   2.128   3.115 -0.1251 -0.2929  0.6155
 1752SOL     OW16888   0.884   4.541  16.405  0.5722 -0.5822  0.1029
 1752SOL    HW116889   0.958   4.541  16.466  0.1253  0.3000  0.6500
 1752SOL    HW216890   0.882   4.629  16.368  1.0716  0.1299  1.7456
 1753SOL     OW16891   2.506   1.397   6.369  0.1036 -0.9457 -0.5541
 1753SOL    HW116892   2.449   1.320   6.362 -0.4330 -0.6308  0.3540
 1753SOL    HW216893   2.562   1.368   6.441  0.5799  0.0892 -0.5167
 1754SOL     OW16894   2.022   3.906   7.466 -0.3231  0.0204  0.3239
 1754SOL    HW116895   1.949   3.921   7.406 -3.2717 -0.8242  3.7476
 1754SOL    HW216896   2.096   3.914   7.405 -0.8877  1.8300 -0.1299
 1755SOL     OW16897   1.271   1.690   1.720  0.4568  0.1237  0.2276
 1755SOL    HW116898   1.349   1.642   1.690  0.3921  1.2461 -1.6968
 1755SOL    HW216899   1.264   1.762   1.658  1.5977  1.5759  1.8061
 1756SOL     OW16900   2.591   1.084   8.394 -0.0317  0.3390  0.3013
 1756SOL    HW116901   2.550   1.058   8.477  0.5950 -0.9230  0.2196
 1756SOL    HW216902   2.514   1.105   8.341  1.7898  3.7051 -0.9842
 1757SOL     OW16903   2.688   1.416   3.968 -0.1235 -0.3766 -0.3151
 1757SOL    HW116904   2.594   1.434   3.971 -0.2691 -0.9278 -1.4729
 1757SOL    HW216905   2.704   1.399   4.061 -0.4645 -1.8187 -0.5214
 1758SOL     OW16906   2.583   4.709  16.409  0.0731 -0.2242  0.5279
 1758SOL    HW116907   2.581   0.066  16.429  1.4748 -0.8863  3.7599
 1758SOL    HW216908   2.573   4.708  16.314  3.0774  0.5203  0.1918
 1759SOL     OW16909   1.598   3.917  12.349  0.7158  0.7255 -0.1072
 1759SOL    HW116910   1.638   3.972  12.416 -0.2261  0.8701  0.3346
 1759SOL    HW216911   1.673   3.909  12.289 -0.2040 -2.2030 -0.8544
 1760SOL     OW16912   1.838   0.034   7.953 -0.9245  0.7777  0.1213
 1760SOL    HW116913   1.930   0.038   7.978 -0.5711 -1.4037 -0.8181
 1760SOL    HW216914   1.793   4.716   8.018 -2.0446  1.5201 -0.0474
 1761SOL     OW16915   1.340   3.552  12.348  0.0453 -0.5585 -0.0265
 1761SOL    HW116916   1.356   3.460  12.369 -0.1824 -0.8055 -0.9176
 1761SOL    HW216917   1.399   3.563  12.273  0.2376  1.8076  0.4732
 1762SOL     OW16918   1.915   2.504   7.468 -0.3957  0.5196  0.1242
 1762SOL    HW116919   1.848   2.436   7.475 -0.6651  0.7882  0.1310
 1762SOL    HW216920   1.915   2.506   7.372  0.1180 -0.8223  0.0888
 1763SOL     OW16921   3.126   3.213   9.809 -0.0342 -0.5839  0.5130
 1763SOL    HW116922   3.100   3.181   9.723  0.9588 -1.6511  0.6218
 1763SOL    HW216923   3.197   3.271   9.782 -2.5035  0.5763 -3.4752
 1764SOL     OW16924   2.488   2.993   0.635  0.2760  0.1356 -0.2114
 1764SOL    HW116925   2.563   2.989   0.576 -0.0690 -2.7857 -0.4591
 1764SOL    HW216926   2.429   3.058   0.597  2.0782  1.7669 -0.2127
 1765SOL     OW16927   3.697   3.085   5.264  0.5842 -0.4733 -0.1563
 1765SOL    HW116928   3.609   3.051   5.245  1.3088 -1.4602 -1.7600
 1765SOL    HW216929   3.669   3.175   5.247  0.7593 -0.5402 -0.8165
 1766SOL     OW16930   3.869   1.879   7.723  0.4928  0.2948 -0.0484
 1766SOL    HW116931   3.784   1.839   7.707  0.1029  1.5949 -1.2435
 1766SOL    HW216932   3.911   1.853   7.641 -0.7530  1.2677 -0.9881
 1767SOL     OW16933   0.957   4.270  16.278 -0.1582  0.0205 -0.2844
 1767SOL    HW116934   0.946   4.354  16.324  1.1711 -0.0451  0.1587
 1767SOL    HW216935   1.036   4.234  16.318 -0.5874  0.6109  1.1003
 1768SOL     OW16936   3.537   1.618   5.808  0.1676 -0.2506  0.1053
 1768SOL    HW116937   3.570   1.533   5.778  1.2765  0.2421 -0.0737
 1768SOL    HW216938   3.610   1.656   5.856  0.4795 -0.9508  0.1823
 1769SOL     OW16939   0.109   3.415  14.774  0.1490  0.8533 -0.0176
 1769SOL    HW116940   0.017   3.419  14.800 -0.1422  1.6785 -1.1633
 1769SOL    HW216941   0.100   3.373  14.688 -0.0505  0.1522  0.3444
 1770SOL     OW16942   3.426   3.491   7.578  0.1474 -0.3492 -0.1698
 1770SOL    HW116943   3.460   3.499   7.667 -0.3931  2.2773 -0.1930
 1770SOL    HW216944   3.504   3.499   7.523 -0.1992 -0.9168 -0.7382
 1771SOL     OW16945   1.933   1.972   3.209 -0.3366  0.2811 -0.5585
 1771SOL    HW116946   2.028   1.967   3.221 -0.5147 -2.1670 -0.1177
 1771SOL    HW216947   1.894   1.913   3.274 -0.5032 -2.0436 -2.7780
 1772SOL     OW16948   3.818   3.209   3.875  0.1938  0.4794 -0.1178
 1772SOL    HW116949   3.903   3.179   3.907 -0.5019 -0.7943  0.5670
 1772SOL    HW216950   3.842   3.301   3.887  1.7095 -0.1066  1.3506
 1773SOL     OW16951   4.344   2.290   7.791 -0.2284  1.4792 -0.6194
 1773SOL    HW116952   4.429   2.299   7.746 -0.7680  2.8668 -1.3591
 1773SOL    HW216953   4.360   2.340   7.871  1.4635  2.5414 -1.6005
 1774SOL     OW16954   4.349   2.030   3.689 -0.2020  0.0469  0.3298
 1774SOL    HW116955   4.365   2.022   3.783 -0.8161 -3.4782  0.1232
 1774SOL    HW216956   4.386   1.948   3.659  1.3123  0.6579  0.5507
 1775SOL     OW16957   0.895   2.060   4.389  0.3140 -0.8416  0.0281
 1775SOL    HW116958   0.950   1.987   4.361 -0.1491 -0.3230 -2.2380
 1775SOL    HW216959   0.810   2.049   4.346  1.3917  1.0080 -2.6118
 1776SOL     OW16960   4.535   3.915   1.473 -0.5671  0.3581  0.5536
 1776SOL    HW116961   4.580   3.998   1.463 -1.8540  1.0677  0.7089
 1776SOL    HW216962   4.519   3.888   1.382  0.1711 -0.8703  0.7792
 1777SOL     OW16963   2.537   4.175   4.891  0.0035 -0.0115 -0.1383
 1777SOL    HW116964   2.571   4.134   4.971 -2.3289 -0.5933  0.5463
 1777SOL    HW216965   2.532   4.103   4.827 -2.7534  0.3498 -0.3297
 1778SOL     OW16966   1.113   3.858   3.002 -0.2927 -0.1799  0.1370
 1778SOL    HW116967   1.083   3.930   2.945  0.6451 -0.9260 -1.2763
 1778SOL    HW216968   1.086   3.784   2.948  1.3793 -0.0735 -0.8123
 1779SOL     OW16969   3.993   3.955  12.046  0.2726  0.1083  0.1300
 1779SOL    HW116970   4.050   4.010  12.100 -0.6058  0.4969  0.6624
 1779SOL    HW216971   3.908   3.963  12.088 -0.4922  0.6448 -1.5001
 1780SOL     OW16972   2.144   3.395   1.361 -0.5635 -0.1573 -0.2641
 1780SOL    HW116973   2.122   3.303   1.344  1.2237 -0.6643  0.2026
 1780SOL    HW216974   2.056   3.432   1.351 -0.0937  1.0502  0.1250
 1781SOL     OW16975   4.102   2.223   7.897  0.1887 -0.3311  0.6119
 1781SOL    HW116976   4.051   2.298   7.868 -0.9400 -1.6215 -0.7384
 1781SOL    HW216977   4.187   2.229   7.852 -0.4722  1.9081 -0.3392
 1782SOL     OW16978   3.822   3.503   9.257 -0.0782 -0.5218 -0.0785
 1782SOL    HW116979   3.892   3.523   9.319 -0.5034  2.1590 -0.4855
 1782SOL    HW216980   3.758   3.456   9.311  0.7964  0.5996  1.9601
 1783SOL     OW16981   1.418   1.310  13.496  0.0896 -0.0248  0.0027
 1783SOL    HW116982   1.371   1.230  13.522  2.6099 -1.5122  0.0174
 1783SOL    HW216983   1.505   1.275  13.516  0.5321  0.9397 -0.2629
 1784SOL     OW16984   1.828   0.892   6.643 -0.1829  0.3507  0.5533
 1784SOL    HW116985   1.858   0.887   6.552 -0.0153  5.0537  0.3444
 1784SOL    HW216986   1.903   0.873   6.700  1.2923  0.3288 -1.3999
 1785SOL     OW16987   0.125   2.242  10.713  0.4629  0.3783  0.7005
 1785SOL    HW116988   0.169   2.230  10.797  1.7758 -2.1092 -0.3479
 1785SOL    HW216989   0.159   2.327  10.686 -1.0668  0.1910 -1.7570
 1786SOL     OW16990   2.669   0.411   5.532  0.2464  0.5826  0.2910
 1786SOL    HW116991   2.689   0.500   5.501  0.3099  0.1029 -1.0342
 1786SOL    HW216992   2.741   0.397   5.594  1.7454  0.3657 -1.5057
 1787SOL     OW16993   0.056   4.357   0.602  0.8640 -1.1786 -0.5671
 1787SOL    HW116994   4.712   4.366   0.550 -1.1176  0.1314  2.7058
 1787SOL    HW216995   0.033   4.413   0.676 -0.8111 -2.1025 -0.3874
 1788SOL     OW16996   0.979   3.524   8.817 -0.8481  0.2830 -0.0331
 1788SOL    HW116997   0.967   3.488   8.730  0.8343 -0.0205 -0.1362
 1788SOL    HW216998   1.075   3.516   8.819 -0.8506  0.8073  2.3161
 1789SOL     OW16999   0.958   3.060   8.118 -0.4537  0.6551  0.9538
 1789SOL    HW117000   0.955   3.156   8.116  1.1354  0.6678 -0.4715
 1789SOL    HW217001   0.930   3.039   8.207  1.5779  1.4396  1.7958
 1790SOL     OW17002   3.438   2.268  14.067 -0.5148 -0.4156 -0.1553
 1790SOL    HW117003   3.412   2.181  14.096 -3.4097  0.5391  0.1560
 1790SOL    HW217004   3.360   2.298  14.019 -0.9599 -1.2293  0.0532
 1791SOL     OW17005   3.093   1.672   5.983 -0.1458  0.1766  0.5802
 1791SOL    HW117006   3.088   1.586   6.024  1.8713 -0.2149 -0.0104
 1791SOL    HW217007   3.178   1.697   6.019  0.7789 -1.0201 -0.7692
 1792SOL     OW17008   0.963   3.700   1.865 -0.0082  0.0791 -0.3577
 1792SOL    HW117009   0.941   3.706   1.772 -2.7519 -0.0147  0.2624
 1792SOL    HW217010   0.938   3.611   1.887 -1.6835  0.6339  0.0409
 1793SOL     OW17011   2.977   3.019   1.818  0.0952 -0.0803  0.0746
 1793SOL    HW117012   2.904   2.963   1.791 -2.1721  2.6015  0.5856
 1793SOL    HW217013   2.926   3.088   1.861 -0.0315 -0.4720  0.5432
 1794SOL     OW17014   4.202   3.678   9.679  0.2782 -0.1819 -0.3528
 1794SOL    HW117015   4.268   3.627   9.632 -0.5196  0.1624 -1.8620
 1794SOL    HW217016   4.263   3.748   9.701 -1.8454  0.9898  1.8564
 1795SOL     OW17017   1.405   2.529   4.281  0.1542  0.6658  0.1392
 1795SOL    HW117018   1.488   2.491   4.311 -0.5570 -0.0868  1.1602
 1795SOL    HW217019   1.340   2.469   4.318 -1.6091  1.7587 -1.1548
 1796SOL     OW17020   0.171   0.665   2.459 -0.6050  0.1693  0.1490
 1796SOL    HW117021   0.138   0.671   2.369  0.6543  0.1033 -0.3157
 1796SOL    HW217022   0.152   0.571   2.468 -0.9346  0.2070 -0.1701
 1797SOL     OW17023   2.917   0.456   6.203  0.5635 -0.0984 -0.1873
 1797SOL    HW117024   3.006   0.491   6.199 -0.0279  1.3213 -0.7361
 1797SOL    HW217025   2.949   0.367   6.185 -1.7439 -0.9084 -0.3001
 1798SOL     OW17026   2.941   3.056   3.615  0.1780 -0.2693 -0.3539
 1798SOL    HW117027   2.928   3.129   3.554 -0.2483 -1.1898 -1.3539
 1798SOL    HW217028   2.887   2.987   3.578 -1.2905  0.1877  0.9589
 1799SOL     OW17029   1.281   0.923  10.497  0.3581  0.0151 -0.2483
 1799SOL    HW117030   1.325   0.846  10.460 -0.0022  0.3832 -1.4185
 1799SOL    HW217031   1.361   0.970  10.520 -1.2100  2.0021  1.1234
 1800SOL     OW17032   0.018   3.231   5.310 -0.2134 -0.2580 -0.1546
 1800SOL    HW117033   4.686   3.276   5.261  0.8756 -1.3102 -2.6755
 1800SOL    HW217034   4.705   3.185   5.378 -1.6079 -0.4820 -1.3219
 1801SOL     OW17035   1.197   4.135   3.145  0.3976 -0.5649  0.0657
 1801SOL    HW117036   1.148   4.056   3.168 -1.2787  0.2726 -0.6223
 1801SOL    HW217037   1.121   4.184   3.113  1.7857  2.1822  0.9324
 1802SOL     OW17038   2.647   0.817   2.795 -0.2693 -0.1358 -0.1619
 1802SOL    HW117039   2.664   0.827   2.701 -1.8721  1.8922 -0.2509
 1802SOL    HW217040   2.616   0.906   2.813  2.1104  0.9830 -1.5538
 1803SOL     OW17041   3.366   2.940   7.731  0.0176  0.3836 -0.0909
 1803SOL    HW117042   3.377   3.024   7.686 -1.8097  1.0035  0.6440
 1803SOL    HW217043   3.459   2.919   7.746 -0.1907  0.8976  1.8867
 1804SOL     OW17044   1.834   3.647   3.840 -0.0568  0.3205  0.4621
 1804SOL    HW117045   1.882   3.578   3.794  0.8144  0.5248  1.0659
 1804SOL    HW217046   1.794   3.587   3.903 -1.4451 -1.3963 -2.0314
 1805SOL     OW17047   2.137   0.986   2.258 -0.7750 -0.2531  0.5399
 1805SOL    HW117048   2.211   1.024   2.305 -0.4033  0.4087 -0.5908
 1805SOL    HW217049   2.183   0.977   2.175  0.8375 -0.9021  1.5073
 1806SOL     OW17050   1.373   2.953   8.048 -0.0529  0.2306 -0.5815
 1806SOL    HW117051   1.388   2.985   8.137  0.5520 -2.0554  0.1197
 1806SOL    HW217052   1.314   2.879   8.066  0.2147  0.6407  1.9302
 1807SOL     OW17053   2.545   0.749   1.338  0.6084 -0.3418 -0.1712
 1807SOL    HW117054   2.472   0.696   1.369 -0.0615  1.9604  2.2552
 1807SOL    HW217055   2.599   0.752   1.418  0.4604 -0.7739 -0.0554
 1808SOL     OW17056   0.165   4.407   7.180  0.0690  0.7906  0.0980
 1808SOL    HW117057   0.202   4.319   7.165 -0.7577  0.8598 -2.3130
 1808SOL    HW217058   0.224   4.450   7.242  0.3982  2.4080 -1.3276
 1809SOL     OW17059   2.600   3.530   4.049 -0.6699 -0.3497  0.4683
 1809SOL    HW117060   2.553   3.458   4.093  0.5060 -0.9611  0.7246
 1809SOL    HW217061   2.547   3.599   4.088 -0.5986 -1.0521  1.8191
 1810SOL     OW17062   2.881   1.482   3.794 -0.0473  0.2299  0.2016
 1810SOL    HW117063   2.871   1.439   3.709  1.0776 -0.3676  0.3706
 1810SOL    HW217064   2.827   1.427   3.851 -0.2430 -0.4417 -0.6299
 1811SOL     OW17065   1.302   2.746   8.384  0.2239 -0.4750  0.0517
 1811SOL    HW117066   1.337   2.663   8.353  1.8432  0.6599 -1.1285
 1811SOL    HW217067   1.227   2.759   8.327  0.5486  0.2863 -0.2025
 1812SOL     OW17068   4.350   3.543  13.319  0.2278 -0.3709 -0.0151
 1812SOL    HW117069   4.379   3.563  13.408  1.9550 -2.6633 -0.0748
 1812SOL    HW217070   4.267   3.501  13.339  0.7059 -0.4333  1.8198
 1813SOL     OW17071   4.290   0.862   9.701  0.3648  0.4411 -0.3294
 1813SOL    HW117072   4.313   0.769   9.708 -2.5114 -0.2672 -0.4071
 1813SOL    HW217073   4.372   0.906   9.679  0.2793  2.5032  3.5504
 1814SOL     OW17074   1.403   3.167  13.727  0.1238 -0.1376 -0.0805
 1814SOL    HW117075   1.328   3.112  13.707 -0.0019 -0.5298  1.5066
 1814SOL    HW217076   1.361   3.239  13.774  1.9921  0.0063  1.3946
 1815SOL     OW17077   0.959   2.400   7.765  0.0242 -0.1967 -0.2205
 1815SOL    HW117078   0.914   2.477   7.800  0.3173 -2.6652  5.6835
 1815SOL    HW217079   0.949   2.345   7.843 -3.0343 -0.0221 -0.4939
 1816SOL     OW17080   4.590   2.047  10.936 -0.3706 -0.2763  0.1812
 1816SOL    HW117081   4.664   1.998  10.971  0.0849  2.2205  2.6842
 1816SOL    HW217082   4.550   2.069  11.019 -3.1260 -0.6792 -1.0390
 1817SOL     OW17083   0.598   1.844   0.526  0.2183 -0.5259 -0.1479
 1817SOL    HW117084   0.545   1.872   0.451  2.5438 -1.8769 -2.2900
 1817SOL    HW217085   0.654   1.773   0.494 -0.6380 -0.6221 -1.4221
 1818SOL     OW17086   0.622   4.490   7.758  0.7463  0.1102  0.5850
 1818SOL    HW117087   0.676   4.430   7.809 -0.2818  0.4931  2.1471
 1818SOL    HW217088   0.677   4.524   7.687 -1.3062 -0.7768 -1.4071
 1819SOL     OW17089   0.181   3.471   8.089 -0.3421 -0.2396 -0.2217
 1819SOL    HW117090   0.122   3.479   8.014  0.8454  0.1273 -1.1169
 1819SOL    HW217091   0.220   3.559   8.086 -2.8123  0.8077 -1.3529
 1820SOL     OW17092   2.937   1.067   4.175 -0.7092 -0.0834 -0.7890
 1820SOL    HW117093   2.974   1.154   4.190 -3.0011  0.7404  0.1913
 1820SOL    HW217094   3.014   1.011   4.183 -1.0836 -0.3335  1.1713
 1821SOL     OW17095   4.306   0.663   7.684  0.3161 -0.3340  0.1333
 1821SOL    HW117096   4.371   0.732   7.667 -0.2481 -0.0474 -0.9046
 1821SOL    HW217097   4.317   0.645   7.777 -1.6286 -0.8289  0.2691
 1822SOL     OW17098   1.167   3.979   5.714 -0.1325 -0.5731 -0.2581
 1822SOL    HW117099   1.220   3.941   5.784 -1.1458 -0.4921  0.5530
 1822SOL    HW217100   1.081   3.970   5.754  0.4203  0.6121  1.2095
 1823SOL     OW17101   2.261   1.249   9.476  0.6684 -0.3424  0.3087
 1823SOL    HW117102   2.259   1.285   9.565  1.3652  0.1971  0.1099
 1823SOL    HW217103   2.332   1.184   9.472  2.0142  1.0834  0.9501
 1824SOL     OW17104   0.109   0.682   4.085  0.1621  0.4384 -0.5134
 1824SOL    HW117105   0.131   0.604   4.035 -0.5172 -0.8627  1.2056
 1824SOL    HW217106   0.099   0.651   4.175 -0.4805 -1.4204 -1.2405
 1825SOL     OW17107   3.449   3.280   8.794 -0.0365 -1.2770 -0.3127
 1825SOL    HW117108   3.523   3.225   8.820  1.0034  1.0425  1.6499
 1825SOL    HW217109   3.469   3.355   8.849  0.1088 -0.9525 -0.8118
 1826SOL     OW17110   2.375   2.326   3.524 -0.4579 -0.4002  0.0379
 1826SOL    HW117111   2.465   2.348   3.500 -1.0508 -2.2186 -3.8428
 1826SOL    HW217112   2.342   2.411   3.552 -1.4785 -1.1969  1.2590
 1827SOL     OW17113   0.764   2.327   9.454 -0.2543 -0.7924  0.4917
 1827SOL    HW117114   0.780   2.371   9.537  0.1527 -1.7538  0.9191
 1827SOL    HW217115   0.714   2.394   9.407  0.4699  0.2461  1.2177
 1828SOL     OW17116   2.735   0.814   8.512 -0.2907 -0.5240  0.1306
 1828SOL    HW117117   2.745   0.874   8.585  0.0147 -0.4730  0.0443
 1828SOL    HW217118   2.807   0.855   8.465 -1.1472 -1.2944 -1.8830
 1829SOL     OW17119   2.638   4.108   2.923  0.2591  0.0922  0.5719
 1829SOL    HW117120   2.577   4.087   2.853  2.4396  0.1929 -1.3407
 1829SOL    HW217121   2.574   4.146   2.984 -0.9214 -4.0817  1.9454
 1830SOL     OW17122   0.291   0.265   1.644 -0.7178 -0.6308 -0.2358
 1830SOL    HW117123   0.318   0.328   1.577 -0.4182 -1.0170 -0.4799
 1830SOL    HW217124   0.365   0.205   1.638 -0.2206  0.4578 -4.8713
 1831SOL     OW17125   2.587   0.217   4.465  0.1516  0.2924  0.0958
 1831SOL    HW117126   2.636   0.184   4.540  0.1204 -1.1969 -0.5416
 1831SOL    HW217127   2.524   0.280   4.501 -0.1543  0.8775 -1.4371
 1832SOL     OW17128   0.384   0.761   2.275  0.4946  0.0469  0.0958
 1832SOL    HW117129   0.353   0.851   2.287 -0.0621 -0.1704  0.2853
 1832SOL    HW217130   0.344   0.724   2.353 -1.4921 -0.4513 -1.1554
 1833SOL     OW17131   0.748   0.564   8.586  0.1535 -0.2854 -0.2907
 1833SOL    HW117132   0.697   0.487   8.563  1.3482 -0.9522 -0.7058
 1833SOL    HW217133   0.680   0.630   8.597 -0.3951 -0.7974 -0.6772
 1834SOL     OW17134   0.249   3.989   7.247  0.1749 -0.2800 -0.7832
 1834SOL    HW117135   0.208   4.039   7.176 -1.0012  2.3029  1.7177
 1834SOL    HW217136   0.177   3.927   7.250 -1.6936  1.9203  0.1700
 1835SOL     OW17137   2.450   2.614   3.305  0.3683  0.3202  0.0282
 1835SOL    HW117138   2.440   2.531   3.259 -0.8871  0.2169  0.4946
 1835SOL    HW217139   2.360   2.646   3.296 -0.1040 -0.5566  1.6204
 1836SOL     OW17140   0.983   4.209   9.236 -0.2070  0.2301 -0.0323
 1836SOL    HW117141   0.953   4.139   9.295  1.2873 -0.1790  0.2288
 1836SOL    HW217142   1.050   4.246   9.293 -1.9435 -0.2655  2.3941
 1837SOL     OW17143   2.138   3.764   5.953 -0.1032  0.1214 -0.5575
 1837SOL    HW117144   2.095   3.684   5.983  1.2470  0.3265  1.9026
 1837SOL    HW217145   2.077   3.803   5.890 -0.3179  0.4442 -0.1525
 1838SOL     OW17146   1.486   0.537   8.395 -0.2477  0.1325 -0.4636
 1838SOL    HW117147   1.504   0.457   8.345  3.6819  0.2774  0.6482
 1838SOL    HW217148   1.536   0.527   8.477 -1.4497  2.1752  0.4934
 1839SOL     OW17149   4.577   2.572   6.348  0.7210  0.2077  0.1369
 1839SOL    HW117150   4.631   2.634   6.398  0.1968  0.8456 -0.0887
 1839SOL    HW217151   4.651   2.526   6.310  1.0607  0.0706  0.9533
 1840SOL     OW17152   3.079   1.539   0.294 -0.1588 -0.4772 -0.1486
 1840SOL    HW117153   3.088   1.594   0.217 -2.1941  0.0507 -0.0054
 1840SOL    HW217154   3.074   1.610   0.358  0.5292  0.3431 -1.0185
 1841SOL     OW17155   0.657   0.096  10.029  0.0956 -0.3883  0.4234
 1841SOL    HW117156   0.632   0.073   9.940  4.4696 -0.2407 -0.8371
 1841SOL    HW217157   0.738   0.144  10.013 -1.2223  1.3199 -1.0896
 1842SOL     OW17158   0.883   3.132   8.741  0.1113  0.1630  0.1507
 1842SOL    HW117159   0.839   3.077   8.675 -0.5596 -0.4814  1.1235
 1842SOL    HW217160   0.819   3.143   8.812 -2.9459 -0.7434 -2.4704
 1843SOL     OW17161   1.881   3.978   3.251  0.3954  0.0713 -0.1050
 1843SOL    HW117162   1.846   4.048   3.196  0.4400  0.5949  0.5296
 1843SOL    HW217163   1.973   3.982   3.225  0.3364 -0.8073 -0.4311
 1844SOL     OW17164   3.524   0.790   2.734  0.4274 -0.0643  0.0531
 1844SOL    HW117165   3.516   0.709   2.784 -2.1850  0.9106  1.1728
 1844SOL    HW217166   3.603   0.835   2.763  1.0664  0.0942 -1.8682
 1845SOL     OW17167   2.036   3.651   6.822 -0.0091  0.7804  0.8932
 1845SOL    HW117168   1.960   3.666   6.878 -0.7120 -0.7670  0.3471
 1845SOL    HW217169   2.061   3.733   6.779 -2.4087  1.4571  0.7736
 1846SOL     OW17170   4.368   1.047   7.090 -0.7371  0.3185  0.4480
 1846SOL    HW117171   4.406   1.026   7.175  1.1777  0.4384 -0.3992
 1846SOL    HW217172   4.433   1.110   7.060 -0.2530 -0.4018  0.0105
 1847SOL     OW17173   0.958   2.492   4.849  0.1417  0.5363  0.2880
 1847SOL    HW117174   0.917   2.451   4.926 -1.7156 -1.5487 -1.7965
 1847SOL    HW217175   0.945   2.429   4.778 -0.5312 -1.5949  2.2665
 1848SOL     OW17176   3.131   1.298   1.207  0.0100  0.4535 -0.1018
 1848SOL    HW117177   3.218   1.284   1.169  0.0235 -0.7640  0.3460
 1848SOL    HW217178   3.117   1.392   1.198  2.4991  0.9331  0.7843
 1849SOL     OW17179   4.018   3.341   5.458  0.1806 -0.2522  0.2214
 1849SOL    HW117180   3.977   3.255   5.471  1.1921 -0.5943  1.1236
 1849SOL    HW217181   3.946   3.388   5.499  0.2173 -0.7412  0.8550
 1850SOL     OW17182   1.065   4.033  16.708 -0.2550  0.2949  0.2665
 1850SOL    HW117183   0.969   4.039  16.707 -0.5065 -4.0752  1.4185
 1850SOL    HW217184   1.082   4.069  16.795  1.1618  1.3612 -0.4577
 1851SOL     OW17185   3.713   3.460   2.815 -0.3934 -0.2925  0.2471
 1851SOL    HW117186   3.645   3.402   2.780  0.1116 -1.7554  1.6613
 1851SOL    HW217187   3.793   3.434   2.769 -1.8401 -1.1461 -1.7868
 1852SOL     OW17188   0.919   1.749  12.401 -0.1753  0.0095  0.1804
 1852SOL    HW117189   0.879   1.672  12.363  0.7047 -0.5303  0.3479
 1852SOL    HW217190   1.005   1.710  12.416 -0.6015 -0.8088  0.4820
 1853SOL     OW17191   0.525   3.683  11.078  0.1743  0.2179 -0.0073
 1853SOL    HW117192   0.516   3.779  11.072  1.4905  0.3587  0.3034
 1853SOL    HW217193   0.592   3.696  11.144 -0.8156  0.7808  0.8989
 1854SOL     OW17194   1.599   2.515   9.869  0.4116  0.2676 -0.6651
 1854SOL    HW117195   1.656   2.438   9.870 -1.1523 -0.8897 -1.0441
 1854SOL    HW217196   1.665   2.582   9.848  0.8980 -0.5732 -1.8107
 1855SOL     OW17197   0.000   2.726   8.141  0.8091  0.0952 -0.0527
 1855SOL    HW117198   4.724   2.697   8.050  1.1472  0.3581 -0.1851
 1855SOL    HW217199   0.070   2.789   8.121  1.6013 -0.4192  1.1256
 1856SOL     OW17200   2.013   0.109   4.745  0.1258  0.2391 -0.2834
 1856SOL    HW117201   2.094   0.082   4.788  1.0489  2.3081 -0.7223
 1856SOL    HW217202   1.941   0.053   4.773 -0.2171  0.9952  0.3435
 1857SOL     OW17203   2.647   0.393   1.143  0.4120  0.0060 -0.5273
 1857SOL    HW117204   2.577   0.408   1.206  0.7200 -2.0480  0.3266
 1857SOL    HW217205   2.723   0.398   1.201  1.4855  0.2344 -1.9454
 1858SOL     OW17206   3.354   2.236   9.158 -0.4260  0.1175  0.3843
 1858SOL    HW117207   3.330   2.309   9.215 -2.2728  2.4184 -3.3103
 1858SOL    HW217208   3.404   2.182   9.219  0.7107 -0.6183 -1.1647
 1859SOL     OW17209   4.243   0.778   5.709 -0.5261 -0.2676  0.9724
 1859SOL    HW117210   4.312   0.822   5.659 -0.0839 -1.2630  0.7062
 1859SOL    HW217211   4.263   0.825   5.790  0.5676  2.8381 -1.0860
 1860SOL     OW17212   0.307   2.290   7.727  0.3664 -0.2736 -0.0669
 1860SOL    HW117213   0.359   2.265   7.804 -1.2298  1.3062  1.5215
 1860SOL    HW217214   0.373   2.287   7.658 -0.0207  0.4184 -0.4624
 1861SOL     OW17215   2.782   4.376  13.531 -0.8412 -0.6235 -0.1827
 1861SOL    HW117216   2.841   4.413  13.596 -0.8585 -1.3257  0.2393
 1861SOL    HW217217   2.782   4.449  13.469  0.1044  0.0370  0.6050
 1862SOL     OW17218   0.985   2.334   2.805  0.2083  0.3191  0.0876
 1862SOL    HW117219   0.977   2.277   2.882  1.5245 -1.0811 -0.7976
 1862SOL    HW217220   0.929   2.410   2.821  0.7737  0.6736  0.3717
 1863SOL     OW17221   3.444   2.646   2.798 -0.3591 -0.0970  0.2320
 1863SOL    HW117222   3.411   2.717   2.744  1.0109 -0.4473 -1.0737
 1863SOL    HW217223   3.535   2.675   2.807 -0.5243  0.6963 -0.6786
 1864SOL     OW17224   2.428   0.053   5.885 -0.1114 -0.6303  0.0741
 1864SOL    HW117225   2.409   0.129   5.940  1.2933  0.4658 -0.9272
 1864SOL    HW217226   2.450   4.721   5.947 -0.4240  0.1368  1.0272
 1865SOL     OW17227   0.991   1.692   9.221  0.9059  0.5293 -0.6189
 1865SOL    HW117228   1.001   1.780   9.185  0.1880  1.2149  0.8453
 1865SOL    HW217229   0.908   1.709   9.265  0.4360  0.6399 -1.5374
 1866SOL     OW17230   1.949   1.568   5.091 -0.1862  0.1033  0.4878
 1866SOL    HW117231   2.013   1.510   5.050  0.3390 -0.1068  1.6107
 1866SOL    HW217232   1.879   1.565   5.025  0.3800 -2.2482 -0.0114
 1867SOL     OW17233   4.462   2.125   8.732  0.3910  0.1766  0.0373
 1867SOL    HW117234   4.427   2.087   8.652 -0.2175 -1.0756  0.8851
 1867SOL    HW217235   4.506   2.203   8.698 -2.5989  2.2006  0.7418
 1868SOL     OW17236   3.647   4.028   2.366 -0.5811 -0.4259 -0.1512
 1868SOL    HW117237   3.608   3.997   2.448 -0.0351 -0.2323  0.1798
 1868SOL    HW217238   3.707   4.101   2.383 -0.8279 -0.6273  1.5422
 1869SOL     OW17239   3.697   0.853   3.250 -0.0004 -0.6529  0.1017
 1869SOL    HW117240   3.781   0.823   3.217  0.8172 -0.3595  1.9214
 1869SOL    HW217241   3.637   0.778   3.249 -0.2060 -0.4809 -0.4007
 1870SOL     OW17242   3.259   1.431   7.819 -0.8108  0.3275 -0.5888
 1870SOL    HW117243   3.258   1.346   7.863 -0.3877 -0.6354 -2.4141
 1870SOL    HW217244   3.172   1.425   7.780 -1.3436 -1.2994  0.8682
 1871SOL     OW17245   2.797   3.402   3.908 -0.3713 -0.6712  0.1364
 1871SOL    HW117246   2.792   3.315   3.869  0.8039 -0.7797  0.2211
 1871SOL    HW217247   2.726   3.394   3.971  0.8265  0.1634  1.6062
 1872SOL     OW17248   0.147   3.487   7.645  0.3402 -0.6624 -0.2041
 1872SOL    HW117249   0.176   3.573   7.616 -0.5685  0.3953  2.0481
 1872SOL    HW217250   0.223   3.429   7.636  2.0123  1.6541 -0.9115
 1873SOL     OW17251   2.961   2.398   6.007 -0.7640  0.9453  0.3138
 1873SOL    HW117252   2.968   2.360   6.095  0.0330 -0.7361 -0.4779
 1873SOL    HW217253   3.021   2.346   5.954 -0.7637  0.4827  0.7684
 1874SOL     OW17254   1.571   4.295  12.178 -0.1817 -0.4341  0.8382
 1874SOL    HW117255   1.657   4.335  12.162 -1.1647  1.1542 -0.5096
 1874SOL    HW217256   1.524   4.366  12.221 -0.8253  0.7167 -1.7218
 1875SOL     OW17257   1.487   4.580   6.480  1.0002 -0.2922 -0.1818
 1875SOL    HW117258   1.508   4.673   6.477 -2.5512  0.5211 -0.2864
 1875SOL    HW217259   1.421   4.562   6.413 -0.4956  1.1957  0.8858
 1876SOL     OW17260   1.849   0.963   4.599 -0.5177 -0.3666 -0.3625
 1876SOL    HW117261   1.797   0.935   4.524 -0.4958  1.6587 -1.1479
 1876SOL    HW217262   1.782   1.010   4.649 -1.3358  0.1345 -1.9192
 1877SOL     OW17263   3.192   4.087  12.398  0.6772 -0.3994  0.0800
 1877SOL    HW117264   3.147   4.003  12.405 -0.4662  0.1370 -0.8219
 1877SOL    HW217265   3.227   4.082  12.309 -0.1369 -0.9501 -0.2071
 1878SOL     OW17266   2.388   0.259   1.954 -0.6114 -0.1181 -0.5128
 1878SOL    HW117267   2.384   0.278   2.048 -3.1263 -2.7353 -0.0762
 1878SOL    HW217268   2.430   0.337   1.919 -0.1932 -0.6356 -1.1772
 1879SOL     OW17269   1.682   0.555   6.672  0.0529  0.3032 -0.3594
 1879SOL    HW117270   1.735   0.618   6.625 -1.0035 -0.1863 -2.2116
 1879SOL    HW217271   1.724   0.557   6.758 -0.9754  0.5619  0.1366
 1880SOL     OW17272   4.560   0.856   5.964  0.7054  0.3822 -0.3336
 1880SOL    HW117273   4.556   0.774   6.013 -0.8350 -0.4563 -1.8604
 1880SOL    HW217274   4.647   0.840   5.927  1.0572 -0.4192  0.8717
 1881SOL     OW17275   1.298   4.010   3.478  0.1959  0.2202 -0.6992
 1881SOL    HW117276   1.259   4.094   3.501 -0.7367 -0.2538 -0.5289
 1881SOL    HW217277   1.221   3.956   3.500  1.5779 -0.4360  2.5990
 1882SOL     OW17278   0.173   3.082  13.348  0.8008 -0.0607  0.5850
 1882SOL    HW117279   0.142   3.092  13.258  2.5033 -1.2792 -0.1525
 1882SOL    HW217280   0.163   3.173  13.377  0.7831  0.6623 -1.6886
 1883SOL     OW17281   4.135   1.596   7.147 -0.0622 -0.3743 -0.4719
 1883SOL    HW117282   4.080   1.628   7.219 -0.3950 -2.0462  0.0047
 1883SOL    HW217283   4.199   1.544   7.194  1.5792  2.8020  0.7889
 1884SOL     OW17284   3.301   4.307   9.304  0.6113  0.7267  0.5593
 1884SOL    HW117285   3.331   4.300   9.213 -0.4642 -0.3342  0.2919
 1884SOL    HW217286   3.222   4.253   9.303  0.9400  0.3202 -2.7704
 1885SOL     OW17287   4.573   0.933   3.001  0.0884  0.3037 -0.5514
 1885SOL    HW117288   4.611   0.990   3.069 -0.1897  0.1831 -0.2941
 1885SOL    HW217289   4.480   0.943   3.022 -0.4890 -1.5562 -2.2955
 1886SOL     OW17290   0.086   1.031   7.475  0.3421 -0.0970 -0.8669
 1886SOL    HW117291   0.068   1.124   7.461  1.9353  0.3580  0.0554
 1886SOL    HW217292   0.007   1.005   7.523  2.3621 -2.8413  0.9965
 1887SOL     OW17293   1.552   3.283  14.298  0.1232  0.4494  0.2188
 1887SOL    HW117294   1.563   3.274  14.393  0.2329  0.9121  0.2528
 1887SOL    HW217295   1.595   3.204  14.267 -0.9402  0.5409 -1.4815
 1888SOL     OW17296   3.666   0.427   7.510  0.1777  0.7480  0.1981
 1888SOL    HW117297   3.698   0.517   7.516  0.7658  0.5299  0.4319
 1888SOL    HW217298   3.571   0.435   7.509  0.1222  0.4829  1.8903
 1889SOL     OW17299   0.819   1.756   1.378  0.3436 -0.6630  0.0065
 1889SOL    HW117300   0.799   1.688   1.313 -1.5765  0.5622 -0.6787
 1889SOL    HW217301   0.847   1.829   1.323  0.2136  0.0059  0.8328
 1890SOL     OW17302   3.822   3.038   6.317  0.4339 -0.0325  0.0066
 1890SOL    HW117303   3.820   2.971   6.248  0.6442 -0.0063 -0.0250
 1890SOL    HW217304   3.735   3.024   6.354 -0.0080  1.5372 -0.4777
 1891SOL     OW17305   0.328   2.526   6.834  0.4158 -0.3294 -0.1713
 1891SOL    HW117306   0.282   2.453   6.792  1.4584 -1.5411  0.7841
 1891SOL    HW217307   0.254   2.563   6.881  1.7945  0.7250  1.1510
 1892SOL     OW17308   2.298   3.146   4.873 -0.2642  0.2666 -0.6154
 1892SOL    HW117309   2.305   3.111   4.962  2.0429  1.9585 -0.1107
 1892SOL    HW217310   2.334   3.234   4.890  0.9031 -0.5366  1.0259
 1893SOL     OW17311   1.140   3.137  12.196 -0.1092  0.5212  0.2600
 1893SOL    HW117312   1.191   3.089  12.130 -0.1935  0.4019  0.2801
 1893SOL    HW217313   1.120   3.217  12.148 -0.6924 -0.3109 -0.8943
 1894SOL     OW17314   2.821   1.805  11.975  0.4015 -0.2950 -0.3687
 1894SOL    HW117315   2.880   1.866  12.019  1.9864 -1.1902 -1.2326
 1894SOL    HW217316   2.787   1.869  11.912  2.3158  0.6790 -0.3917
 1895SOL     OW17317   2.508   0.081   8.851  0.1831  0.4640 -0.0097
 1895SOL    HW117318   2.505   0.009   8.787 -1.6540 -0.0631  0.6659
 1895SOL    HW217319   2.596   0.075   8.888 -0.0434 -0.8702  0.3017
 1896SOL     OW17320   1.077   4.032   2.041  0.1935 -0.0605 -0.2754
 1896SOL    HW117321   1.123   3.950   2.021  1.1618  1.0708 -2.7388
 1896SOL    HW217322   0.988   4.003   2.021 -0.0409  0.0694  0.5969
 1897SOL     OW17323   1.062   4.586   6.818 -0.0624 -0.5118 -0.1827
 1897SOL    HW117324   1.111   4.525   6.763  0.6531  0.8471 -1.0564
 1897SOL    HW217325   1.121   4.593   6.893 -1.2111 -0.5498  0.7186
 1898SOL     OW17326   3.217   1.266   3.723  0.0800  0.7748 -0.0732
 1898SOL    HW117327   3.225   1.228   3.810  2.9107  0.4576 -0.4685
 1898SOL    HW217328   3.284   1.225   3.669  0.0484  0.9075 -0.2166
 1899SOL     OW17329   2.138   2.679   4.064 -0.3138  0.0636  0.3412
 1899SOL    HW117330   2.143   2.726   4.147 -1.0229  0.4776  0.1519
 1899SOL    HW217331   2.103   2.596   4.094 -0.8780 -0.4466 -1.6954
 1900SOL     OW17332   1.346   1.421  11.978 -0.3872  0.0035 -0.1911
 1900SOL    HW117333   1.309   1.430  11.890  1.9129 -0.2695 -1.2019
 1900SOL    HW217334   1.439   1.441  11.967 -0.1672 -0.1085  1.5826
 1901SOL     OW17335   0.787   3.483   2.417  0.2642  0.2466  0.5155
 1901SOL    HW117336   0.799   3.537   2.495 -1.3829  2.3968 -0.7027
 1901SOL    HW217337   0.823   3.402   2.453  0.0217 -0.9751 -1.9522
 1902SOL     OW17338   3.717   0.046   6.864  0.1955 -0.5987  0.0674
 1902SOL    HW117339   3.794   0.103   6.861  1.0111 -1.7362 -0.7066
 1902SOL    HW217340   3.741   0.000   6.944  0.9679  1.4875  1.0341
 1903SOL     OW17341   3.722   2.207   5.203  0.6287  0.0682 -0.2243
 1903SOL    HW117342   3.735   2.266   5.128 -0.4766  0.0314 -0.4438
 1903SOL    HW217343   3.772   2.127   5.186  0.4234  0.3678 -2.2130
 1904SOL     OW17344   2.574   3.197   5.251 -0.3094  0.0949  0.9870
 1904SOL    HW117345   2.542   3.285   5.271 -0.4698  0.4053 -0.6437
 1904SOL    HW217346   2.610   3.181   5.338  0.2898  1.4515  0.9852
 1905SOL     OW17347   1.704   4.096   0.915  0.4208 -0.1965 -0.0856
 1905SOL    HW117348   1.795   4.087   0.945  0.7207  0.6875 -0.7273
 1905SOL    HW217349   1.717   4.179   0.869 -1.8172  0.3500  0.2876
 1906SOL     OW17350   1.776   1.679   9.049  0.5048 -0.5029  0.3260
 1906SOL    HW117351   1.690   1.647   9.077  0.3261 -0.1901  0.1337
 1906SOL    HW217352   1.823   1.617   9.105  1.2649 -0.2686 -0.0574
 1907SOL     OW17353   0.257   0.006   3.604  0.1670 -0.0494 -0.5307
 1907SOL    HW117354   0.314   4.669   3.580 -2.4851 -1.7146 -1.7878
 1907SOL    HW217355   0.215   4.711   3.684 -0.6637 -0.4490 -1.1277
 1908SOL     OW17356   0.190   0.271   3.544  0.1397 -0.0632 -0.6514
 1908SOL    HW117357   0.204   0.182   3.578 -0.4653  0.7243  1.6306
 1908SOL    HW217358   0.204   0.258   3.450  3.5180 -1.9930  0.1056
 1909SOL     OW17359   1.513   0.519   3.399 -0.0993  0.0051  0.3841
 1909SOL    HW117360   1.466   0.585   3.450  2.1683  1.0520  1.1368
 1909SOL    HW217361   1.516   0.438   3.449  1.7034 -0.8191 -1.0368
 1910SOL     OW17362   3.958   0.174   2.195 -0.1865 -0.0887 -0.5705
 1910SOL    HW117363   3.960   0.137   2.283  2.4320 -0.6835 -0.8821
 1910SOL    HW217364   3.863   0.168   2.189 -0.1043  1.2823 -2.8547
 1911SOL     OW17365   2.982   2.276   6.241 -0.5095 -0.2244 -0.9521
 1911SOL    HW117366   2.991   2.189   6.203 -0.6219 -1.1893  1.2062
 1911SOL    HW217367   2.926   2.249   6.314  1.7543  0.5623  1.0845
 1912SOL     OW17368   3.538   2.970   8.295 -0.0708  0.1947 -0.1517
 1912SOL    HW117369   3.464   2.942   8.241  0.2825  1.2138 -1.1695
 1912SOL    HW217370   3.560   3.048   8.243  1.2697  0.9368  1.5464
 1913SOL     OW17371   1.667   1.674   3.333 -0.0236 -0.8130 -0.4488
 1913SOL    HW117372   1.641   1.755   3.290  0.0619 -1.3632 -1.5308
 1913SOL    HW217373   1.729   1.699   3.402  0.3125 -1.3812 -0.5425
 1914SOL     OW17374   2.370   4.426   8.270  0.0589 -0.4897 -0.5783
 1914SOL    HW117375   2.431   4.458   8.203  1.3289  0.7564  1.1603
 1914SOL    HW217376   2.330   4.356   8.218  1.1967 -1.7934  0.3114
 1915SOL     OW17377   1.625   3.519   5.823  0.0214  0.9437 -0.4037
 1915SOL    HW117378   1.634   3.527   5.918  1.9915 -0.9645 -0.4384
 1915SOL    HW217379   1.588   3.603   5.794  0.5251  1.1637 -0.4044
 1916SOL     OW17380   1.972   2.974   4.039 -0.2290  0.3898 -0.4305
 1916SOL    HW117381   1.989   2.974   3.945 -1.2212  0.9353 -0.6107
 1916SOL    HW217382   1.905   3.042   4.048 -2.3337 -1.8150  0.6125
 1917SOL     OW17383   2.341   0.550   2.896 -0.4595  0.2805 -0.0453
 1917SOL    HW117384   2.353   0.601   2.816  0.0032 -0.3672 -0.3816
 1917SOL    HW217385   2.406   0.600   2.946 -0.5169  0.3650 -0.0543
 1918SOL     OW17386   0.329   4.158   9.533 -0.5530 -0.2793  0.5087
 1918SOL    HW117387   0.421   4.164   9.508 -0.3346 -2.9303  0.6269
 1918SOL    HW217388   0.334   4.089   9.599  1.5456 -2.1750 -1.6518
 1919SOL     OW17389   0.982   0.973   7.305 -0.2140 -0.2016  0.1863
 1919SOL    HW117390   0.967   0.891   7.352  0.2273 -1.0632 -1.1331
 1919SOL    HW217391   1.025   1.019   7.377 -0.1642  2.3521 -1.4717
 1920SOL     OW17392   2.570   2.954   8.412 -1.0640  0.0945 -0.8748
 1920SOL    HW117393   2.595   3.019   8.477  3.5364 -1.7235 -0.8483
 1920SOL    HW217394   2.499   2.909   8.459 -0.0078  0.3924  0.9650
 1921SOL     OW17395   0.297   4.389   9.208 -0.0498  0.7325 -0.2980
 1921SOL    HW117396   0.339   4.311   9.174 -2.3484 -0.1701 -1.0812
 1921SOL    HW217397   0.225   4.381   9.146 -0.4034  0.9238  0.0859
 1922SOL     OW17398   2.459   3.252   7.039  0.2731 -0.0912 -0.1243
 1922SOL    HW117399   2.472   3.211   6.954  1.0608 -2.0584  0.9480
 1922SOL    HW217400   2.466   3.345   7.019 -2.1092  0.5698  2.0850
 1923SOL     OW17401   4.287   1.104  17.125  0.3162 -0.1422  0.4614
 1923SOL    HW117402   4.225   1.163  17.168 -0.6632  0.9167 -2.3755
 1923SOL    HW217403   4.355   1.161  17.089 -1.1077  1.1432 -0.2152
 1924SOL     OW17404   0.266   4.447  11.332 -0.3288  0.0587 -0.2495
 1924SOL    HW117405   0.331   4.439  11.262 -0.2733  3.3045 -0.5542
 1924SOL    HW217406   0.182   4.426  11.292 -0.9210  2.1263 -0.0760
 1925SOL     OW17407   1.079   1.711   6.201  0.5065  0.4756 -0.1368
 1925SOL    HW117408   1.013   1.776   6.225  0.7144 -0.3301  2.6148
 1925SOL    HW217409   1.069   1.638   6.262  1.2063 -0.1771 -0.8149
 1926SOL     OW17410   1.288   3.270  15.755 -0.8028 -0.6534 -0.1444
 1926SOL    HW117411   1.240   3.234  15.830  1.3310 -1.4726  0.8481
 1926SOL    HW217412   1.235   3.253  15.677  0.2570  0.2976 -1.0609
 1927SOL     OW17413   1.172   4.572   5.655 -0.0948 -0.7031  0.1935
 1927SOL    HW117414   1.159   4.597   5.747 -0.3876 -0.4706  0.0895
 1927SOL    HW217415   1.153   4.657   5.616 -1.6027 -1.1854 -0.1241
 1928SOL     OW17416   3.210   1.112   9.759  0.5719  0.2494 -0.1777
 1928SOL    HW117417   3.302   1.090   9.747  0.7157  1.2697 -0.9499
 1928SOL    HW217418   3.185   1.123   9.667 -0.1180  1.4833  0.1462
 1929SOL     OW17419   1.905   2.377  17.491 -0.6046  0.3874  0.4387
 1929SOL    HW117420   1.864   2.410  17.411 -1.2009 -1.2610  0.0533
 1929SOL    HW217421   1.957   2.456  17.508 -0.5728  0.0753  1.7386
 1930SOL     OW17422   3.530   4.686  16.192  0.2562  0.7870 -0.4974
 1930SOL    HW117423   3.617   4.674  16.229 -0.0956  0.4712  0.2163
 1930SOL    HW217424   3.485   4.703  16.275  0.3672  1.3628 -0.5612
 1931SOL     OW17425   1.253   2.857   9.012  0.3492 -0.1800 -0.5708
 1931SOL    HW117426   1.313   2.916   8.967 -0.3103  0.7278 -0.2694
 1931SOL    HW217427   1.275   2.857   9.105 -2.0282 -0.5923 -0.0002
 1932SOL     OW17428   0.148   1.241   1.669  0.1954 -0.4464  0.0561
 1932SOL    HW117429   0.143   1.186   1.747  0.2529 -0.4275  0.0728
 1932SOL    HW217430   0.062   1.230   1.627  0.6537  0.1163 -1.0186
 1933SOL     OW17431   0.612   1.870  14.473 -0.0342  0.0589 -0.2799
 1933SOL    HW117432   0.602   1.797  14.533 -0.0329  0.4931  0.2499
 1933SOL    HW217433   0.524   1.907  14.475  0.3663  0.9621  0.7426
 1934SOL     OW17434   2.773   3.703   6.949  0.5595  0.1798  0.1648
 1934SOL    HW117435   2.832   3.726   6.878 -2.0578  1.2139 -1.6759
 1934SOL    HW217436   2.822   3.629   6.985  0.4100 -0.5397 -1.0865
 1935SOL     OW17437   0.065   4.076   5.616 -0.2053 -0.5189  0.2411
 1935SOL    HW117438   0.010   4.090   5.693 -1.2615 -2.1237 -0.2184
 1935SOL    HW217439   0.154   4.072   5.653  0.1644 -1.6019 -0.7673
 1936SOL     OW17440   2.337   1.301   6.028 -0.7089  0.4111  0.0849
 1936SOL    HW117441   2.277   1.341   5.965 -2.8306 -1.2860  1.0350
 1936SOL    HW217442   2.411   1.358   6.007  1.6581 -2.6343  0.1100
 1937SOL     OW17443   1.311   1.731   6.339 -0.0107 -0.4495  0.3939
 1937SOL    HW117444   1.231   1.745   6.288  0.7618  0.1961 -0.6392
 1937SOL    HW217445   1.350   1.818   6.331  1.1281 -1.2332 -2.3919
 1938SOL     OW17446   3.630   3.934   8.584 -0.3727  0.3680  0.1257
 1938SOL    HW117447   3.535   3.935   8.582 -0.3687  3.3269  1.5456
 1938SOL    HW217448   3.648   3.970   8.497  1.5076 -1.2687 -0.1652
 1939SOL     OW17449   2.004   2.639   6.408  0.0514  0.5038 -0.1041
 1939SOL    HW117450   2.095   2.668   6.417 -0.1468  1.7268 -1.9337
 1939SOL    HW217451   2.005   2.550   6.444 -0.1338 -0.2937 -2.0675
 1940SOL     OW17452   0.171   3.179   4.899  0.0423  0.3499 -0.3280
 1940SOL    HW117453   0.249   3.231   4.880 -0.0662  0.3529 -0.7742
 1940SOL    HW217454   0.111   3.242   4.940 -1.5430 -0.0787 -1.9917
 1941SOL     OW17455   4.379   0.370   4.817 -0.5365  0.3358 -0.5463
 1941SOL    HW117456   4.414   0.322   4.742 -0.7508 -0.9365  0.1775
 1941SOL    HW217457   4.464   0.397   4.851 -1.0500  0.9040  0.2761
 1942SOL     OW17458   0.728   4.734  15.566  0.7557  0.0425 -0.3274
 1942SOL    HW117459   0.666   4.672  15.526  0.1203  1.0459 -0.9092
 1942SOL    HW217460   0.720   0.066  15.500  1.0540  0.9053  0.5552
 1943SOL     OW17461   0.883   2.064   4.707  0.4546 -0.3983 -0.0205
 1943SOL    HW117462   0.795   2.073   4.743  0.8365  1.0166  0.5567
 1943SOL    HW217463   0.864   2.015   4.627  0.8557  0.4559 -0.6407
 1944SOL     OW17464   2.071   3.361  16.958  0.2096 -0.2547  0.3204
 1944SOL    HW117465   2.091   3.454  16.972 -0.0859 -0.6368  3.3652
 1944SOL    HW217466   2.134   3.325  17.021  0.2146  0.0889  0.5158
 1945SOL     OW17467   4.596   1.052   2.030 -0.0241 -0.1426 -0.2276
 1945SOL    HW117468   4.512   1.095   2.018 -0.6119 -1.2198  0.0057
 1945SOL    HW217469   4.578   1.027   2.121  1.3880  0.3312  0.1842
 1946SOL     OW17470   2.941   3.985   7.474 -0.2187 -0.1997 -0.0683
 1946SOL    HW117471   2.951   3.972   7.380  0.0184 -1.1424  0.0910
 1946SOL    HW217472   3.034   3.993   7.499  0.0710  0.3116 -1.3348
 1947SOL     OW17473   3.791   4.247   2.420 -0.1496  0.0618 -0.1610
 1947SOL    HW117474   3.879   4.282   2.435  0.0271  0.0308 -1.1157
 1947SOL    HW217475   3.737   4.327   2.425  0.4831  0.5265 -0.8282
 1948SOL     OW17476   2.511   2.164  17.290 -0.3583 -0.0461  0.5568
 1948SOL    HW117477   2.479   2.220  17.219  2.2624  0.5606 -0.1657
 1948SOL    HW217478   2.477   2.216  17.363  0.7189  1.8570 -0.2884
 1949SOL     OW17479   1.656   3.260   4.813 -0.9312 -0.0559 -0.0023
 1949SOL    HW117480   1.633   3.240   4.722 -2.2328  2.4279 -0.2162
 1949SOL    HW217481   1.703   3.343   4.806 -2.6550  0.8589 -0.7135
 1950SOL     OW17482   0.460   1.383   5.314 -0.3605 -0.4755  0.8211
 1950SOL    HW117483   0.406   1.352   5.241 -0.1155 -0.4710  0.6408
 1950SOL    HW217484   0.451   1.309   5.374 -0.4630 -0.3362  0.9762
 1951SOL     OW17485   2.011   3.464   1.676 -0.4000 -0.1043 -0.2802
 1951SOL    HW117486   2.057   3.548   1.683  1.6833 -1.3471  0.6005
 1951SOL    HW217487   2.084   3.411   1.645 -0.3843 -1.0437  1.3664
 1952SOL     OW17488   1.313   3.971  14.402 -0.4674  0.2547  0.4979
 1952SOL    HW117489   1.309   3.879  14.374 -0.1493  0.6709 -0.9372
 1952SOL    HW217490   1.220   3.990  14.394 -0.5328  0.3616  1.5239
 1953SOL     OW17491   4.339   1.251   7.643 -0.4180  0.2223 -0.1674
 1953SOL    HW117492   4.285   1.221   7.717  1.8464 -2.4078  0.4226
 1953SOL    HW217493   4.327   1.182   7.579  0.7689 -1.3386  1.2856
 1954SOL     OW17494   2.935   0.110   5.968  0.3918  0.2701  0.1566
 1954SOL    HW117495   2.991   0.134   6.041  0.8429  0.9332 -0.4103
 1954SOL    HW217496   2.869   0.179   5.980 -1.9545 -1.7428 -0.9913
 1955SOL     OW17497   2.365   3.782   6.612  0.1380  0.3934  0.4154
 1955SOL    HW117498   2.449   3.742   6.591  0.3366 -0.3361  2.6113
 1955SOL    HW217499   2.382   3.827   6.695  1.7968  0.0467  0.2682
 1956SOL     OW17500   2.812   4.159   9.554  0.1566 -0.5756  0.1305
 1956SOL    HW117501   2.885   4.203   9.511  0.4593  0.3500  1.6074
 1956SOL    HW217502   2.835   4.162   9.647 -0.6138 -0.2534  0.3037
 1957SOL     OW17503   1.267   2.304   6.062  0.3007 -0.8338  0.2623
 1957SOL    HW117504   1.321   2.234   6.025 -0.0509 -0.0111 -1.7839
 1957SOL    HW217505   1.333   2.374   6.059 -0.8110  0.3559  3.3160
 1958SOL     OW17506   4.339   3.818   3.582 -0.9013 -0.3638 -0.3881
 1958SOL    HW117507   4.304   3.819   3.493  2.6998  0.1217 -1.7732
 1958SOL    HW217508   4.297   3.897   3.616  1.9491 -0.0876  2.4691
 1959SOL     OW17509   1.491   2.007   8.561 -0.0063  0.1448  0.4686
 1959SOL    HW117510   1.579   2.023   8.528 -0.1222 -1.5549 -0.6647
 1959SOL    HW217511   1.441   2.048   8.490 -0.5786 -1.6269 -0.1549
 1960SOL     OW17512   1.775   1.039   0.828 -0.0761  0.6380  0.0805
 1960SOL    HW117513   1.870   1.038   0.826 -0.0958  1.1092 -0.9075
 1960SOL    HW217514   1.756   0.962   0.775  0.3188 -0.6788  1.8255
 1961SOL     OW17515   0.722   3.673   6.371  0.0625 -0.0350 -0.1151
 1961SOL    HW117516   0.707   3.586   6.335  1.1655  0.1070 -0.9388
 1961SOL    HW217517   0.692   3.659   6.460 -1.3480 -0.8622 -0.7266
 1962SOL     OW17518   0.480   0.717  10.278 -0.7096 -0.1736  0.1449
 1962SOL    HW117519   0.570   0.734  10.306 -0.4323 -0.8449 -0.3534
 1962SOL    HW217520   0.508   0.658  10.208  0.8979 -1.5281  1.9301
 1963SOL     OW17521   3.022   1.419  11.956  0.2742 -0.1255 -0.1385
 1963SOL    HW117522   3.101   1.402  12.007  0.3709  1.4115  0.2284
 1963SOL    HW217523   2.993   1.332  11.930 -1.6120  0.6507 -0.6889
 1964SOL     OW17524   0.044   0.724   3.512 -0.3580 -0.0985 -0.9688
 1964SOL    HW117525   0.075   0.713   3.602 -0.1097 -0.5496 -1.1112
 1964SOL    HW217526   0.027   0.632   3.492 -3.7772  0.4201 -0.5603
 1965SOL     OW17527   4.006   2.000   8.993  0.7475 -0.5910 -0.0558
 1965SOL    HW117528   3.988   1.922   8.941  3.0771 -0.7643 -0.6074
 1965SOL    HW217529   3.956   1.984   9.073 -0.5438 -1.0005 -0.9471
 1966SOL     OW17530   3.414   0.788  11.992  0.4303 -0.3797  0.3288
 1966SOL    HW117531   3.420   0.752  12.081 -0.5710  2.4565  1.5274
 1966SOL    HW217532   3.457   0.717  11.944  0.9382  1.1973 -1.4860
 1967SOL     OW17533   2.120   4.322   5.568  0.3201  0.2702  0.0070
 1967SOL    HW117534   2.059   4.391   5.595  0.4573  0.4514 -0.1434
 1967SOL    HW217535   2.172   4.303   5.646 -0.0331  1.2431  0.4831
 1968SOL     OW17536   3.259   2.971   9.540 -0.2594  0.0908  0.0172
 1968SOL    HW117537   3.213   3.054   9.533 -0.5462 -0.2459 -2.0995
 1968SOL    HW217538   3.346   2.986   9.575 -1.4968  1.0291  2.6596
 1969SOL     OW17539   0.261   4.227   1.295 -0.4779 -0.7631 -0.4028
 1969SOL    HW117540   0.244   4.135   1.312 -3.3481 -0.3840 -1.2592
 1969SOL    HW217541   0.349   4.237   1.331 -0.4598 -1.5260 -0.2308
 1970SOL     OW17542   4.207   2.150  16.027 -0.0932 -0.5235 -0.3735
 1970SOL    HW117543   4.112   2.139  16.036  0.2301 -4.4239 -1.7007
 1970SOL    HW217544   4.226   2.074  15.972  0.6080  0.5174 -1.6011
 1971SOL     OW17545   1.032   0.072  10.154  0.8164  0.0598  0.6696
 1971SOL    HW117546   1.060   4.735  10.209 -2.3022 -2.6359 -1.3304
 1971SOL    HW217547   1.056   0.148  10.207  0.1105  1.0038 -0.3656
 1972SOL     OW17548   1.369   2.957   5.590  0.2655  0.0095  0.4740
 1972SOL    HW117549   1.352   3.029   5.652 -3.0078 -1.9208  1.8328
 1972SOL    HW217550   1.426   2.996   5.524  0.9529  0.5943  1.4072
 1973SOL     OW17551   1.411   1.407   3.768 -0.0906 -0.3206 -0.0237
 1973SOL    HW117552   1.419   1.343   3.698  4.3816  0.4233 -0.1871
 1973SOL    HW217553   1.434   1.351   3.842  1.0032 -0.7840 -0.7165
 1974SOL     OW17554   4.653   3.577   5.416  0.0777  0.1120 -0.1975
 1974SOL    HW117555   4.707   3.523   5.358 -1.2090  1.4464 -2.6184
 1974SOL    HW217556   4.714   3.645   5.446  0.4089 -0.0737 -0.4538
 1975SOL     OW17557   2.063   4.689   2.158 -0.1743 -0.4444  0.1147
 1975SOL    HW117558   1.979   4.657   2.191 -1.8788  0.5234 -3.2616
 1975SOL    HW217559   2.048   0.042   2.126 -1.1953 -1.0871 -1.1863
 1976SOL     OW17560   2.411   2.071   7.895 -0.1691 -0.2277 -0.4727
 1976SOL    HW117561   2.433   2.164   7.903  0.6367 -0.6962  2.7163
 1976SOL    HW217562   2.499   2.034   7.894 -0.7118 -1.4782 -2.5174
 1977SOL     OW17563   2.411   3.560   6.990 -0.2045 -0.0469 -0.1474
 1977SOL    HW117564   2.475   3.523   6.929 -0.2801  1.1845 -0.9723
 1977SOL    HW217565   2.338   3.570   6.929 -0.3250  1.8274  0.2939
 1978SOL     OW17566   2.476   4.101  10.397  0.4112 -0.5758 -0.2771
 1978SOL    HW117567   2.418   4.036  10.437  0.3682 -1.1283 -1.2414
 1978SOL    HW217568   2.445   4.116  10.308  1.5762  2.1413 -0.2284
 1979SOL     OW17569   2.369   1.977  16.625 -0.5431 -0.7085  0.1542
 1979SOL    HW117570   2.347   2.011  16.711 -1.3727 -1.2648  0.1631
 1979SOL    HW217571   2.460   1.955  16.642 -0.2226 -1.8386 -3.0472
 1980SOL     OW17572   3.020   4.477   7.967  0.1953 -0.2738 -0.1080
 1980SOL    HW117573   2.974   4.398   7.941  2.0467 -0.7671 -1.8759
 1980SOL    HW217574   2.969   4.502   8.044 -0.6220 -1.2661 -0.3386
 1981SOL     OW17575   4.139   2.414   5.206  0.3214 -0.0576  0.4112
 1981SOL    HW117576   4.123   2.508   5.216  0.0148 -0.0931  0.2328
 1981SOL    HW217577   4.089   2.384   5.282 -1.2975 -1.0147 -1.0361
 1982SOL     OW17578   2.719   4.042   6.090 -0.3308 -0.4234  0.0038
 1982SOL    HW117579   2.701   3.956   6.128  1.2251 -0.2402  1.1949
 1982SOL    HW217580   2.795   4.075   6.138 -1.1631 -0.0386  1.0605
 1983SOL     OW17581   1.484   1.321   1.221 -0.4626 -0.0854 -0.0163
 1983SOL    HW117582   1.422   1.390   1.200  0.6965  1.0002  0.1441
 1983SOL    HW217583   1.537   1.314   1.142 -1.0554  1.2074 -0.5121
 1984SOL     OW17584   2.584   3.267  15.690  0.2063  0.6136 -0.1283
 1984SOL    HW117585   2.504   3.275  15.741 -0.1138  2.3928 -0.9288
 1984SOL    HW217586   2.646   3.244  15.759  0.4433  0.7378 -0.2993
 1985SOL     OW17587   3.926   2.553   4.287 -0.1796  0.3349  0.9733
 1985SOL    HW117588   3.952   2.520   4.201 -0.0562 -1.6398  1.7738
 1985SOL    HW217589   3.917   2.644   4.257  1.7417  1.1944  3.0487
 1986SOL     OW17590   4.029   4.595   2.249  0.4768 -0.6731 -1.0386
 1986SOL    HW117591   3.940   4.602   2.217  0.5203  1.6686 -0.6201
 1986SOL    HW217592   4.041   4.500   2.249 -1.0972 -0.8642  0.2398
 1987SOL     OW17593   0.311   1.594   4.826 -0.0796 -0.1018  0.2259
 1987SOL    HW117594   0.299   1.500   4.839 -2.2586  0.1965  0.2612
 1987SOL    HW217595   0.349   1.609   4.913  0.7379  2.8634 -0.6295
 1988SOL     OW17596   4.057   0.736   3.063  0.2469  0.6324 -0.4941
 1988SOL    HW117597   4.121   0.749   3.133 -0.1096 -0.6624  0.0723
 1988SOL    HW217598   4.032   0.827   3.046  0.7679  0.9099  0.1729
 1989SOL     OW17599   3.262   3.381   9.648  0.4486  0.0988  0.2257
 1989SOL    HW117600   3.354   3.394   9.626  0.8725 -1.2057  1.2218
 1989SOL    HW217601   3.224   3.467   9.628 -2.1552 -1.1360 -0.1488
 1990SOL     OW17602   0.456   0.940  13.873 -0.3733 -0.5896 -0.2273
 1990SOL    HW117603   0.541   0.952  13.833 -0.8885 -0.5067 -1.2861
 1990SOL    HW217604   0.412   1.025  13.865  0.6691 -0.0230  0.0945
 1991SOL     OW17605   0.494   2.855  11.540 -0.5048  0.2841 -0.0767
 1991SOL    HW117606   0.558   2.885  11.604 -2.0338  0.3222  1.4142
 1991SOL    HW217607   0.450   2.938  11.522  1.9035  1.6027  0.0677
 1992SOL     OW17608   2.739   0.047  14.262 -0.3826  0.0662 -0.4491
 1992SOL    HW117609   2.814   0.050  14.322 -0.1967 -0.4433 -0.6486
 1992SOL    HW217610   2.774   4.721  14.199  3.5538 -1.8550  3.6388
 1993SOL     OW17611   1.019   4.330   7.037  0.1351 -0.8521  0.0484
 1993SOL    HW117612   1.083   4.259   7.030 -0.5918 -1.7094  1.9505
 1993SOL    HW217613   1.040   4.360   7.126  1.0363 -2.2236  0.2868
 1994SOL     OW17614   1.585   0.166   4.339 -0.3109 -0.2506  0.5007
 1994SOL    HW117615   1.539   0.250   4.345 -1.2654 -0.7812  0.6443
 1994SOL    HW217616   1.609   0.154   4.431 -0.9596 -0.5163  0.6403
 1995SOL     OW17617   0.070   2.077   0.350 -0.7516  0.0202  0.4536
 1995SOL    HW117618   0.069   2.172   0.345  2.6329  0.0491  0.3832
 1995SOL    HW217619   0.140   2.056   0.412 -0.3558 -1.2522 -0.4067
 1996SOL     OW17620   2.925   0.511   6.997 -0.8753  0.2519 -0.4939
 1996SOL    HW117621   2.934   0.421   7.026  0.4606  0.7685  0.7074
 1996SOL    HW217622   3.008   0.531   6.954 -0.5207  1.8111  0.8894
 1997SOL     OW17623   3.974   4.319   8.187 -0.1531 -0.1551  0.0358
 1997SOL    HW117624   3.998   4.384   8.254 -3.0333  0.9792 -0.0106
 1997SOL    HW217625   3.950   4.242   8.238  0.3632 -0.5033 -0.2454
 1998SOL     OW17626   1.942   3.142  17.107 -0.5836  0.2902  0.0087
 1998SOL    HW117627   1.981   3.220  17.070  0.0978  0.8499  1.8882
 1998SOL    HW217628   1.960   3.148  17.201  0.4538 -0.0872 -0.1702
 1999SOL     OW17629   1.717   0.536   3.207  0.2671  0.2497 -0.5008
 1999SOL    HW117630   1.650   0.507   3.269  1.5708 -0.0681  0.7343
 1999SOL    HW217631   1.689   0.476   3.138  0.4340 -1.1200  0.6470
 2000SOL     OW17632   1.392   0.605   9.205  0.0744 -0.6578 -0.0166
 2000SOL    HW117633   1.395   0.575   9.114  3.3192  1.8987 -0.7894
 2000SOL    HW217634   1.436   0.533   9.251  2.5074  0.1986 -1.0043
 2001SOL     OW17635   2.931   0.716   9.500 -0.4417  0.3972  0.4802
 2001SOL    HW117636   2.899   0.737   9.413  1.2321 -0.1962 -0.2801
 2001SOL    HW217637   2.944   0.621   9.501  1.0481  0.5794 -1.1238
 2002SOL     OW17638   4.724   1.584  16.965 -0.4011 -0.7166 -0.0390
 2002SOL    HW117639   0.027   1.545  16.887  0.6392  0.6225 -0.1882
 2002SOL    HW217640   0.063   1.616  17.014 -0.2965 -1.2808  0.1583
 2003SOL     OW17641   0.389   1.148  12.670 -0.3564  0.0835  0.2589
 2003SOL    HW117642   0.485   1.145  12.668 -0.3876  1.8134 -2.9625
 2003SOL    HW217643   0.366   1.194  12.751 -0.8086 -0.4009  0.4036
 2004SOL     OW17644   4.684   0.120   5.724  0.5193  0.3667 -0.5537
 2004SOL    HW117645   0.005   0.182   5.768  0.7980 -0.4363  0.2096
 2004SOL    HW217646   4.715   0.132   5.634 -1.2490  1.2750 -1.0418
 2005SOL     OW17647   4.563   1.546   3.030  0.4980 -0.1927  0.2154
 2005SOL    HW117648   4.499   1.477   3.011  1.4639 -0.2054 -3.0294
 2005SOL    HW217649   4.511   1.626   3.027  1.2813  0.3119  0.1502
 2006SOL     OW17650   4.681   0.093   3.829  0.0936 -0.2957 -0.2116
 2006SOL    HW117651   0.027   0.045   3.829  0.1189 -0.2595  0.3874
 2006SOL    HW217652   4.624   0.023   3.861  0.7315 -0.5554  0.3372
 2007SOL     OW17653   0.465   1.762   7.223  0.2051  0.4812 -0.2453
 2007SOL    HW117654   0.431   1.852   7.227 -1.2189 -0.0242 -1.0552
 2007SOL    HW217655   0.434   1.725   7.306  1.7932  1.9337  1.0016
 2008SOL     OW17656   3.739   4.418   2.977 -0.0027 -0.9863  0.0020
 2008SOL    HW117657   3.655   4.375   2.995  0.1600 -1.0161  0.6900
 2008SOL    HW217658   3.793   4.338   2.979 -2.0234 -2.3664 -0.2864
 2009SOL     OW17659   2.465   0.466   6.531  0.3396  0.5171 -0.0797
 2009SOL    HW117660   2.538   0.463   6.593  2.0672  0.6556 -2.1116
 2009SOL    HW217661   2.436   0.375   6.525  0.2902  0.5001  0.4445
 2010SOL     OW17662   0.441   4.189   4.744 -0.4301 -0.1258  0.3082
 2010SOL    HW117663   0.385   4.114   4.723 -1.0339 -0.2256  2.2704
 2010SOL    HW217664   0.383   4.252   4.785 -0.8287  0.7066 -1.5224
 2011SOL     OW17665   1.284   4.436   6.345 -0.1119  0.2876  0.5969
 2011SOL    HW117666   1.366   4.405   6.308 -0.5846  0.5972 -0.6922
 2011SOL    HW217667   1.224   4.362   6.343  1.9592 -1.3187 -0.6336
 2012SOL     OW17668   1.080   1.242   0.015  0.4506  0.2856 -0.3094
 2012SOL    HW117669   1.042   1.176  17.703 -0.4646 -1.3967  2.2332
 2012SOL    HW217670   1.005   1.286   0.056 -0.6684 -0.0341 -2.0015
 2013SOL     OW17671   4.362   3.231  13.138 -0.0025  0.1370  0.3043
 2013SOL    HW117672   4.433   3.234  13.203 -0.2296  0.3917  0.5383
 2013SOL    HW217673   4.291   3.275  13.184 -0.6138 -1.1331  0.5714
 2014SOL     OW17674   2.482   2.342   5.439  0.2463  0.5455  0.0009
 2014SOL    HW117675   2.404   2.376   5.395 -1.0286 -1.2125  0.9691
 2014SOL    HW217676   2.451   2.322   5.527  0.6308  0.2543  0.0729
 2015SOL     OW17677   1.944   2.237   1.725 -0.3932 -0.0455  0.4647
 2015SOL    HW117678   1.864   2.278   1.692 -0.2009  0.4106  0.5612
 2015SOL    HW217679   1.939   2.155   1.676  1.2978  0.4506 -0.5097
 2016SOL     OW17680   0.436   1.079   2.626 -0.1687  0.0874  0.1949
 2016SOL    HW117681   0.389   1.057   2.546 -2.2607 -0.4444  1.5667
 2016SOL    HW217682   0.513   1.125   2.593 -0.3144 -0.1373 -0.4493
 2017SOL     OW17683   1.390   3.168   3.874  0.4736  0.0425  0.2469
 2017SOL    HW117684   1.343   3.192   3.795  1.0514 -0.8772 -0.3749
 2017SOL    HW217685   1.447   3.098   3.841 -0.9627  1.0351 -4.3146
 2018SOL     OW17686   0.557   0.511   7.875 -0.3671  0.1357  0.0779
 2018SOL    HW117687   0.619   0.572   7.915 -0.5906  0.2469  0.2547
 2018SOL    HW217688   0.604   0.449   7.819  1.0807  0.8924  0.4588
 2019SOL     OW17689   1.037   0.463  10.618  0.7411  0.1269  0.1534
 2019SOL    HW117690   1.008   0.549  10.587 -1.2207 -0.7085 -0.2701
 2019SOL    HW217691   0.961   0.406  10.609 -0.6557  1.9939  0.1240
 2020SOL     OW17692   3.062   0.910   3.440  0.8164 -0.4786  0.0140
 2020SOL    HW117693   3.097   0.931   3.527 -0.6807 -0.3778  0.5841
 2020SOL    HW217694   3.139   0.904   3.383 -0.3722  0.4809 -1.6915
 2021SOL     OW17695   3.583   2.501   2.606 -0.1460 -0.3872 -0.2988
 2021SOL    HW117696   3.519   2.542   2.663 -0.3541  0.2543 -1.0035
 2021SOL    HW217697   3.540   2.417   2.589  0.8835 -0.6655 -1.4864
 2022SOL     OW17698   0.783   3.223   4.656  0.1170  0.6852  0.1344
 2022SOL    HW117699   0.752   3.200   4.743  1.7773  3.1204  1.3921
 2022SOL    HW217700   0.706   3.264   4.617  0.5341  1.0928 -0.2799
 2023SOL     OW17701   4.158   2.493   4.484  0.4355 -0.7911  0.5461
 2023SOL    HW117702   4.136   2.539   4.565 -0.9983 -0.7980  0.1662
 2023SOL    HW217703   4.094   2.527   4.422 -0.8054 -1.5310  1.4131
 2024SOL     OW17704   1.833   3.386  12.635  0.1229  0.0667 -0.0811
 2024SOL    HW117705   1.748   3.341  12.629  0.6771 -1.1095  0.8487
 2024SOL    HW217706   1.817   3.460  12.576 -0.5699 -0.8814 -1.0763
 2025SOL     OW17707   3.851   1.480   2.997 -0.1579 -1.3093  0.1691
 2025SOL    HW117708   3.847   1.394   2.954 -3.7425 -1.4745  0.7633
 2025SOL    HW217709   3.834   1.457   3.088 -1.4138  1.1982  0.5683
 2026SOL     OW17710   1.887   0.405  10.381 -0.3974  0.7235  0.1727
 2026SOL    HW117711   1.893   0.382  10.473  1.1655  0.9972  0.1299
 2026SOL    HW217712   1.816   0.351  10.346  0.0425 -0.2825  0.8372
 2027SOL     OW17713   2.599   2.629  16.164 -0.0669 -0.0169 -0.1714
 2027SOL    HW117714   2.578   2.682  16.087  1.3386 -0.8488 -1.1332
 2027SOL    HW217715   2.625   2.545  16.125 -2.0671 -0.9041  0.4405
 2028SOL     OW17716   3.043   1.875  14.585 -0.1721 -0.2296 -0.4276
 2028SOL    HW117717   2.978   1.910  14.646  1.0037 -0.4476  0.9416
 2028SOL    HW217718   3.130   1.904  14.612  0.1344 -1.0408 -0.5556
 2029SOL     OW17719   0.620   1.166  13.494  0.1950  0.5745 -0.0051
 2029SOL    HW117720   0.700   1.181  13.442  0.7896  0.9183  1.0110
 2029SOL    HW217721   0.647   1.099  13.556  2.2172  0.2323 -1.2428
 2030SOL     OW17722   4.664   1.825   4.907 -0.3134  0.1596 -0.4396
 2030SOL    HW117723   4.714   1.864   4.979 -1.4085  0.2768  0.2548
 2030SOL    HW217724   4.611   1.760   4.954 -0.2857  1.1521  0.9547
 2031SOL     OW17725   0.260   2.979   5.477 -0.0239 -0.0008 -0.3730
 2031SOL    HW117726   0.197   2.955   5.545  1.4019 -0.6674  0.7030
 2031SOL    HW217727   0.342   2.998   5.523 -0.3169 -0.3743  0.3005
 2032SOL     OW17728   2.352   0.203   7.992  0.2784  0.0183  0.3604
 2032SOL    HW117729   2.403   0.232   7.916  1.9806  0.4468  1.6778
 2032SOL    HW217730   2.419   0.152   8.037 -0.4801  0.9399  2.5276
 2033SOL     OW17731   4.532   1.097  11.431  0.5193 -0.3331 -0.3789
 2033SOL    HW117732   4.448   1.071  11.471  0.0045 -0.0693 -1.2889
 2033SOL    HW217733   4.501   1.094  11.341 -0.6513 -0.8332  0.0270
 2034SOL     OW17734   2.138   0.055   7.718 -0.0155 -0.2545  0.3511
 2034SOL    HW117735   2.181   0.138   7.701 -2.5264  1.2038  1.1351
 2034SOL    HW217736   2.145   0.052   7.813 -3.0767  0.5348  0.6114
 2035SOL     OW17737   3.955   0.204   8.002 -0.9064  0.4586 -0.0670
 2035SOL    HW117738   3.981   0.295   7.988  1.8008 -0.5179 -1.4077
 2035SOL    HW217739   3.882   0.205   8.064 -0.8788 -0.1886 -0.0226
 2036SOL     OW17740   4.348   2.034   1.440 -0.5228 -0.1395 -0.0280
 2036SOL    HW117741   4.370   1.991   1.357  1.1675  1.2404 -0.2922
 2036SOL    HW217742   4.428   2.007   1.485  0.7318  0.6612 -1.8128
 2037SOL     OW17743   2.342   2.577  13.998  0.2260  0.2526  0.1456
 2037SOL    HW117744   2.303   2.554  13.913 -0.6585 -0.3686  0.7154
 2037SOL    HW217745   2.360   2.669  13.979  2.5053 -0.1684  0.3175
 2038SOL     OW17746   0.518   2.691   6.350  0.8559 -0.5409  0.0350
 2038SOL    HW117747   0.442   2.699   6.292  0.4299  0.4377  0.7294
 2038SOL    HW217748   0.536   2.598   6.336  0.1577 -0.8174  0.9297
 2039SOL     OW17749   3.866   4.619   6.076  0.0032  0.2363 -0.3444
 2039SOL    HW117750   3.850   4.605   6.169 -3.5524 -0.1485 -0.9972
 2039SOL    HW217751   3.824   4.702   6.055 -0.8099 -0.0721  0.0449
 2040SOL     OW17752   2.412   0.378   8.730  0.1596 -0.3990  0.1342
 2040SOL    HW117753   2.418   0.283   8.746 -0.8972 -0.4902 -0.0196
 2040SOL    HW217754   2.429   0.377   8.635  0.7669  0.5140  0.2379
 2041SOL     OW17755   2.352   4.427   3.408 -0.2426  0.2434 -0.3498
 2041SOL    HW117756   2.273   4.385   3.441 -1.2604  1.7654 -0.8604
 2041SOL    HW217757   2.319   4.503   3.359 -1.4676 -2.6821 -4.0990
 2042SOL     OW17758   2.655   1.622  17.092  0.4860  0.2564 -0.3779
 2042SOL    HW117759   2.570   1.595  17.058 -0.4915 -0.5313  2.6110
 2042SOL    HW217760   2.634   1.687  17.159 -0.0141 -1.1572  0.8659
 2043SOL     OW17761   2.420   0.608   9.487  0.1494 -0.1176  0.2938
 2043SOL    HW117762   2.490   0.558   9.446 -0.2875  0.9963 -1.7962
 2043SOL    HW217763   2.464   0.691   9.506 -0.1686  0.7444 -2.7391
 2044SOL     OW17764   3.212   0.787   8.304 -0.0759 -0.0124  0.2013
 2044SOL    HW117765   3.221   0.881   8.290  1.4038 -0.4268 -1.7561
 2044SOL    HW217766   3.243   0.756   8.219 -0.7326  0.2296 -0.1223
 2045SOL     OW17767   4.720   1.631   1.163 -0.2704  0.1252  0.0611
 2045SOL    HW117768   0.039   1.605   1.236  1.2012 -0.3453 -1.2085
 2045SOL    HW217769   4.674   1.548   1.149 -2.9063  1.5631  0.2044
 2046SOL     OW17770   4.390   0.704  16.346 -0.2830  0.1424  0.9106
 2046SOL    HW117771   4.345   0.736  16.267 -0.8166  1.8145  1.8905
 2046SOL    HW217772   4.468   0.759  16.341  0.3867 -1.0398 -1.9295
 2047SOL     OW17773   0.985   3.495   3.474 -0.3253 -0.1495 -0.0363
 2047SOL    HW117774   0.997   3.532   3.562 -1.6164  0.0861  0.0499
 2047SOL    HW217775   1.057   3.433   3.479 -1.1021 -1.0551 -0.0107
 2048SOL     OW17776   1.488   0.150   2.742 -0.5789 -0.0587 -0.3469
 2048SOL    HW117777   1.533   0.078   2.788  1.1065  1.8487  0.9946
 2048SOL    HW217778   1.423   0.171   2.809 -0.3628  2.9450 -1.1029
 2049SOL     OW17779   1.451   3.694   6.846 -0.3924 -0.4934  0.2408
 2049SOL    HW117780   1.536   3.652   6.858  0.1846  0.8541  0.8465
 2049SOL    HW217781   1.440   3.666   6.755  1.0794 -1.4793  0.3671
 2050SOL     OW17782   4.344   2.012   3.988  0.2224  0.8281 -0.2579
 2050SOL    HW117783   4.384   1.948   4.047  0.0643  2.0453  1.1672
 2050SOL    HW217784   4.251   2.001   4.010 -0.3827  2.2075 -2.0933
 2051SOL     OW17785   3.417   3.664  12.347  0.2379  0.0619 -0.2108
 2051SOL    HW117786   3.442   3.611  12.422 -2.8791  0.3415  1.0241
 2051SOL    HW217787   3.392   3.602  12.279  1.6096 -2.3763  1.5155
 2052SOL     OW17788   3.796   3.753  15.057  0.2382  0.1142  0.2343
 2052SOL    HW117789   3.848   3.673  15.061  0.0873 -0.1161 -2.3030
 2052SOL    HW217790   3.736   3.706  14.999  1.6267 -0.0537 -1.0605
 2053SOL     OW17791   2.339   2.118   6.420  0.7750  0.3452 -0.5746
 2053SOL    HW117792   2.398   2.191   6.437 -0.5257  1.6365 -1.6384
 2053SOL    HW217793   2.398   2.047   6.393 -0.6586 -1.4649  1.0868
 2054SOL     OW17794   2.798   2.611   0.484  0.5336 -0.5438 -0.1406
 2054SOL    HW117795   2.780   2.533   0.536 -1.4678 -0.3802 -0.5970
 2054SOL    HW217796   2.766   2.678   0.545 -1.7886 -2.5925  0.8879
 2055SOL     OW17797   1.576   0.733   7.332  0.5008  0.2706 -0.0800
 2055SOL    HW117798   1.620   0.817   7.323 -0.2300  0.4996 -1.4484
 2055SOL    HW217799   1.577   0.710   7.239  2.0451 -1.7166  0.4375
 2056SOL     OW17800   3.858   3.340   9.045  0.2771  0.2210  0.5700
 2056SOL    HW117801   3.849   3.405   8.976 -2.1913 -0.2653  0.4331
 2056SOL    HW217802   3.860   3.397   9.122 -1.3646  0.9779  0.0387
 2057SOL     OW17803   4.620   2.696   5.061  0.0318 -0.2270  0.1598
 2057SOL    HW117804   4.549   2.660   5.115 -0.6990  0.1584 -0.5435
 2057SOL    HW217805   4.706   2.674   5.097 -0.0205 -0.7585 -0.0344
 2058SOL     OW17806   3.098   0.766   4.422 -0.3052  0.1646  0.0997
 2058SOL    HW117807   3.061   0.683   4.392  0.1766  1.3709 -3.9647
 2058SOL    HW217808   3.133   0.737   4.506 -0.8795 -0.3554  0.1551
 2059SOL     OW17809   3.385   0.977   7.810  0.1135  0.7678 -0.3393
 2059SOL    HW117810   3.431   0.940   7.734  0.5266  0.9063 -0.1571
 2059SOL    HW217811   3.300   0.936   7.798 -0.3308  0.8227  2.8067
 2060SOL     OW17812   1.966   2.413   0.627 -0.1261 -0.2567  0.2064
 2060SOL    HW117813   2.052   2.445   0.653  0.0610 -0.0230 -0.7156
 2060SOL    HW217814   1.942   2.355   0.700  0.8776 -0.6993  0.1727
 2061SOL     OW17815   4.326   2.580   5.948  0.0633 -0.4401 -0.4362
 2061SOL    HW117816   4.403   2.583   6.005  1.9031 -0.1248 -2.9534
 2061SOL    HW217817   4.360   2.519   5.883 -2.2120 -2.0685 -0.0946
 2062SOL     OW17818   1.269   3.697   3.382  0.2847  0.7382  0.2334
 2062SOL    HW117819   1.223   3.614   3.376  0.8990  0.4570 -0.4645
 2062SOL    HW217820   1.290   3.701   3.289  0.4166 -1.0252  0.1856
 2063SOL     OW17821   4.555   2.665   6.979  0.0138 -0.1444 -0.2557
 2063SOL    HW117822   4.465   2.634   6.974  0.5208 -1.7806  0.9699
 2063SOL    HW217823   4.580   2.627   7.063 -1.8874 -0.3907  0.2063
 2064SOL     OW17824   0.287   3.231   5.720  0.7571 -0.1896  0.1893
 2064SOL    HW117825   0.260   3.282   5.644 -1.1335  0.5457  1.3517
 2064SOL    HW217826   0.223   3.261   5.784  0.5028  0.5446 -0.3996
 2065SOL     OW17827   0.500   3.726   7.708  0.5575 -0.3376 -0.4053
 2065SOL    HW117828   0.535   3.689   7.789 -0.8720 -0.5968  0.0903
 2065SOL    HW217829   0.424   3.776   7.737  1.9303  1.0538  0.8362
 2066SOL     OW17830   1.082   1.742   1.444  0.6578  0.3423  0.7590
 2066SOL    HW117831   0.987   1.742   1.459  0.5543 -0.4597  0.0730
 2066SOL    HW217832   1.104   1.650   1.459  0.7637  0.1134 -0.7723
 2067SOL     OW17833   3.744   4.566   8.224  0.1111 -0.0088  0.0194
 2067SOL    HW117834   3.716   4.484   8.265  1.2514  0.0288  0.8832
 2067SOL    HW217835   3.831   4.539   8.196 -0.1422  0.5776 -1.3593
 2068SOL     OW17836   0.495   1.468   3.200  0.3631 -0.7591 -0.1137
 2068SOL    HW117837   0.523   1.430   3.283  2.4899  1.9425  0.4115
 2068SOL    HW217838   0.560   1.425   3.146 -0.1477 -0.3351 -1.0584
 2069SOL     OW17839   2.703   2.552   0.746  0.3537  0.2002 -0.6692
 2069SOL    HW117840   2.678   2.644   0.756  1.9118  0.5362  0.0390
 2069SOL    HW217841   2.755   2.530   0.823 -0.2679  1.6009  0.1523
 2070SOL     OW17842   1.172   0.519   4.580  0.0228 -0.6310 -0.6162
 2070SOL    HW117843   1.101   0.580   4.599  1.2362 -0.0347  1.9058
 2070SOL    HW217844   1.130   0.438   4.551  1.5705 -1.8597  0.6170
 2071SOL     OW17845   2.201   4.246   3.200  0.1170 -0.2627 -0.5423
 2071SOL    HW117846   2.194   4.341   3.207 -3.4668 -0.7621  2.3389
 2071SOL    HW217847   2.211   4.232   3.294 -2.1040 -0.2434 -0.3053
 2072SOL     OW17848   2.002   0.299   8.764 -0.1736 -0.1029 -0.3173
 2072SOL    HW117849   2.067   0.355   8.722  0.4816 -1.0098 -0.5095
 2072SOL    HW217850   1.932   0.361   8.786 -0.5425  0.0508 -1.9511
 2073SOL     OW17851   1.337   3.540   1.255  0.1283 -0.1247 -0.3291
 2073SOL    HW117852   1.372   3.613   1.305  0.3867  0.3467 -1.1907
 2073SOL    HW217853   1.380   3.560   1.172  1.8031 -2.2796  0.0277
 2074SOL     OW17854   4.267   3.416  12.328 -0.1997  0.3325 -0.4286
 2074SOL    HW117855   4.315   3.343  12.289 -1.8038 -1.1132  0.3232
 2074SOL    HW217856   4.265   3.473  12.251  3.1499 -0.1070 -0.8686
 2075SOL     OW17857   4.155   4.713   7.283  0.5415  0.1362  0.6797
 2075SOL    HW117858   4.168   4.707   7.188  0.0661  2.7459  0.4604
 2075SOL    HW217859   4.060   4.704   7.276  0.6730 -0.2628 -0.7104
 2076SOL     OW17860   4.455   4.496   5.139  0.1943  0.2972 -0.0291
 2076SOL    HW117861   4.431   4.515   5.230  0.8272 -0.8144  0.3602
 2076SOL    HW217862   4.373   4.520   5.095  0.8195 -0.2345 -1.4577
 2077SOL     OW17863   2.486   3.881  16.068 -0.2439  0.0371 -0.0279
 2077SOL    HW117864   2.443   3.967  16.070 -1.0355 -0.5086  4.9869
 2077SOL    HW217865   2.526   3.889  15.981 -0.6242 -2.7545 -0.4493
 2078SOL     OW17866   3.412   3.434   9.053 -0.3715  0.6369 -0.4278
 2078SOL    HW117867   3.482   3.489   9.019  0.0693  0.1233 -0.3491
 2078SOL    HW217868   3.416   3.446   9.148 -0.7197 -0.8525 -0.2218
 2079SOL     OW17869   4.356   2.784  12.128 -0.5712 -0.2343  0.0720
 2079SOL    HW117870   4.361   2.728  12.205  1.5947 -0.5747 -0.3061
 2079SOL    HW217871   4.330   2.714  12.067 -1.2636 -1.5900  1.9220
 2080SOL     OW17872   0.803   2.944   4.263 -0.6659  0.3783 -0.2347
 2080SOL    HW117873   0.869   2.882   4.234 -0.3332  1.3448 -1.5445
 2080SOL    HW217874   0.737   2.883   4.294  1.5060 -1.3850  0.9395
 2081SOL     OW17875   1.371   2.095   5.917  0.0225  0.3854 -0.5243
 2081SOL    HW117876   1.384   2.132   5.829 -1.2659  2.0084 -0.0462
 2081SOL    HW217877   1.363   2.001   5.901 -1.6227  0.3344  0.6450
 2082SOL     OW17878   1.567   1.869   3.177  0.1226 -0.0293 -0.1512
 2082SOL    HW117879   1.501   1.806   3.147  0.2905  0.6387 -1.8968
 2082SOL    HW217880   1.627   1.873   3.102  1.6709  0.4225  1.1161
 2083SOL     OW17881   2.126   0.489  12.852  0.3047 -0.0715 -0.2142
 2083SOL    HW117882   2.219   0.511  12.847  0.1605  0.2629 -1.3172
 2083SOL    HW217883   2.095   0.508  12.941  2.0986 -0.9948  0.6077
 2084SOL     OW17884   0.709   2.541  16.732  0.1234 -0.7179 -0.5033
 2084SOL    HW117885   0.620   2.521  16.702 -0.0069 -0.0891 -0.5401
 2084SOL    HW217886   0.737   2.599  16.662 -2.6386  0.4498 -0.6661
 2085SOL     OW17887   4.321   1.731   8.791 -0.2958 -0.3109  0.5307
 2085SOL    HW117888   4.322   1.791   8.865  1.7507 -2.0525  1.9064
 2085SOL    HW217889   4.238   1.752   8.748 -0.1088 -1.1775 -0.2528
 2086SOL     OW17890   0.970   1.130   4.208  0.0987 -0.0309  0.6640
 2086SOL    HW117891   0.990   1.069   4.136  2.8099  0.8400  0.6899
 2086SOL    HW217892   1.036   1.197   4.194  0.9871 -0.2891  3.5499
 2087SOL     OW17893   0.387   2.613   4.343 -0.2614 -0.6507  0.3374
 2087SOL    HW117894   0.442   2.614   4.421  1.2115  1.6192 -0.7071
 2087SOL    HW217895   0.434   2.555   4.283 -0.1138  0.2120 -0.3849
 2088SOL     OW17896   3.941   1.905   7.145  0.4465 -0.4435 -0.3017
 2088SOL    HW117897   3.993   1.975   7.185  0.7808  0.3327 -2.1068
 2088SOL    HW217898   3.942   1.843   7.218 -3.9822 -0.5622 -0.3972
 2089SOL     OW17899   4.395   4.021  16.660  0.1480  0.6011  0.2308
 2089SOL    HW117900   4.470   4.019  16.601  0.0647 -0.5415  0.1624
 2089SOL    HW217901   4.418   4.080  16.732  0.1301  0.1673  0.5994
 2090SOL     OW17902   3.196   4.317   8.846  0.0034 -0.3832  0.4563
 2090SOL    HW117903   3.146   4.365   8.912  0.4809  0.0540  0.4969
 2090SOL    HW217904   3.147   4.345   8.769  1.8539  0.9919 -0.2138
 2091SOL     OW17905   3.523   3.078   6.104 -0.3407 -0.0975 -0.4629
 2091SOL    HW117906   3.591   3.014   6.123 -0.4538 -0.3729 -0.9989
 2091SOL    HW217907   3.557   3.113   6.021  1.2758 -0.3027  0.1125
 2092SOL     OW17908   0.989   3.485  10.851 -0.8169 -0.2060 -0.2174
 2092SOL    HW117909   1.002   3.396  10.885  0.3221 -0.0970 -0.3846
 2092SOL    HW217910   0.894   3.495  10.858 -0.7936  0.6924 -1.2751
 2093SOL     OW17911   2.755   4.145   6.790 -0.1824 -0.5684 -0.2223
 2093SOL    HW117912   2.713   4.082   6.849 -1.1197  0.6129  0.3684
 2093SOL    HW217913   2.726   4.233   6.812  2.0956 -0.3923  2.1867
 2094SOL     OW17914   0.696   2.916   1.323  0.0503 -0.1760 -0.1497
 2094SOL    HW117915   0.667   2.829   1.296  0.4578 -1.3823  3.3156
 2094SOL    HW217916   0.736   2.910   1.409 -0.6926  0.0262  0.2054
 2095SOL     OW17917   3.782   1.832   7.447  0.1727 -0.3982 -0.1434
 2095SOL    HW117918   3.748   1.921   7.458  3.1729  0.6828  0.6263
 2095SOL    HW217919   3.714   1.791   7.394 -1.4585  0.6654  1.1194
 2096SOL     OW17920   1.979   1.990   2.541 -0.0978  0.2922 -0.2880
 2096SOL    HW117921   1.964   2.055   2.610 -0.9466  1.5255 -1.6239
 2096SOL    HW217922   1.893   1.970   2.505 -0.0837 -1.9078  0.9548
 2097SOL     OW17923   3.532   0.559  10.312 -0.0259  0.0051 -0.8576
 2097SOL    HW117924   3.485   0.603  10.242 -0.5814  0.9266  0.0927
 2097SOL    HW217925   3.468   0.551  10.383 -2.3914 -0.4340 -3.0508
 2098SOL     OW17926   3.019   0.483  12.480 -0.2007  0.0165  0.2817
 2098SOL    HW117927   2.946   0.476  12.541  0.8174 -1.5783  1.3076
 2098SOL    HW217928   2.982   0.537  12.410  0.4075 -0.5098 -0.4514
 2099SOL     OW17929   1.420   1.535  10.584  0.4528 -0.2095  0.1472
 2099SOL    HW117930   1.384   1.485  10.511  0.6952 -0.5622  0.2658
 2099SOL    HW217931   1.375   1.616  10.562  1.1699  0.3867  0.8758
 2100SOL     OW17932   4.648   1.455   3.281 -0.3557 -0.0540 -0.4158
 2100SOL    HW117933   4.622   1.479   3.191  0.0934  1.5904 -0.1123
 2100SOL    HW217934   4.561   1.438   3.317  0.2315  0.9130  1.4494
 2101SOL     OW17935   0.699   1.191   2.532  0.0155 -0.4465 -0.2100
 2101SOL    HW117936   0.733   1.240   2.608  2.5840 -2.1011 -0.2759
 2101SOL    HW217937   0.782   1.158   2.497 -0.5160 -2.3702  0.3478
 2102SOL     OW17938   3.423   4.153   1.848  0.2005 -0.2324  0.8083
 2102SOL    HW117939   3.346   4.166   1.793  1.3332  0.4066 -0.6178
 2102SOL    HW217940   3.490   4.192   1.792  1.6723 -1.6993  1.5625
 2103SOL     OW17941   2.517   4.276   7.038  0.0058 -0.6972  0.5958
 2103SOL    HW117942   2.488   4.221   6.965 -3.8009  1.1523  0.7361
 2103SOL    HW217943   2.473   4.231   7.110 -2.2945  1.1166  0.3433
 2104SOL     OW17944   1.747   4.487  11.935 -0.5704 -0.0895 -0.4941
 2104SOL    HW117945   1.663   4.523  11.962 -0.3961  0.4561 -0.6736
 2104SOL    HW217946   1.800   4.552  11.981 -2.6627  0.8300  0.5762
 2105SOL     OW17947   1.201   3.238  13.975 -0.4194 -0.0783  0.3226
 2105SOL    HW117948   1.107   3.223  13.970 -0.2280 -0.9114 -0.6137
 2105SOL    HW217949   1.210   3.280  14.061  0.9173 -0.5649  0.4216
 2106SOL     OW17950   4.429   4.651   3.459 -0.7428  0.1441 -0.5765
 2106SOL    HW117951   4.467   4.729   3.418  0.4498 -0.1220  0.0256
 2106SOL    HW217952   4.503   4.594   3.479 -0.3601  0.4880 -1.0351
 2107SOL     OW17953   4.304   3.419   6.101  0.3025  0.0337  0.2385
 2107SOL    HW117954   4.399   3.417   6.091  0.5881  2.3188  2.2571
 2107SOL    HW217955   4.288   3.513   6.093  2.7302  0.4428  0.1450
 2108SOL     OW17956   3.154   3.684   2.370  0.3792 -0.0309 -0.1037
 2108SOL    HW117957   3.107   3.762   2.341 -1.7772 -0.8655  1.2058
 2108SOL    HW217958   3.225   3.682   2.305  1.0178  2.5958  0.4872
 2109SOL     OW17959   0.698   1.226   6.812 -0.3189 -0.1290  0.2479
 2109SOL    HW117960   0.707   1.130   6.808  2.1762  0.1164 -0.0210
 2109SOL    HW217961   0.756   1.238   6.887  0.6320  1.6946 -0.7982
 2110SOL     OW17962   2.002   2.706  17.018 -0.5580 -0.1847 -0.1608
 2110SOL    HW117963   1.973   2.626  16.975  1.5799 -0.1015 -1.7794
 2110SOL    HW217964   1.943   2.779  16.998 -0.7507 -0.7367 -1.5895
 2111SOL     OW17965   1.972   3.757   5.085  0.3262 -0.1009 -0.0013
 2111SOL    HW117966   2.025   3.830   5.117 -1.2672  0.2188  1.9348
 2111SOL    HW217967   2.034   3.705   5.034 -0.5062 -1.6186  0.5393
 2112SOL     OW17968   0.394   3.252  11.840 -0.0237  0.2079  0.8741
 2112SOL    HW117969   0.400   3.164  11.878  0.9189 -0.3874 -0.6662
 2112SOL    HW217970   0.470   3.276  11.893  0.9938  0.0894 -0.5472
 2113SOL     OW17971   0.621   0.439   2.683  0.2500 -0.3515 -0.0510
 2113SOL    HW117972   0.556   0.508   2.693 -0.4156 -0.7172 -1.8959
 2113SOL    HW217973   0.562   0.366   2.663 -1.9166  1.2235  0.5223
 2114SOL     OW17974   1.482   3.296   4.580 -0.2603  0.5043 -0.2574
 2114SOL    HW117975   1.411   3.233   4.586  0.3421 -0.0214  1.2307
 2114SOL    HW217976   1.509   3.293   4.488  0.2326 -0.8990 -0.0621
 2115SOL     OW17977   0.737   3.738   3.874  0.7859  0.0393 -0.1659
 2115SOL    HW117978   0.732   3.656   3.825  1.5499  0.0793 -0.3210
 2115SOL    HW217979   0.816   3.718   3.925  2.0471 -0.6381 -2.3497
 2116SOL     OW17980   3.640   0.878   1.822  0.0775  0.2575 -0.1463
 2116SOL    HW117981   3.655   0.793   1.862 -2.9926  0.3133  1.0823
 2116SOL    HW217982   3.551   0.863   1.791 -0.4354  0.4575  1.2557
 2117SOL     OW17983   0.381   2.015  14.500 -0.2027  0.5063  0.6531
 2117SOL    HW117984   0.308   1.978  14.449  1.3270 -0.5549 -0.7772
 2117SOL    HW217985   0.356   2.107  14.499  0.8022  0.7629 -0.6177
 2118SOL     OW17986   2.014   2.712   7.650 -0.4442 -0.4355 -0.3084
 2118SOL    HW117987   1.950   2.669   7.594 -0.0934  1.5018 -2.1786
 2118SOL    HW217988   2.075   2.752   7.588 -0.6066 -1.9718 -1.4306
 2119SOL     OW17989   3.112   0.988  16.351  0.0554 -0.2978 -0.3540
 2119SOL    HW117990   3.122   0.921  16.418  0.1404 -0.8351 -0.9026
 2119SOL    HW217991   3.176   0.951  16.291  0.8578  0.6419 -0.0927
 2120SOL     OW17992   1.575   0.351   2.354  0.1211  0.3135  0.4064
 2120SOL    HW117993   1.493   0.398   2.341  0.6498  0.8085 -1.1895
 2120SOL    HW217994   1.614   0.411   2.417  2.4313 -0.5795 -0.1541
 2121SOL     OW17995   0.573   2.266   2.033 -0.1062  0.5552  0.1064
 2121SOL    HW117996   0.527   2.241   1.953  1.0390  0.1586 -0.4289
 2121SOL    HW217997   0.495   2.285   2.084 -1.9050  0.0750 -2.4678
 2122SOL     OW17998   2.223   4.630   8.418  0.2591  0.4182 -0.3549
 2122SOL    HW117999   2.147   4.673   8.381  0.3896 -0.8485 -2.0742
 2122SOL    HW218000   2.265   4.586   8.344 -0.0817  1.7846 -1.3467
 2123SOL     OW18001   4.689   2.952   7.533  1.0352 -0.0851  0.2613
 2123SOL    HW118002   4.626   2.922   7.467  0.4930  1.1019  0.2442
 2123SOL    HW218003   4.647   3.031   7.567 -2.4128 -1.4060 -0.8438
 2124SOL     OW18004   0.245   4.516   0.486  0.1029  0.9800  0.0106
 2124SOL    HW118005   0.190   4.457   0.538  0.6918  0.2759 -0.1650
 2124SOL    HW218006   0.224   4.489   0.396 -0.7386 -1.1007  0.8291
 2125SOL     OW18007   0.669   1.422   0.686 -0.0065 -0.5096  0.0266
 2125SOL    HW118008   0.726   1.359   0.730  1.8549  1.9585  1.2029
 2125SOL    HW218009   0.644   1.480   0.758  0.9343  0.1211 -0.1481
 2126SOL     OW18010   0.970   1.384  16.964 -0.3554  0.5337 -0.1232
 2126SOL    HW118011   0.965   1.338  17.048 -0.5011  0.2105 -0.3113
 2126SOL    HW218012   0.889   1.351  16.924 -0.2512  0.1264  0.0039
 2127SOL     OW18013   3.542   1.284  12.062  0.5467  0.1650  0.0946
 2127SOL    HW118014   3.513   1.194  12.078  1.7675 -0.4849 -1.3988
 2127SOL    HW218015   3.630   1.273  12.025  0.4615 -1.3275  0.3195
 2128SOL     OW18016   4.369   4.550   5.397 -0.7491  0.5650  0.1301
 2128SOL    HW118017   4.394   4.483   5.460  1.8120  0.4889 -1.0022
 2128SOL    HW218018   4.433   4.619   5.414  1.1851 -1.4025  0.8299
 2129SOL     OW18019   0.092   1.085   1.872 -0.2499  0.1412 -0.0352
 2129SOL    HW118020   0.110   1.118   1.961 -0.4594 -1.4523  0.5987
 2129SOL    HW218021   0.003   1.053   1.890 -0.2785  0.1688 -0.1286
 2130SOL     OW18022   1.188   4.313   6.098 -0.0070  0.0946 -0.1315
 2130SOL    HW118023   1.233   4.387   6.059  0.6350  0.3427  1.0634
 2130SOL    HW218024   1.099   4.346   6.104  0.0765  0.3738 -0.4653
 2131SOL     OW18025   2.456   1.440   5.660  0.4856  0.7048  0.0175
 2131SOL    HW118026   2.409   1.398   5.588 -4.0100  0.5159  3.0552
 2131SOL    HW218027   2.399   1.514   5.681 -1.9548 -1.2653  0.3222
 2132SOL     OW18028   1.202   3.517   7.436  0.5148  0.5053 -0.4111
 2132SOL    HW118029   1.141   3.552   7.372 -0.0816  2.2710  1.1323
 2132SOL    HW218030   1.152   3.536   7.516  0.7499 -1.2235  0.1585
 2133SOL     OW18031   3.686   2.740   4.395 -0.4370 -0.4626 -0.4815
 2133SOL    HW118032   3.705   2.818   4.447 -1.6153 -1.1823  1.0049
 2133SOL    HW218033   3.745   2.755   4.321  1.1293  0.6210  0.9955
 2134SOL     OW18034   3.308   0.697   4.911 -0.0153 -0.0430 -0.3079
 2134SOL    HW118035   3.377   0.761   4.920 -0.2130  0.4413 -2.2191
 2134SOL    HW218036   3.356   0.614   4.912 -2.7071 -1.6178 -0.4997
 2135SOL     OW18037   0.076   0.929   2.555  0.3442  0.6984 -0.5802
 2135SOL    HW118038   0.127   0.980   2.493 -1.3271  0.6831 -1.9651
 2135SOL    HW218039   0.116   0.844   2.541  0.3306  0.3849  1.2427
 2136SOL     OW18040   4.460   1.784   1.758 -0.1363  0.4560 -0.2267
 2136SOL    HW118041   4.534   1.842   1.741 -0.3487  0.3636 -1.4462
 2136SOL    HW218042   4.376   1.818   1.730 -0.6302  0.4813  1.2936
 2137SOL     OW18043   0.468   1.244   6.025 -0.9295 -0.0824  0.0838
 2137SOL    HW118044   0.434   1.333   6.017 -1.2475 -0.4040 -2.3950
 2137SOL    HW218045   0.554   1.261   6.064 -0.8952 -0.7884  0.3079
 2138SOL     OW18046   3.421   3.868   9.083 -0.0170 -0.2162 -0.0249
 2138SOL    HW118047   3.328   3.877   9.064  0.3102  0.6655 -1.1969
 2138SOL    HW218048   3.447   3.794   9.027 -2.1779 -1.1356  0.2119
 2139SOL     OW18049   3.459   0.043   9.385  0.8191  0.2384 -0.3945
 2139SOL    HW118050   3.502   0.091   9.314 -1.5137  1.8871 -0.7100
 2139SOL    HW218051   3.385   0.006   9.335  2.7574 -2.9460 -0.8556
 2140SOL     OW18052   3.013   2.142  13.091 -0.4901 -0.0276 -0.5662
 2140SOL    HW118053   3.080   2.074  13.099  0.7375  0.9589 -2.5994
 2140SOL    HW218054   2.957   2.111  13.163 -0.7130 -1.1152 -1.2040
 2141SOL     OW18055   3.175   1.780  16.630  0.2153 -0.4001 -0.6977
 2141SOL    HW118056   3.090   1.739  16.618 -0.8766  1.6132  0.1959
 2141SOL    HW218057   3.219   1.772  16.545  0.5885 -0.0928 -0.5342
 2142SOL     OW18058   3.705   1.986   6.216 -0.2278  0.5836 -0.1306
 2142SOL    HW118059   3.651   2.034   6.278 -0.9364  0.4792 -0.6626
 2142SOL    HW218060   3.660   2.019   6.138 -0.0716  0.1191 -0.4210
 2143SOL     OW18061   2.228   0.853  16.736  0.5606 -0.2299  0.3494
 2143SOL    HW118062   2.196   0.892  16.817  0.6520  2.6454 -0.9790
 2143SOL    HW218063   2.299   0.912  16.709  0.3133  0.2633  0.7768
 2144SOL     OW18064   1.726   0.462   5.624  0.1118 -0.1462 -0.7050
 2144SOL    HW118065   1.794   0.468   5.692 -0.5319 -0.4484 -0.0284
 2144SOL    HW218066   1.779   0.450   5.546  1.4565  1.7358 -0.0847
 2145SOL     OW18067   4.725   0.015   5.247 -0.7776  0.3716 -0.3576
 2145SOL    HW118068   4.650   4.721   5.298  0.9781 -1.6670  0.9442
 2145SOL    HW218069   4.692   0.097   5.210 -0.5588  0.7069  0.1949
 2146SOL     OW18070   1.728   1.784   5.179 -0.1062 -0.0613  0.5767
 2146SOL    HW118071   1.724   1.713   5.115  1.6265  1.5041 -1.2922
 2146SOL    HW218072   1.723   1.735   5.261  2.1587  1.5065  1.6682
 2147SOL     OW18073   2.309   1.135  11.098  0.1731  0.0858 -0.5395
 2147SOL    HW118074   2.330   1.228  11.108 -0.6833  0.2551 -0.3519
 2147SOL    HW218075   2.247   1.117  11.168  0.9490 -0.9053 -0.1043
 2148SOL     OW18076   2.234   0.861   0.638  0.4795  0.0823  0.0409
 2148SOL    HW118077   2.239   0.804   0.715 -1.4852  0.8177  0.7155
 2148SOL    HW218078   2.264   0.803   0.569 -0.4063  0.6260 -0.7925
 2149SOL     OW18079   1.475   0.727  10.402  0.6075 -0.1021 -0.5003
 2149SOL    HW118080   1.517   0.646  10.432 -0.9715 -0.3684  1.0445
 2149SOL    HW218081   1.538   0.755  10.336  0.7144 -1.0481 -0.8050
 2150SOL     OW18082   1.302   2.762   1.202 -0.1265 -0.3054  1.1047
 2150SOL    HW118083   1.360   2.769   1.278 -1.2540 -0.8465  2.0173
 2150SOL    HW218084   1.258   2.846   1.210 -0.7772 -0.6874  1.5532
 2151SOL     OW18085   3.414   3.807   3.564 -0.0108 -0.1643 -0.0135
 2151SOL    HW118086   3.323   3.836   3.574  0.1488  0.3700 -0.1613
 2151SOL    HW218087   3.441   3.853   3.643  0.4706 -0.1359 -0.1925
 2152SOL     OW18088   1.832   2.878   6.496  0.4607  0.3923  0.1164
 2152SOL    HW118089   1.905   2.817   6.484  0.5250  0.5313 -0.1846
 2152SOL    HW218090   1.809   2.854   6.586  1.8382  0.9131  0.6033
 2153SOL     OW18091   2.539   0.824   8.179 -0.3489 -0.4692 -0.1133
 2153SOL    HW118092   2.610   0.883   8.156  0.2571 -1.5099 -0.9503
 2153SOL    HW218093   2.543   0.819   8.274  1.8986 -0.4668 -0.2109
 2154SOL     OW18094   1.402   0.502  14.422  0.0932  0.4691 -0.1710
 2154SOL    HW118095   1.371   0.552  14.498 -0.9920 -0.8178  0.2116
 2154SOL    HW218096   1.371   0.555  14.349 -3.7978  0.2959  1.3625
 2155SOL     OW18097   2.674   0.507  11.745 -0.0092  0.1148 -0.3898
 2155SOL    HW118098   2.702   0.598  11.733 -1.5897  0.6024 -0.3407
 2155SOL    HW218099   2.678   0.491  11.839 -2.0078  1.7920 -0.0192
 2156SOL     OW18100   3.961   2.965   0.837 -0.3303  0.0781  0.5038
 2156SOL    HW118101   3.952   2.876   0.805 -0.8101  0.1689  0.3936
 2156SOL    HW218102   4.052   2.995   0.835  0.4754 -2.6167 -2.2113
 2157SOL     OW18103   4.103   1.485   6.620 -0.8353 -0.6080  0.0279
 2157SOL    HW118104   4.039   1.440   6.676  0.6994 -0.6724  1.7511
 2157SOL    HW218105   4.060   1.542   6.557 -1.1520  0.4436  1.1801
 2158SOL     OW18106   2.718   4.032   8.431  0.0108  0.0391 -0.3436
 2158SOL    HW118107   2.770   3.952   8.425 -0.3116 -0.2318  0.4593
 2158SOL    HW218108   2.643   3.999   8.381  2.4318 -3.5631 -1.5559
 2159SOL     OW18109   4.259   2.977   8.827  0.0895  0.3312 -0.3833
 2159SOL    HW118110   4.305   3.059   8.844 -1.9533  0.7579  3.1912
 2159SOL    HW218111   4.329   2.912   8.815  0.5136  0.4278  1.4833
 2160SOL     OW18112   2.037   3.628   8.348  0.0966 -0.2822  0.1659
 2160SOL    HW118113   2.066   3.697   8.288 -0.6096 -1.9650 -2.1158
 2160SOL    HW218114   1.970   3.672   8.401  0.8532  0.7166  0.2867
 2161SOL     OW18115   3.179   4.015  16.561 -0.0211 -0.3693  0.1753
 2161SOL    HW118116   3.210   3.925  16.557 -1.3554 -0.6823 -2.6308
 2161SOL    HW218117   3.140   4.016  16.649  0.6728  5.0804  0.4499
 2162SOL     OW18118   3.320   2.254   1.709  0.0693  0.3190  0.0933
 2162SOL    HW118119   3.253   2.249   1.778  0.9599  0.6419  0.9719
 2162SOL    HW218120   3.365   2.171   1.721 -1.2050 -0.5841 -1.3133
 2163SOL     OW18121   2.872   1.633  10.406 -0.1835  0.0998  0.4301
 2163SOL    HW118122   2.852   1.541  10.421  2.5431 -0.6557 -0.6202
 2163SOL    HW218123   2.894   1.645  10.314 -1.2523 -2.0392 -0.1133
 2164SOL     OW18124   3.681   0.663   6.426 -0.4596 -0.3240 -0.0328
 2164SOL    HW118125   3.752   0.724   6.442 -0.1629 -1.0628  1.4549
 2164SOL    HW218126   3.666   0.635   6.516  0.9835 -1.1546 -0.0441
 2165SOL     OW18127   3.852   4.314   5.761 -0.2636  0.3264  0.1407
 2165SOL    HW118128   3.780   4.355   5.712  0.3734 -0.2093 -1.2476
 2165SOL    HW218129   3.813   4.231   5.786 -1.5931  0.0361 -2.8532
 2166SOL     OW18130   0.195   3.938   2.098  0.1794 -0.3438 -0.4461
 2166SOL    HW118131   0.132   3.952   2.169 -0.0760 -0.1722 -0.7065
 2166SOL    HW218132   0.204   4.030   2.071  0.1261  0.6105  2.8325
 2167SOL     OW18133   0.945   0.723  13.419 -0.1014 -1.2223 -0.5867
 2167SOL    HW118134   0.934   0.643  13.369 -0.1149 -1.9498  0.5877
 2167SOL    HW218135   0.969   0.686  13.503  0.1622 -0.1212 -0.1760
 2168SOL     OW18136   3.291   2.197   0.078 -0.2338  0.2120 -0.1402
 2168SOL    HW118137   3.196   2.206   0.082 -0.0724  1.3590  1.0971
 2168SOL    HW218138   3.300   2.111   0.036  1.1157  0.3272 -0.0945
 2169SOL     OW18139   0.307   0.907   1.233 -0.5587 -0.0926 -0.1783
 2169SOL    HW118140   0.362   0.963   1.288 -0.5411 -0.4075  0.1283
 2169SOL    HW218141   0.358   0.827   1.240 -0.1277  0.2636  0.8084
 2170SOL     OW18142   0.692   3.853   3.485 -0.4033 -0.2770 -0.0865
 2170SOL    HW118143   0.750   3.927   3.503  0.0401 -0.6198 -0.1123
 2170SOL    HW218144   0.641   3.849   3.566  1.9872  0.2375  1.4547
 2171SOL     OW18145   0.010   0.179   2.928  0.0836  0.3758  0.1687
 2171SOL    HW118146   0.028   0.097   2.976  0.9401  0.2604 -0.3593
 2171SOL    HW218147   0.027   0.248   2.992  0.6054 -0.4363  0.9284
 2172SOL     OW18148   0.360   2.836   4.145  0.1067 -0.2074  0.1654
 2172SOL    HW118149   0.351   2.906   4.210 -0.7417  0.5406 -0.7617
 2172SOL    HW218150   0.316   2.764   4.191  0.2366 -0.7822 -0.6162
 2173SOL     OW18151   2.133   1.431   4.935 -0.5664 -0.0332 -0.8497
 2173SOL    HW118152   2.185   1.359   4.971 -0.5805  0.6599  0.5708
 2173SOL    HW218153   2.111   1.392   4.851 -1.2784  1.4479 -1.3525
 2174SOL     OW18154   0.810   3.776   7.644 -0.0084 -0.0408  0.1638
 2174SOL    HW118155   0.724   3.807   7.671  1.2085  2.7639  0.8497
 2174SOL    HW218156   0.805   3.799   7.551 -1.5043  0.5721  0.3995
 2175SOL     OW18157   1.852   1.559   5.716  0.1474  0.3164 -0.0859
 2175SOL    HW118158   1.927   1.614   5.740  1.5096 -1.0553 -1.2159
 2175SOL    HW218159   1.817   1.550   5.805 -1.5724  3.3005 -0.4579
 2176SOL     OW18160   3.767   2.660   8.385 -0.6274 -0.6677 -0.4466
 2176SOL    HW118161   3.694   2.717   8.409 -1.0784 -1.5454  0.2793
 2176SOL    HW218162   3.800   2.643   8.473 -1.7548  1.5903  0.4206
 2177SOL     OW18163   0.105   2.194   2.401 -0.2361 -0.5113 -0.1843
 2177SOL    HW118164   0.026   2.243   2.380  1.8325  2.4851 -1.0175
 2177SOL    HW218165   0.114   2.118   2.343  2.9643 -1.8107  1.9612
 2178SOL     OW18166   0.201   4.316  10.250 -0.7797 -0.2697  0.3007
 2178SOL    HW118167   0.255   4.395  10.257 -1.1646  0.0426 -0.2284
 2178SOL    HW218168   0.141   4.323  10.325 -0.6940 -0.8137  0.4150
 2179SOL     OW18169   0.947   0.906   8.767 -0.0517  0.1536 -0.5409
 2179SOL    HW118170   0.977   0.816   8.779 -0.5211 -0.1270 -1.4645
 2179SOL    HW218171   0.993   0.958   8.833 -0.1242 -0.8148  0.2742
 2180SOL     OW18172   1.011   0.778   1.268 -0.0357 -0.1321 -0.1968
 2180SOL    HW118173   1.070   0.816   1.333 -1.2825  1.1545  0.2141
 2180SOL    HW218174   1.071   0.773   1.194  0.1822  0.6459 -0.0718
 2181SOL     OW18175   0.466   1.982   5.139 -0.3202 -0.6561  0.0155
 2181SOL    HW118176   0.473   1.888   5.122  0.7319 -0.3527 -1.2553
 2181SOL    HW218177   0.559   1.998   5.156 -0.0538 -0.9252 -1.1788
 2182SOL     OW18178   3.703   2.026   3.333  0.7495  0.1089 -0.1698
 2182SOL    HW118179   3.772   2.054   3.393 -0.2404 -1.2593  1.6074
 2182SOL    HW218180   3.697   2.094   3.266 -2.6268  1.6225  1.6446
 2183SOL     OW18181   4.308   2.612   1.600  0.3616 -0.2706 -0.0914
 2183SOL    HW118182   4.251   2.545   1.636 -0.1083 -0.7956 -1.8001
 2183SOL    HW218183   4.263   2.615   1.516  0.6445 -1.2248 -0.2745
 2184SOL     OW18184   4.006   2.991  11.514 -0.2626  0.2957 -0.4405
 2184SOL    HW118185   4.077   3.054  11.504  2.0128 -2.1419  0.2076
 2184SOL    HW218186   3.951   3.007  11.438 -0.8832  0.0930 -0.0333
 2185SOL     OW18187   1.022   1.554   8.531 -0.2124 -0.0101  0.1863
 2185SOL    HW118188   1.020   1.458   8.521  0.2441 -0.0070  0.0466
 2185SOL    HW218189   1.038   1.587   8.442  0.9012  2.2618  1.2528
 2186SOL     OW18190   3.539   3.528  10.825 -0.3400  0.0843  0.3238
 2186SOL    HW118191   3.545   3.433  10.833  0.2920  0.1225  0.3471
 2186SOL    HW218192   3.622   3.551  10.783  1.1148 -3.3296  1.3086
 2187SOL     OW18193   0.868   0.875   5.426 -0.0300  0.0813  0.1350
 2187SOL    HW118194   0.873   0.970   5.435 -1.9116  0.3500 -1.7124
 2187SOL    HW218195   0.912   0.873   5.341 -0.3920  3.1433 -0.1407
 2188SOL     OW18196   0.989   1.346   8.083 -0.6428  0.1752 -0.1748
 2188SOL    HW118197   0.958   1.435   8.099 -1.6032 -0.0456 -0.7878
 2188SOL    HW218198   0.957   1.329   7.995 -2.3781 -1.4219  0.7733
 2189SOL     OW18199   1.695   2.649   0.774 -0.2846 -1.0048 -0.3549
 2189SOL    HW118200   1.715   2.690   0.858  1.1327 -2.5131  0.0441
 2189SOL    HW218201   1.758   2.576   0.772  0.0383 -0.7862  1.9753
 2190SOL     OW18202   1.946   3.713   6.308 -0.0836 -0.3345  1.1016
 2190SOL    HW118203   2.014   3.705   6.375 -2.0425  2.6394  3.4307
 2190SOL    HW218204   1.959   3.791   6.254 -0.0683 -1.5877 -0.6954
 2191SOL     OW18205   3.647   1.982   2.612 -0.4242  0.7375  0.7117
 2191SOL    HW118206   3.600   2.015   2.536  0.8673  2.4184  0.6487
 2191SOL    HW218207   3.607   2.039   2.678  1.2688  1.6265  0.9627
 2192SOL     OW18208   3.408   2.294   6.287 -0.1322 -0.2771  0.8351
 2192SOL    HW118209   3.447   2.358   6.346  3.6216  0.5102 -2.4454
 2192SOL    HW218210   3.331   2.342   6.254  0.9004  1.3386  0.7735
 2193SOL     OW18211   0.491   0.906   0.939  0.5508  0.1007  0.4732
 2193SOL    HW118212   0.535   0.871   1.017  0.3507  1.9829  1.4275
 2193SOL    HW218213   0.404   0.867   0.941 -0.3113  2.0884  1.6249
 2194SOL     OW18214   2.119   4.325   7.041 -0.4495  0.0379 -0.3439
 2194SOL    HW118215   2.090   4.409   7.004  0.3098  0.5626  0.2476
 2194SOL    HW218216   2.144   4.350   7.130  0.4100  0.8729 -0.8249
 2195SOL     OW18217   0.469   1.385  10.749 -0.9761 -0.2070  0.0583
 2195SOL    HW118218   0.487   1.291  10.759 -1.8766 -0.3772  0.0224
 2195SOL    HW218219   0.542   1.397  10.688  1.0964 -2.4050  2.0728
 2196SOL     OW18220   1.275   1.510   1.156 -0.2810 -0.2745 -0.1078
 2196SOL    HW118221   1.273   1.575   1.226 -0.1021 -0.8242  0.4112
 2196SOL    HW218222   1.328   1.557   1.092 -1.2795 -1.3667 -1.7373
 2197SOL     OW18223   0.498   0.853  15.845  0.0981 -0.2663 -0.3632
 2197SOL    HW118224   0.543   0.937  15.843  0.5978 -0.5722 -2.0411
 2197SOL    HW218225   0.425   0.868  15.784 -1.3157  0.3449  1.4789
 2198SOL     OW18226   0.064   3.204   1.757 -0.1811  0.0134  0.2894
 2198SOL    HW118227   0.107   3.272   1.809 -0.4980  0.6874 -0.3334
 2198SOL    HW218228   0.098   3.236   1.673 -1.3257  0.4553 -0.0075
 2199SOL     OW18229   1.685   4.536   5.816  0.2875 -0.8909  0.2853
 2199SOL    HW118230   1.600   4.522   5.774  0.2147  2.4381 -0.6689
 2199SOL    HW218231   1.746   4.494   5.755  0.1337 -0.2041 -0.3458
 2200SOL     OW18232   4.701   2.008   2.063  0.4457 -0.1015  0.1997
 2200SOL    HW118233   4.715   2.080   2.124  0.0938  1.9142 -2.1089
 2200SOL    HW218234   4.685   1.934   2.120  2.1169 -0.2748  0.4607
 2201SOL     OW18235   3.170   1.921   6.651 -0.1702  0.3287 -0.2968
 2201SOL    HW118236   3.082   1.883   6.651 -0.2032  0.4048 -1.4989
 2201SOL    HW218237   3.218   1.848   6.689  0.5040  0.8374 -0.1650
 2202SOL     OW18238   4.534   2.671   2.842 -0.6453 -0.6968 -0.7513
 2202SOL    HW118239   4.591   2.712   2.777 -0.9168 -0.5116 -0.8694
 2202SOL    HW218240   4.447   2.662   2.802 -0.9130  2.0959 -0.7653
 2203SOL     OW18241   4.374   1.145   8.119 -0.4158  0.1491 -0.1629
 2203SOL    HW118242   4.442   1.079   8.133 -0.0911  0.1373 -1.8337
 2203SOL    HW218243   4.296   1.120   8.169  0.4902  0.9500  1.6684
 2204SOL     OW18244   0.137   0.261   5.845 -0.6810 -0.4247 -0.3744
 2204SOL    HW118245   0.122   0.355   5.848  0.3748 -0.2368 -1.2235
 2204SOL    HW218246   0.118   0.254   5.939  1.4041 -1.2203  0.0052
 2205SOL     OW18247   2.375   4.029  16.805 -0.1533 -0.3391  0.0085
 2205SOL    HW118248   2.296   4.033  16.752  0.3310  1.5262 -0.5646
 2205SOL    HW218249   2.334   4.000  16.887 -0.6456  2.3941  0.7373
 2206SOL     OW18250   2.051   0.366   2.622  0.6149  0.1023 -0.2392
 2206SOL    HW118251   1.989   0.412   2.678 -0.4778 -2.0422  0.2872
 2206SOL    HW218252   2.092   0.446   2.588 -1.2532  1.0172 -0.3620
 2207SOL     OW18253   4.077   2.257  13.813  0.5009 -0.1301 -0.1502
 2207SOL    HW118254   4.114   2.168  13.812  0.0142 -0.3302 -0.5230
 2207SOL    HW218255   4.121   2.304  13.742 -1.2892  0.0787 -1.1198
 2208SOL     OW18256   1.016   0.112   3.805 -0.6498  0.4099  0.1975
 2208SOL    HW118257   1.024   0.205   3.825 -3.0926  0.5340  0.5811
 2208SOL    HW218258   1.005   0.121   3.710 -1.4884 -0.5135  0.2029
 2209SOL     OW18259   0.841   2.071   9.447  0.0733  0.5649 -0.4699
 2209SOL    HW118260   0.829   2.166   9.448  0.9680  0.6655  1.3566
 2209SOL    HW218261   0.878   2.057   9.534 -1.9894 -0.6396  0.2022
 2210SOL     OW18262   0.886   3.670   1.294 -0.2896  0.2726 -0.1853
 2210SOL    HW118263   0.900   3.707   1.207 -0.0192  0.6103  0.0019
 2210SOL    HW218264   0.896   3.577   1.274  1.9046  0.4922 -0.0729
 2211SOL     OW18265   1.006   4.403   2.946  0.2188  0.2731  0.7125
 2211SOL    HW118266   1.055   4.382   2.867 -2.5097  2.5930 -1.6015
 2211SOL    HW218267   1.038   4.491   2.968  0.7747  0.7192 -1.8866
 2212SOL     OW18268   0.110   2.025   5.049 -0.1864  0.0441  0.7894
 2212SOL    HW118269   0.109   2.067   5.135 -0.2206  0.9094  0.3636
 2212SOL    HW218270   0.045   2.077   5.001 -1.2880 -2.3986 -0.3919
 2213SOL     OW18271   4.347   0.104   8.260  0.3132 -0.5321 -0.3663
 2213SOL    HW118272   4.429   0.056   8.247  0.3809 -0.2195 -1.1127
 2213SOL    HW218273   4.286   0.032   8.276 -0.4189  0.0423 -0.5814
 2214SOL     OW18274   2.518   2.705   3.567  0.0440 -0.0692 -0.2996
 2214SOL    HW118275   2.443   2.665   3.609 -0.7004  1.0320 -0.5781
 2214SOL    HW218276   2.514   2.670   3.478 -2.9920 -0.0111 -0.1717
 2215SOL     OW18277   0.069   0.098  11.775 -0.0603  0.0801 -0.6878
 2215SOL    HW118278   0.004   0.042  11.816  1.1153 -0.7935  0.0020
 2215SOL    HW218279   0.095   0.154  11.849 -0.0200  0.8167 -1.2571
 2216SOL     OW18280   1.057   0.297   5.189  0.3809 -0.8100 -0.1544
 2216SOL    HW118281   1.038   0.285   5.282  0.0255  1.0140  0.0134
 2216SOL    HW218282   1.110   0.219   5.173  2.7584  0.7802 -0.1813
 2217SOL     OW18283   2.870   1.332  17.161  0.2026  0.0061  0.0598
 2217SOL    HW118284   2.849   1.262  17.224 -2.6574  1.4548  0.7319
 2217SOL    HW218285   2.881   1.411  17.214 -0.9355 -0.2086  0.6189
 2218SOL     OW18286   2.778   2.448   4.643  0.5170 -0.3542  0.0782
 2218SOL    HW118287   2.717   2.417   4.710  0.0540 -0.4786 -0.4020
 2218SOL    HW218288   2.760   2.541   4.653 -2.3475 -0.6695 -2.0367
 2219SOL     OW18289   3.587   2.978   7.457 -0.2621  0.4370  0.0553
 2219SOL    HW118290   3.529   3.054   7.459  0.8603  1.2610  1.0121
 2219SOL    HW218291   3.616   2.980   7.366 -2.0098 -0.6691 -0.5262
 2220SOL     OW18292   2.145   2.276   5.625 -0.1224  0.2220 -0.2440
 2220SOL    HW118293   2.213   2.214   5.652 -1.2922 -0.2633  1.6269
 2220SOL    HW218294   2.093   2.271   5.706  0.1570 -0.5800 -0.1117
 2221SOL     OW18295   2.521   0.553   8.341 -0.3324 -0.7407 -0.2123
 2221SOL    HW118296   2.443   0.508   8.308 -0.5160 -1.2653  0.9609
 2221SOL    HW218297   2.475   0.624   8.387 -1.3073 -0.2547 -1.9161
 2222SOL     OW18298   4.188   2.613  12.350  0.2102  0.1566  0.0961
 2222SOL    HW118299   4.183   2.579  12.439  0.6903  0.5139  0.2566
 2222SOL    HW218300   4.245   2.689  12.361 -1.7099  1.5369  0.6009
 2223SOL     OW18301   4.251   2.699  13.185  0.1762  0.5511  0.9673
 2223SOL    HW118302   4.202   2.769  13.229 -0.4316  1.9022 -1.8776
 2223SOL    HW218303   4.335   2.712  13.229  2.7889 -1.7509 -3.3196
 2224SOL     OW18304   4.403   0.357   5.602  0.0081 -0.5294  0.2957
 2224SOL    HW118305   4.366   0.269   5.610  0.7751 -0.8061  0.7357
 2224SOL    HW218306   4.329   0.404   5.642  1.2852  0.5129  1.4352
 2225SOL     OW18307   0.881   0.965   1.712  0.0178 -0.3547 -0.3067
 2225SOL    HW118308   0.916   0.907   1.779  0.2647  1.3186  1.0229
 2225SOL    HW218309   0.916   1.046   1.750  2.5345 -1.8121  0.5006
 2226SOL     OW18310   3.211   4.062   3.205  0.2901 -0.4540  0.2517
 2226SOL    HW118311   3.222   4.052   3.111 -0.4976  1.9411 -0.0793
 2226SOL    HW218312   3.206   3.972   3.237 -2.0893 -0.4202 -0.0518
 2227SOL     OW18313   1.541   3.498   3.757  0.0216 -0.1332 -0.2920
 2227SOL    HW118314   1.605   3.567   3.739 -1.4531  1.0051 -1.1600
 2227SOL    HW218315   1.476   3.521   3.691  1.9394 -1.3741 -2.6358
 2228SOL     OW18316   2.242   4.152   5.801  0.1497  0.3075  0.1238
 2228SOL    HW118317   2.190   4.108   5.733 -2.0212 -1.2153  2.7336
 2228SOL    HW218318   2.169   4.208   5.827 -0.3710 -0.6184  0.7048
 2229SOL     OW18319   3.302   4.377   8.170 -0.1366 -0.2218 -0.8080
 2229SOL    HW118320   3.372   4.357   8.108  0.0003  0.3383 -0.8294
 2229SOL    HW218321   3.288   4.470   8.151  2.4241  0.9124  2.8721
 2230SOL     OW18322   4.547   0.354   2.598 -0.0982  0.4486  0.5890
 2230SOL    HW118323   4.482   0.302   2.645  0.7344 -0.5516  0.6210
 2230SOL    HW218324   4.511   0.443   2.598 -3.5200 -0.9139  0.1136
 2231SOL     OW18325   2.129   0.826   8.561 -0.3480  0.1245 -0.2574
 2231SOL    HW118326   2.057   0.770   8.531 -1.7894  1.9898 -0.2785
 2231SOL    HW218327   2.088   0.883   8.626  2.6557  0.9468  0.9179
 2232SOL     OW18328   1.530   0.364  12.963 -0.5889  0.1848  0.3125
 2232SOL    HW118329   1.615   0.376  13.005 -0.9499 -0.5100  1.2376
 2232SOL    HW218330   1.522   0.448  12.918 -2.5540  0.5550  1.3238
 2233SOL     OW18331   3.179   3.129   2.334 -0.6834 -0.2658  0.7580
 2233SOL    HW118332   3.193   3.216   2.297 -1.6162 -0.8303 -0.8937
 2233SOL    HW218333   3.269   3.102   2.352 -0.1906  0.1107 -1.0902
 2234SOL     OW18334   1.526   2.454   8.016  0.2048 -0.2553 -0.3693
 2234SOL    HW118335   1.543   2.511   7.942  0.2396 -0.3961 -0.4711
 2234SOL    HW218336   1.614   2.437   8.052  0.1644 -0.9855 -0.6190
 2235SOL     OW18337   1.799   1.710   8.602 -0.0923  0.9061 -0.2731
 2235SOL    HW118338   1.739   1.638   8.619  3.2849 -1.5943  1.0885
 2235SOL    HW218339   1.797   1.756   8.686  1.7742  2.5330 -1.1092
 2236SOL     OW18340   4.645   2.299   1.387 -0.1408 -0.1067 -0.8814
 2236SOL    HW118341   4.570   2.322   1.443  1.6101  1.4710  0.8120
 2236SOL    HW218342   4.671   2.220   1.433  2.3882  0.7954 -0.7785
 2237SOL     OW18343   1.871   1.556   0.194 -0.0987  0.0027 -0.3313
 2237SOL    HW118344   1.896   1.537   0.103  0.1303  0.5384 -0.3843
 2237SOL    HW218345   1.897   1.649   0.192  0.7560 -0.2031  1.7023
 2238SOL     OW18346   2.131   4.736   4.222  0.4958  0.6882 -0.4154
 2238SOL    HW118347   2.115   0.057   4.297  0.5572  0.5051 -0.2605
 2238SOL    HW218348   2.055   4.680   4.237  0.4860  0.7829 -0.0971
 2239SOL     OW18349   2.306   1.998   3.700 -0.3904  0.1252 -0.1857
 2239SOL    HW118350   2.296   2.012   3.794  0.1703 -0.8477  0.0145
 2239SOL    HW218351   2.223   2.036   3.672 -0.1387  1.1785  0.5347
 2240SOL     OW18352   0.968   0.912   6.124  0.1831 -0.4646 -0.1065
 2240SOL    HW118353   1.050   0.937   6.165 -0.1437  1.7086 -0.7741
 2240SOL    HW218354   0.999   0.826   6.096  0.5176  0.2533 -1.9279
 2241SOL     OW18355   1.891   1.374   5.535  0.2475 -0.3901  0.8169
 2241SOL    HW118356   1.853   1.434   5.600 -0.9067  1.3032 -1.4216
 2241SOL    HW218357   1.884   1.293   5.585 -0.6674 -1.3203 -0.8135
 2242SOL     OW18358   1.368   1.064   6.591 -0.0478  0.1297  0.1188
 2242SOL    HW118359   1.432   1.089   6.658  0.2714 -1.5071  0.4477
 2242SOL    HW218360   1.293   1.043   6.646 -1.5171 -1.2870 -2.4303
 2243SOL     OW18361   3.230   1.961   5.448  0.1381  0.1687 -0.3790
 2243SOL    HW118362   3.135   1.966   5.462  0.0335 -2.5948 -0.0880
 2243SOL    HW218363   3.254   1.895   5.514 -1.7759 -0.2326 -0.0569
 2244SOL     OW18364   1.507   3.936   7.852 -0.0608 -0.0299 -0.4639
 2244SOL    HW118365   1.592   3.942   7.807  2.0058  1.3984  3.6338
 2244SOL    HW218366   1.521   3.983   7.934 -0.0255 -0.8124 -0.0223
 2245SOL     OW18367   3.366   4.727   3.430 -0.2806 -0.4960  0.0778
 2245SOL    HW118368   3.345   4.674   3.507 -0.0386 -1.6673 -0.6656
 2245SOL    HW218369   3.386   0.075   3.471 -1.0537 -0.7659  1.0132
 2246SOL     OW18370   4.413   4.619   1.836 -0.7843  0.3460  0.1315
 2246SOL    HW118371   4.485   4.665   1.794 -0.4314  0.3325  0.7256
 2246SOL    HW218372   4.347   4.633   1.768  0.3621 -1.1680 -1.3007
 2247SOL     OW18373   1.235   4.605   7.029 -0.3152  0.2886  0.2152
 2247SOL    HW118374   1.304   4.666   7.055  1.3217 -1.4526 -0.0272
 2247SOL    HW218375   1.216   4.567   7.115  1.4496 -0.3575  0.3302
 2248SOL     OW18376   2.596   0.317   1.629 -0.2099 -0.1868  0.3200
 2248SOL    HW118377   2.536   0.243   1.636  1.1947 -1.1317  2.3583
 2248SOL    HW218378   2.549   0.373   1.690 -0.1455  1.6548 -1.3460
 2249SOL     OW18379   1.472   2.916   4.593  0.1549 -0.0065 -0.1429
 2249SOL    HW118380   1.494   2.922   4.686 -0.2041  2.4465 -0.2164
 2249SOL    HW218381   1.386   2.959   4.595 -0.2779 -0.7907 -1.6067
 2250SOL     OW18382   4.644   2.374  10.932 -0.2154  0.3793 -0.1289
 2250SOL    HW118383   4.558   2.333  10.944  0.0109  0.3038  1.2454
 2250SOL    HW218384   4.701   2.298  10.930  1.3468  1.5240  1.1560
 2251SOL     OW18385   2.548   0.421   3.684  0.1070 -0.0908 -0.1667
 2251SOL    HW118386   2.468   0.397   3.730  0.5640  0.0344  0.6921
 2251SOL    HW218387   2.576   0.347   3.629  2.6702 -0.3739  1.5007
 2252SOL     OW18388   2.925   3.715   1.827 -0.3307  0.1553 -0.2865
 2252SOL    HW118389   2.970   3.797   1.847  1.9910 -1.1841 -0.0299
 2252SOL    HW218390   2.858   3.741   1.762 -0.7637  0.1059  0.1416
 2253SOL     OW18391   0.611   3.962  13.037  0.1054  0.2450 -0.3164
 2253SOL    HW118392   0.662   4.004  12.967  1.1371 -0.0014  0.2874
 2253SOL    HW218393   0.576   3.896  12.977 -0.0503  0.6769 -0.6969
 2254SOL     OW18394   2.974   3.063   8.386 -0.5644  0.3704  0.7691
 2254SOL    HW118395   2.921   2.985   8.368  0.1541  0.3856 -1.3665
 2254SOL    HW218396   2.926   3.120   8.325 -0.8611 -0.4073  0.2703
 2255SOL     OW18397   3.964   1.755   8.893 -0.0700  0.1112 -0.5111
 2255SOL    HW118398   4.020   1.678   8.903  1.5215  1.1348 -1.5845
 2255SOL    HW218399   4.004   1.796   8.817 -0.2992  1.1678 -0.0612
 2256SOL     OW18400   0.861   3.093   1.838 -0.1785  0.3253 -0.7466
 2256SOL    HW118401   0.942   3.136   1.866 -0.4281  0.5312 -0.3366
 2256SOL    HW218402   0.836   3.158   1.772 -0.1219 -0.9683 -2.0451
 2257SOL     OW18403   0.735   0.835   4.722  0.2263 -0.4699  0.5385
 2257SOL    HW118404   0.641   0.836   4.741  0.2275 -0.0756  0.5257
 2257SOL    HW218405   0.740   0.861   4.630  1.7696 -0.4862  0.6159
 2258SOL     OW18406   1.704   3.946   4.320  0.1585  0.0126 -0.0535
 2258SOL    HW118407   1.738   4.028   4.356 -0.3704  0.5450 -0.7646
 2258SOL    HW218408   1.679   3.899   4.399 -0.6114  1.5762  0.6423
 2259SOL     OW18409   0.075   1.289   7.346 -0.6359  0.4623 -0.5257
 2259SOL    HW118410   0.094   1.368   7.296 -0.3284  1.2886  0.9054
 2259SOL    HW218411   4.720   1.305   7.364 -0.1638  0.9868  1.3756
 2260SOL     OW18412   0.077   2.102   2.756 -0.7974 -0.1107 -0.1860
 2260SOL    HW118413   0.169   2.099   2.782 -0.7253 -0.6094 -0.5019
 2260SOL    HW218414   0.041   2.160   2.823 -0.0172 -0.9558  0.9650
 2261SOL     OW18415   3.333   1.232   3.251  0.2151 -0.6174 -0.5711
 2261SOL    HW118416   3.422   1.198   3.251  0.6366  0.5069 -2.3749
 2261SOL    HW218417   3.335   1.303   3.316  1.6265 -1.8563  0.7533
 2262SOL     OW18418   4.293   0.347   7.425  0.8631  0.2755  0.5016
 2262SOL    HW118419   4.239   0.344   7.346  0.2202 -1.6549  1.0123
 2262SOL    HW218420   4.242   0.418   7.465 -0.1878 -0.8231  1.1012
 2263SOL     OW18421   1.598   1.809   1.781 -0.5254 -0.0461 -0.3632
 2263SOL    HW118422   1.592   1.869   1.855  1.4504 -0.6266  0.2702
 2263SOL    HW218423   1.577   1.863   1.705  0.0752  1.7427  0.7476
 2264SOL     OW18424   2.677   4.129   8.908  0.1566  1.1662 -0.1309
 2264SOL    HW118425   2.588   4.099   8.929  0.8694 -0.1297  1.0426
 2264SOL    HW218426   2.672   4.156   8.816  0.4092 -0.0765 -0.5065
 2265SOL     OW18427   0.066   0.160   8.098 -0.1778  0.1356  0.2133
 2265SOL    HW118428   0.126   0.179   8.170  1.0165 -0.8727 -0.5165
 2265SOL    HW218429   0.055   0.067   8.117 -2.9200  0.0194 -1.8785
 2266SOL     OW18430   0.776   3.920  15.700 -0.8516 -0.2540  0.0564
 2266SOL    HW118431   0.840   3.864  15.744 -0.7972  0.1658  0.5126
 2266SOL    HW218432   0.759   3.988  15.765 -0.8259 -0.8224  0.6561
 2267SOL     OW18433   4.637   2.906   0.984  0.4252 -0.1145  0.2335
 2267SOL    HW118434   4.731   2.904   0.966 -0.2575 -0.2304 -3.2974
 2267SOL    HW218435   4.633   2.819   1.025  0.3806 -0.6694 -0.9455
 2268SOL     OW18436   2.120   3.999   3.153 -0.1832  0.5987 -0.1046
 2268SOL    HW118437   2.165   4.083   3.167 -2.1550  1.4794  0.9220
 2268SOL    HW218438   2.188   3.943   3.115 -1.6490 -0.9106 -0.5007
 2269SOL     OW18439   2.245   0.139   4.038  0.1855  0.1647 -0.3227
 2269SOL    HW118440   2.334   0.137   4.075 -0.5233 -1.1739  1.2946
 2269SOL    HW218441   2.201   0.083   4.101  0.7515 -2.4166 -2.2404
 2270SOL     OW18442   2.653   0.147   1.351 -0.1601 -0.0243 -0.8176
 2270SOL    HW118443   2.598   0.222   1.373  0.8135  0.7736 -1.0799
 2270SOL    HW218444   2.629   0.089   1.423  2.0334  0.7957  0.5592
 2271SOL     OW18445   1.730   1.626   5.402  0.6421 -0.1555  0.5486
 2271SOL    HW118446   1.768   1.670   5.477  1.0138 -1.1536  0.9493
 2271SOL    HW218447   1.661   1.573   5.443  0.9688 -0.4331  0.7390
 2272SOL     OW18448   3.062   1.805   2.553  0.1394 -0.0589  0.3756
 2272SOL    HW118449   3.053   1.791   2.459 -1.4795 -1.5526  0.7525
 2272SOL    HW218450   3.040   1.897   2.547  0.9873  0.1025 -0.3244
 2273SOL     OW18451   0.090   2.644   2.507 -0.1097 -0.5260  0.0168
 2273SOL    HW118452   0.044   2.613   2.429 -1.6871 -0.3798  0.8889
 2273SOL    HW218453   0.130   2.559   2.527  1.2902  0.2670  0.6174
 2274SOL     OW18454   1.845   3.048   5.445  0.2510  0.5324 -0.0339
 2274SOL    HW118455   1.908   3.016   5.380 -0.0698  2.2696 -1.2140
 2274SOL    HW218456   1.863   3.141   5.433 -1.8540  1.3233  2.9865
 2275SOL     OW18457   4.182   0.630  13.073 -0.0929  0.0343  0.5163
 2275SOL    HW118458   4.100   0.676  13.055 -0.1902  0.2500  1.5116
 2275SOL    HW218459   4.206   0.581  12.995 -1.9169  1.4455 -0.9189
 2276SOL     OW18460   1.937   1.894   2.934 -0.5476 -0.2302  0.6588
 2276SOL    HW118461   1.992   1.817   2.946  1.0046  0.7333 -0.2048
 2276SOL    HW218462   1.911   1.901   3.026  0.5380  1.1242  0.8633
 2277SOL     OW18463   1.664   1.607   7.798 -0.4242  0.4987 -0.0502
 2277SOL    HW118464   1.689   1.576   7.885 -2.3312 -1.6440 -0.2563
 2277SOL    HW218465   1.604   1.536   7.774  2.2976 -1.9690  0.3859
 2278SOL     OW18466   0.513   0.190   8.064  0.1707 -0.3241 -0.0875
 2278SOL    HW118467   0.545   0.100   8.056  1.8452  0.2635 -0.0730
 2278SOL    HW218468   0.453   0.190   7.989 -1.0499  2.2129  0.9120
 2279SOL     OW18469   4.640   0.493   7.731  0.1357  0.3331  0.3733
 2279SOL    HW118470   4.705   0.442   7.780 -1.7019 -2.1835  0.1714
 2279SOL    HW218471   4.593   0.428   7.679  3.4717 -0.6359 -1.4025
 2280SOL     OW18472   3.605   2.643   3.434 -0.8237 -0.2583  0.2517
 2280SOL    HW118473   3.667   2.634   3.506 -1.0936  0.2477  0.5435
 2280SOL    HW218474   3.586   2.551   3.414 -0.7539 -0.4213  0.9441
 2281SOL     OW18475   0.448   3.194   3.146 -0.1407 -0.3178  0.0767
 2281SOL    HW118476   0.405   3.208   3.231 -1.7327 -1.0654 -0.5932
 2281SOL    HW218477   0.537   3.216   3.173 -0.3173 -0.3753  0.7228
 2282SOL     OW18478   4.675   0.745  13.174  0.4127 -0.1396 -1.3316
 2282SOL    HW118479   0.011   0.700  13.219  1.3029 -0.2888 -2.9028
 2282SOL    HW218480   4.720   0.796  13.107  0.6827  0.2579 -0.8454
 2283SOL     OW18481   0.069   0.381  17.297  0.1422  0.2501 -0.0855
 2283SOL    HW118482   0.140   0.316  17.300 -0.1152 -0.0816 -1.2430
 2283SOL    HW218483   0.047   0.409  17.385  1.2905 -1.4279  0.7254
 2284SOL     OW18484   0.520   0.082   3.739 -0.4500 -0.4097  0.3836
 2284SOL    HW118485   0.570   0.129   3.672  0.2222 -3.4058 -1.2021
 2284SOL    HW218486   0.434   0.082   3.697  0.5497 -3.5055 -1.6373
 2285SOL     OW18487   1.617   2.902   0.228  0.1337 -0.5574 -0.0226
 2285SOL    HW118488   1.540   2.905   0.285  0.1260  0.1304 -0.0789
 2285SOL    HW218489   1.638   2.808   0.230  0.6016 -0.4301  1.0374
 2286SOL     OW18490   4.007   4.441   5.448 -0.1633  0.0693 -0.4333
 2286SOL    HW118491   3.956   4.422   5.369  0.5746  1.8477 -1.3356
 2286SOL    HW218492   4.024   4.534   5.434  0.7190  0.1790  1.2989
 2287SOL     OW18493   2.320   3.233  15.506 -0.1815  0.2248 -0.3650
 2287SOL    HW118494   2.268   3.176  15.450  2.2721 -0.1180 -2.3204
 2287SOL    HW218495   2.312   3.193  15.593  0.0861  0.7651 -0.0869
 2288SOL     OW18496   2.404   3.007   1.486 -0.1293  0.2004 -0.2137
 2288SOL    HW118497   2.358   3.077   1.532 -2.7712 -0.6533 -1.5884
 2288SOL    HW218498   2.452   3.066   1.427  2.4736  0.0290  1.7254
 2289SOL     OW18499   2.669   1.330   5.312 -0.3296 -0.3388 -0.0248
 2289SOL    HW118500   2.721   1.283   5.378  0.8219  1.1315  0.0985
 2289SOL    HW218501   2.668   1.261   5.245 -0.5343  1.4545 -1.8461
 2290SOL     OW18502   3.014   2.508   1.943  0.1239  0.1947 -0.1051
 2290SOL    HW118503   3.056   2.571   2.002 -0.8526 -0.7312  1.5689
 2290SOL    HW218504   2.932   2.485   1.987 -0.2104 -0.2890 -0.9824
 2291SOL     OW18505   4.053   1.909   2.139  0.2891 -0.3951 -0.0231
 2291SOL    HW118506   4.111   1.983   2.125 -1.5380  0.9372 -0.5188
 2291SOL    HW218507   4.116   1.861   2.193 -1.2817 -0.7693  1.4743
 2292SOL     OW18508   2.789   4.435   8.726  0.4605 -0.1333  0.0337
 2292SOL    HW118509   2.877   4.445   8.690 -0.5899  2.4697 -1.7762
 2292SOL    HW218510   2.791   4.339   8.723 -0.4581 -0.1672  0.5738
 2293SOL     OW18511   3.113   0.530   7.873 -0.5351  0.0548 -0.3159
 2293SOL    HW118512   3.203   0.528   7.840 -0.9073  1.2460 -1.3992
 2293SOL    HW218513   3.071   0.500   7.792 -0.3029  2.2848 -1.2797
 2294SOL     OW18514   1.325   0.292   5.489  0.2103 -0.3358 -0.3619
 2294SOL    HW118515   1.273   0.370   5.471  1.3077  0.0581 -1.8752
 2294SOL    HW218516   1.281   0.223   5.440  1.6572 -0.8981 -0.8873
 2295SOL     OW18517   4.349   1.863   5.421  0.8389 -0.3668 -0.1162
 2295SOL    HW118518   4.354   1.794   5.354 -0.5982 -0.0478 -0.5517
 2295SOL    HW218519   4.440   1.890   5.413  0.8884 -0.8072 -1.1511
 2296SOL     OW18520   1.403   1.084   6.331 -0.2647 -0.1961  0.1485
 2296SOL    HW118521   1.493   1.052   6.326 -0.6110 -0.5217 -3.7883
 2296SOL    HW218522   1.384   1.065   6.423 -0.3979 -0.4682  0.0644
 2297SOL     OW18523   0.868   0.442  13.557 -0.2381 -0.1303 -0.1214
 2297SOL    HW118524   0.865   0.419  13.650 -4.8976  0.7302 -0.0521
 2297SOL    HW218525   0.777   0.443  13.529  0.1733 -2.0894 -1.5239
 2298SOL     OW18526   4.653   1.065  11.691  0.2644 -0.5345 -0.2302
 2298SOL    HW118527   4.627   1.101  11.606 -1.1068 -2.4762 -0.6184
 2298SOL    HW218528   0.008   1.094  11.694 -0.0635  0.2642  2.1778
 2299SOL     OW18529   3.654   3.878   6.270  0.0643 -0.0331  0.2644
 2299SOL    HW118530   3.679   3.891   6.178  0.2891  0.4388  0.3934
 2299SOL    HW218531   3.563   3.908   6.265 -0.1239 -1.0403 -2.1769
 2300SOL     OW18532   1.659   0.540   4.637  0.0186 -0.4367 -0.1138
 2300SOL    HW118533   1.640   0.613   4.696  1.0713  0.7825 -1.2520
 2300SOL    HW218534   1.738   0.583   4.602 -0.9583  0.7051 -0.9256
 2301SOL     OW18535   1.275   3.473   2.920 -0.3631 -0.6346  0.3236
 2301SOL    HW118536   1.318   3.388   2.909 -1.5019 -1.1344 -0.2417
 2301SOL    HW218537   1.186   3.444   2.939 -1.1888  2.1410  0.7542
 2302SOL     OW18538   1.452   2.290   2.980 -0.0818  0.3120 -0.2190
 2302SOL    HW118539   1.362   2.260   2.989 -0.1703  0.0376 -1.9897
 2302SOL    HW218540   1.432   2.381   2.961  0.6147  0.3817 -0.6373
 2303SOL     OW18541   2.414   2.010   1.597 -0.1364  0.4171 -0.4467
 2303SOL    HW118542   2.350   2.080   1.607 -1.4092 -0.6948 -0.9157
 2303SOL    HW218543   2.477   2.060   1.545  0.8048 -0.6474 -0.3415
 2304SOL     OW18544   2.056   4.374   4.669  0.2705  0.3803  0.4481
 2304SOL    HW118545   2.054   4.366   4.574  0.2887  0.0281  0.4759
 2304SOL    HW218546   2.036   4.283   4.693 -0.9045  0.0981 -1.6300
 2305SOL     OW18547   2.066   3.728   7.683  1.3480  0.1012 -0.1632
 2305SOL    HW118548   2.070   3.647   7.633  2.4841 -0.4191  0.7674
 2305SOL    HW218549   2.043   3.784   7.609  1.9051 -0.1016 -0.4918
 2306SOL     OW18550   0.918   3.207   4.335  0.0221 -0.0604 -0.6290
 2306SOL    HW118551   0.887   3.261   4.262  1.4539  0.1573 -1.0670
 2306SOL    HW218552   0.866   3.129   4.317 -1.2853  0.6236  0.1662
 2307SOL     OW18553   3.985   2.505   8.658 -0.6604 -0.4700  0.2643
 2307SOL    HW118554   3.939   2.447   8.718 -0.0395 -1.7543 -0.5095
 2307SOL    HW218555   3.928   2.582   8.661 -0.9602 -0.6015 -1.7757
 2308SOL     OW18556   1.171   4.697  16.278 -0.3179  0.6014 -0.1056
 2308SOL    HW118557   1.085   0.000  16.280 -0.7060 -0.1720 -1.4245
 2308SOL    HW218558   1.160   4.650  16.195  0.4984 -0.7614  0.5494
 2309SOL     OW18559   2.022   0.225   9.041  0.2596 -0.0043 -0.1446
 2309SOL    HW118560   1.997   0.232   8.949  0.2328 -0.8796 -0.2031
 2309SOL    HW218561   2.072   0.144   9.042  1.4007  0.6817 -2.2896
 2310SOL     OW18562   0.862   0.975   3.488 -0.4219 -0.7006 -0.5481
 2310SOL    HW118563   0.779   1.007   3.523  0.9707  1.9055  0.4039
 2310SOL    HW218564   0.905   1.053   3.452  1.6202 -0.8202  1.6562
 2311SOL     OW18565   2.825   2.461   8.317 -0.4317  0.2876  0.2466
 2311SOL    HW118566   2.810   2.516   8.241 -1.7024  0.6741  0.7759
 2311SOL    HW218567   2.737   2.441   8.349  0.2482  0.4033  2.1576
 2312SOL     OW18568   2.184   0.933   6.451  0.3205 -0.4721 -0.0790
 2312SOL    HW118569   2.134   0.972   6.380  0.3552  1.5298  0.9986
 2312SOL    HW218570   2.198   0.846   6.412  0.2887 -0.0435 -1.0230
 2313SOL     OW18571   2.763   1.149   2.308  0.0956  0.2456 -0.4201
 2313SOL    HW118572   2.839   1.114   2.355 -1.0821 -0.5174  0.9329
 2313SOL    HW218573   2.764   1.079   2.243 -1.7919  0.5600 -0.7846
 2314SOL     OW18574   2.105   3.205   1.012 -0.7046  0.9809  0.3586
 2314SOL    HW118575   2.088   3.286   0.963 -0.3715  0.3345 -0.8433
 2314SOL    HW218576   2.188   3.180   0.971 -2.2600 -1.7364 -1.1623
 2315SOL     OW18577   3.517   0.951   0.271  0.3514  0.6007  0.1959
 2315SOL    HW118578   3.443   1.008   0.293  0.6377  1.2168 -0.4395
 2315SOL    HW218579   3.504   0.952   0.176  1.4944 -3.2313  0.0075
 2316SOL     OW18580   3.416   4.463  12.253  0.3500 -0.2517 -0.0102
 2316SOL    HW118581   3.324   4.437  12.264  0.2108  0.1353 -0.2837
 2316SOL    HW218582   3.416   4.554  12.281  2.7221 -0.2776  0.0484
 2317SOL     OW18583   4.582   4.342  13.726  0.3309 -0.3952 -0.7655
 2317SOL    HW118584   4.658   4.303  13.770  0.3257 -1.1703 -1.4377
 2317SOL    HW218585   4.590   4.298  13.641  1.6906  0.0128 -0.8542
 2318SOL     OW18586   3.391   0.937   0.006  0.2253 -0.1361 -0.5881
 2318SOL    HW118587   3.398   1.014  17.694 -0.1002  0.6641  0.4537
 2318SOL    HW218588   3.455   0.879  17.710 -0.0933  0.5155 -1.9792
 2319SOL     OW18589   0.535   0.812  15.294  0.3666 -0.4237 -0.0739
 2319SOL    HW118590   0.510   0.853  15.377 -0.6503 -1.3402  0.0699
 2319SOL    HW218591   0.588   0.880  15.253  1.2573  0.4841  2.6111
 2320SOL     OW18592   3.697   3.962  16.800 -0.3984  0.1440  0.1520
 2320SOL    HW118593   3.677   3.956  16.707  0.6465  3.2565 -0.2995
 2320SOL    HW218594   3.620   4.005  16.836 -0.9727 -1.3291  0.6391
 2321SOL     OW18595   4.577   0.810   4.371  0.6185  0.3806 -0.0802
 2321SOL    HW118596   4.574   0.877   4.303 -0.2783  0.3607 -0.0582
 2321SOL    HW218597   4.671   0.795   4.369  0.4098 -0.9748  0.5801
 2322SOL     OW18598   1.330   3.911   7.464 -0.3068  0.1174 -0.0511
 2322SOL    HW118599   1.253   3.919   7.406 -0.7252 -2.4749  0.1441
 2322SOL    HW218600   1.350   3.822   7.432 -1.8742  0.0031 -0.7286
 2323SOL     OW18601   1.346   2.891   7.276 -0.0992  0.1386 -0.1739
 2323SOL    HW118602   1.303   2.975   7.295  0.8734  0.7789 -0.8387
 2323SOL    HW218603   1.272   2.832   7.296 -2.5950  3.2092 -0.2965
 2324SOL     OW18604   4.049   3.394   6.134 -0.1401  0.0238 -0.1675
 2324SOL    HW118605   4.143   3.388   6.121 -0.4298  0.3544 -2.3937
 2324SOL    HW218606   4.035   3.489   6.140  1.4623  0.3207 -1.3366
 2325SOL     OW18607   0.175   1.028   3.803 -0.1264  0.4038 -0.1940
 2325SOL    HW118608   0.150   1.094   3.738  0.0987  1.5528  0.8897
 2325SOL    HW218609   0.231   1.078   3.862  1.2083 -0.4120 -0.7895
 2326SOL     OW18610   0.287   3.905   7.760  0.3426  0.3173 -0.1122
 2326SOL    HW118611   0.307   3.945   7.675 -0.5608 -0.0269 -0.4811
 2326SOL    HW218612   0.235   3.968   7.809 -1.9906  0.6703 -3.0843
 2327SOL     OW18613   0.367   1.337   3.473  0.2384  0.1186  0.5925
 2327SOL    HW118614   0.350   1.246   3.448 -1.9447  0.3861  1.1494
 2327SOL    HW218615   0.284   1.385   3.473 -0.0080 -0.3033  0.5320
 2328SOL     OW18616   1.611   1.547   8.682  1.3161  0.3640 -0.1851
 2328SOL    HW118617   1.567   1.561   8.766  0.7724 -1.1358 -0.2111
 2328SOL    HW218618   1.545   1.591   8.628  0.4318 -0.0662  0.5322
 2329SOL     OW18619   1.177   3.665   7.796  0.2068 -0.0993 -0.7121
 2329SOL    HW118620   1.180   3.760   7.779  2.1790 -0.1579 -0.6952
 2329SOL    HW218621   1.129   3.636   7.718 -0.4186  2.0747 -1.1403
 2330SOL     OW18622   4.076   1.038   9.749  0.1546 -0.0510 -0.3623
 2330SOL    HW118623   4.145   0.973   9.766  0.1095  0.4927  1.8110
 2330SOL    HW218624   4.127   1.119   9.740 -0.7010  0.4090 -0.9965
 2331SOL     OW18625   1.793   1.551   6.970 -0.5056  0.9535 -1.1247
 2331SOL    HW118626   1.863   1.516   7.026 -1.2855  1.0488 -0.0942
 2331SOL    HW218627   1.759   1.470   6.933  2.8312 -0.8929 -0.2115
 2332SOL     OW18628   0.651   3.755   1.411  0.4364 -0.8469  0.0507
 2332SOL    HW118629   0.588   3.810   1.366  1.0612  1.0406  1.4968
 2332SOL    HW218630   0.728   3.762   1.355 -0.2732  1.5814 -0.6169
 2333SOL     OW18631   0.293   2.676   6.594 -0.0225 -0.3996 -0.1509
 2333SOL    HW118632   0.290   2.635   6.680  0.2880  0.2538  0.1710
 2333SOL    HW218633   0.383   2.656   6.568  0.2354  2.0606 -1.2009
 2334SOL     OW18634   1.913   0.283  14.766 -0.0062 -0.0719  0.1005
 2334SOL    HW118635   1.949   0.236  14.691  2.0291 -0.5063  1.3537
 2334SOL    HW218636   1.912   0.217  14.835  1.8095 -1.4947 -1.2486
 2335SOL     OW18637   1.458   0.490   5.700  0.1520  0.0013 -0.4684
 2335SOL    HW118638   1.545   0.459   5.674 -0.0056 -2.1449  1.5448
 2335SOL    HW218639   1.399   0.444   5.640  0.8617  0.1883 -1.3117
 2336SOL     OW18640   1.693   2.345  17.658  0.2822  0.2275 -0.7475
 2336SOL    HW118641   1.761   2.328  17.594 -0.4102 -1.8972 -0.9284
 2336SOL    HW218642   1.716   2.436  17.676 -0.3005 -0.0382  1.3389
 2337SOL     OW18643   3.241   1.411   9.531 -0.3739  0.1070  0.3088
 2337SOL    HW118644   3.308   1.343   9.535 -0.8904 -0.4014  0.2889
 2337SOL    HW218645   3.284   1.473   9.472  1.3622 -0.9900  0.4292
 2338SOL     OW18646   2.223   2.573  13.750  0.2042  0.0937 -0.0648
 2338SOL    HW118647   2.195   2.656  13.791  0.5997 -0.3775  1.1752
 2338SOL    HW218648   2.141   2.537  13.717  0.3262  0.3044 -0.5924
 2339SOL     OW18649   1.991   1.021   3.480  0.0410 -0.1026  0.5570
 2339SOL    HW118650   1.928   1.013   3.552 -0.3904  1.7965  0.3787
 2339SOL    HW218651   2.037   0.938   3.496 -0.1339 -0.2961  0.0657
 2340SOL     OW18652   1.944   1.813   0.222  0.0037  0.0937 -0.2991
 2340SOL    HW118653   2.022   1.838   0.173  1.0111  0.4068  1.4671
 2340SOL    HW218654   1.951   1.870   0.299 -0.1595  0.6208 -0.6767
 2341SOL     OW18655   0.222   4.217   2.052  0.2765 -0.1766 -0.5419
 2341SOL    HW118656   0.156   4.269   2.097  1.3253  0.5331  0.1851
 2341SOL    HW218657   0.309   4.250   2.077  0.8061 -1.5092 -0.6023
 2342SOL     OW18658   3.002   4.350   3.714  0.1253  0.6681  0.3423
 2342SOL    HW118659   2.966   4.342   3.626 -1.1154  0.2306  0.8823
 2342SOL    HW218660   2.924   4.392   3.751  0.5982  1.3277  0.5782
 2343SOL     OW18661   1.698   0.233   5.968 -0.0443  0.5933 -0.1474
 2343SOL    HW118662   1.653   0.150   5.985  2.4400 -1.2039 -2.3229
 2343SOL    HW218663   1.764   0.244   6.037  2.1230  0.8583 -2.2449
 2344SOL     OW18664   2.010   1.195   0.213  0.3006  0.0629 -0.0540
 2344SOL    HW118665   1.964   1.256   0.270 -0.7348 -1.6208  0.9145
 2344SOL    HW218666   2.062   1.258   0.163  0.3568 -0.1105 -0.2114
 2345SOL     OW18667   3.073   0.272   2.920 -0.2903  0.8153 -0.2196
 2345SOL    HW118668   3.081   0.233   3.007 -1.8755 -1.2669 -1.0053
 2345SOL    HW218669   3.044   0.197   2.868  0.9503  0.2373 -0.0616
 2346SOL     OW18670   4.597   1.452   6.882  0.4552 -0.0810 -0.3466
 2346SOL    HW118671   4.670   1.504   6.913 -0.8620  1.0391  0.8689
 2346SOL    HW218672   4.549   1.518   6.831  0.2548  0.7877  0.9703
 2347SOL     OW18673   4.582   3.364   2.971  0.0372  0.0059  0.2511
 2347SOL    HW118674   4.579   3.435   2.907 -1.5554 -0.1858  0.1070
 2347SOL    HW218675   4.626   3.304   2.911  2.7423  0.9858  1.2721
 2348SOL     OW18676   0.688   0.800  16.572  0.0317 -0.4750  0.2062
 2348SOL    HW118677   0.620   0.848  16.617 -0.7490  0.6967 -2.2149
 2348SOL    HW218678   0.713   0.734  16.636 -0.7339 -0.5369  0.4375
 2349SOL     OW18679   2.337   1.502   3.884 -0.4719 -0.4800 -0.2257
 2349SOL    HW118680   2.364   1.592   3.897 -0.1636 -0.3795 -1.5479
 2349SOL    HW218681   2.259   1.499   3.941 -1.7340  1.6149 -1.8504
 2350SOL     OW18682   2.915   4.118   1.668  0.1632 -0.6742 -0.3995
 2350SOL    HW118683   2.934   4.059   1.596  2.8136  1.5337 -1.4971
 2350SOL    HW218684   2.835   4.159   1.633  0.5890 -0.4599 -1.1121
 2351SOL     OW18685   3.043   0.972   6.841  0.1371  0.0223 -0.2695
 2351SOL    HW118686   3.020   0.903   6.779  2.1053  1.6661 -2.7853
 2351SOL    HW218687   2.957   1.007   6.863 -0.2459 -0.7963 -0.4655
 2352SOL     OW18688   0.101   2.353   3.360  0.7400 -0.8199 -0.8253
 2352SOL    HW118689   0.188   2.380   3.331  0.6358  0.7887  0.4064
 2352SOL    HW218690   0.109   2.261   3.388 -3.0901 -0.3484  1.7449
 2353SOL     OW18691   0.617   4.104   0.479 -0.2434 -0.1452  0.5843
 2353SOL    HW118692   0.651   4.016   0.496 -0.2611 -0.6059 -1.7334
 2353SOL    HW218693   0.697   4.154   0.466 -0.4456  0.0696  0.1786
 2354SOL     OW18694   0.190   2.787   3.529 -0.4651 -0.2210 -0.5789
 2354SOL    HW118695   0.241   2.745   3.460 -0.1447 -0.9949  0.1422
 2354SOL    HW218696   0.154   2.856   3.472  2.7685  2.0989  0.1519
 2355SOL     OW18697   4.071   0.994   4.221 -0.0280  0.1056 -0.1591
 2355SOL    HW118698   4.109   1.024   4.138  0.2933 -0.9305 -0.3952
 2355SOL    HW218699   4.105   1.057   4.285  1.0269  0.4484 -1.0524
 2356SOL     OW18700   4.037   1.858   5.400  0.8252 -0.2886  0.2423
 2356SOL    HW118701   4.132   1.857   5.387  0.5200 -0.0584 -2.0546
 2356SOL    HW218702   4.036   1.806   5.480  0.4332 -2.7235 -1.3342
 2357SOL     OW18703   3.409   0.431   7.511 -0.1865  0.3470 -0.3327
 2357SOL    HW118704   3.337   0.494   7.523  1.1799  1.2044  3.3947
 2357SOL    HW218705   3.381   0.380   7.435  1.4386  0.4473 -0.9968
 2358SOL     OW18706   1.272   3.082   3.270 -0.1518  0.8291 -0.0262
 2358SOL    HW118707   1.360   3.055   3.297 -0.5318  1.5879  1.9647
 2358SOL    HW218708   1.214   3.048   3.338 -1.3889  2.1473 -0.4226
 2359SOL     OW18709   4.613   4.342   1.643 -0.3827  0.1363 -0.8872
 2359SOL    HW118710   4.616   4.269   1.581  1.0026  0.1574 -0.8394
 2359SOL    HW218711   4.665   4.409   1.598 -1.1621  1.8092  0.7061
 2360SOL     OW18712   3.247   3.372   2.230  0.2368 -0.4979 -0.5172
 2360SOL    HW118713   3.209   3.438   2.289  1.5734 -0.1459 -0.0300
 2360SOL    HW218714   3.340   3.392   2.242  0.0101  1.6320 -2.3398
 2361SOL     OW18715   2.753   4.569   4.571  0.2620  0.2930 -0.1712
 2361SOL    HW118716   2.658   4.573   4.557 -0.0145 -1.1367  1.2265
 2361SOL    HW218717   2.752   4.587   4.665  0.1765 -1.7140  0.2126
 2362SOL     OW18718   2.836   3.314   4.339  0.3383  0.0894  0.1761
 2362SOL    HW118719   2.868   3.262   4.413 -1.9427 -0.0390  1.0935
 2362SOL    HW218720   2.838   3.250   4.268 -4.1807 -1.3641  1.3615
 2363SOL     OW18721   2.774   1.208   9.023 -0.3045  0.6580 -0.6461
 2363SOL    HW118722   2.856   1.208   8.974  0.6243  1.6709  0.9269
 2363SOL    HW218723   2.764   1.302   9.038 -2.5295  0.5276 -1.2029
 2364SOL     OW18724   2.714   1.209   0.466 -0.0066 -0.2972  0.0269
 2364SOL    HW118725   2.631   1.236   0.426 -0.0384 -0.9225 -0.3198
 2364SOL    HW218726   2.689   1.179   0.554  0.0013 -1.0738 -0.2372
 2365SOL     OW18727   4.450   0.721  10.189  0.0837 -0.3025  0.0863
 2365SOL    HW118728   4.489   0.718  10.101  2.0508  0.3394  0.9460
 2365SOL    HW218729   4.385   0.786  10.164  1.2561  0.4510 -1.0240
 2366SOL     OW18730   0.535   1.148   4.245  0.6545 -0.4294  0.1893
 2366SOL    HW118731   0.621   1.110   4.265  0.6628 -0.0185  0.9462
 2366SOL    HW218732   0.562   1.239   4.239  3.0726 -0.9875  2.1203
 2367SOL     OW18733   4.520   2.207  13.583 -0.3931  0.2230 -0.5852
 2367SOL    HW118734   4.450   2.221  13.648 -0.8650 -0.9556 -0.8448
 2367SOL    HW218735   4.552   2.120  13.604  1.3807  0.6706 -1.4187
 2368SOL     OW18736   3.132   0.876   8.655 -0.2942  0.7113 -0.2293
 2368SOL    HW118737   3.056   0.851   8.708  2.0848 -0.0371  2.8062
 2368SOL    HW218738   3.164   0.789   8.630  1.9593  1.4974 -0.0891
 2369SOL     OW18739   0.923   1.448  12.811  0.2211 -0.1492 -0.8335
 2369SOL    HW118740   0.998   1.490  12.854 -2.1671  3.2553  0.0902
 2369SOL    HW218741   0.879   1.525  12.773  0.9802  0.2765 -0.8577
 2370SOL     OW18742   3.326   3.621   9.836 -0.5765  0.0139 -0.4426
 2370SOL    HW118743   3.399   3.560   9.850 -0.4185  0.1691 -0.5807
 2370SOL    HW218744   3.254   3.560   9.850 -0.8918  0.5144  0.0948
 2371SOL     OW18745   2.398   1.329   8.382  0.2908  0.3499 -0.0560
 2371SOL    HW118746   2.361   1.416   8.397  1.5384  0.3354  3.2606
 2371SOL    HW218747   2.318   1.277   8.384 -1.0895  2.4941  1.1922
 2372SOL     OW18748   0.515   2.646   3.740 -0.2977  0.1485 -0.2866
 2372SOL    HW118749   0.544   2.555   3.750  0.2749  0.1994 -1.5163
 2372SOL    HW218750   0.444   2.623   3.680 -0.0801 -1.0327 -0.0999
 2373SOL     OW18751   4.430   1.281  15.998  0.1455 -0.3063  0.4211
 2373SOL    HW118752   4.452   1.374  15.987 -0.8520 -0.0217  0.8102
 2373SOL    HW218753   4.335   1.274  16.007  0.2464 -2.8971 -0.6293
 2374SOL     OW18754   0.586   1.216   8.764  0.0757  1.1869 -0.0956
 2374SOL    HW118755   0.531   1.224   8.841  0.4389  0.3201  0.2584
 2374SOL    HW218756   0.670   1.184   8.796 -1.7686 -2.0334  1.5660
 2375SOL     OW18757   2.726   0.125   3.165 -0.2630  0.3681 -0.0426
 2375SOL    HW118758   2.770   0.095   3.085  0.3756 -0.1011  0.4775
 2375SOL    HW218759   2.652   0.174   3.129 -0.1174  0.4192 -0.2757
 2376SOL     OW18760   1.735   1.943   0.882 -0.4704 -0.1177  0.1212
 2376SOL    HW118761   1.665   1.943   0.816 -1.0199 -0.2436  0.6985
 2376SOL    HW218762   1.694   1.882   0.943 -2.5348  0.1646 -0.9866
 2377SOL     OW18763   2.901   3.103   1.541  0.0666  0.1173  0.6137
 2377SOL    HW118764   2.967   3.034   1.538  0.6159  0.8584 -5.1757
 2377SOL    HW218765   2.824   3.049   1.553  0.8345 -1.5568 -1.9325
 2378SOL     OW18766   2.741   0.998   0.837  0.3840  0.5678  0.3108
 2378SOL    HW118767   2.755   1.043   0.921  3.2183 -0.2023  0.2654
 2378SOL    HW218768   2.832   0.995   0.807  0.1245  0.0701 -0.4219
 2379SOL     OW18769   0.702   3.712  13.116 -0.1694  0.1942  0.0921
 2379SOL    HW118770   0.671   3.801  13.105  1.0177  0.4927 -0.7697
 2379SOL    HW218771   0.632   3.653  13.146  1.0588 -1.1314  0.3215
 2380SOL     OW18772   0.535   0.984   6.150 -0.3100 -0.1440  0.2291
 2380SOL    HW118773   0.560   0.993   6.242  1.4140  0.3133 -0.2742
 2380SOL    HW218774   0.534   1.078   6.128  0.2091 -0.6708 -2.0821
 2381SOL     OW18775   0.299   3.894   0.841 -0.5418 -0.1703 -0.7304
 2381SOL    HW118776   0.207   3.868   0.830 -0.8216 -0.4525  2.3177
 2381SOL    HW218777   0.336   3.888   0.752  0.8671 -5.0674  0.1826
 2382SOL     OW18778   0.651   0.394   4.343  0.2798 -0.0664 -0.4997
 2382SOL    HW118779   0.648   0.306   4.380  0.6448 -0.2753 -0.9659
 2382SOL    HW218780   0.560   0.420   4.353  0.5216  1.2196 -1.5768
 2383SOL     OW18781   3.840   3.254  10.926 -0.1600 -0.0765 -0.0934
 2383SOL    HW118782   3.897   3.233  10.852  0.6836 -0.3345  0.6262
 2383SOL    HW218783   3.897   3.254  11.003  2.1200 -0.8411 -1.8070
 2384SOL     OW18784   1.983   2.193   6.081 -0.4034  0.3148  0.1088
 2384SOL    HW118785   2.007   2.197   6.174  1.4252  2.6541 -0.4662
 2384SOL    HW218786   1.900   2.147   6.072 -0.6457  1.3549 -2.7611
 2385SOL     OW18787   2.474   2.993  10.288  0.4749 -0.0775  0.0065
 2385SOL    HW118788   2.444   2.903  10.305  3.1069 -0.6341  1.5636
 2385SOL    HW218789   2.483   3.031  10.375 -1.6051 -0.1386  0.2466
 2386SOL     OW18790   4.370   3.676   5.363  0.0271  0.5775 -0.0219
 2386SOL    HW118791   4.326   3.657   5.280 -2.6485  0.5508  1.3927
 2386SOL    HW218792   4.421   3.754   5.341  0.0134  1.3466  2.6180
 2387SOL     OW18793   4.250   4.375   6.978 -0.0506 -0.0701  0.4043
 2387SOL    HW118794   4.170   4.346   7.020 -0.1859 -0.1696  0.0724
 2387SOL    HW218795   4.226   4.360   6.886 -2.1598  0.1953  0.9183
 2388SOL     OW18796   4.230   0.461   6.070  0.1970 -0.4581 -0.1043
 2388SOL    HW118797   4.166   0.416   6.125 -0.1416 -0.4051 -0.4610
 2388SOL    HW218798   4.229   0.548   6.110  2.7827 -0.3254 -0.3063
 2389SOL     OW18799   2.782   2.148   4.625 -0.0304  0.2725  0.0992
 2389SOL    HW118800   2.726   2.178   4.697 -1.4862  1.6574 -1.6125
 2389SOL    HW218801   2.783   2.224   4.568 -3.1148  0.1664 -0.1115
 2390SOL     OW18802   1.530   4.399   6.212  0.6991  0.0329 -0.0820
 2390SOL    HW118803   1.476   4.454   6.155  1.5064  1.6397  0.7094
 2390SOL    HW218804   1.597   4.462   6.240  1.3010 -0.1649 -1.0936
 2391SOL     OW18805   2.775   1.242   8.279  0.2163  0.1334  0.2607
 2391SOL    HW118806   2.717   1.240   8.202  0.8799 -0.0065 -0.2377
 2391SOL    HW218807   2.731   1.185   8.342  0.7535  0.3299  0.8040
 2392SOL     OW18808   2.692   1.478   8.543 -0.1615  0.1064 -0.4292
 2392SOL    HW118809   2.700   1.499   8.451  1.5794 -0.2035 -0.3472
 2392SOL    HW218810   2.599   1.497   8.560 -0.4581 -1.7896  0.1300
 2393SOL     OW18811   1.399   3.590   4.591 -0.1075 -0.8325 -0.2555
 2393SOL    HW118812   1.441   3.504   4.585  0.2093 -0.7373  0.5099
 2393SOL    HW218813   1.400   3.603   4.686 -2.2246 -0.4629 -0.2952
 2394SOL     OW18814   1.438   3.013  16.888 -0.1746 -0.0942  0.5100
 2394SOL    HW118815   1.481   3.093  16.918  0.3686 -0.2316  0.1119
 2394SOL    HW218816   1.482   2.986  16.807  0.9413  0.4669  0.9320
 2395SOL     OW18817   3.641   4.237   4.707 -0.3130 -0.3280 -0.3621
 2395SOL    HW118818   3.619   4.247   4.614 -0.2266 -1.3571 -0.4943
 2395SOL    HW218819   3.577   4.172   4.736 -0.3454 -0.4175 -0.6392
 2396SOL     OW18820   3.092   0.995  10.789  0.2367 -0.6598  0.3426
 2396SOL    HW118821   3.144   1.055  10.737 -3.0241  1.3680 -0.6079
 2396SOL    HW218822   3.087   0.923  10.726  0.2564 -1.7587  1.5877
 2397SOL     OW18823   2.130   1.945   4.845 -0.0978  0.3007  0.3609
 2397SOL    HW118824   2.202   1.882   4.839  0.2846  0.7726  0.0549
 2397SOL    HW218825   2.057   1.910   4.793  0.6060 -2.2116  1.0612
 2398SOL     OW18826   1.918   1.195   7.529 -0.0643 -0.3010 -0.0167
 2398SOL    HW118827   1.933   1.104   7.554  0.5188 -0.5775 -1.3891
 2398SOL    HW218828   1.834   1.183   7.486 -0.2386 -0.0267  0.2492
 2399SOL     OW18829   3.853   4.732   5.293 -0.4932 -0.0314  0.4721
 2399SOL    HW118830   3.812   0.078   5.268 -1.8591 -0.8104  0.1645
 2399SOL    HW218831   3.871   0.001   5.386 -0.7189 -0.4886  0.5410
 2400SOL     OW18832   3.683   2.299   4.198  0.2414  0.4574  0.0211
 2400SOL    HW118833   3.673   2.260   4.112 -0.0844  1.8511 -0.5805
 2400SOL    HW218834   3.630   2.379   4.196 -0.2410  0.1267 -0.2701
 2401SOL     OW18835   2.381   2.056   8.677 -0.1850  0.6222  0.2420
 2401SOL    HW118836   2.394   1.974   8.630 -2.2039  1.4792 -1.8335
 2401SOL    HW218837   2.445   2.044   8.747 -0.5874 -3.1634 -0.0759
 2402SOL     OW18838   4.460   3.380   5.515  0.2856 -0.1023  0.0343
 2402SOL    HW118839   4.390   3.362   5.452  0.1796  2.7283 -0.6316
 2402SOL    HW218840   4.488   3.468   5.491 -1.1214  0.3228 -0.0304
 2403SOL     OW18841   0.761   1.072   7.204  0.0888 -0.1641  0.4679
 2403SOL    HW118842   0.834   1.018   7.234  0.9477 -0.1197 -1.5744
 2403SOL    HW218843   0.720   1.084   7.290  3.6654 -0.5019  2.2283
 2404SOL     OW18844   1.924   0.816   1.704 -0.3748 -0.2816 -0.7160
 2404SOL    HW118845   1.967   0.777   1.628  0.5958 -0.8089  0.0993
 2404SOL    HW218846   1.963   0.902   1.688  0.2282 -0.0424  2.0208
 2405SOL     OW18847   1.230   3.094  16.138 -0.0632 -0.0482 -0.3238
 2405SOL    HW118848   1.307   3.130  16.183  0.5283 -2.5595  0.6379
 2405SOL    HW218849   1.259   3.004  16.152  2.2955  0.8089  0.2953
 2406SOL     OW18850   0.388   1.530   5.580 -0.3076  0.1890  0.0369
 2406SOL    HW118851   0.387   1.561   5.490 -2.2915 -0.5386 -0.1874
 2406SOL    HW218852   0.427   1.605   5.625 -1.5566  0.4219  0.7191
 2407SOL     OW18853   0.367   0.130   4.563  0.5290  0.3300 -0.2641
 2407SOL    HW118854   0.336   0.040   4.559  0.2596  0.3533  1.3288
 2407SOL    HW218855   0.437   0.129   4.498  1.4276  0.7677  0.6997
 2408SOL     OW18856   3.246   2.509   1.591 -0.2743  0.8417 -0.2606
 2408SOL    HW118857   3.266   2.430   1.641  1.8390  1.2753 -0.4567
 2408SOL    HW218858   3.324   2.516   1.537 -0.6672  0.9794 -0.8147
 2409SOL     OW18859   2.329   2.908  11.554 -0.9832  0.0099  0.0501
 2409SOL    HW118860   2.321   2.853  11.476  0.0930 -2.6272  1.7901
 2409SOL    HW218861   2.311   2.995  11.519  1.3414  0.7840  0.7737
 2410SOL     OW18862   2.277   0.139   5.643 -0.2955  0.7029 -0.3337
 2410SOL    HW118863   2.296   0.116   5.734 -1.4024 -1.0016 -0.5432
 2410SOL    HW218864   2.344   0.203   5.618 -0.0815  0.1394 -1.2064
 2411SOL     OW18865   2.614   1.775   7.922 -0.6665 -0.1703  0.4368
 2411SOL    HW118866   2.683   1.717   7.956 -1.0488 -0.4263  0.7777
 2411SOL    HW218867   2.541   1.719   7.896 -2.0245  2.0470 -0.5708
 2412SOL     OW18868   2.955   0.187   4.144  0.1694 -0.4301  0.4139
 2412SOL    HW118869   2.909   0.108   4.173 -1.5126 -0.3115 -1.9472
 2412SOL    HW218870   2.882   0.235   4.105  2.8505  1.0671 -2.8324
 2413SOL     OW18871   2.592   2.453  15.687  0.4332 -0.0275  0.1434
 2413SOL    HW118872   2.551   2.462  15.773 -0.0730 -3.5985  0.2597
 2413SOL    HW218873   2.579   2.361  15.665 -0.4473  0.4899 -1.5411
 2414SOL     OW18874   4.572   0.257   7.617  0.6149  0.0209  0.5477
 2414SOL    HW118875   4.494   0.202   7.615  0.3676  0.4615 -1.3614
 2414SOL    HW218876   4.634   0.199   7.661  2.7997  0.4235 -1.9613
 2415SOL     OW18877   4.603   4.639   4.894  0.2652 -0.4044  0.1240
 2415SOL    HW118878   4.555   4.570   4.847  1.0485  0.1635 -1.4697
 2415SOL    HW218879   4.533   4.653   4.958  0.9701 -2.0622  1.2624
 2416SOL     OW18880   4.635   0.665   6.419  0.3824  0.3368  0.3051
 2416SOL    HW118881   4.669   0.579   6.443  2.9081  0.5125 -2.6293
 2416SOL    HW218882   4.685   0.719   6.480  0.4680  0.1101  0.4375
 2417SOL     OW18883   4.175   4.282   6.064 -0.1789  0.0033 -0.5266
 2417SOL    HW118884   4.107   4.231   6.108  0.8730 -0.9325  0.0435
 2417SOL    HW218885   4.143   4.371   6.056  0.6754  0.3750  0.1629
 2418SOL     OW18886   1.394   3.076  15.527 -0.5171  0.3474 -0.5165
 2418SOL    HW118887   1.341   3.156  15.528  0.1071  0.7407  2.1434
 2418SOL    HW218888   1.453   3.096  15.454  1.1136 -0.5311  0.5622
 2419SOL     OW18889   0.982   4.654   8.361 -0.2091  0.8062 -0.3461
 2419SOL    HW118890   0.946   4.565   8.355 -1.6740  1.3589  0.4326
 2419SOL    HW218891   0.955   4.678   8.449  1.0972 -0.4909  0.4217
 2420SOL     OW18892   2.080   3.325   7.989 -0.1662  0.3610  0.2564
 2420SOL    HW118893   1.988   3.300   7.986 -0.2883  0.8753 -0.3139
 2420SOL    HW218894   2.086   3.352   8.080  0.1030  0.8612  0.0914
 2421SOL     OW18895   2.235   1.631   1.005  0.2675  0.3748  0.2825
 2421SOL    HW118896   2.195   1.555   0.962  1.1452 -1.5221  2.7779
 2421SOL    HW218897   2.268   1.605   1.091 -1.0075  0.7013  0.8668
 2422SOL     OW18898   4.684   1.425  11.411  0.3734 -0.3908 -0.0455
 2422SOL    HW118899   4.621   1.379  11.465 -0.9129  0.9080 -0.4451
 2422SOL    HW218900   4.661   1.399  11.322 -1.6994 -0.0730  0.3945
 2423SOL     OW18901   4.002   4.081   4.533 -0.3261 -0.4821  0.5614
 2423SOL    HW118902   4.008   4.171   4.504  0.7536 -1.5175 -2.4137
 2423SOL    HW218903   3.985   4.093   4.626 -0.8808  1.8962  0.1354
 2424SOL     OW18904   1.370   0.348   2.933  0.1517 -0.3843  0.1210
 2424SOL    HW118905   1.281   0.321   2.956 -0.4276  1.0175 -0.4710
 2424SOL    HW218906   1.391   0.408   3.004  1.4199 -1.3698  0.5682
 2425SOL     OW18907   3.572   0.654  15.735 -0.2772  0.1807 -0.0277
 2425SOL    HW118908   3.551   0.562  15.720  2.4159 -0.4372 -0.0008
 2425SOL    HW218909   3.594   0.678  15.645  0.4323 -1.6078 -0.3169
 2426SOL     OW18910   2.788   0.753  17.467 -0.6119  0.2340  0.5525
 2426SOL    HW118911   2.841   0.763  17.545 -2.1240  2.6547  1.2876
 2426SOL    HW218912   2.726   0.823  17.488 -1.6715 -0.1666 -1.2057
 2427SOL     OW18913   3.447   0.464   4.839 -0.2844  0.7291  0.2433
 2427SOL    HW118914   3.381   0.425   4.781  0.2305  1.4481 -0.8180
 2427SOL    HW218915   3.521   0.466   4.779 -0.6301  1.8750 -0.1379
 2428SOL     OW18916   0.514   0.065   9.776  0.0547 -0.5778 -0.8049
 2428SOL    HW118917   0.456   0.024   9.840 -2.0414  0.5796 -1.9729
 2428SOL    HW218918   0.464   0.064   9.695  0.9527  0.1012 -1.3724
 2429SOL     OW18919   0.206   1.921   1.917  0.6117  0.1544 -0.3165
 2429SOL    HW118920   0.291   1.958   1.942  0.7714  1.0622 -2.1297
 2429SOL    HW218921   0.149   1.962   1.982  1.1262  1.6572 -0.8060
 2430SOL     OW18922   2.662   1.811   5.010  0.0203 -0.0395  0.0655
 2430SOL    HW118923   2.624   1.846   5.090 -1.2302  2.4131 -1.5904
 2430SOL    HW218924   2.699   1.732   5.051 -0.2872  0.6140  1.5912
 2431SOL     OW18925   0.781   4.392   1.519 -0.4268 -0.0771 -0.1432
 2431SOL    HW118926   0.781   4.425   1.609  0.1501  0.5222 -0.3619
 2431SOL    HW218927   0.815   4.303   1.522 -3.2583 -1.0857  1.8152
 2432SOL     OW18928   3.289   2.091   7.375  0.1343  0.1381  0.6677
 2432SOL    HW118929   3.234   2.021   7.410  2.1155 -1.7353  0.0156
 2432SOL    HW218930   3.363   2.068   7.431 -0.8082  1.8796  2.6162
 2433SOL     OW18931   0.347   1.701   2.673 -0.2124 -0.2853 -0.1644
 2433SOL    HW118932   0.413   1.770   2.664 -1.2290  0.7000 -0.1531
 2433SOL    HW218933   0.267   1.752   2.661 -1.2984 -1.9488 -0.0216
 2434SOL     OW18934   0.994   0.862   4.039  0.1289 -0.0963 -0.1088
 2434SOL    HW118935   0.946   0.793   4.085  0.7196 -1.1812 -1.1105
 2434SOL    HW218936   0.965   0.851   3.948 -3.4512 -2.3571  1.3018
 2435SOL     OW18937   0.243   2.819  15.130  0.0401  0.2072 -0.5756
 2435SOL    HW118938   0.247   2.899  15.078  0.6401  2.0389  2.2865
 2435SOL    HW218939   0.292   2.834  15.211 -0.1672  3.0743 -0.9755
 2436SOL     OW18940   3.238   3.434   4.651 -0.3279  0.6818  0.2769
 2436SOL    HW118941   3.148   3.454   4.677 -0.8111  1.4134 -1.9519
 2436SOL    HW218942   3.254   3.345   4.683  0.7532  0.7913  0.0477
 2437SOL     OW18943   0.286   0.344   9.757  0.1552  0.6311 -0.5065
 2437SOL    HW118944   0.331   0.418   9.715 -1.3565  1.9846  0.2625
 2437SOL    HW218945   0.321   0.351   9.846  0.6484 -1.3206 -0.5430
 2438SOL     OW18946   2.731   1.381   6.607 -0.0253 -0.3561  0.0355
 2438SOL    HW118947   2.763   1.300   6.568 -0.7889 -0.9734  0.6938
 2438SOL    HW218948   2.785   1.449   6.566  0.1136 -1.1841 -1.1663
 2439SOL     OW18949   0.366   4.555  13.430 -0.1076 -0.0732  0.3138
 2439SOL    HW118950   0.401   4.586  13.347 -0.6465  0.9767  0.4782
 2439SOL    HW218951   0.282   4.599  13.422  0.4991  1.1662  0.7275
 2440SOL     OW18952   4.304   1.673  17.595  0.2906 -0.5663 -0.0202
 2440SOL    HW118953   4.330   1.641  17.508  4.7655 -1.0279  1.4865
 2440SOL    HW218954   4.236   1.735  17.569  2.4350  1.0676 -1.7377
 2441SOL     OW18955   0.024   3.006  13.684  0.7153  0.7168 -0.0544
 2441SOL    HW118956   4.710   2.992  13.604  0.4126  0.8622  0.1137
 2441SOL    HW218957   0.115   2.984  13.663  0.5824  0.1251  0.0048
 2442SOL     OW18958   1.930   0.818   9.313 -0.2665 -0.3556 -0.1958
 2442SOL    HW118959   1.990   0.883   9.349 -0.5996 -1.1211  1.7526
 2442SOL    HW218960   1.919   0.764   9.391  1.7736  0.6350  0.7685
 2443SOL     OW18961   0.167   3.043   7.799  0.9173 -0.0253 -0.1998
 2443SOL    HW118962   0.097   3.058   7.736 -0.1816  0.0212  1.0460
 2443SOL    HW218963   0.226   2.982   7.753 -0.2007 -1.0422 -0.2791
 2444SOL     OW18964   3.892   0.568  11.942  0.5485 -0.5903  0.0962
 2444SOL    HW118965   3.836   0.623  11.996  1.2719  0.6055 -0.3677
 2444SOL    HW218966   3.982   0.592  11.965 -0.3796  1.7428  1.3062
 2445SOL     OW18967   2.379   3.025  14.776 -0.3306  0.5322 -0.2297
 2445SOL    HW118968   2.408   2.934  14.772  2.5413  1.4151  0.9153
 2445SOL    HW218969   2.462   3.064  14.750 -0.5162  2.1765  1.6099
 2446SOL     OW18970   0.858   4.643   8.618  0.6400 -0.1615 -0.5876
 2446SOL    HW118971   0.828   4.553   8.607 -1.2131  0.5378 -1.3847
 2446SOL    HW218972   0.889   4.635   8.708 -0.2550 -4.3185 -0.6533
 2447SOL     OW18973   0.637   1.683   1.570  0.0288  0.5242  0.6317
 2447SOL    HW118974   0.677   1.716   1.650  0.1847 -0.4727  0.9565
 2447SOL    HW218975   0.724   1.665   1.532 -0.9699 -2.0801 -0.4029
 2448SOL     OW18976   2.933   3.567   8.262 -0.0714 -0.4097  0.7784
 2448SOL    HW118977   2.894   3.598   8.344 -1.6195  1.8226 -0.7910
 2448SOL    HW218978   2.858   3.527   8.218  0.7209 -0.6023 -0.3669
 2449SOL     OW18979   0.004   1.708   4.472  1.2477 -0.1573  0.2818
 2449SOL    HW118980   4.736   1.787   4.417 -1.5486  0.1394  0.9712
 2449SOL    HW218981   0.030   1.739   4.559  2.2503 -1.3489  0.4085
 2450SOL     OW18982   2.614   1.763  17.355 -0.7256  0.2557 -0.4927
 2450SOL    HW118983   2.583   1.807  17.434  1.5527 -0.4394  0.7713
 2450SOL    HW218984   2.649   1.838  17.306 -1.4134  0.6854 -0.3306
 2451SOL     OW18985   3.474   2.271   8.175  0.3872 -0.0232  0.2090
 2451SOL    HW118986   3.555   2.292   8.222 -0.1397 -1.7830  1.8886
 2451SOL    HW218987   3.425   2.349   8.201 -0.7078 -0.6466  0.0410
 2452SOL     OW18988   2.476   1.606   0.824 -0.8153  0.3715  0.5737
 2452SOL    HW118989   2.401   1.575   0.875 -0.7620  1.5432  1.3589
 2452SOL    HW218990   2.514   1.677   0.877 -0.0921  1.6638 -1.6793
 2453SOL     OW18991   4.219   2.935  15.154  0.1670  0.0493  0.3331
 2453SOL    HW118992   4.257   3.017  15.123  2.2368 -0.4976  1.4406
 2453SOL    HW218993   4.245   2.876  15.083 -0.5668  2.4655 -1.9454
 2454SOL     OW18994   3.385   4.552   2.559 -0.1255  0.0522  0.8239
 2454SOL    HW118995   3.454   4.501   2.516 -1.1215  1.8855 -3.0271
 2454SOL    HW218996   3.318   4.484   2.564  2.5073 -2.7373 -0.9564
 2455SOL     OW18997   3.211   2.834   7.913  0.8454  0.1880  0.0279
 2455SOL    HW118998   3.144   2.903   7.912 -1.4484 -2.0654 -1.2927
 2455SOL    HW218999   3.278   2.884   7.866 -0.2039  2.4827  0.9742
 2456SOL     OW19000   2.502   3.090   2.040 -0.2296  0.0576  0.2673
 2456SOL    HW119001   2.407   3.099   2.049 -0.2424  0.5218 -0.3109
 2456SOL    HW219002   2.535   3.179   2.039  2.2456 -0.8461  0.6011
 2457SOL     OW19003   1.061   3.725   2.234 -0.0459 -0.0287  0.3075
 2457SOL    HW119004   1.132   3.749   2.175  1.2025 -1.6080  1.1476
 2457SOL    HW219005   1.093   3.752   2.321  2.2264  1.8197 -1.1013
 2458SOL     OW19006   3.781   1.524   1.748 -0.1139  0.6161 -0.6232
 2458SOL    HW119007   3.844   1.593   1.725  0.5815 -0.5097 -2.0940
 2458SOL    HW219008   3.764   1.536   1.841 -1.9988  0.1502 -0.9176
 2459SOL     OW19009   0.142   1.391   1.415 -0.0727 -0.0090  0.2206
 2459SOL    HW119010   0.127   1.411   1.507 -2.1303 -2.0907  0.3516
 2459SOL    HW219011   0.068   1.332   1.399  0.4250 -0.0699 -1.8181
 2460SOL     OW19012   3.042   0.481   4.444 -0.2285 -0.7029 -0.0349
 2460SOL    HW119013   2.983   0.416   4.405  0.7552  0.5051 -3.5161
 2460SOL    HW219014   3.016   0.468   4.536  0.2441  1.0661  0.3596
 2461SOL     OW19015   3.890   3.625  16.872  0.2208  0.1918  0.2075
 2461SOL    HW119016   3.863   3.569  16.945  0.2135  1.7663  1.3951
 2461SOL    HW219017   3.904   3.547  16.817  0.3132  1.7579 -1.9809
 2462SOL     OW19018   1.771   2.315   8.519 -0.2548  0.2753  0.0672
 2462SOL    HW119019   1.856   2.284   8.550 -0.1524 -0.1341 -0.6304
 2462SOL    HW219020   1.744   2.246   8.459 -1.1956 -0.6219  1.5074
 2463SOL     OW19021   4.530   3.023   3.806 -0.0810  0.3786  0.0366
 2463SOL    HW119022   4.486   2.971   3.739  3.3231  0.5585 -2.3611
 2463SOL    HW219023   4.460   3.086   3.823 -0.2567  0.2436 -0.1858
 2464SOL     OW19024   3.597   4.595   6.698  0.4718 -0.3024 -0.7655
 2464SOL    HW119025   3.629   4.556   6.779 -3.2345 -2.6618 -0.4756
 2464SOL    HW219026   3.565   4.680   6.729 -1.0746 -1.1318 -0.1330
 2465SOL     OW19027   4.281   4.665   9.165 -0.7347  0.1528 -0.3150
 2465SOL    HW119028   4.315   0.018   9.154 -0.5079 -0.0003 -0.8390
 2465SOL    HW219029   4.349   4.622   9.216 -0.3375 -0.3545 -1.2763
 2466SOL     OW19030   2.837   0.522   1.620  0.5154  0.8242  0.1777
 2466SOL    HW119031   2.809   0.449   1.566  1.2812 -0.0307  0.9393
 2466SOL    HW219032   2.931   0.506   1.620  0.0487 -1.8624 -1.6046
 2467SOL     OW19033   2.975   0.028   5.276 -0.0906  0.4729  0.2267
 2467SOL    HW119034   2.953   4.673   5.258  2.3824 -0.5800  2.4672
 2467SOL    HW219035   2.951   0.065   5.191 -0.7582  0.7643  0.5425
 2468SOL     OW19036   1.139   1.892   5.756 -0.7040 -0.0175  0.4693
 2468SOL    HW119037   1.125   1.957   5.825 -0.9200 -0.4294  0.8109
 2468SOL    HW219038   1.125   1.809   5.802 -0.5619 -1.7655 -2.6430
 2469SOL     OW19039   1.678   2.310   1.633 -0.0612  0.3923 -0.0397
 2469SOL    HW119040   1.652   2.271   1.550  0.5301 -1.8256  0.8191
 2469SOL    HW219041   1.588   2.310   1.666  0.2938 -0.3115  0.9202
 2470SOL     OW19042   2.361   4.618  14.505 -0.2912  0.0033 -0.1300
 2470SOL    HW119043   2.398   4.649  14.422 -0.2527 -2.7550 -1.1443
 2470SOL    HW219044   2.312   4.539  14.483 -2.1624  0.9467  0.7569
 2471SOL     OW19045   1.392   4.305  13.363 -0.1904 -0.2899 -0.6034
 2471SOL    HW119046   1.405   4.374  13.298 -0.5016  0.0274 -0.3267
 2471SOL    HW219047   1.450   4.237  13.328  1.3807 -0.3193  2.0444
 2472SOL     OW19048   2.066   0.668   4.973 -0.5171  0.2289 -0.9932
 2472SOL    HW119049   2.038   0.715   4.894 -0.5511  2.6521  0.4661
 2472SOL    HW219050   1.997   0.602   4.982 -0.6123  0.3632 -0.7367
 2473SOL     OW19051   3.251   4.310  13.622 -0.3946 -0.1521 -0.2295
 2473SOL    HW119052   3.330   4.360  13.602 -2.1778  1.1222 -4.0390
 2473SOL    HW219053   3.198   4.389  13.612  0.2543  0.0739 -1.9131
 2474SOL     OW19054   4.040   2.627  17.238  0.0883  0.4320 -0.3961
 2474SOL    HW119055   3.966   2.606  17.294  0.4411  1.2735  0.3766
 2474SOL    HW219056   4.018   2.582  17.156  1.0205 -0.9472  0.1070
 2475SOL     OW19057   3.562   0.785  17.606  0.5152 -0.2185  0.1056
 2475SOL    HW119058   3.651   0.804  17.577  0.3981 -1.6399 -1.1394
 2475SOL    HW219059   3.588   0.721  17.672  0.1818 -1.2383 -0.7565
 2476SOL     OW19060   1.086   1.307   7.648 -0.3018  0.4627 -0.1889
 2476SOL    HW119061   1.103   1.252   7.725 -0.8107 -0.4934 -0.7669
 2476SOL    HW219062   1.175   1.335   7.628 -1.1997  3.1720 -0.3801
 2477SOL     OW19063   4.273   4.264   2.594 -0.3189 -0.0689 -0.0060
 2477SOL    HW119064   4.193   4.292   2.637  0.3070  1.5837  0.0876
 2477SOL    HW219065   4.264   4.171   2.616  1.0019 -0.5257 -1.3763
 2478SOL     OW19066   0.337   0.129   3.092 -0.4763  0.3652 -0.5242
 2478SOL    HW119067   0.425   0.163   3.109  0.0870 -1.8560  1.1786
 2478SOL    HW219068   0.337   0.140   2.997  3.3640 -1.9463 -0.7973
 2479SOL     OW19069   3.969   3.968   5.755 -0.0230 -0.2251  0.9375
 2479SOL    HW119070   3.921   3.898   5.710  1.0266  0.2565 -0.9027
 2479SOL    HW219071   3.980   4.026   5.680 -0.4756  0.4787  1.4099
 2480SOL     OW19072   0.774   2.810   6.190 -0.1600 -0.0500  0.3822
 2480SOL    HW119073   0.709   2.741   6.200 -1.5611  0.8509 -2.6161
 2480SOL    HW219074   0.855   2.769   6.159 -0.9107 -1.2528 -0.0251
 2481SOL     OW19075   2.394   0.385   5.618  0.1627  0.1424  0.2178
 2481SOL    HW119076   2.354   0.440   5.551 -1.5777 -2.8461 -1.2288
 2481SOL    HW219077   2.482   0.371   5.582  0.0062 -0.2337 -0.0208
 2482SOL     OW19078   4.170   3.619   5.521  0.2880  0.1205 -0.7272
 2482SOL    HW119079   4.189   3.534   5.560  0.1901  0.1930 -0.5232
 2482SOL    HW219080   4.244   3.637   5.463 -0.6843 -0.4253 -2.1488
 2483SOL     OW19081   1.239   2.027   1.427 -0.3527  0.6499  0.8884
 2483SOL    HW119082   1.261   2.115   1.396 -1.7145 -1.1829 -5.2982
 2483SOL    HW219083   1.160   2.043   1.478 -0.6991  0.2254  0.4868
 2484SOL     OW19084   1.062   3.007   2.716  0.4436 -0.2617 -0.3354
 2484SOL    HW119085   1.098   2.925   2.682  2.3666 -0.0796  1.2641
 2484SOL    HW219086   1.001   2.979   2.785 -2.5570  1.9479 -2.1077
 2485SOL     OW19087   3.057   2.790   9.568  0.4421  0.3521  0.1422
 2485SOL    HW119088   3.061   2.766   9.660 -2.3669 -2.6079 -0.5165
 2485SOL    HW219089   3.122   2.860   9.566  0.9019 -0.0589  1.0415
 2486SOL     OW19090   1.481   0.845   9.092 -0.3366  0.2499  0.2998
 2486SOL    HW119091   1.463   0.773   9.153  1.9913  0.4058  1.1583
 2486SOL    HW219092   1.575   0.847   9.107 -0.2223 -2.8634 -0.0124
 2487SOL     OW19093   4.116   1.445   5.881  0.2695  0.0701  1.0038
 2487SOL    HW119094   4.204   1.451   5.919  1.2356 -1.7612 -0.9586
 2487SOL    HW219095   4.087   1.533   5.857  1.2855  0.3500  0.7907
 2488SOL     OW19096   1.449   2.282   0.416  0.1600  0.6683 -0.3011
 2488SOL    HW119097   1.485   2.194   0.402 -1.0976  0.2039 -0.5577
 2488SOL    HW219098   1.431   2.300   0.324 -0.0274  1.2420 -0.1501
 2489SOL     OW19099   0.874   0.624  14.351  0.3084  0.1625 -0.9521
 2489SOL    HW119100   0.934   0.685  14.394  1.2213  0.0123 -2.0192
 2489SOL    HW219101   0.935   0.571  14.300 -0.7797 -1.4078 -0.6265
 2490SOL     OW19102   4.678   2.906   4.004 -0.8446 -0.3557 -0.2125
 2490SOL    HW119103   4.619   2.862   4.065 -2.4875  0.6004 -1.0839
 2490SOL    HW219104   4.611   2.946   3.948 -0.0201  2.2586  0.6445
 2491SOL     OW19105   1.437   4.433  12.413 -0.8558  0.2181 -0.8190
 2491SOL    HW119106   1.372   4.363  12.407 -1.1493  0.1622  3.2055
 2491SOL    HW219107   1.383   4.511  12.427 -0.8555  0.0304  0.1675
 2492SOL     OW19108   3.892   2.578  13.061  0.0825 -0.2250  0.7535
 2492SOL    HW119109   3.903   2.655  13.116  0.5614  1.3246 -1.5021
 2492SOL    HW219110   3.939   2.507  13.104  0.3508 -1.1765 -1.0884
 2493SOL     OW19111   2.931   0.982   3.733 -1.6308  0.2812  0.7673
 2493SOL    HW119112   2.895   0.896   3.758 -0.7246 -0.2867  0.1020
 2493SOL    HW219113   3.024   0.960   3.723 -1.8538 -0.1453 -0.3704
 2494SOL     OW19114   2.455   1.005  16.690 -0.4082  0.2494  0.5330
 2494SOL    HW119115   2.442   1.096  16.666  1.9069  0.3101 -0.4425
 2494SOL    HW219116   2.497   1.007  16.776 -1.1189 -1.1272  0.9274
 2495SOL     OW19117   4.195   2.586   8.532  0.0851  0.1195  0.0609
 2495SOL    HW119118   4.116   2.557   8.577  1.2144  0.3444  2.2261
 2495SOL    HW219119   4.229   2.506   8.492 -0.9898 -1.2706  1.9409
 2496SOL     OW19120   0.623   2.805   7.500  0.5636  0.2733  0.1015
 2496SOL    HW119121   0.565   2.862   7.448 -0.4636  0.0552  0.9946
 2496SOL    HW219122   0.659   2.762   7.422 -1.1279 -0.3707 -0.3344
 2497SOL     OW19123   0.385   0.669   7.707  0.2125  0.0918 -0.6573
 2497SOL    HW119124   0.458   0.615   7.737 -0.4219  0.4337  1.4451
 2497SOL    HW219125   0.414   0.753   7.744  1.9901 -1.8352  2.2802
 2498SOL     OW19126   2.559   0.025  15.190 -0.2528  0.4252 -0.2483
 2498SOL    HW119127   2.504   0.014  15.267 -0.5832  1.0440 -0.3944
 2498SOL    HW219128   2.491   0.057  15.131  0.6534  0.4392 -1.2901
 2499SOL     OW19129   0.299   1.366   4.493 -0.3993  0.3418 -0.4725
 2499SOL    HW119130   0.361   1.438   4.498  0.5288 -0.4007 -1.4927
 2499SOL    HW219131   0.231   1.403   4.436  1.4911  1.0413 -2.2425
 2500SOL     OW19132   1.490   3.638   1.990  0.2660 -0.3963 -0.3562
 2500SOL    HW119133   1.542   3.640   2.071 -0.9903  3.8030  0.3410
 2500SOL    HW219134   1.513   3.554   1.951 -0.6177 -0.8315  0.0620
 2501SOL     OW19135   2.357   3.979   1.727 -0.6112  0.1847 -0.1617
 2501SOL    HW119136   2.262   3.988   1.717 -0.5417  0.6353 -0.4157
 2501SOL    HW219137   2.378   4.061   1.772  0.8184 -1.6747  2.5688
 2502SOL     OW19138   1.889   0.849   4.165 -0.4216 -1.0615  0.2005
 2502SOL    HW119139   1.820   0.797   4.123 -0.7032 -0.0653 -0.5701
 2502SOL    HW219140   1.929   0.900   4.094 -0.7093 -0.2894  0.5932
 2503SOL     OW19141   3.304   3.695  11.774  0.2683 -0.1125 -0.0101
 2503SOL    HW119142   3.244   3.654  11.837 -0.7756  1.6024  0.1208
 2503SOL    HW219143   3.293   3.790  11.783  0.5356 -0.1595  0.8924
 2504SOL     OW19144   0.302   1.854   3.056  0.0578 -0.2181  0.0036
 2504SOL    HW119145   0.264   1.932   3.097  0.2432  0.2427 -0.6989
 2504SOL    HW219146   0.277   1.788   3.120 -4.1788 -0.3800 -1.8605
 2505SOL     OW19147   3.949   4.266   3.070 -0.3711  0.4206 -0.6035
 2505SOL    HW119148   4.039   4.257   3.038  0.7690  3.4166  1.8409
 2505SOL    HW219149   3.963   4.222   3.153 -0.7640 -0.1036 -0.8072
 2506SOL     OW19150   4.471   3.356  13.616 -0.2401  0.0805 -0.5192
 2506SOL    HW119151   4.400   3.356  13.680 -0.2544  0.3889 -0.5324
 2506SOL    HW219152   4.471   3.449  13.590  0.7893  0.1832 -0.1476
 2507SOL     OW19153   0.361   1.529   6.506 -0.4831 -0.4197  0.2191
 2507SOL    HW119154   0.382   1.552   6.597 -0.9869 -0.3990  0.3300
 2507SOL    HW219155   0.421   1.456   6.489 -0.9811 -0.5251 -1.0987
 2508SOL     OW19156   4.431   2.442   3.377 -0.3278 -0.1551 -0.6172
 2508SOL    HW119157   4.416   2.447   3.472  1.6815 -0.6640 -0.2599
 2508SOL    HW219158   4.427   2.535   3.355 -1.3458 -0.6059 -2.3171
 2509SOL     OW19159   2.567   2.737   6.477 -0.6541  0.0135  0.8428
 2509SOL    HW119160   2.580   2.761   6.569  1.4408 -0.7680  0.7524
 2509SOL    HW219161   2.583   2.820   6.432  0.6934 -0.5949  0.2161
 2510SOL     OW19162   3.093   3.829   3.376  0.4682 -0.2133  0.1323
 2510SOL    HW119163   3.144   3.756   3.341 -0.3086 -0.5276 -0.3259
 2510SOL    HW219164   3.128   3.832   3.466  0.1860  2.0303  0.1739
 2511SOL     OW19165   2.465   1.267   0.348 -0.4588  0.0426 -0.4164
 2511SOL    HW119166   2.423   1.238   0.267  0.9942 -1.3435 -0.6619
 2511SOL    HW219167   2.405   1.220   0.406 -0.4789 -0.6682 -1.0085
 2512SOL     OW19168   0.681   1.705   4.897  0.2213 -0.3824 -0.5941
 2512SOL    HW119169   0.771   1.701   4.863  1.3509 -3.0511  2.7429
 2512SOL    HW219170   0.659   1.613   4.912 -0.4838 -0.2236 -0.6543
 2513SOL     OW19171   2.048   4.094   1.765 -0.0008 -0.4674 -0.2366
 2513SOL    HW119172   2.025   4.025   1.702  0.2670 -0.9702  0.2220
 2513SOL    HW219173   2.031   4.167   1.705  2.5174  0.1822 -0.1522
 2514SOL     OW19174   1.460   3.083   6.041 -0.0694  0.1837  0.5285
 2514SOL    HW119175   1.554   3.100   6.050 -0.1275  0.4074  0.7107
 2514SOL    HW219176   1.434   3.039   6.122 -1.0509  1.6187  0.9930
 2515SOL     OW19177   3.704   1.971   0.036 -0.0437 -0.0486  0.0903
 2515SOL    HW119178   3.662   2.052   0.006  1.2460 -0.1427 -1.9840
 2515SOL    HW219179   3.759   2.008   0.105 -0.6298 -1.3164  1.2205
 2516SOL     OW19180   1.532   3.774   3.055  1.0388  0.0575  0.6678
 2516SOL    HW119181   1.456   3.732   3.096  0.2661  1.2472  0.4601
 2516SOL    HW219182   1.495   3.853   3.014  1.4948 -0.0525  0.0556
 2517SOL     OW19183   1.884   4.210   4.084  0.2622 -0.5098  0.3832
 2517SOL    HW119184   1.874   4.116   4.070  0.9988 -0.3803 -1.0198
 2517SOL    HW219185   1.979   4.215   4.075  0.2898 -0.4415  0.7143
 2518SOL     OW19186   3.811   2.429   5.059  0.1557  0.2938 -0.4273
 2518SOL    HW119187   3.827   2.427   4.965  0.9825 -1.3783 -0.2562
 2518SOL    HW219188   3.882   2.486   5.088 -0.4743  1.2781 -0.8203
 2519SOL     OW19189   3.048   4.154   8.473 -0.5114 -0.0113  0.9638
 2519SOL    HW119190   3.058   4.232   8.418 -0.0447  0.4546  1.7211
 2519SOL    HW219191   3.137   4.123   8.486 -0.3556  0.0524  0.0309
 2520SOL     OW19192   2.489   3.946   7.341 -0.1138  0.0192 -0.0556
 2520SOL    HW119193   2.538   3.866   7.319 -2.8489 -1.7714  0.3702
 2520SOL    HW219194   2.543   4.024   7.331  1.9944 -1.8719 -3.5996
 2521SOL     OW19195   0.372   3.337  11.594 -0.5002  0.4160  0.3992
 2521SOL    HW119196   0.404   3.321  11.682  0.5952  2.3886  0.3628
 2521SOL    HW219197   0.352   3.247  11.568  1.3553 -0.2885  1.4449
 2522SOL     OW19198   0.749   3.976   5.724 -0.4679  0.6723  0.1029
 2522SOL    HW119199   0.826   3.929   5.757 -0.3731  2.5987  2.5627
 2522SOL    HW219200   0.787   4.029   5.654 -0.6811  1.0227  0.2554
 2523SOL     OW19201   2.392   0.943  17.251 -0.0985 -0.7777 -0.4574
 2523SOL    HW119202   2.343   1.012  17.295  0.2726  0.0143 -1.3024
 2523SOL    HW219203   2.479   0.982  17.246 -0.8147  0.6724 -1.2997
 2524SOL     OW19204   0.408   4.464   6.499 -0.1664  0.5005 -0.3115
 2524SOL    HW119205   0.447   4.536   6.550  1.1793 -1.3262  1.2185
 2524SOL    HW219206   0.369   4.410   6.567 -1.8127  0.1224 -1.5811
 2525SOL     OW19207   3.237   3.199   8.268  0.5827 -0.3005  0.1824
 2525SOL    HW119208   3.237   3.237   8.180  0.2374  0.2855  0.4353
 2525SOL    HW219209   3.311   3.250   8.302 -0.0786 -2.5740  5.0354
 2526SOL     OW19210   0.068   0.475  14.206 -0.6251 -0.4018 -0.3415
 2526SOL    HW119211   4.720   0.431  14.210 -0.5622 -0.5607 -0.7848
 2526SOL    HW219212   0.082   0.470  14.111 -1.0513 -1.1746 -0.3596
 2527SOL     OW19213   3.390   0.833   6.114  0.2498 -0.6874 -0.4979
 2527SOL    HW119214   3.476   0.869   6.136 -0.1335 -1.3639  2.0540
 2527SOL    HW219215   3.388   0.842   6.018  0.8748 -2.0688 -0.6453
 2528SOL     OW19216   4.078   3.227   9.357  0.2763  0.0480 -0.1339
 2528SOL    HW119217   4.048   3.143   9.392  3.6565 -1.5168 -0.9950
 2528SOL    HW219218   4.063   3.289   9.428  1.1906 -0.1532  0.2365
 2529SOL     OW19219   1.656   3.732  13.775  0.3847 -0.6719 -0.0279
 2529SOL    HW119220   1.642   3.683  13.856  1.9872 -1.1717 -0.0434
 2529SOL    HW219221   1.566   3.743  13.744 -0.1256  0.5127  1.8949
 2530SOL     OW19222   4.727   3.524   3.976 -0.0758 -0.0706 -0.1121
 2530SOL    HW119223   4.714   3.500   3.885 -0.3347 -0.9109  0.1457
 2530SOL    HW219224   0.073   3.479   3.997  1.1158  2.1543  0.0186
 2531SOL     OW19225   2.395   3.036  11.254  0.0955 -1.0348  0.4893
 2531SOL    HW119226   2.478   3.007  11.293  0.6081 -0.9093 -0.4827
 2531SOL    HW219227   2.338   2.960  11.266  0.9709 -2.1525 -2.2047
 2532SOL     OW19228   3.974   0.691   9.190  0.1034 -0.3115 -0.0849
 2532SOL    HW119229   4.033   0.625   9.154  1.1895  0.7155 -0.1772
 2532SOL    HW219230   4.034   0.761   9.215  0.7122 -0.0300 -2.3550
 2533SOL     OW19231   2.702   3.790   0.382 -0.7574 -0.3024 -0.8562
 2533SOL    HW119232   2.749   3.724   0.433  1.7089  1.4010 -0.9201
 2533SOL    HW219233   2.762   3.780   0.307 -2.4290 -0.1685 -2.2093
 2534SOL     OW19234   3.333   2.312   3.297  0.0557 -0.3158  0.0999
 2534SOL    HW119235   3.261   2.358   3.254 -0.0308 -1.2998 -0.8233
 2534SOL    HW219236   3.303   2.224   3.272 -2.5603  0.8973 -1.0070
 2535SOL     OW19237   3.338   4.619   8.462  0.7055  0.0702  0.5053
 2535SOL    HW119238   3.296   4.616   8.376  0.6184  3.2636  0.4278
 2535SOL    HW219239   3.410   4.679   8.443  0.8228  0.0203  0.8011
 2536SOL     OW19240   1.959   2.097   7.813 -0.0053 -0.2219  0.0030
 2536SOL    HW119241   2.044   2.136   7.792  1.4938 -1.2994  3.9955
 2536SOL    HW219242   1.965   2.101   7.908  1.7746 -0.4434 -0.0863
 2537SOL     OW19243   2.183   3.546   5.204  0.6188  0.0765 -0.4623
 2537SOL    HW119244   2.117   3.571   5.269  0.6884  1.6200 -0.9871
 2537SOL    HW219245   2.128   3.479   5.163  0.3761  0.2028 -0.3383
 2538SOL     OW19246   2.956   2.542  12.132 -0.1150 -0.1389  0.5378
 2538SOL    HW119247   2.990   2.559  12.220  0.4052 -0.8105  0.4676
 2538SOL    HW219248   2.983   2.620  12.083  0.5039 -1.8716 -1.8779
 2539SOL     OW19249   3.259   2.677   8.588 -0.0149  0.8554  0.3880
 2539SOL    HW119250   3.264   2.771   8.573  0.7842  0.7732  0.1263
 2539SOL    HW219251   3.174   2.655   8.549  0.9843  1.2012 -1.9576
 2540SOL     OW19252   1.256   2.207  10.442 -0.3213 -0.0370 -0.6901
 2540SOL    HW119253   1.307   2.275  10.399  0.8422  0.8863  2.1319
 2540SOL    HW219254   1.213   2.170  10.366  1.1992 -0.5491 -1.2985
 2541SOL     OW19255   2.508   2.185   8.231 -0.0575 -0.2118 -0.2717
 2541SOL    HW119256   2.525   2.266   8.279 -2.3760 -1.4043  2.6089
 2541SOL    HW219257   2.441   2.211   8.168 -2.6467  0.0030  2.5281
 2542SOL     OW19258   1.852   1.412   1.242 -0.2946  0.1691 -0.9308
 2542SOL    HW119259   1.905   1.343   1.201 -2.4533 -2.3720  0.6189
 2542SOL    HW219260   1.893   1.492   1.210  1.7655 -0.0836  1.0424
 2543SOL     OW19261   2.563   2.261   6.432 -0.5238 -0.5378  0.0701
 2543SOL    HW119262   2.624   2.252   6.360 -1.4184  2.5410 -1.0584
 2543SOL    HW219263   2.595   2.336   6.483 -2.0829  0.0188  0.2412
 2544SOL     OW19264   0.886   0.356   2.762 -0.1347 -0.0797 -0.0772
 2544SOL    HW119265   0.880   0.427   2.826  2.0723 -0.2983  0.3609
 2544SOL    HW219266   0.798   0.366   2.725 -0.3497  3.1249  1.2562
 2545SOL     OW19267   1.018   3.600   6.986 -0.0077 -0.1085  0.3811
 2545SOL    HW119268   1.024   3.670   6.921  1.2925  0.4861  1.1262
 2545SOL    HW219269   1.100   3.556   6.964  0.1234  0.5690 -0.4711
 2546SOL     OW19270   1.794   0.415   1.086  0.4493 -0.5415  0.3632
 2546SOL    HW119271   1.806   0.323   1.111 -1.9691 -0.4715  1.8397
 2546SOL    HW219272   1.810   0.415   0.992 -1.1485  1.7740  0.0966
 2547SOL     OW19273   2.477   2.441   4.445  0.0330 -0.1993 -0.3522
 2547SOL    HW119274   2.468   2.516   4.386  0.5530 -0.8555 -1.2431
 2547SOL    HW219275   2.490   2.493   4.525 -0.8390 -1.5211  0.6406
 2548SOL     OW19276   0.070   0.209   9.378 -0.0674  0.1631 -0.2465
 2548SOL    HW119277   0.025   0.134   9.418  1.2910 -0.9040 -0.7480
 2548SOL    HW219278   0.160   0.195   9.408  0.6732  1.1312 -2.0600
 2549SOL     OW19279   2.351   4.395   5.372  0.1067 -0.5480  0.4938
 2549SOL    HW119280   2.308   4.475   5.402  2.1710  0.5732  0.4368
 2549SOL    HW219281   2.304   4.329   5.423 -1.8163  0.0021 -0.5466
 2550SOL     OW19282   3.721   0.724  12.126 -0.1836  0.9554 -0.5241
 2550SOL    HW119283   3.639   0.676  12.137  0.0771  0.2940 -1.5247
 2550SOL    HW219284   3.697   0.780  12.200 -1.4437  1.1412 -1.0880
 2551SOL     OW19285   2.195   2.223  11.777  0.5861  0.3851 -0.1555
 2551SOL    HW119286   2.151   2.197  11.695  3.1630  0.6307 -1.6318
 2551SOL    HW219287   2.281   2.188  11.753  0.0616 -2.2406  1.7214
 2552SOL     OW19288   3.334   0.031  14.976 -0.1977 -0.3410 -0.2284
 2552SOL    HW119289   3.311   4.684  15.016 -0.0825  0.7479  2.1571
 2552SOL    HW219290   3.421   0.012  14.941  1.3755  4.2754  1.0679
 2553SOL     OW19291   3.936   0.508   5.815 -0.2746  0.5960  0.1201
 2553SOL    HW119292   4.028   0.515   5.789  0.2743 -1.1509  1.5531
 2553SOL    HW219293   3.928   0.569   5.889 -0.4646 -0.0041  0.5993
 2554SOL     OW19294   1.877   1.064   8.120 -0.2225  0.2758  0.3708
 2554SOL    HW119295   1.802   1.010   8.146  0.3735 -1.6654 -2.0154
 2554SOL    HW219296   1.938   0.991   8.121 -0.0601  0.3151 -4.7885
 2555SOL     OW19297   1.805   2.364   1.246 -0.0820  0.2916  0.2242
 2555SOL    HW119298   1.866   2.417   1.298 -0.7922  0.4846  0.8640
 2555SOL    HW219299   1.735   2.341   1.307 -0.8893  2.3859  0.0804
 2556SOL     OW19300   0.394   0.445   8.202 -0.5317  0.0568 -0.7569
 2556SOL    HW119301   0.432   0.386   8.136 -1.6856  1.1763 -2.4256
 2556SOL    HW219302   0.365   0.514   8.142  0.6775  1.6547  0.5048
 2557SOL     OW19303   2.177   1.034  12.521  0.2639 -0.2466 -0.0116
 2557SOL    HW119304   2.208   0.971  12.587  2.5230  0.5719 -0.2906
 2557SOL    HW219305   2.093   1.059  12.559 -0.1775 -2.9594  0.8325
 2558SOL     OW19306   1.366   3.981  12.239 -0.3660 -0.6560  0.0967
 2558SOL    HW119307   1.449   3.980  12.288 -0.7503 -0.2186  0.7460
 2558SOL    HW219308   1.323   3.906  12.281  1.5898 -1.2411  1.0836
 2559SOL     OW19309   1.313   4.493  16.935 -0.0439  0.9203  0.4393
 2559SOL    HW119310   1.407   4.495  16.918 -0.0531  1.5220  0.4572
 2559SOL    HW219311   1.308   4.518  17.028 -0.5141 -0.1256  0.6918
 2560SOL     OW19312   0.152   4.293   8.380 -0.3288  0.0135  0.8408
 2560SOL    HW119313   0.185   4.382   8.375 -0.5587  0.0372 -0.3573
 2560SOL    HW219314   0.080   4.304   8.442 -0.5831 -0.4225  0.6226
 2561SOL     OW19315   2.122   2.682  16.045  0.1702  0.2017  0.1492
 2561SOL    HW119316   2.066   2.632  16.105  0.1376 -1.1817 -1.0415
 2561SOL    HW219317   2.193   2.669  16.108  0.1921 -0.0087  0.0803
 2562SOL     OW19318   3.196   2.288   5.478 -0.1456  0.2997  0.1938
 2562SOL    HW119319   3.263   2.327   5.423  0.6496 -1.5361 -0.1414
 2562SOL    HW219320   3.250   2.218   5.515 -0.8374 -1.4416 -2.0772
 2563SOL     OW19321   4.160   1.329  16.005 -0.0954 -0.0293 -0.2367
 2563SOL    HW119322   4.072   1.320  15.969 -0.1452 -1.2832  0.2221
 2563SOL    HW219323   4.130   1.390  16.073  1.3596  0.2685  0.1356
 2564SOL     OW19324   2.911   0.702  16.415 -0.0473  0.0564 -0.6114
 2564SOL    HW119325   2.928   0.618  16.457 -0.4597  0.9718  1.3621
 2564SOL    HW219326   2.956   0.763  16.473  0.4545 -1.5915  0.7190
 2565SOL     OW19327   0.668   0.025  12.998 -0.2543 -0.2083  0.1324
 2565SOL    HW119328   0.676   4.699  12.927 -0.3096 -0.8161  0.6649
 2565SOL    HW219329   0.576   0.050  12.985 -0.0986 -0.0756 -0.6722
 2566SOL     OW19330   1.807   2.597  17.722  0.8335 -1.0726 -0.0402
 2566SOL    HW119331   1.735   2.610   0.038  1.0196 -1.6602  0.3081
 2566SOL    HW219332   1.867   2.538   0.023 -0.7231 -2.6077  0.0188
 2567SOL     OW19333   0.579   2.924   3.574 -0.2501 -0.3872  0.5803
 2567SOL    HW119334   0.580   2.870   3.653 -1.6397 -0.0796  0.7991
 2567SOL    HW219335   0.591   2.858   3.505  0.0679 -1.4627  1.6606
 2568SOL     OW19336   0.859   4.445   4.801 -0.7223 -0.4486 -0.4160
 2568SOL    HW119337   0.771   4.480   4.787 -0.8069 -0.2315  0.6495
 2568SOL    HW219338   0.843   4.395   4.881  0.6572 -0.1300  0.0439
 2569SOL     OW19339   0.007   0.015  15.692 -0.4572  0.1271 -0.0871
 2569SOL    HW119340   0.095   4.733  15.660 -0.1869  2.5109 -0.6921
 2569SOL    HW219341   4.692   0.018  15.611 -2.3704  0.1226  1.1187
 2570SOL     OW19342   3.989   0.477  11.523 -0.0684  0.1702 -0.0450
 2570SOL    HW119343   3.964   0.419  11.451 -2.0535 -0.6654  1.2998
 2570SOL    HW219344   3.907   0.503  11.566  0.5575  1.6121  0.3020
 2571SOL     OW19345   4.307   3.986   2.113  0.1546  0.0009 -0.6850
 2571SOL    HW119346   4.213   3.976   2.130  0.0647  0.0632 -1.1467
 2571SOL    HW219347   4.311   4.074   2.076 -1.2874  0.2309 -0.3184
 2572SOL     OW19348   3.001   2.426   4.497 -0.1107  0.8557 -0.5713
 2572SOL    HW119349   2.932   2.422   4.562  0.6508 -3.6578  0.0038
 2572SOL    HW219350   2.968   2.486   4.430  0.0339 -1.1417 -2.4326
 2573SOL     OW19351   1.801   2.454   2.969 -0.1677  0.3731  0.6164
 2573SOL    HW119352   1.798   2.358   2.976 -1.6227  0.4882  1.5799
 2573SOL    HW219353   1.896   2.463   2.970 -0.1057 -0.3443  1.4322
 2574SOL     OW19354   0.894   1.870   3.261 -0.8647  0.1795  0.0178
 2574SOL    HW119355   0.861   1.918   3.337  1.1063  2.5754 -0.6605
 2574SOL    HW219356   0.980   1.911   3.248 -0.7490  0.1215  0.5821
 2575SOL     OW19357   1.403   0.753  14.563  0.3597  0.3234 -0.4461
 2575SOL    HW119358   1.463   0.798  14.504  0.3055  0.4089 -0.4354
 2575SOL    HW219359   1.342   0.823  14.586  1.6486  1.1961  0.3297
 2576SOL     OW19360   1.333   2.853   9.658 -0.0373 -0.4015 -0.2494
 2576SOL    HW119361   1.323   2.928   9.717  0.2189 -1.0521  0.6364
 2576SOL    HW219362   1.333   2.781   9.721 -0.3000 -0.5227 -0.3886
 2577SOL     OW19363   2.213   2.296   8.162  0.2185  0.7974  1.1454
 2577SOL    HW119364   2.144   2.276   8.226  0.3343 -0.6321  0.8166
 2577SOL    HW219365   2.212   2.392   8.160  0.5677  0.8071  1.4064
 2578SOL     OW19366   0.693   3.130   5.528  0.1241 -0.1015 -0.4196
 2578SOL    HW119367   0.683   3.063   5.459  3.6595 -2.0956  1.0165
 2578SOL    HW219368   0.631   3.105   5.597 -1.7515  2.8027 -1.0508
 2579SOL     OW19369   2.450   4.346   4.372  0.0876  0.0243  0.5338
 2579SOL    HW119370   2.508   4.287   4.421 -0.9797 -2.0629 -0.7338
 2579SOL    HW219371   2.494   4.352   4.288 -2.8756  0.6115 -0.9775
 2580SOL     OW19372   1.339   0.719   6.598 -0.2989 -0.2725  0.0900
 2580SOL    HW119373   1.363   0.770   6.675 -0.5404  0.4862 -0.3310
 2580SOL    HW219374   1.402   0.744   6.530  1.3994 -1.2133  1.3276
 2581SOL     OW19375   1.503   1.901   1.134 -0.3068 -0.9361  0.3763
 2581SOL    HW119376   1.556   1.828   1.166 -0.9345 -0.9650  1.3474
 2581SOL    HW219377   1.418   1.864   1.113 -0.6381  0.0148  0.0133
 2582SOL     OW19378   3.598   4.234   6.701 -0.7140  0.1230 -0.4349
 2582SOL    HW119379   3.551   4.297   6.647 -0.1163  1.7622  0.9752
 2582SOL    HW219380   3.642   4.177   6.638  0.4340  0.5058  0.0254
 2583SOL     OW19381   3.015   0.464  16.884 -0.1531  0.4200 -0.1617
 2583SOL    HW119382   3.041   0.454  16.975 -0.8961 -1.4784 -0.1674
 2583SOL    HW219383   2.953   0.392  16.882 -0.4626  0.6040  3.6590
 2584SOL     OW19384   0.177   1.436  10.815 -0.3056 -0.4722 -0.5397
 2584SOL    HW119385   0.186   1.448  10.909  0.0880  0.5747 -0.7072
 2584SOL    HW219386   0.259   1.392  10.792  0.4081  0.8212 -0.4844
 2585SOL     OW19387   1.792   3.582   6.502 -0.6530 -0.2944 -0.2847
 2585SOL    HW119388   1.841   3.624   6.431 -0.8453  1.4000  0.5799
 2585SOL    HW219389   1.865   3.532   6.540 -0.2023 -0.7187 -1.7084
 2586SOL     OW19390   4.017   3.250   9.655  0.4050  0.5364  0.4123
 2586SOL    HW119391   4.007   3.305   9.733 -2.2446 -0.9445  1.1200
 2586SOL    HW219392   4.012   3.166   9.701  0.4845 -0.3988 -1.3205
 2587SOL     OW19393   2.452   2.736   0.541  0.4353 -0.0313  0.4287
 2587SOL    HW119394   2.540   2.763   0.512  1.2412 -2.5618  0.4805
 2587SOL    HW219395   2.435   2.805   0.605  0.3948 -1.3677  1.8487
 2588SOL     OW19396   2.125   0.575   7.623  0.4866 -0.4769 -0.3558
 2588SOL    HW119397   2.132   0.590   7.529  0.5393 -0.3164 -0.3266
 2588SOL    HW219398   2.115   0.666   7.650 -1.6465 -0.7318 -0.3265
 2589SOL     OW19399   1.166   1.768   4.846 -0.7011 -0.0511 -0.0859
 2589SOL    HW119400   1.187   1.860   4.863 -0.8765  0.2178 -1.3329
 2589SOL    HW219401   1.194   1.712   4.919  1.7144  2.5874  1.0172
 2590SOL     OW19402   4.075   2.365   0.648 -0.2169  0.9936 -0.5099
 2590SOL    HW119403   4.004   2.410   0.693  0.5469  0.9392  0.7612
 2590SOL    HW219404   4.092   2.289   0.704  0.7766 -0.1690 -2.4043
 2591SOL     OW19405   0.269   4.321   5.921  0.5318  0.0832  0.2818
 2591SOL    HW119406   0.325   4.384   5.876  1.3162 -1.1216 -0.4147
 2591SOL    HW219407   0.245   4.264   5.849  3.2162  1.7161 -1.9228
 2592SOL     OW19408   4.247   1.361   5.218 -0.1656 -0.1051 -0.2795
 2592SOL    HW119409   4.214   1.418   5.288 -1.5853  0.8566 -1.7289
 2592SOL    HW219410   4.224   1.416   5.143 -0.6867 -2.8682 -2.1007
 2593SOL     OW19411   2.056   1.623   2.295  0.1969  0.7460 -0.2770
 2593SOL    HW119412   2.105   1.553   2.250 -1.9220 -0.1523 -1.2067
 2593SOL    HW219413   2.126   1.649   2.354 -0.7866  0.4614  1.0155
 2594SOL     OW19414   1.500   0.015  12.337 -0.4344  0.7052 -0.1452
 2594SOL    HW119415   1.486   0.097  12.385  0.3305  0.1679  0.9701
 2594SOL    HW219416   1.423   0.009  12.280 -0.2838  2.1646 -0.5126
 2595SOL     OW19417   4.635   1.809   2.234  0.1249  0.8390 -0.1587
 2595SOL    HW119418   4.616   1.765   2.151 -3.4605  1.1376  0.5258
 2595SOL    HW219419   4.661   1.731   2.284 -1.0229  1.1404  0.8946
 2596SOL     OW19420   3.311   3.948   1.356  0.6012  0.2141  0.2488
 2596SOL    HW119421   3.285   3.867   1.313 -2.2850  2.1066 -1.6125
 2596SOL    HW219422   3.404   3.933   1.373  0.5883 -1.3327 -1.0078
 2597SOL     OW19423   0.409   1.988   2.820  0.9736 -0.3806 -0.1710
 2597SOL    HW119424   0.374   1.905   2.851  2.1286 -1.1819 -0.9942
 2597SOL    HW219425   0.476   2.021   2.881  1.3788 -0.8911 -0.3421
 2598SOL     OW19426   3.800   1.779   2.234  0.1997 -0.4221 -0.0778
 2598SOL    HW119427   3.868   1.721   2.268  2.5331  2.5784  0.3718
 2598SOL    HW219428   3.858   1.823   2.171 -0.5739  0.4728 -0.1577
 2599SOL     OW19429   3.429   1.688  11.756  0.9780 -0.0032  0.2018
 2599SOL    HW119430   3.422   1.632  11.833 -0.1975  0.1921  0.2296
 2599SOL    HW219431   3.521   1.669  11.736  0.1908 -1.2747 -2.1506
 2600SOL     OW19432   1.998   1.226   3.767  0.0735 -0.2999  0.1250
 2600SOL    HW119433   1.995   1.288   3.840 -3.1660  0.0779 -0.3498
 2600SOL    HW219434   1.954   1.280   3.702 -0.0940  1.1500  1.4501
 2601SOL     OW19435   3.446   2.256  12.539  0.1979 -0.3782 -0.4747
 2601SOL    HW119436   3.453   2.203  12.619 -1.4289 -0.7259 -0.5547
 2601SOL    HW219437   3.520   2.316  12.547 -1.3307  1.2120  1.7091
 2602SOL     OW19438   2.930   1.222   6.103 -0.7122  0.2265  0.7619
 2602SOL    HW119439   2.973   1.137   6.106 -1.3841 -0.1821 -1.2837
 2602SOL    HW219440   2.839   1.201   6.082 -0.5502  1.0644 -0.7921
 2603SOL     OW19441   0.870   0.468   8.801  0.2233  0.2594 -0.0351
 2603SOL    HW119442   0.948   0.452   8.747  0.4787  0.9434  0.1399
 2603SOL    HW219443   0.814   0.512   8.736 -0.6223  0.0037  0.5170
 2604SOL     OW19444   2.860   0.040   6.486 -0.7090  0.7665 -0.7643
 2604SOL    HW119445   2.915   0.018   6.561 -1.1259 -1.9339 -1.2429
 2604SOL    HW219446   2.897   4.715   6.422  1.1513 -1.6685  2.7046
 2605SOL     OW19447   1.930   4.572   8.721 -0.0375  0.2914 -0.1091
 2605SOL    HW119448   1.989   4.612   8.785 -0.3779  1.1993 -0.3673
 2605SOL    HW219449   1.926   4.644   8.658  1.6273  0.4800  0.0101
 2606SOL     OW19450   2.326   1.879  17.049 -0.3666  0.4857  0.1508
 2606SOL    HW119451   2.318   1.820  16.974 -2.1656  0.9311 -0.0238
 2606SOL    HW219452   2.414   1.907  17.025 -0.5157 -0.3063 -1.3564
 2607SOL     OW19453   1.410   1.685   3.060  0.4478  0.7292  0.1427
 2607SOL    HW119454   1.436   1.610   3.006 -1.7242  1.0849 -1.3983
 2607SOL    HW219455   1.316   1.677   3.048  0.9535  0.4983 -3.7141
 2608SOL     OW19456   0.659   3.873   9.050  0.0395  0.4966 -0.4944
 2608SOL    HW119457   0.574   3.861   9.007  0.2309  0.5713 -0.8880
 2608SOL    HW219458   0.663   3.787   9.092  0.9776  0.9101  0.2609
 2609SOL     OW19459   3.781   0.312   6.822  0.1830 -0.1557 -0.2084
 2609SOL    HW119460   3.713   0.348   6.880  0.7759  1.1370 -0.3029
 2609SOL    HW219461   3.833   0.391   6.804 -2.0337  0.8016 -2.4962
 2610SOL     OW19462   1.050   0.242   3.256 -0.4966  0.1553  0.4246
 2610SOL    HW119463   1.008   0.187   3.323 -0.7119  3.2095  2.7645
 2610SOL    HW219464   1.095   0.291   3.324  0.2552 -0.8716  0.6708
 2611SOL     OW19465   0.445   0.150   3.405 -0.2360  0.3009  0.0128
 2611SOL    HW119466   0.381   0.083   3.431  0.3217 -0.7200 -1.2595
 2611SOL    HW219467   0.388   0.197   3.344  0.5765 -0.5891 -1.4258
 2612SOL     OW19468   2.999   2.029   3.841  0.3284  0.2407  0.1064
 2612SOL    HW119469   3.088   2.059   3.860 -0.4595  1.1181  2.3961
 2612SOL    HW219470   3.012   1.936   3.860  2.2054  0.6220  0.6447
 2613SOL     OW19471   0.008   4.373   2.155  0.1218  0.3510 -0.0403
 2613SOL    HW119472   4.671   4.358   2.095  1.2369 -1.5269 -0.9652
 2613SOL    HW219473   0.024   4.466   2.146  0.8130  0.3022  0.7310
 2614SOL     OW19474   1.629   0.082   0.678 -0.1374  0.1839  0.1626
 2614SOL    HW119475   1.659   0.129   0.600  1.1064  0.6666  0.9254
 2614SOL    HW219476   1.701   0.092   0.740  1.7430  1.0136 -2.1753
 2615SOL     OW19477   4.608   2.005   3.268 -0.1780 -0.7413 -0.8452
 2615SOL    HW119478   4.670   1.982   3.200  1.5570  1.2013  0.0666
 2615SOL    HW219479   4.659   2.032   3.345  0.2794  0.8976 -1.7188
 2616SOL     OW19480   2.552   3.733   4.541 -0.4703  0.4589  0.1086
 2616SOL    HW119481   2.459   3.739   4.566 -0.3212 -0.7563  0.9387
 2616SOL    HW219482   2.555   3.654   4.488 -0.0027 -0.7583  1.9752
 2617SOL     OW19483   4.218   4.190  10.927 -0.4849 -0.5058  0.5626
 2617SOL    HW119484   4.131   4.151  10.938 -0.9165  0.6550  1.2349
 2617SOL    HW219485   4.209   4.217  10.836 -0.9988  0.0468  0.7792
 2618SOL     OW19486   3.503   2.335   8.664 -0.4883  0.2147 -0.4244
 2618SOL    HW119487   3.426   2.347   8.608  0.3271  0.6520 -1.4619
 2618SOL    HW219488   3.572   2.309   8.602  0.3109  0.6233  0.2916
 2619SOL     OW19489   3.485   0.913   3.441  0.0662 -0.3142 -0.9325
 2619SOL    HW119490   3.446   0.919   3.354 -0.6871 -1.7789 -0.6842
 2619SOL    HW219491   3.457   0.824   3.461 -0.2946  0.0863  0.3752
 2620SOL     OW19492   3.356   0.037  13.785 -0.3723 -0.4383 -0.0998
 2620SOL    HW119493   3.373   4.696  13.839  0.8608 -0.4697 -0.5246
 2620SOL    HW219494   3.266   0.013  13.765 -0.4270  1.4435 -2.1506
 2621SOL     OW19495   0.104   3.771   6.701  0.2478 -0.3323 -0.1500
 2621SOL    HW119496   0.153   3.748   6.780  2.1132  0.1160 -1.1801
 2621SOL    HW219497   0.166   3.782   6.629 -1.1965  0.0403 -1.3423
 2622SOL     OW19498   0.003   4.651   1.864  0.5110  0.1380  0.3780
 2622SOL    HW119499   4.735   4.647   1.960 -0.7127  1.4582  0.3653
 2622SOL    HW219500   4.668   4.712   1.848  1.3046  0.8164 -0.5918
 2623SOL     OW19501   4.016   3.837   7.776 -0.0026 -0.3172 -0.4174
 2623SOL    HW119502   4.001   3.808   7.686 -0.9938 -0.7425 -0.1207
 2623SOL    HW219503   4.040   3.759   7.825  0.2210  0.1879  0.2844
 2624SOL     OW19504   0.617   3.351   7.839  0.1067 -0.0906 -0.2714
 2624SOL    HW119505   0.541   3.293   7.836  0.3325 -0.3771 -0.5066
 2624SOL    HW219506   0.583   3.437   7.860 -2.1267 -0.8649 -0.6950
 2625SOL     OW19507   0.851   0.417  14.021 -0.5492  0.4246 -0.0952
 2625SOL    HW119508   0.796   0.471  14.078 -0.6327  0.5892 -0.3317
 2625SOL    HW219509   0.933   0.448  14.061 -0.6440 -2.0691  2.0275
 2626SOL     OW19510   2.028   1.002   0.842  0.3799 -0.2052  0.2516
 2626SOL    HW119511   2.077   0.986   0.762 -1.0167  1.8422 -0.9974
 2626SOL    HW219512   2.085   0.949   0.897  1.3477 -1.0153 -1.5433
 2627SOL     OW19513   3.416   2.841  13.105 -0.0388  0.5084 -0.2537
 2627SOL    HW119514   3.394   2.910  13.168 -1.9260  0.0340 -0.3690
 2627SOL    HW219515   3.327   2.821  13.074 -1.4640  0.6683  3.6531
 2628SOL     OW19516   4.287   4.092   3.374 -0.0097  0.2805  0.1969
 2628SOL    HW119517   4.268   3.998   3.372  0.7126  0.1237  0.7792
 2628SOL    HW219518   4.352   4.099   3.305  1.6689  0.5570  1.8112
 2629SOL     OW19519   2.991   0.995  12.406 -0.2154 -0.1104 -0.3447
 2629SOL    HW119520   2.940   1.074  12.421  1.6371  1.2871 -1.4823
 2629SOL    HW219521   2.951   0.965  12.325 -0.9267  0.7547 -0.3105
 2630SOL     OW19522   0.604   1.124  12.211  0.0466  0.1280 -0.5557
 2630SOL    HW119523   0.684   1.131  12.263  0.2973  1.6491 -1.1550
 2630SOL    HW219524   0.532   1.143  12.271  1.1906  2.3175  0.1503
 2631SOL     OW19525   3.105   3.630   5.540  0.2446  0.1126  0.2183
 2631SOL    HW119526   3.063   3.704   5.497 -0.6097  0.7758  2.1650
 2631SOL    HW219527   3.145   3.679   5.612 -1.0958  0.9490  0.3877
 2632SOL     OW19528   0.326   1.805   6.513  0.2068 -0.0647 -0.0457
 2632SOL    HW119529   0.366   1.875   6.459  1.6796  0.0785  1.2204
 2632SOL    HW219530   0.366   1.724   6.482  1.0014  0.9774 -1.8339
 2633SOL     OW19531   0.802   1.594   1.784 -0.3560  0.1299  0.5451
 2633SOL    HW119532   0.761   1.522   1.737  1.3500 -0.1787 -0.4850
 2633SOL    HW219533   0.733   1.634   1.836 -0.6211 -0.1343  0.3922
 2634SOL     OW19534   4.723   2.349   5.312  0.4611  0.2287 -0.5241
 2634SOL    HW119535   4.730   2.397   5.230 -0.6252 -0.9916 -1.3393
 2634SOL    HW219536   0.044   2.394   5.373 -0.4394 -0.6243  0.9407
 2635SOL     OW19537   1.806   3.802   3.006 -0.0842  0.4120  0.2551
 2635SOL    HW119538   1.849   3.870   3.058  0.2718  0.3516  0.0409
 2635SOL    HW219539   1.715   3.811   3.034 -0.3762 -0.4762 -0.4292
 2636SOL     OW19540   3.320   1.052   8.759  0.4015 -0.1246  0.6277
 2636SOL    HW119541   3.261   1.127   8.766  0.6883  0.3237 -2.0150
 2636SOL    HW219542   3.266   1.000   8.699  0.0179 -0.5959  1.3750
 2637SOL     OW19543   3.783   2.303   2.966  0.5132 -0.1719 -0.1896
 2637SOL    HW119544   3.827   2.361   3.029  1.4432 -3.3102  2.0926
 2637SOL    HW219545   3.823   2.219   2.989  1.5276  0.8679  1.8162
 2638SOL     OW19546   2.665   2.145   5.435  0.2442  0.4334  0.2723
 2638SOL    HW119547   2.599   2.213   5.423 -0.8023 -0.8339 -1.1750
 2638SOL    HW219548   2.609   2.068   5.447  0.7988 -0.3623 -2.2320
 2639SOL     OW19549   0.338   0.398   5.544 -0.2636 -0.1336  0.0549
 2639SOL    HW119550   0.426   0.426   5.520  0.5886 -1.4059  1.7027
 2639SOL    HW219551   0.290   0.477   5.522 -1.8748 -0.7496  1.3702
 2640SOL     OW19552   0.966   0.816   1.903 -0.2246  0.2248  0.2041
 2640SOL    HW119553   1.054   0.785   1.924 -0.4828  0.6696  1.9238
 2640SOL    HW219554   0.910   0.755   1.950  0.0630 -0.3749 -0.2225
 2641SOL     OW19555   3.771   2.819   6.135 -0.2226 -0.4244 -0.0488
 2641SOL    HW119556   3.824   2.744   6.108 -0.3551 -0.4262 -0.3042
 2641SOL    HW219557   3.712   2.822   6.060  0.8915  0.0536 -0.8823
 2642SOL     OW19558   2.096   0.425   9.228 -0.2751  0.3535  0.0794
 2642SOL    HW119559   2.038   0.355   9.200 -2.1708  2.0876 -0.3341
 2642SOL    HW219560   2.112   0.412   9.322 -1.0320  1.1152  0.3208
 2643SOL     OW19561   2.449   0.411  15.325  0.0338 -0.8308  0.4434
 2643SOL    HW119562   2.514   0.458  15.378  0.5266 -0.8015 -0.1945
 2643SOL    HW219563   2.476   0.436  15.237 -1.4378  3.9379  1.3439
 2644SOL     OW19564   2.228   4.103   6.535 -0.0852  0.3358 -0.2667
 2644SOL    HW119565   2.179   4.070   6.610 -0.4590  2.7829  0.5690
 2644SOL    HW219566   2.227   4.197   6.555 -1.1346  0.6577 -1.8160
 2645SOL     OW19567   2.602   0.743  13.075  0.5652 -0.3163  0.2575
 2645SOL    HW119568   2.676   0.799  13.096  0.0558  0.5541 -0.3035
 2645SOL    HW219569   2.645   0.698  13.002 -0.5382  0.0068 -0.6009
 2646SOL     OW19570   3.682   0.585  15.191 -0.0452 -0.0357 -0.0704
 2646SOL    HW119571   3.737   0.589  15.113 -0.9585 -1.3449 -0.7761
 2646SOL    HW219572   3.598   0.578  15.146  0.2592 -0.3153 -0.5935
 2647SOL     OW19573   3.927   3.166   7.902 -0.2680 -0.4483  0.2213
 2647SOL    HW119574   3.950   3.106   7.972  0.5168  1.0306  1.2358
 2647SOL    HW219575   3.831   3.171   7.909 -0.2221  1.6912 -0.5743
 2648SOL     OW19576   2.959   1.819   1.480  0.1584  0.5718 -0.0071
 2648SOL    HW119577   2.970   1.732   1.519 -1.0857 -0.1023 -1.1673
 2648SOL    HW219578   2.888   1.812   1.417 -1.1859  2.7121  1.2759
 2649SOL     OW19579   3.851   0.721   5.424 -0.1959  0.3121 -0.0796
 2649SOL    HW119580   3.900   0.803   5.437  0.8815 -0.3352 -0.0226
 2649SOL    HW219581   3.915   0.658   5.456 -2.1134 -1.6872 -0.2139
 2650SOL     OW19582   4.615   1.692   5.166 -0.1051 -0.0038  0.0186
 2650SOL    HW119583   4.665   1.645   5.233  0.7264  0.4526 -0.2736
 2650SOL    HW219584   4.524   1.689   5.196 -0.4321  1.4535 -0.8142
 2651SOL     OW19585   3.115   2.174   6.596 -0.1362 -0.2518 -0.6905
 2651SOL    HW119586   3.024   2.171   6.567 -0.5844 -0.7428  0.7248
 2651SOL    HW219587   3.134   2.090   6.638 -1.8754 -0.3331 -0.0497
 2652SOL     OW19588   3.260   2.068   8.447 -0.3991  0.2119  0.3749
 2652SOL    HW119589   3.236   2.160   8.444 -4.0045 -0.7365 -0.5765
 2652SOL    HW219590   3.355   2.064   8.440 -0.4907  1.5548 -1.8130
 2653SOL     OW19591   3.810   2.301   4.430  0.0528  0.5375  0.4251
 2653SOL    HW119592   3.760   2.306   4.349  1.0553 -1.3603 -0.3290
 2653SOL    HW219593   3.837   2.391   4.445 -2.0072  1.6241 -2.4448
 2654SOL     OW19594   2.293   1.710   1.783 -0.8239  0.4992  0.3379
 2654SOL    HW119595   2.388   1.710   1.794 -0.7841  0.4622  0.0004
 2654SOL    HW219596   2.271   1.700   1.876 -0.0089  0.2421  0.4981
 2655SOL     OW19597   0.991   1.534   2.002 -0.1396 -0.0721  0.1253
 2655SOL    HW119598   0.938   1.566   1.929 -1.4668 -0.5266  0.8775
 2655SOL    HW219599   1.065   1.594   1.995 -0.0131 -0.8760 -4.9150
 2656SOL     OW19600   2.921   0.600  10.670  0.3113  0.2935  0.1105
 2656SOL    HW119601   2.873   0.521  10.694  0.3950  0.4844  0.9072
 2656SOL    HW219602   3.006   0.560  10.650  1.2407  2.4563 -0.3098
 2657SOL     OW19603   1.651   1.739   6.298  0.3562 -0.0202 -0.0685
 2657SOL    HW119604   1.735   1.696   6.311  1.1134  2.2550  2.5728
 2657SOL    HW219605   1.596   1.664   6.275 -1.9946  1.3791  0.9609
 2658SOL     OW19606   1.839   0.028   7.491  0.0873 -0.6975  0.2391
 2658SOL    HW119607   1.915   4.709   7.473 -0.9834 -2.2592  0.4783
 2658SOL    HW219608   1.881   0.098   7.540 -0.0308  0.1040 -0.8139
 2659SOL     OW19609   2.379   1.645  16.919  0.4450  0.3649  0.4192
 2659SOL    HW119610   2.448   1.623  16.857 -0.4350  1.3326 -0.8800
 2659SOL    HW219611   2.386   1.567  16.975  0.2642 -1.3876 -2.0186
 2660SOL     OW19612   2.431   1.594   0.502  0.2898 -0.2575 -0.0684
 2660SOL    HW119613   2.391   1.677   0.475  0.0270  0.0601  1.3242
 2660SOL    HW219614   2.465   1.615   0.589  1.4673  1.6680 -0.9824
 2661SOL     OW19615   0.488   3.314   4.597  0.4691 -0.4144 -0.6594
 2661SOL    HW119616   0.442   3.364   4.664 -1.0556 -0.4542 -1.6628
 2661SOL    HW219617   0.484   3.375   4.523 -0.3739 -0.8392 -0.9619
 2662SOL     OW19618   3.218   3.987   2.919  0.0927 -0.1800 -0.1439
 2662SOL    HW119619   3.213   4.006   2.825  1.2933  1.3685  0.1007
 2662SOL    HW219620   3.310   4.007   2.933 -0.5015  1.9065  0.8535
 2663SOL     OW19621   0.044   0.862   1.618  0.5304  0.7747 -0.4199
 2663SOL    HW119622   0.128   0.845   1.660 -0.6598 -1.8765  0.8875
 2663SOL    HW219623   4.729   0.826   1.691 -0.2045 -1.0473 -1.8188
 2664SOL     OW19624   1.488   4.627   0.492 -0.3536 -0.7333 -0.0673
 2664SOL    HW119625   1.534   4.680   0.558 -1.1379 -1.3437  0.9641
 2664SOL    HW219626   1.500   4.676   0.411  0.9035  0.3322  0.7546
 2665SOL     OW19627   0.092   4.347   4.117  0.2526  0.1420  0.6303
 2665SOL    HW119628   0.172   4.311   4.154  0.3726 -0.9074 -0.6387
 2665SOL    HW219629   0.083   4.420   4.178 -0.4043  0.6411 -0.0499
 2666SOL     OW19630   3.075   4.623  13.852 -0.1226 -0.5560  0.0752
 2666SOL    HW119631   3.016   4.686  13.893  0.1317  0.6750 -1.4284
 2666SOL    HW219632   3.040   4.625  13.763 -2.7542  0.1251  1.1148
 2667SOL     OW19633   2.144   1.099   2.759 -0.0335 -0.2769 -0.1309
 2667SOL    HW119634   2.106   1.187   2.760  0.0074 -0.2672  0.7995
 2667SOL    HW219635   2.196   1.102   2.839  2.3240 -2.5708 -1.5679
 2668SOL     OW19636   4.327   4.723   0.819 -0.0264  0.1745  1.0406
 2668SOL    HW119637   4.363   0.051   0.759  2.6927 -2.9344 -0.7171
 2668SOL    HW219638   4.365   0.019   0.900 -2.8721  0.6321  2.1852
 2669SOL     OW19639   3.451   4.053   6.215 -0.5855 -0.6112 -0.1336
 2669SOL    HW119640   3.460   4.087   6.126  0.3139  1.7431  0.8479
 2669SOL    HW219641   3.386   3.984   6.209 -1.4282  0.1272  0.3997
 2670SOL     OW19642   0.964   2.896  14.986 -0.0245 -0.4585 -0.4615
 2670SOL    HW119643   0.983   2.811  15.025 -0.5052 -0.6136 -0.5624
 2670SOL    HW219644   0.939   2.883  14.894 -1.2832 -2.5100  0.1691
 2671SOL     OW19645   0.127   0.330   6.112 -0.4894 -0.0749 -0.2109
 2671SOL    HW119646   0.083   0.393   6.056  0.5306 -0.7618 -1.8159
 2671SOL    HW219647   0.130   0.379   6.193 -0.9457 -1.1217  0.4375
 2672SOL     OW19648   2.354   1.166  12.327  0.5072  0.6171  0.1210
 2672SOL    HW119649   2.295   1.111  12.379  1.4860 -0.7097 -0.2014
 2672SOL    HW219650   2.360   1.229  12.399  0.5287  1.1711 -0.3647
 2673SOL     OW19651   0.827   1.710   1.059  0.0025 -0.6399 -0.6821
 2673SOL    HW119652   0.890   1.782   1.056  0.8446 -1.3669 -0.3497
 2673SOL    HW219653   0.876   1.638   1.021  0.2283 -1.1443  0.5912
 2674SOL     OW19654   0.329   3.802  13.463 -0.5305  0.5918  0.2892
 2674SOL    HW119655   0.273   3.880  13.455 -0.5656  0.4756 -0.6226
 2674SOL    HW219656   0.317   3.794  13.558  2.4437 -1.1490  0.4986
 2675SOL     OW19657   3.875   3.225   2.705  0.0461 -0.0582 -0.0079
 2675SOL    HW119658   3.968   3.208   2.721  0.1847  2.4197  1.7845
 2675SOL    HW219659   3.872   3.288   2.633  3.8683  1.2259  0.9804
 2676SOL     OW19660   4.728   4.159   3.133  0.3695  0.4024  0.0667
 2676SOL    HW119661   4.727   4.161   3.037  2.7768 -0.7104  0.0129
 2676SOL    HW219662   0.038   4.240   3.155  0.0017  0.0264  2.1803
 2677SOL     OW19663   1.581   4.380   7.991 -0.0511 -0.0879  0.1944
 2677SOL    HW119664   1.563   4.357   7.900 -2.2653  1.2215  0.3203
 2677SOL    HW219665   1.495   4.352   8.022  0.0488 -1.2141 -0.5376
 2678SOL     OW19666   2.389   2.409   3.167  0.2025 -0.4838 -0.3566
 2678SOL    HW119667   2.328   2.382   3.099  0.4210  1.3240 -1.2833
 2678SOL    HW219668   2.411   2.321   3.196  0.4783  0.0267  0.9995
 2679SOL     OW19669   0.611   1.507  12.658 -0.0414  0.4195  0.3333
 2679SOL    HW119670   0.626   1.433  12.717  1.7963 -0.2663 -0.9867
 2679SOL    HW219671   0.582   1.577  12.716  0.3847  0.2958  0.6955
 2680SOL     OW19672   4.606   0.751   6.743 -0.0333 -0.0956  0.9753
 2680SOL    HW119673   4.644   0.750   6.830 -0.8168  0.8123  1.3200
 2680SOL    HW219674   4.681   0.789   6.697 -0.6040 -0.0079  0.1042
 2681SOL     OW19675   2.075   2.378   6.780  0.7788  0.2758  0.5145
 2681SOL    HW119676   2.018   2.430   6.838 -0.6565  0.1899 -0.8237
 2681SOL    HW219677   2.163   2.415   6.781  1.0197 -0.2851 -0.7359
 2682SOL     OW19678   2.575   2.742   2.638  0.1536  0.0082  0.2651
 2682SOL    HW119679   2.562   2.774   2.549  0.1212  1.0490  0.6387
 2682SOL    HW219680   2.605   2.822   2.682 -0.8749  1.2437 -1.2991
 2683SOL     OW19681   0.023   1.127   3.594 -0.5694  0.0265 -0.7079
 2683SOL    HW119682   4.725   1.209   3.627 -0.1261  0.2221 -0.7192
 2683SOL    HW219683   4.679   1.080   3.572 -0.5240 -1.9818  3.4215
 2684SOL     OW19684   1.715   2.016   5.496 -0.7512  0.1204  0.4170
 2684SOL    HW119685   1.716   2.042   5.588  0.4541 -2.2706  1.0983
 2684SOL    HW219686   1.621   2.022   5.479 -0.1735 -1.1431 -3.1779
 2685SOL     OW19687   3.513   3.875   2.162 -0.9286  0.1246 -0.0336
 2685SOL    HW119688   3.582   3.812   2.142 -0.8662 -0.1364  0.9997
 2685SOL    HW219689   3.563   3.926   2.226 -0.4456 -0.9769  0.4511
 2686SOL     OW19690   3.188   1.758   5.699  0.2850 -0.5230 -0.0070
 2686SOL    HW119691   3.282   1.752   5.712  0.2814  2.0241  1.2626
 2686SOL    HW219692   3.153   1.776   5.786  1.1172  3.4074 -0.4968
 2687SOL     OW19693   0.234   2.079   3.453  0.2585 -0.1036  0.5107
 2687SOL    HW119694   0.174   2.030   3.510 -1.4741  1.7462  0.2874
 2687SOL    HW219695   0.262   2.153   3.506  0.6961 -0.5562  0.9130
 2688SOL     OW19696   2.554   4.579  13.341 -0.1586  0.0005 -0.1709
 2688SOL    HW119697   2.488   4.568  13.409  0.5149 -2.6979  0.0373
 2688SOL    HW219698   2.537   4.507  13.281 -3.5178  0.9264 -0.3364
 2689SOL     OW19699   1.143   0.325   2.264  0.3762  0.2259 -0.2829
 2689SOL    HW119700   1.190   0.354   2.343 -0.2834  0.4938  0.0092
 2689SOL    HW219701   1.116   0.240   2.300  0.3560  0.1785 -0.4105
 2690SOL     OW19702   4.357   2.450   8.746 -0.3956 -0.0299 -0.1529
 2690SOL    HW119703   4.350   2.423   8.654  1.4287 -0.8162 -0.0585
 2690SOL    HW219704   4.272   2.449   8.790 -0.0368  0.4099  0.5449
 2691SOL     OW19705   1.077   3.385   8.545  0.1352  0.0509  0.2331
 2691SOL    HW119706   1.120   3.300   8.537 -0.2795 -0.2556  1.2992
 2691SOL    HW219707   0.994   3.379   8.498  1.0404  1.7427 -1.5777
 2692SOL     OW19708   0.025   0.839   9.482  0.0760 -0.6347  0.0814
 2692SOL    HW119709   0.095   0.816   9.422  0.6359  1.2705  0.0099
 2692SOL    HW219710   4.706   0.887   9.420 -1.1144 -2.4761 -0.2863
 2693SOL     OW19711   3.618   2.141  16.454  0.3725 -0.3537 -0.8928
 2693SOL    HW119712   3.635   2.204  16.384  1.3354  2.3925  1.8285
 2693SOL    HW219713   3.704   2.098  16.456 -0.0115 -1.1147 -0.7186
 2694SOL     OW19714   0.687   3.822   7.129 -0.4026 -0.1701 -0.2567
 2694SOL    HW119715   0.696   3.767   7.051  3.1534  0.6929 -0.4455
 2694SOL    HW219716   0.727   3.903   7.098  1.4612 -1.0905 -0.2831
 2695SOL     OW19717   1.998   3.822   9.987  0.2452  1.4608  0.4407
 2695SOL    HW119718   1.928   3.838   9.923  1.8929 -2.1369 -2.2428
 2695SOL    HW219719   1.984   3.732  10.015 -0.9304  1.4602 -0.1490
 2696SOL     OW19720   3.480   2.062   2.387 -0.7374 -0.2051  0.1234
 2696SOL    HW119721   3.387   2.046   2.372  0.0816 -1.8867 -3.0415
 2696SOL    HW219722   3.497   2.102   2.302  0.6392  0.9324  0.9324
 2697SOL     OW19723   2.702   4.312   1.622  0.1326 -0.6215 -0.2814
 2697SOL    HW119724   2.768   4.342   1.685  1.7917  1.1549 -2.8686
 2697SOL    HW219725   2.727   4.373   1.553  0.6399 -0.7489 -0.2100
 2698SOL     OW19726   1.895   1.205  16.730 -0.0292  0.0321 -0.6233
 2698SOL    HW119727   1.878   1.289  16.687 -0.0998  0.0127 -0.6334
 2698SOL    HW219728   1.910   1.230  16.822 -2.3958 -4.5865  0.9988
 2699SOL     OW19729   2.565   0.156   3.956  0.1796  0.2725 -0.2492
 2699SOL    HW119730   2.649   0.191   3.929  0.8510 -1.0964  0.0535
 2699SOL    HW219731   2.510   0.232   3.939 -1.7905 -1.0125  0.2560
 2700SOL     OW19732   4.449   2.366   1.569 -0.2502 -0.0206  0.2786
 2700SOL    HW119733   4.423   2.458   1.565 -1.1602 -0.2758  0.4170
 2700SOL    HW219734   4.362   2.330   1.556 -0.2179 -0.2092  0.5980
 2701SOL     OW19735   0.111   4.554   4.325 -0.5422  0.1021  0.2496
 2701SOL    HW119736   0.046   4.549   4.395  0.6648 -0.4165  1.3324
 2701SOL    HW219737   0.193   4.584   4.366  0.2139 -1.0250 -0.4289
 2702SOL     OW19738   3.801   4.048   3.008  0.3441 -0.6696  0.4637
 2702SOL    HW119739   3.838   4.133   3.033 -0.7138  0.2463 -1.0460
 2702SOL    HW219740   3.774   4.015   3.094 -0.7400  1.2152  0.8611
 2703SOL     OW19741   0.293   4.035   1.053 -0.5380  0.4800 -0.4213
 2703SOL    HW119742   0.298   3.972   0.981 -0.2546 -0.8106  0.7235
 2703SOL    HW219743   0.313   4.115   1.005  0.7417  0.5229  0.1808
 2704SOL     OW19744   0.349   1.843   0.389  0.0932  0.1292 -0.0607
 2704SOL    HW119745   0.330   1.937   0.388  1.9502  0.5025 -0.3524
 2704SOL    HW219746   0.314   1.823   0.302  1.3381  2.0654 -1.0010
 2705SOL     OW19747   2.069   1.194  12.013 -0.1751 -0.1033 -0.0206
 2705SOL    HW119748   2.029   1.199  11.926  0.9183  0.9677 -0.4565
 2705SOL    HW219749   2.141   1.257  12.011 -0.2072 -0.0443  1.0962
 2706SOL     OW19750   2.157   1.384   5.817  0.0612  0.1251 -0.2410
 2706SOL    HW119751   2.131   1.457   5.873  0.0829 -1.6364  2.0743
 2706SOL    HW219752   2.138   1.415   5.729 -0.0277  0.5708 -0.0641
 2707SOL     OW19753   1.802   0.938   1.136 -0.3047  1.2673  0.4373
 2707SOL    HW119754   1.800   0.921   1.042 -1.8041  1.7282  0.3801
 2707SOL    HW219755   1.788   0.849   1.168  0.3751  0.8553 -0.4334
 2708SOL     OW19756   1.666   4.333   2.683  0.0907  0.1920  0.4587
 2708SOL    HW119757   1.649   4.285   2.764 -1.8460 -1.8941 -1.2029
 2708SOL    HW219758   1.703   4.264   2.627  0.9439  0.2908  0.9013
 2709SOL     OW19759   0.392   2.728  15.603 -0.1411 -0.5164  0.1249
 2709SOL    HW119760   0.395   2.633  15.590  3.1551 -0.1581 -1.8287
 2709SOL    HW219761   0.299   2.739  15.625 -0.7664 -0.9568 -2.2794
 2710SOL     OW19762   0.414   3.647   4.169 -0.8589  0.0597 -0.4324
 2710SOL    HW119763   0.508   3.626   4.163 -0.3317  1.8542  1.4635
 2710SOL    HW219764   0.407   3.674   4.077  2.2458 -0.9914 -0.9702
 2711SOL     OW19765   1.818   1.085   4.917  0.0979 -0.4591 -0.2350
 2711SOL    HW119766   1.736   1.100   4.869 -0.1142  0.6468  0.4771
 2711SOL    HW219767   1.888   1.128   4.868  1.3608 -2.3645 -0.0977
 2712SOL     OW19768   3.336   3.079   9.205  0.1126  0.3803  0.6770
 2712SOL    HW119769   3.410   3.089   9.145 -0.6670  0.0151 -0.3486
 2712SOL    HW219770   3.362   3.143   9.272 -0.6611  0.8280  0.5494
 2713SOL     OW19771   3.620   4.185   4.093 -0.0627 -0.0660  0.8079
 2713SOL    HW119772   3.546   4.214   4.039  0.1063 -1.2061 -0.0488
 2713SOL    HW219773   3.573   4.106   4.119 -1.0525 -0.2073 -1.3763
 2714SOL     OW19774   3.465   1.593  15.130 -0.3520 -0.3815  0.1789
 2714SOL    HW119775   3.395   1.616  15.190 -0.2867 -0.0449  0.1244
 2714SOL    HW219776   3.475   1.675  15.081  2.3253 -0.0828  1.2097
 2715SOL     OW19777   4.418   4.259   3.578 -0.1250  0.4647  0.0088
 2715SOL    HW119778   4.405   4.184   3.520  1.8181  0.4388 -0.4081
 2715SOL    HW219779   4.330   4.280   3.610 -0.6996 -1.2714 -0.4338
 2716SOL     OW19780   0.356   1.005   8.029  0.1543 -0.2208  0.5172
 2716SOL    HW119781   0.283   0.952   7.998 -1.7189  2.4729  0.3582
 2716SOL    HW219782   0.305   1.056   8.092  0.4894  0.3131  0.3600
 2717SOL     OW19783   0.338   1.248  12.911  0.0660  0.4058 -0.6043
 2717SOL    HW119784   0.409   1.299  12.952  0.5222 -0.6667 -0.0760
 2717SOL    HW219785   0.318   1.180  12.976  1.1020  0.7628  0.1002
 2718SOL     OW19786   2.648   2.923   4.775 -0.1361  0.2345  0.6720
 2718SOL    HW119787   2.661   3.018   4.775  0.7652  0.0965  3.0030
 2718SOL    HW219788   2.690   2.906   4.859  1.1037 -0.2881 -0.0537
 2719SOL     OW19789   0.494   1.333   0.210 -0.0703 -0.0955 -0.0452
 2719SOL    HW119790   0.564   1.319   0.145 -0.4376 -0.2913 -0.3964
 2719SOL    HW219791   0.549   1.337   0.288  3.6167 -0.8290 -2.5862
 2720SOL     OW19792   3.075   1.921   8.578 -0.1112  0.1063  0.4359
 2720SOL    HW119793   3.126   1.950   8.502  1.2385 -0.7636  1.0220
 2720SOL    HW219794   3.035   1.845   8.536 -3.7139  1.9460  0.4390
 2721SOL     OW19795   3.258   2.103  16.428  0.2380  0.3596  0.3059
 2721SOL    HW119796   3.236   2.103  16.335 -4.7965  3.4643  1.5184
 2721SOL    HW219797   3.324   2.034  16.424 -0.1868 -0.1233  1.8654
 2722SOL     OW19798   2.130   0.802  12.340  0.3397 -0.1858  0.0253
 2722SOL    HW119799   2.140   0.871  12.406  0.8680  0.2552 -0.5167
 2722SOL    HW219800   2.129   0.854  12.259 -0.2778 -1.5352 -0.8333
 2723SOL     OW19801   4.225   0.511   9.146  0.4176  0.0426  0.6418
 2723SOL    HW119802   4.283   0.583   9.169 -0.9081  1.4827 -0.4938
 2723SOL    HW219803   4.287   0.438   9.139  1.1364  0.6279  0.9643
 2724SOL     OW19804   4.132   2.018   7.284 -0.3360  0.0146 -0.2499
 2724SOL    HW119805   4.209   2.054   7.241  0.8657 -0.4662  1.5213
 2724SOL    HW219806   4.144   2.030   7.378 -0.1748  0.4801 -0.3288
 2725SOL     OW19807   1.906   3.592  16.744  0.9442  0.1587  0.1879
 2725SOL    HW119808   1.864   3.640  16.673 -0.4453 -0.2036  0.7593
 2725SOL    HW219809   1.863   3.617  16.826  1.0535 -1.3767  0.7253
 2726SOL     OW19810   2.992   3.517   4.736 -0.2896  0.3592 -0.2525
 2726SOL    HW119811   2.953   3.566   4.663  0.9829 -0.5230 -1.5031
 2726SOL    HW219812   2.994   3.584   4.804 -1.0058 -1.0543  1.1634
 2727SOL     OW19813   1.182   1.244   4.093  0.3235 -0.1666 -0.3700
 2727SOL    HW119814   1.223   1.329   4.107 -0.5951  0.2862 -0.4019
 2727SOL    HW219815   1.236   1.200   4.028  2.2013  1.0841  0.3486
 2728SOL     OW19816   0.958   4.466   3.566  0.2294  0.2046  0.1593
 2728SOL    HW119817   0.881   4.477   3.622 -0.5734  0.4396 -0.9930
 2728SOL    HW219818   1.028   4.504   3.620  0.1279 -1.0224  1.1464
 2729SOL     OW19819   0.530   0.593   6.296 -0.3976 -0.9375 -0.2905
 2729SOL    HW119820   0.585   0.515   6.289  0.8164 -0.1724  0.6970
 2729SOL    HW219821   0.552   0.630   6.211  1.2191 -3.2222 -0.8718
 2730SOL     OW19822   3.458   3.690   2.536  0.0739 -0.9732  0.1495
 2730SOL    HW119823   3.548   3.667   2.516  0.0996 -1.5848  0.9989
 2730SOL    HW219824   3.419   3.653   2.457 -2.0929 -1.7124  1.5534
 2731SOL     OW19825   3.032   2.158   7.135  0.3816  0.2068 -0.3152
 2731SOL    HW119826   3.124   2.137   7.121 -0.3476 -1.3002 -2.7571
 2731SOL    HW219827   3.041   2.232   7.196  1.9944  0.0128 -0.3176
 2732SOL     OW19828   2.438   1.092   9.875 -0.8151  0.1126 -0.5568
 2732SOL    HW119829   2.433   1.097   9.971  0.1603 -0.2861 -0.4792
 2732SOL    HW219830   2.445   0.998   9.857  0.3708 -0.1662  1.3797
 2733SOL     OW19831   2.627   2.489   9.042  0.5426 -0.3206 -0.0720
 2733SOL    HW119832   2.544   2.525   9.011  0.1593 -2.0525 -1.0229
 2733SOL    HW219833   2.592   2.455   9.125 -1.0438  0.7171 -0.3037
 2734SOL     OW19834   2.216   4.208   8.176 -0.3643  0.2708 -0.2872
 2734SOL    HW119835   2.292   4.175   8.128 -1.5314 -1.5747 -0.8664
 2734SOL    HW219836   2.174   4.129   8.211 -0.8321  0.7050  0.1384
 2735SOL     OW19837   2.707   3.388   7.318  0.5280  0.2013  0.5238
 2735SOL    HW119838   2.700   3.300   7.281 -0.4965  0.9779 -1.1313
 2735SOL    HW219839   2.624   3.431   7.296  0.6463 -0.2076 -0.7007
 2736SOL     OW19840   0.897   4.274   2.384 -0.1815 -0.0739 -0.4064
 2736SOL    HW119841   0.815   4.292   2.337 -0.4892  0.8269  0.4838
 2736SOL    HW219842   0.956   4.300   2.313  0.8304 -1.1608  0.0601
 2737SOL     OW19843   0.388   0.449   4.298  0.6352  0.0884 -0.2454
 2737SOL    HW119844   0.357   0.375   4.245  2.0714 -1.2076  0.7465
 2737SOL    HW219845   0.327   0.458   4.371 -0.0044 -0.4357 -0.7112
 2738SOL     OW19846   0.273   4.032   5.232 -0.7423  0.3267  1.4179
 2738SOL    HW119847   0.302   3.945   5.259 -1.1690 -0.0075  0.7808
 2738SOL    HW219848   0.346   4.086   5.263  1.2748 -0.6103 -1.6477
 2739SOL     OW19849   4.538   1.346   7.363  0.4300 -0.2102 -0.2705
 2739SOL    HW119850   4.527   1.252   7.367  1.0480 -0.3772 -2.1179
 2739SOL    HW219851   4.510   1.360   7.272 -0.5386  1.5492  0.3027
 2740SOL     OW19852   3.837   4.706  16.585  0.7828 -0.0315 -0.1516
 2740SOL    HW119853   3.790   4.626  16.610  0.7116  0.6390  1.8854
 2740SOL    HW219854   3.801   0.040  16.639  1.0405  0.9051 -1.2120
 2741SOL     OW19855   0.082   4.549   6.667 -0.3055  0.1971 -0.9471
 2741SOL    HW119856   0.144   4.484   6.637 -0.0653 -0.7891  1.6452
 2741SOL    HW219857   0.031   4.498   6.730  0.2867  1.9460  0.9451
 2742SOL     OW19858   1.816   3.653   5.503  0.3224 -0.4508 -0.2666
 2742SOL    HW119859   1.749   3.607   5.453  1.3463 -0.5132 -1.5710
 2742SOL    HW219860   1.798   3.746   5.494  3.1419  0.1338  0.0546
 2743SOL     OW19861   3.601   4.375   5.236  0.2680  0.4981  0.3717
 2743SOL    HW119862   3.583   4.350   5.145  0.5787 -3.5123  1.3989
 2743SOL    HW219863   3.513   4.400   5.265 -0.3898  2.0153 -2.9066
 2744SOL     OW19864   1.236   0.791   1.920  0.4771 -0.1511  0.1889
 2744SOL    HW119865   1.229   0.744   1.837 -0.5432  1.8676 -0.8701
 2744SOL    HW219866   1.332   0.790   1.923  0.5342  3.6829 -0.2856
 2745SOL     OW19867   4.114   3.351   0.958  0.2863  0.4517 -0.0904
 2745SOL    HW119868   4.091   3.337   1.050 -0.1529  0.5497 -0.1853
 2745SOL    HW219869   4.202   3.313   0.963 -0.5345 -1.2769  1.1525
 2746SOL     OW19870   1.210   3.260   1.015  0.1641  0.5813  0.2657
 2746SOL    HW119871   1.231   3.186   0.958  1.8748  1.0291  0.3150
 2746SOL    HW219872   1.275   3.325   0.987  1.5418 -2.0981 -2.8760
 2747SOL     OW19873   0.523   1.100   5.649 -0.1642  0.1653 -0.2675
 2747SOL    HW119874   0.453   1.157   5.680 -0.0707  0.0217  0.2086
 2747SOL    HW219875   0.522   1.020   5.702 -0.7554 -0.2193 -0.8612
 2748SOL     OW19876   0.323   1.296   5.666 -0.8431  0.1607 -0.1907
 2748SOL    HW119877   0.243   1.285   5.615 -1.3112  2.8673 -0.0414
 2748SOL    HW219878   0.346   1.380   5.627  0.5504  0.0799  0.4845
 2749SOL     OW19879   2.133   1.318   6.612 -0.3986  0.6292  0.7435
 2749SOL    HW119880   2.087   1.328   6.528  1.8330  2.0058 -0.3171
 2749SOL    HW219881   2.214   1.269   6.594 -2.5270 -2.3238 -0.8422
 2750SOL     OW19882   1.788   4.017   7.719  0.7217 -0.0612 -0.0991
 2750SOL    HW119883   1.815   4.106   7.694  0.6131  0.0748  0.2679
 2750SOL    HW219884   1.809   3.973   7.637 -3.5552  0.2866 -1.3715
 2751SOL     OW19885   1.378   0.971  12.572  0.4550  0.3331 -0.4597
 2751SOL    HW119886   1.396   0.895  12.516  2.5568  0.1251  0.4916
 2751SOL    HW219887   1.424   1.041  12.526 -0.9340  0.8894 -0.9951
 2752SOL     OW19888   0.106   0.235  13.090  0.2715 -0.2386 -0.5595
 2752SOL    HW119889   0.193   0.267  13.064  0.7446 -1.2852 -0.2874
 2752SOL    HW219890   0.083   0.285  13.168  1.6997 -2.5211  1.3658
 2753SOL     OW19891   3.668   2.767   1.975  0.0526  0.0827 -0.1524
 2753SOL    HW119892   3.596   2.733   1.922  0.9526 -2.0282 -0.0061
 2753SOL    HW219893   3.646   2.860   1.967  0.2677  0.1386 -0.0980
 2754SOL     OW19894   1.151   4.184   9.008  0.0084 -0.3084 -0.6269
 2754SOL    HW119895   1.094   4.151   9.077  0.0524  2.5870  0.8350
 2754SOL    HW219896   1.239   4.164   9.041 -0.1951  0.9082  0.6658
 2755SOL     OW19897   1.365   4.516   9.079  0.8813 -0.0924  0.4929
 2755SOL    HW119898   1.411   4.440   9.112 -0.6404 -0.4320  1.8352
 2755SOL    HW219899   1.274   4.495   9.100 -0.1413  3.1994 -0.6126
 2756SOL     OW19900   0.660   0.848  13.506 -0.0197 -0.5242 -0.5267
 2756SOL    HW119901   0.606   0.829  13.583  0.1877 -1.5013 -0.6204
 2756SOL    HW219902   0.636   0.784  13.439 -1.2695  0.8424 -1.3936
 2757SOL     OW19903   0.465   3.323   1.697 -0.1541 -0.1776 -0.1363
 2757SOL    HW119904   0.499   3.372   1.772 -0.6109  1.0322 -0.7126
 2757SOL    HW219905   0.504   3.352   1.614 -0.9932  1.9723  0.2035
 2758SOL     OW19906   4.377   2.266  15.129 -0.4041  0.0109  0.0489
 2758SOL    HW119907   4.334   2.275  15.044  0.2744 -3.4832 -0.6547
 2758SOL    HW219908   4.467   2.275  15.096 -1.6293  2.5787 -2.6161
 2759SOL     OW19909   0.545   2.438   3.503  0.4325  0.2837 -0.4890
 2759SOL    HW119910   0.626   2.387   3.509  1.3564  1.8345  0.1956
 2759SOL    HW219911   0.583   2.519   3.468 -0.2691  1.5252  1.6733
 2760SOL     OW19912   0.520   2.433   6.431 -0.1209 -0.5842 -0.3978
 2760SOL    HW119913   0.595   2.381   6.459 -0.2439 -1.2666 -1.3425
 2760SOL    HW219914   0.448   2.370   6.426  0.0058 -0.8362  0.9082
 2761SOL     OW19915   1.039   1.666   8.298  0.2420 -0.2845  0.5425
 2761SOL    HW119916   1.052   1.760   8.280  0.3254 -0.8915 -2.4274
 2761SOL    HW219917   0.978   1.628   8.236 -0.6803  1.4638  0.3625
 2762SOL     OW19918   3.802   0.453   6.195  0.4257 -1.1711  0.6215
 2762SOL    HW119919   3.856   0.529   6.216 -4.3479  2.0491  1.4268
 2762SOL    HW219920   3.724   0.487   6.151  0.3197 -2.3500 -0.1206
 2763SOL     OW19921   0.806   4.338  16.690 -0.1872  0.4178  0.6723
 2763SOL    HW119922   0.819   4.411  16.629 -1.3500 -0.8504 -1.1081
 2763SOL    HW219923   0.870   4.365  16.756 -0.4889  3.7287 -0.3937
 2764SOL     OW19924   3.584   0.216   9.236 -0.5545  0.6319 -0.2509
 2764SOL    HW119925   3.649   0.233   9.168  0.1053 -1.4152 -0.1386
 2764SOL    HW219926   3.612   0.282   9.299  0.9673 -0.0680 -0.1908
 2765SOL     OW19927   4.414   1.449   7.121 -0.4776  0.0151 -0.2127
 2765SOL    HW119928   4.363   1.469   7.042 -1.9733 -1.3649  0.3995
 2765SOL    HW219929   4.424   1.354   7.108  0.5149 -0.3642  3.3201
 2766SOL     OW19930   3.886   1.983   9.507 -0.9268 -0.3950 -0.3022
 2766SOL    HW119931   3.897   1.944   9.421  1.3347 -0.2602 -0.1006
 2766SOL    HW219932   3.963   2.041   9.514 -0.5320 -1.1906  2.0412
 2767SOL     OW19933   4.203   3.894   5.908  0.1838  0.2262 -0.0385
 2767SOL    HW119934   4.245   3.974   5.938 -2.1301  0.7756  1.7741
 2767SOL    HW219935   4.131   3.922   5.851  0.1525  1.1636  0.4664
 2768SOL     OW19936   3.072   3.459   3.890  0.0122 -0.1303 -0.1054
 2768SOL    HW119937   3.089   3.369   3.865  2.9698  0.5362 -0.4417
 2768SOL    HW219938   2.993   3.454   3.944  0.1796 -0.1393  0.1386
 2769SOL     OW19939   0.593   4.732   8.572 -0.2172 -0.4466  0.1439
 2769SOL    HW119940   0.594   0.015   8.666 -1.6638  3.3418 -0.6554
 2769SOL    HW219941   0.688   4.725   8.559  0.2376  2.8363  1.7077
 2770SOL     OW19942   3.106   1.745   4.913 -0.2250  0.5805  0.3770
 2770SOL    HW119943   3.073   1.656   4.903  1.3714  0.1034 -0.5586
 2770SOL    HW219944   3.110   1.746   5.009 -2.2500 -0.5546  0.4815
 2771SOL     OW19945   3.020   2.659  10.062  0.0739  0.3019 -0.5174
 2771SOL    HW119946   3.045   2.696  10.147  1.0114 -0.2078 -0.5650
 2771SOL    HW219947   2.987   2.572  10.085 -0.3430  0.3241 -1.0267
 2772SOL     OW19948   3.718   0.892  12.386  0.6719  0.0921 -0.6368
 2772SOL    HW119949   3.631   0.856  12.405  0.5043 -0.3055 -2.1312
 2772SOL    HW219950   3.720   0.971  12.440  1.5764  0.5349 -1.3144
 2773SOL     OW19951   0.746   1.854   9.326 -0.0087  0.2811  0.3283
 2773SOL    HW119952   0.776   1.935   9.367  0.5826  0.2708 -0.0864
 2773SOL    HW219953   0.733   1.802   9.406  0.0653  0.5269  0.4994
 2774SOL     OW19954   4.355   1.377   6.025  0.4196  0.0035  0.3186
 2774SOL    HW119955   4.394   1.297   5.989  1.2143  0.4505  0.1963
 2774SOL    HW219956   4.345   1.363   6.120 -1.6466  1.7402  0.3519
 2775SOL     OW19957   1.320   4.592  12.623  0.6514  0.1386 -0.1233
 2775SOL    HW119958   1.370   4.654  12.676  1.3816 -0.6714  0.1513
 2775SOL    HW219959   1.316   4.514  12.680  0.4041  2.1966  2.6634
 2776SOL     OW19960   1.053   2.373   6.942  0.1954 -0.2727  0.0570
 2776SOL    HW119961   1.017   2.311   7.006  0.1844  0.0177  0.3340
 2776SOL    HW219962   0.978   2.431   6.927 -0.7523 -0.9710  2.1002
 2777SOL     OW19963   1.028   1.315   2.145  0.3826  0.4921  0.1060
 2777SOL    HW119964   1.089   1.352   2.209  0.7203  1.4050 -0.7585
 2777SOL    HW219965   0.996   1.396   2.105  1.2130  0.9438  0.3442
 2778SOL     OW19966   0.268   2.394   2.480  0.0772 -0.2411 -0.1500
 2778SOL    HW119967   0.225   2.316   2.447 -2.7152  1.4893 -0.6261
 2778SOL    HW219968   0.300   2.351   2.559  0.4942 -0.6740 -0.5567
 2779SOL     OW19969   0.879   0.919   7.863  0.6030  0.4378 -1.3259
 2779SOL    HW119970   0.854   0.920   7.955  1.2058 -0.1599 -1.1471
 2779SOL    HW219971   0.968   0.953   7.876 -0.2224  2.0958 -0.1812
 2780SOL     OW19972   2.293   0.706   8.182 -0.0632  0.5198  0.3171
 2780SOL    HW119973   2.289   0.767   8.255 -1.3988 -1.0237  1.5620
 2780SOL    HW219974   2.383   0.713   8.151 -0.1628  0.9422  0.1280
 2781SOL     OW19975   2.055   4.637  17.086  0.2793 -0.4178  0.6227
 2781SOL    HW119976   1.964   4.651  17.110  0.4721 -0.1020  1.1926
 2781SOL    HW219977   2.091   4.635  17.175 -0.4063 -2.0861  0.8691
 2782SOL     OW19978   3.221   0.668  12.403  0.2365  0.3352 -0.4812
 2782SOL    HW119979   3.128   0.686  12.413  0.7386  0.8296  3.5065
 2782SOL    HW219980   3.227   0.579  12.439 -0.7482  0.8200  0.8647
 2783SOL     OW19981   2.061   3.064   1.832  0.1669  0.0895 -0.3902
 2783SOL    HW119982   2.142   3.061   1.781  0.0032  1.7023 -0.7525
 2783SOL    HW219983   1.993   3.060   1.765 -1.1722 -0.1159  0.9824
 2784SOL     OW19984   2.454   2.599   2.347 -0.1538  0.7068  0.1898
 2784SOL    HW119985   2.367   2.624   2.315 -1.2962 -2.1461  1.0952
 2784SOL    HW219986   2.496   2.682   2.370  0.3569  0.0536  1.5533
 2785SOL     OW19987   0.001   2.253   7.351 -0.2624 -0.4841  0.3245
 2785SOL    HW119988   4.656   2.219   7.388  0.4291 -1.8943  0.5694
 2785SOL    HW219989   0.058   2.225   7.423  0.8450  1.8475  0.3658
 2786SOL     OW19990   0.049   4.559   7.005 -0.4057  0.4201 -0.1224
 2786SOL    HW119991   0.037   4.475   6.960  0.2482 -1.5484  3.4335
 2786SOL    HW219992   0.101   4.521   7.076  1.0217  1.3581 -0.6490
 2787SOL     OW19993   3.883   1.281   1.779  0.3116  0.2655  0.1136
 2787SOL    HW119994   3.864   1.371   1.749  0.9903  1.3212  2.8800
 2787SOL    HW219995   3.827   1.234   1.717  0.8428  0.8922 -0.8598
 2788SOL     OW19996   3.150   0.340  10.207 -0.1869 -0.5796 -0.4725
 2788SOL    HW119997   3.121   0.292  10.284 -0.4081  0.8626  0.3446
 2788SOL    HW219998   3.064   0.343  10.165 -0.1545  0.7460 -0.4458
 2789SOL     OW19999   2.221   2.180   0.768 -0.3503 -0.2286 -0.5810
 2789SOL    HW120000   2.154   2.132   0.817 -2.0197  3.5803  0.8777
 2789SOL    HW220001   2.194   2.268   0.794 -3.3589 -0.9060 -1.3358
 2790SOL     OW20002   0.451   1.387   9.301 -0.1297 -0.2122  0.5309
 2790SOL    HW120003   0.424   1.393   9.210  2.1460  1.1350 -0.0630
 2790SOL    HW220004   0.420   1.471   9.333  1.4665  0.4879  0.2769
 2791SOL     OW20005   2.581   4.216  13.445  0.0521 -0.7620  0.8136
 2791SOL    HW120006   2.563   4.240  13.354 -3.3207 -2.3699  1.0724
 2791SOL    HW220007   2.649   4.280  13.466 -2.2902  1.7277  0.8427
 2792SOL     OW20008   3.496   3.835   9.814  0.5332 -0.5394  0.1164
 2792SOL    HW120009   3.441   3.757   9.823 -0.3682  0.0677 -0.1228
 2792SOL    HW220010   3.585   3.800   9.809  1.6857  1.9835  3.3285
 2793SOL     OW20011   4.082   1.485   5.418 -0.1545 -0.3019  0.3974
 2793SOL    HW120012   4.131   1.553   5.463  0.1636 -1.0259  1.1326
 2793SOL    HW220013   4.054   1.422   5.484  1.9893 -0.6467  0.9501
 2794SOL     OW20014   3.392   1.109  15.912  0.5705  0.0437  0.1680
 2794SOL    HW120015   3.299   1.102  15.891  0.4787 -1.6208  1.1785
 2794SOL    HW220016   3.421   1.022  15.885 -0.7618 -0.7397  1.2662
 2795SOL     OW20017   2.167   1.485  11.199  0.7391 -0.0108  0.1060
 2795SOL    HW120018   2.222   1.523  11.268 -1.8422 -0.1047  2.2456
 2795SOL    HW220019   2.202   1.396  11.196 -1.9573 -1.0387 -0.8552
 2796SOL     OW20020   0.136   2.487   4.355  0.8550 -0.2422  0.1278
 2796SOL    HW120021   0.216   2.537   4.367  0.4564  0.5953 -0.7207
 2796SOL    HW220022   0.075   2.546   4.400  0.0479  0.1549 -1.5103
 2797SOL     OW20023   3.434   2.214  16.643 -0.1840 -0.5281 -0.4243
 2797SOL    HW120024   3.512   2.181  16.598  0.9178 -1.3540  2.1139
 2797SOL    HW220025   3.375   2.189  16.572 -4.3575 -0.7145  3.1495
 2798SOL     OW20026   0.323   1.963   4.887  0.3348  0.2502 -0.3125
 2798SOL    HW120027   0.250   1.955   4.948 -0.3429  3.9423 -0.5950
 2798SOL    HW220028   0.382   1.999   4.952  0.9185  1.3393 -1.4488
 2799SOL     OW20029   3.610   3.624   4.310  0.4373 -0.0597 -0.4916
 2799SOL    HW120030   3.695   3.644   4.351 -0.1562  1.3969  0.0607
 2799SOL    HW220031   3.598   3.531   4.328 -1.3183 -0.2107 -2.5472
 2800SOL     OW20032   3.181   2.328  15.950  0.0299 -0.1717  0.1746
 2800SOL    HW120033   3.113   2.264  15.973  0.9366 -1.7834 -1.5532
 2800SOL    HW220034   3.165   2.342  15.857  0.3707  2.6952  0.5563
 2801SOL     OW20035   3.320   3.618   2.759  0.2477 -0.0032 -0.5565
 2801SOL    HW120036   3.351   3.653   2.675  0.8884  0.2257 -0.2201
 2801SOL    HW220037   3.389   3.651   2.816 -0.8129  1.3157 -0.0247
 2802SOL     OW20038   1.816   3.916   7.996  0.0132 -0.0865 -0.3870
 2802SOL    HW120039   1.842   3.824   8.004  0.7802  0.1039 -0.6234
 2802SOL    HW220040   1.830   3.940   7.905  0.0251 -1.9766 -0.8891
 2803SOL     OW20041   2.802   1.205   6.377  0.2483 -0.3340  0.6790
 2803SOL    HW120042   2.772   1.174   6.292  3.2216 -0.6865 -0.2305
 2803SOL    HW220043   2.825   1.297   6.361  1.3843 -0.4028  1.9212
 2804SOL     OW20044   1.260   3.211   4.885  0.1470 -0.0315 -0.7259
 2804SOL    HW120045   1.321   3.269   4.930  1.6265 -1.6197 -0.7010
 2804SOL    HW220046   1.233   3.151   4.954  0.2960  1.2575  0.4460
 2805SOL     OW20047   2.783   3.776   8.450  0.5078  0.3757 -0.2134
 2805SOL    HW120048   2.839   3.706   8.485  1.0143  1.1174  0.4660
 2805SOL    HW220049   2.695   3.750   8.478 -0.2808  0.4725 -2.5922
 2806SOL     OW20050   1.899   1.606   6.373  0.0818  0.0197  0.2764
 2806SOL    HW120051   1.985   1.582   6.339  0.3470  1.2638  0.0768
 2806SOL    HW220052   1.915   1.623   6.466  1.8120 -0.9748  0.1559
 2807SOL     OW20053   1.883   2.185   4.491 -0.8177  0.0070 -0.0027
 2807SOL    HW120054   1.877   2.280   4.494 -0.1326  0.0476  0.0629
 2807SOL    HW220055   1.973   2.179   4.523 -0.4250  1.1940 -0.9190
 2808SOL     OW20056   2.520   1.758   2.968 -0.6744 -0.0082  0.0499
 2808SOL    HW120057   2.505   1.679   2.917  2.9126 -2.1348  2.2657
 2808SOL    HW220058   2.428   1.782   2.981 -0.6604  0.5728 -0.9122
 2809SOL     OW20059   3.316   1.265   4.802  0.3196 -0.1365 -0.2732
 2809SOL    HW120060   3.229   1.276   4.840  0.2407 -3.4033  0.4224
 2809SOL    HW220061   3.307   1.313   4.719  0.7451  0.3385 -0.0441
 2810SOL     OW20062   1.602   3.802   4.522  0.4421 -0.3916 -0.1884
 2810SOL    HW120063   1.565   3.714   4.527 -3.6040  0.9546 -6.0450
 2810SOL    HW220064   1.598   3.834   4.612  2.7748 -3.2789  0.9323
 2811SOL     OW20065   4.215   3.745   2.564 -0.1766  0.9747 -0.0177
 2811SOL    HW120066   4.239   3.751   2.472  2.2115 -1.5781  0.4345
 2811SOL    HW220067   4.300   3.747   2.607 -0.2991 -2.1398  0.4081
 2812SOL     OW20068   0.395   3.394   6.031 -0.0460 -0.4946  0.0510
 2812SOL    HW120069   0.371   3.313   5.985  0.5744 -0.3182 -0.5775
 2812SOL    HW220070   0.311   3.438   6.049  0.9745  1.4215  0.1442
 2813SOL     OW20071   1.912   4.153   5.111 -0.2582 -0.0351 -0.4568
 2813SOL    HW120072   1.819   4.130   5.104 -0.2975 -0.3300  1.0313
 2813SOL    HW220073   1.952   4.097   5.178  0.3111 -0.4262 -1.1300
 2814SOL     OW20074   0.402   4.414   6.922 -0.3659 -0.3235 -0.7108
 2814SOL    HW120075   0.386   4.479   6.990 -1.0925 -2.1016  0.8193
 2814SOL    HW220076   0.449   4.463   6.855  1.2251  2.2529  2.2637
 2815SOL     OW20077   1.710   3.324   3.818  0.3761  0.6390 -0.2275
 2815SOL    HW120078   1.712   3.323   3.722  0.3782 -1.1441 -0.2145
 2815SOL    HW220079   1.626   3.368   3.832 -0.4743 -1.2293  0.5916
 2816SOL     OW20080   2.752   4.127   7.583 -0.2997 -0.2717  0.1644
 2816SOL    HW120081   2.722   4.063   7.647 -2.3090  2.5444  2.0553
 2816SOL    HW220082   2.839   4.095   7.559 -0.3616 -0.1422 -0.2461
 2817SOL     OW20083   2.943   3.322   1.269 -0.3346  0.3324  0.0038
 2817SOL    HW120084   2.984   3.359   1.347 -1.2871  1.6610 -0.1239
 2817SOL    HW220085   2.902   3.398   1.228 -2.3804 -1.5859 -1.4345
 2818SOL     OW20086   0.188   4.017   9.353 -0.9501  0.6433 -0.7717
 2818SOL    HW120087   0.243   4.081   9.399 -2.8733  0.9046  1.1667
 2818SOL    HW220088   0.172   3.948   9.417  2.2365  1.3900  0.8340
 2819SOL     OW20089   3.469   3.758   5.906  0.8356 -0.4364  0.0642
 2819SOL    HW120090   3.555   3.795   5.925 -0.4149  1.9884  1.0036
 2819SOL    HW220091   3.479   3.668   5.937  4.3657 -0.4182 -1.0392
 2820SOL     OW20092   2.822   0.196  17.525 -0.3025 -0.0728  0.3710
 2820SOL    HW120093   2.772   0.170  17.603  1.0076 -0.9699  0.9060
 2820SOL    HW220094   2.793   0.286  17.507 -2.6478 -0.8256  0.4038
 2821SOL     OW20095   3.690   3.804   3.493  0.4974  0.0165 -0.4183
 2821SOL    HW120096   3.727   3.746   3.560 -0.4961  0.5721  0.6176
 2821SOL    HW220097   3.594   3.800   3.497  0.6657 -2.0299  1.8002
 2822SOL     OW20098   1.514   0.458  16.353  0.0899  0.1094  0.2825
 2822SOL    HW120099   1.586   0.480  16.413  1.4555  0.6368 -1.5631
 2822SOL    HW220100   1.526   0.524  16.286  0.6291 -0.2142  0.0639
 2823SOL     OW20101   1.611   4.043   8.096 -0.0867 -0.1072 -0.5162
 2823SOL    HW120102   1.667   4.120   8.105 -0.5319  0.0348  0.9642
 2823SOL    HW220103   1.673   3.987   8.050  0.5594 -1.0775  1.5577
 2824SOL     OW20104   4.233   3.302   8.575 -0.6043 -0.2395 -0.2527
 2824SOL    HW120105   4.224   3.335   8.665 -1.2913  1.5832 -0.9955
 2824SOL    HW220106   4.163   3.237   8.579  1.6424 -2.6336  0.2400
 2825SOL     OW20107   0.872   4.267   7.870 -0.4511 -0.3330  0.2547
 2825SOL    HW120108   0.781   4.246   7.890 -0.7099  0.1260 -0.4272
 2825SOL    HW220109   0.904   4.301   7.953 -1.7855  2.1177 -0.2435
 2826SOL     OW20110   2.330   1.955   9.309 -0.1723 -0.2240  0.0711
 2826SOL    HW120111   2.274   1.997   9.373  0.3983 -0.6094  0.8186
 2826SOL    HW220112   2.269   1.886   9.284 -0.3679  0.0409 -0.1857
 2827SOL     OW20113   1.467   4.327   4.470  0.5192  0.1117  0.1053
 2827SOL    HW120114   1.515   4.303   4.391  0.3201 -0.2976  0.1137
 2827SOL    HW220115   1.496   4.413   4.502 -0.7600  0.4716  0.3091
 2828SOL     OW20116   2.137   4.735  10.120 -0.3931  0.8637  0.0824
 2828SOL    HW120117   2.177   4.658  10.079  0.0310  1.5108 -0.7111
 2828SOL    HW220118   2.220   0.032  10.153  0.6199 -0.3468 -1.2207
 2829SOL     OW20119   2.835   2.520  12.431 -0.1216 -0.0032 -0.6758
 2829SOL    HW120120   2.925   2.529  12.400  0.7097 -0.9619  1.4295
 2829SOL    HW220121   2.827   2.585  12.501  3.4719 -0.0956 -0.1952
 2830SOL     OW20122   1.191   1.501   1.511  0.4877 -0.1728  0.4425
 2830SOL    HW120123   1.162   1.419   1.471  0.2955  1.1449 -2.1324
 2830SOL    HW220124   1.156   1.497   1.600 -2.5225  1.2608 -0.6931
 2831SOL     OW20125   2.139   4.676   6.566 -0.4267  0.1388 -0.5260
 2831SOL    HW120126   2.050   4.689   6.597  0.5435  0.2644  2.1706
 2831SOL    HW220127   2.120   4.617   6.493  2.7139  0.0858 -1.3082
 2832SOL     OW20128   2.679   0.812   7.161  0.0172  0.3968  0.5132
 2832SOL    HW120129   2.683   0.861   7.080  0.4736 -0.1584  0.2027
 2832SOL    HW220130   2.761   0.843   7.199  0.4821  0.0395 -0.2016
 2833SOL     OW20131   1.233   1.935   2.069  0.0861 -0.1646 -0.7580
 2833SOL    HW120132   1.271   1.847   2.073 -1.2222 -0.6335  1.0004
 2833SOL    HW220133   1.282   1.981   2.001 -0.2075 -1.1242 -1.6192
 2834SOL     OW20134   0.031   3.914   1.132  0.0845 -0.0251 -0.2590
 2834SOL    HW120135   0.067   3.826   1.123 -0.3348 -0.4194  1.8049
 2834SOL    HW220136   0.108   3.967   1.109  1.8633 -2.5776 -0.1735
 2835SOL     OW20137   4.333   1.327   4.830 -0.1373 -0.7587  0.0380
 2835SOL    HW120138   4.259   1.294   4.780 -1.2481  1.9925 -0.1280
 2835SOL    HW220139   4.399   1.352   4.766  0.8729  1.0238  1.7563
 2836SOL     OW20140   0.572   4.612   1.137 -0.4186  0.1716 -0.2789
 2836SOL    HW120141   0.658   4.572   1.147 -1.1456 -0.1171  4.6902
 2836SOL    HW220142   0.579   4.672   1.211  0.3065 -2.3684  1.7328
 2837SOL     OW20143   3.403   2.911   2.672 -0.2101 -0.0336 -0.0116
 2837SOL    HW120144   3.478   2.969   2.663 -0.8056  0.9372  1.2829
 2837SOL    HW220145   3.333   2.966   2.708 -0.0054 -0.3079  0.7940
 2838SOL     OW20146   3.389   1.789   7.460  0.1070  0.7668 -0.0949
 2838SOL    HW120147   3.406   1.842   7.538 -0.8507 -2.0431  2.0242
 2838SOL    HW220148   3.298   1.815   7.447  0.0493  0.4813 -0.2627
 2839SOL     OW20149   4.519   2.945   4.302 -0.3712  0.5600 -0.1179
 2839SOL    HW120150   4.490   3.000   4.375  2.2336  0.3105  1.1234
 2839SOL    HW220151   4.471   2.988   4.231  1.5729  2.1483 -0.4798
 2840SOL     OW20152   3.002   2.602   1.667  0.1888  0.3527 -0.0851
 2840SOL    HW120153   3.017   2.567   1.755 -0.3048 -0.0284 -0.1524
 2840SOL    HW220154   3.087   2.578   1.631  0.0876 -1.6318  0.9681
 2841SOL     OW20155   1.047   0.693   3.217  0.2830 -0.2182  0.3568
 2841SOL    HW120156   0.973   0.752   3.202 -1.2761 -2.0151  0.9834
 2841SOL    HW220157   1.098   0.695   3.136 -1.4913 -0.7703 -0.7653
 2842SOL     OW20158   2.842   1.897   6.329  0.2048 -0.2972 -0.2756
 2842SOL    HW120159   2.882   1.829   6.384 -1.3572  0.6074  1.9748
 2842SOL    HW220160   2.844   1.860   6.240  1.8188 -1.5963  0.2950
 2843SOL     OW20161   1.324   4.218  11.225 -0.1478 -0.0873  0.5261
 2843SOL    HW120162   1.303   4.288  11.163  2.7090  0.8493  0.6209
 2843SOL    HW220163   1.386   4.261  11.282  0.2826  0.7767 -0.5994
 2844SOL     OW20164   1.146   4.605   3.057  0.3975  0.7079 -0.4041
 2844SOL    HW120165   1.166   4.642   2.971 -3.1585  0.8946 -1.1402
 2844SOL    HW220166   1.202   4.663   3.109 -0.2057  1.8790 -1.0569
 2845SOL     OW20167   2.470   0.147   2.664 -0.8435  0.0632  0.3217
 2845SOL    HW120168   2.424   0.110   2.588  0.8070  0.2071 -0.7385
 2845SOL    HW220169   2.428   0.094   2.731 -1.5058 -0.9842 -0.9229
 2846SOL     OW20170   3.932   1.791   6.195 -0.0053 -0.0366  0.4938
 2846SOL    HW120171   3.874   1.867   6.190  0.5157  0.3424  0.2210
 2846SOL    HW220172   4.007   1.813   6.139 -0.7673  0.7266 -0.2302
 2847SOL     OW20173   3.557   0.512   0.508 -0.3933 -0.2370  0.0277
 2847SOL    HW120174   3.570   0.418   0.498 -0.7045 -0.0401 -2.0838
 2847SOL    HW220175   3.513   0.519   0.593  0.1862 -0.6229  0.3563
 2848SOL     OW20176   0.137   2.887   9.340 -0.0098 -0.1393  0.2456
 2848SOL    HW120177   0.050   2.903   9.302  0.7825  0.0569 -1.4924
 2848SOL    HW220178   0.116   2.812   9.396  0.1483  0.2498  0.8207
 2849SOL     OW20179   0.210   0.298   8.628 -0.4035  0.6058 -0.2523
 2849SOL    HW120180   0.218   0.355   8.551 -0.5716  1.0382  0.0555
 2849SOL    HW220181   0.298   0.308   8.664 -0.7037 -1.6709  1.1394
 2850SOL     OW20182   0.592   2.390   3.810 -0.9668  0.1693  0.3353
 2850SOL    HW120183   0.584   2.339   3.891 -2.1247  1.2178  0.8894
 2850SOL    HW220184   0.686   2.384   3.796 -0.7296  0.3424  1.8651
 2851SOL     OW20185   0.780   4.454   1.816  0.1152 -0.0352  0.1723
 2851SOL    HW120186   0.852   4.458   1.879 -1.2592  2.6146  1.5864
 2851SOL    HW220187   0.760   4.546   1.798  1.7675  0.4034  0.5688
 2852SOL     OW20188   2.717   1.733   5.873 -0.1556  0.0327 -0.1325
 2852SOL    HW120189   2.632   1.774   5.861  1.4872  2.7833 -2.4525
 2852SOL    HW220190   2.737   1.703   5.784 -2.4485 -1.6513 -0.0770
 2853SOL     OW20191   3.579   2.601   8.012 -0.8360 -0.0016 -0.1192
 2853SOL    HW120192   3.553   2.590   8.103 -0.6503  1.0818  0.0585
 2853SOL    HW220193   3.512   2.550   7.967 -0.9462  0.3398 -0.3367
 2854SOL     OW20194   1.475   2.928   8.298  0.1235  0.1521 -0.1636
 2854SOL    HW120195   1.484   2.988   8.372 -0.8385 -0.1907  0.2330
 2854SOL    HW220196   1.411   2.864   8.330 -0.6304  0.4252 -1.1174
 2855SOL     OW20197   3.029   2.090   2.787  0.5873 -0.1164  0.7593
 2855SOL    HW120198   3.086   2.163   2.813  0.4428 -0.1409  1.1504
 2855SOL    HW220199   3.074   2.012   2.818 -0.2984 -0.1776  1.9126
 2856SOL     OW20200   3.432   3.142   6.552  0.4876  0.2338  0.3418
 2856SOL    HW120201   3.455   3.156   6.460 -0.0241 -0.2038  0.1436
 2856SOL    HW220202   3.477   3.057   6.554  1.3474  0.7988  4.2168
 2857SOL     OW20203   2.484   2.715   4.283 -0.4621 -0.1436 -0.6151
 2857SOL    HW120204   2.558   2.713   4.344 -0.2460  0.0894 -0.8723
 2857SOL    HW220205   2.515   2.734   4.194  0.9458 -2.6194 -0.6638
 2858SOL     OW20206   1.010   2.965   8.555 -0.0536  0.0009  1.1907
 2858SOL    HW120207   1.048   2.887   8.594  1.1744  0.1704  0.3262
 2858SOL    HW220208   0.917   2.944   8.543 -0.2943  0.9685  1.3469
 2859SOL     OW20209   1.490   4.140   2.253 -0.1761 -0.0738  0.1211
 2859SOL    HW120210   1.446   4.061   2.222 -1.1636  1.0720 -1.4580
 2859SOL    HW220211   1.483   4.197   2.176 -4.6953 -1.5285 -0.5817
 2860SOL     OW20212   2.670   2.151   5.106  0.0614 -0.0159  0.3858
 2860SOL    HW120213   2.709   2.190   5.184 -0.9644  2.8324 -0.5047
 2860SOL    HW220214   2.632   2.069   5.138  1.2821 -0.7761 -0.1118
 2861SOL     OW20215   1.272   0.526   4.141 -0.3523 -0.0585  0.0894
 2861SOL    HW120216   1.178   0.512   4.149 -0.4270 -0.0832 -0.9010
 2861SOL    HW220217   1.280   0.560   4.052  2.5910 -0.5559  0.1436
 2862SOL     OW20218   4.540   0.197   4.150  0.3842  0.0888 -0.1328
 2862SOL    HW120219   4.631   0.222   4.132  1.0677 -0.4257  2.6687
 2862SOL    HW220220   4.549   0.114   4.195 -0.2851  0.1840  0.1769
 2863SOL     OW20221   0.293   4.553   4.027 -0.0416  0.3310  0.3149
 2863SOL    HW120222   0.330   4.501   3.956 -0.3685  1.6958 -0.8433
 2863SOL    HW220223   0.316   4.502   4.105  2.6842 -2.0350 -2.0410
 2864SOL     OW20224   4.248   2.245   6.272 -0.1599  0.2032 -0.0818
 2864SOL    HW120225   4.174   2.306   6.272  0.4469  0.9042 -2.0011
 2864SOL    HW220226   4.210   2.163   6.305  1.1202  0.0652  1.0508
 2865SOL     OW20227   3.087   1.252   6.839 -0.3628  0.1143  0.2294
 2865SOL    HW120228   3.091   1.159   6.864  0.5708 -0.0389 -0.4864
 2865SOL    HW220229   3.038   1.233   6.759 -0.6251  0.9064  0.2036
 2866SOL     OW20230   2.643   0.358   8.130  0.5497 -0.1508 -0.0038
 2866SOL    HW120231   2.738   0.369   8.124  0.4354  0.3092 -0.9770
 2866SOL    HW220232   2.628   0.265   8.115 -1.8541  0.2734 -0.3421
 2867SOL     OW20233   2.825   4.064   3.649 -0.2914 -0.3063  0.4548
 2867SOL    HW120234   2.812   3.972   3.627  1.5853 -0.5575  0.4459
 2867SOL    HW220235   2.883   4.091   3.578 -1.1934  0.1938 -0.0940
 2868SOL     OW20236   0.540   0.543   2.172  0.3579  0.1695 -0.0405
 2868SOL    HW120237   0.577   0.518   2.257  1.6721  1.2387 -0.3129
 2868SOL    HW220238   0.484   0.616   2.198 -0.1072 -0.0233 -0.5061
 2869SOL     OW20239   4.188   0.782  15.858  0.0179  0.2011 -0.4496
 2869SOL    HW120240   4.111   0.767  15.803 -0.4156  0.8036 -0.0042
 2869SOL    HW220241   4.200   0.875  15.842 -2.6304  0.7466  0.8106
 2870SOL     OW20242   4.457   0.534  12.721  0.1307  0.2583  0.0301
 2870SOL    HW120243   4.458   0.594  12.795  0.5479 -0.9666  1.0283
 2870SOL    HW220244   4.451   0.586  12.642 -3.9360 -0.0991  0.1137
 2871SOL     OW20245   1.770   2.067   8.939  0.0299  0.0567 -0.3441
 2871SOL    HW120246   1.804   2.154   8.961  0.2809 -0.3253  0.7671
 2871SOL    HW220247   1.689   2.065   8.990  0.2630  1.0885  0.0575
 2872SOL     OW20248   4.165   2.919   6.642  0.2402 -0.7044 -0.4717
 2872SOL    HW120249   4.171   2.925   6.547 -1.2858 -0.5316 -0.5481
 2872SOL    HW220250   4.241   2.972   6.667  0.3234  0.3426 -2.9343
 2873SOL     OW20251   4.579   1.747   9.078 -0.6436 -0.3689 -0.0889
 2873SOL    HW120252   4.553   1.805   9.006 -3.1771 -1.9427 -0.4548
 2873SOL    HW220253   4.598   1.812   9.146  2.4111 -1.2972 -0.0887
 2874SOL     OW20254   2.700   0.964  17.644  0.1281 -0.8224 -0.1656
 2874SOL    HW120255   2.720   1.047  17.688  0.6496 -1.4892  0.8685
 2874SOL    HW220256   2.740   0.901  17.704 -1.7025  0.3041  2.2453
 2875SOL     OW20257   3.237   4.260  17.655  0.4035  0.4365 -1.1423
 2875SOL    HW120258   3.181   4.246  17.578  0.2131 -0.8333 -0.7804
 2875SOL    HW220259   3.250   4.355  17.657 -1.2632  0.6420 -0.3328
 2876SOL     OW20260   0.335   1.096   4.449  0.0336  0.3739 -0.6972
 2876SOL    HW120261   0.372   1.092   4.361  1.3886  0.0099 -0.1281
 2876SOL    HW220262   0.313   1.187   4.466  0.2139  0.1030  1.0195
 2877SOL     OW20263   0.655   1.087  12.618 -0.3739 -0.6184 -0.4024
 2877SOL    HW120264   0.719   1.123  12.556 -0.7603 -0.9227 -0.9781
 2877SOL    HW220265   0.615   1.020  12.563 -0.3408 -0.4698 -0.6072
 2878SOL     OW20266   1.115   3.509  15.764 -0.0843 -0.7293 -0.1544
 2878SOL    HW120267   1.133   3.548  15.849 -3.0054  2.4632 -1.0070
 2878SOL    HW220268   1.167   3.428  15.764 -0.9971 -1.3083 -1.2417
 2879SOL     OW20269   3.424   0.532  10.755 -0.0039  0.6510  0.1121
 2879SOL    HW120270   3.510   0.492  10.739 -0.6252 -0.1871 -1.1294
 2879SOL    HW220271   3.401   0.509  10.844 -0.7768 -0.4160 -0.3732
 2880SOL     OW20272   3.920   2.538  11.557  0.6775  0.4427  0.1629
 2880SOL    HW120273   4.002   2.584  11.540  1.4419 -1.1048 -0.2716
 2880SOL    HW220274   3.927   2.445  11.534 -2.9523  0.7403 -2.1074
 2881SOL     OW20275   0.434   3.015   6.443  0.3697  0.0151 -0.1910
 2881SOL    HW120276   0.445   3.110   6.448 -2.0208  0.1219  3.0305
 2881SOL    HW220277   0.409   2.993   6.533 -0.4523  2.9485  0.2932
 2882SOL     OW20278   0.012   1.264  14.491  0.4395 -0.1479  0.2928
 2882SOL    HW120279   4.727   1.350  14.526  0.4864 -0.7911  1.8786
 2882SOL    HW220280   4.693   1.210  14.547 -1.2019 -1.6019 -2.6968
 2883SOL     OW20281   4.251   3.324   1.441  0.6254  0.2060 -0.0816
 2883SOL    HW120282   4.309   3.319   1.517 -0.2739  1.7521  0.7201
 2883SOL    HW220283   4.274   3.414   1.415  0.5515 -0.9806 -4.1958
 2884SOL     OW20284   3.478   3.333   4.139  0.3523 -0.0027 -0.3912
 2884SOL    HW120285   3.403   3.392   4.143  1.3663  1.1731  1.4819
 2884SOL    HW220286   3.472   3.316   4.045  2.7420  0.1839 -0.5865
 2885SOL     OW20287   0.997   3.136   5.425  0.1362  0.2178 -0.3170
 2885SOL    HW120288   0.952   3.219   5.438 -0.6489 -0.2747  0.1447
 2885SOL    HW220289   0.988   3.091   5.509 -2.4922  1.2280 -0.0620
 2886SOL     OW20290   2.040   3.923   6.770  0.4818  0.1177 -0.0794
 2886SOL    HW120291   1.996   4.008   6.758 -1.3513 -0.8304 -0.0357
 2886SOL    HW220292   2.059   3.929   6.863 -0.6532 -0.1495  0.1721
 2887SOL     OW20293   4.212   1.794   8.392 -0.0097 -0.1282 -0.5297
 2887SOL    HW120294   4.265   1.714   8.391  1.5470  0.9163 -0.8721
 2887SOL    HW220295   4.126   1.757   8.372  0.3754 -0.7584 -1.0312
 2888SOL     OW20296   2.281   0.921   8.336 -0.5175  0.0015 -0.0987
 2888SOL    HW120297   2.251   1.009   8.356  0.3262  0.4464 -0.7815
 2888SOL    HW220298   2.269   0.885   8.424 -0.3195  1.6897  0.6177
 2889SOL     OW20299   2.599   0.185   7.337  0.4780  0.0683 -0.0194
 2889SOL    HW120300   2.610   0.280   7.331  0.6522  0.0235 -0.4181
 2889SOL    HW220301   2.650   0.169   7.416  0.3848  0.7515  0.1734
 2890SOL     OW20302   2.807   2.810   1.751 -0.4016 -0.0215 -0.2929
 2890SOL    HW120303   2.878   2.748   1.735  1.6485  1.7246  2.0556
 2890SOL    HW220304   2.783   2.767   1.832 -0.0439 -1.5930 -1.0195
 2891SOL     OW20305   0.371   0.659   1.399 -0.4349  0.6302 -0.0535
 2891SOL    HW120306   0.438   0.673   1.465 -3.2957 -0.2996  3.0323
 2891SOL    HW220307   0.306   0.622   1.459  1.0483 -0.7074  0.7118
 2892SOL     OW20308   1.282   2.951  12.024 -0.0401 -0.4716 -0.0431
 2892SOL    HW120309   1.262   2.858  12.035  0.0798 -0.8821 -3.3850
 2892SOL    HW220310   1.280   2.962  11.929 -1.0252 -0.3723 -0.0111
 2893SOL     OW20311   0.769   3.704   8.834 -0.0967  0.5367 -0.2356
 2893SOL    HW120312   0.701   3.637   8.833  0.0521  0.3815  0.9546
 2893SOL    HW220313   0.845   3.646   8.826  0.4735  1.4565 -1.6839
 2894SOL     OW20314   2.355   2.258   4.114  0.0347 -0.2625 -0.4700
 2894SOL    HW120315   2.436   2.298   4.084 -0.4577  0.4805 -0.7876
 2894SOL    HW220316   2.373   2.217   4.199 -0.4724 -1.1361 -0.7772
 2895SOL     OW20317   0.805   2.615   7.838 -0.0088 -0.2955 -0.1788
 2895SOL    HW120318   0.821   2.705   7.865 -2.3723  0.5680 -1.6697
 2895SOL    HW220319   0.752   2.579   7.909  1.0423 -0.1250  0.6925
 2896SOL     OW20320   1.863   0.112   3.259  0.3443 -0.1618 -0.0200
 2896SOL    HW120321   1.918   0.183   3.228  1.7104 -0.4971  1.6146
 2896SOL    HW220322   1.910   0.043   3.213  0.4531  0.2909 -0.5800
 2897SOL     OW20323   2.694   2.453   6.617  0.2535 -0.0211  0.2206
 2897SOL    HW120324   2.672   2.514   6.687 -0.8650  1.7156 -1.6505
 2897SOL    HW220325   2.752   2.512   6.568 -0.9651  1.4692  0.6162
 2898SOL     OW20326   1.411   4.331   2.600 -0.0385 -0.3961 -0.2053
 2898SOL    HW120327   1.390   4.258   2.543 -0.0886 -1.5909  1.3299
 2898SOL    HW220328   1.506   4.325   2.610 -0.0211 -0.9461 -0.7143
 2899SOL     OW20329   3.085   0.045   9.511  0.0281 -0.4755 -0.6084
 2899SOL    HW120330   3.156   0.110   9.514  0.1662 -0.6875  0.8123
 2899SOL    HW220331   3.007   0.092   9.480 -0.5147 -0.3503  0.9384
 2900SOL     OW20332   0.169   4.133   2.369 -0.4241 -0.1129 -0.4460
 2900SOL    HW120333   0.225   4.084   2.309  0.1866  2.1517 -1.7318
 2900SOL    HW220334   0.088   4.140   2.319 -1.4747 -0.2248  1.2692
 2901SOL     OW20335   0.442   1.576   6.749 -0.5676 -0.5013  0.1038
 2901SOL    HW120336   0.516   1.521   6.775  1.0578  2.4231  1.7109
 2901SOL    HW220337   0.400   1.579   6.835 -1.8144  1.0242 -0.5647
 2902SOL     OW20338   1.457   2.582   2.227  0.4723  0.3393  0.1429
 2902SOL    HW120339   1.444   2.488   2.210 -1.4945 -0.1059  4.1838
 2902SOL    HW220340   1.398   2.620   2.162 -0.5430 -2.8848 -0.8331
 2903SOL     OW20341   2.810   0.983  10.822 -0.6419 -0.4405  0.0899
 2903SOL    HW120342   2.905   0.979  10.812 -0.7349  0.7537 -1.2423
 2903SOL    HW220343   2.805   1.040  10.899  0.4009 -0.4365  0.1579
 2904SOL     OW20344   0.107   1.586  11.267  0.4831  0.5479  0.7365
 2904SOL    HW120345   0.066   1.536  11.337  1.4893  1.6841  2.1286
 2904SOL    HW220346   0.029   1.636  11.243  0.7750  1.6188  2.0158
 2905SOL     OW20347   4.148   0.671   3.412  0.0395  0.5478  0.1643
 2905SOL    HW120348   4.182   0.734   3.475  0.0081  1.0316 -0.3010
 2905SOL    HW220349   4.223   0.624   3.376  0.0299  0.2456  0.5421
 2906SOL     OW20350   0.882   3.453   4.948 -0.0648  0.1731  0.3628
 2906SOL    HW120351   0.954   3.452   4.885  0.3318  0.7408  0.8085
 2906SOL    HW220352   0.837   3.379   4.908  0.6549 -0.8303  1.4346
 2907SOL     OW20353   2.787   4.438  12.127 -0.4542 -0.1196  0.0240
 2907SOL    HW120354   2.865   4.385  12.114  1.0045  2.1534 -0.4835
 2907SOL    HW220355   2.818   4.523  12.096  2.8112 -0.8485  1.3443
 2908SOL     OW20356   3.628   2.270   7.259 -0.2901  0.0460  0.8860
 2908SOL    HW120357   3.639   2.253   7.165 -0.4295  0.3384  0.8185
 2908SOL    HW220358   3.639   2.365   7.260 -3.4068  0.4080 -0.3996
 2909SOL     OW20359   2.456   0.084   1.628  0.1279 -0.1740 -0.3915
 2909SOL    HW120360   2.502   0.003   1.651 -0.7321 -0.2317  1.1158
 2909SOL    HW220361   2.366   0.054   1.626  0.2623 -0.6490  0.7177
 2910SOL     OW20362   1.933   4.510   6.141  0.2696 -0.6870 -0.1526
 2910SOL    HW120363   1.965   4.556   6.063 -0.7355  1.1912  0.5484
 2910SOL    HW220364   2.015   4.525   6.189  2.3078 -0.8913 -3.5467
 2911SOL     OW20365   4.051   1.783   3.093  0.0683 -0.0600  0.1819
 2911SOL    HW120366   3.961   1.763   3.121  1.0778 -0.5540  3.0693
 2911SOL    HW220367   4.061   1.874   3.120 -0.7751 -0.1905  0.9291
 2912SOL     OW20368   2.727   1.983   8.490  0.0843  0.5432 -0.0850
 2912SOL    HW120369   2.750   2.046   8.559  2.2010 -0.5087  0.1471
 2912SOL    HW220370   2.651   1.937   8.526  0.6047 -0.0598  0.2247
 2913SOL     OW20371   1.650   0.835   1.683  0.0915 -0.3550  0.8584
 2913SOL    HW120372   1.745   0.828   1.694  0.0699 -0.7701  0.7527
 2913SOL    HW220373   1.632   0.763   1.622  2.2304  0.3827 -0.6333
 2914SOL     OW20374   1.995   2.196   6.342  0.5665 -0.0016 -0.2246
 2914SOL    HW120375   2.074   2.228   6.386  2.1512  0.3778 -3.3062
 2914SOL    HW220376   1.930   2.240   6.397  1.2729 -0.8789  1.3314
 2915SOL     OW20377   2.379   0.792   8.990 -0.1251  1.0303 -0.0621
 2915SOL    HW120378   2.286   0.773   9.001  0.4595 -1.4919  0.3977
 2915SOL    HW220379   2.383   0.849   9.067  2.5371  0.2931  0.3734
 2916SOL     OW20380   2.451   1.506  16.470  0.4889  0.3149 -0.2770
 2916SOL    HW120381   2.444   1.533  16.378  1.5288  0.6208 -0.2706
 2916SOL    HW220382   2.364   1.514  16.509  0.9318 -0.3180  0.8223
 2917SOL     OW20383   1.654   4.562   3.818  0.0483  0.2129  0.4457
 2917SOL    HW120384   1.686   4.498   3.754  0.3492  0.4289  0.3775
 2917SOL    HW220385   1.700   4.520   3.890 -0.3723 -0.4836  0.3070
 2918SOL     OW20386   1.856   2.081  15.582 -0.5345 -0.1767 -0.7091
 2918SOL    HW120387   1.773   2.034  15.599  0.1689 -2.0836 -2.5248
 2918SOL    HW220388   1.882   2.050  15.496  1.4573  1.4124 -0.6582
 2919SOL     OW20389   1.621   3.311   8.234  0.3512 -0.3581  0.5353
 2919SOL    HW120390   1.536   3.280   8.263 -0.5158 -0.2617 -1.9563
 2919SOL    HW220391   1.599   3.380   8.171  2.9636 -0.1684 -0.1897
 2920SOL     OW20392   4.177   0.539   0.055  0.4567 -0.4795  0.0809
 2920SOL    HW120393   4.246   0.604   0.069  0.3672 -0.2312 -0.6190
 2920SOL    HW220394   4.096   0.590   0.056  0.2881 -0.7115 -1.6925
 2921SOL     OW20395   4.242   3.913  13.959  0.5562 -0.1636 -0.0719
 2921SOL    HW120396   4.228   3.966  14.038  1.3919 -1.5722  1.0164
 2921SOL    HW220397   4.282   3.843  14.011  0.5537 -0.6926 -0.7936
 2922SOL     OW20398   3.487   2.575   1.457  0.2790 -0.1700  0.7278
 2922SOL    HW120399   3.513   2.483   1.452 -0.4973 -0.3009 -0.9006
 2922SOL    HW220400   3.573   2.617   1.456 -0.2581  0.9356  1.9808
 2923SOL     OW20401   0.810   1.089   4.441  0.3034  0.2895  0.6938
 2923SOL    HW120402   0.785   1.171   4.482 -0.9731 -0.8901  2.2734
 2923SOL    HW220403   0.851   1.130   4.365  1.8944 -2.7291 -0.0721
 2924SOL     OW20404   3.085   2.643   1.236 -0.2914  0.7496  0.0615
 2924SOL    HW120405   3.043   2.689   1.163 -0.3258  0.6819  0.0389
 2924SOL    HW220406   3.146   2.712   1.264 -2.4536  1.9086  1.8857
 2925SOL     OW20407   3.209   1.065   5.570  0.3406  0.2176  0.1571
 2925SOL    HW120408   3.282   1.035   5.623 -0.0097  0.1565  0.6098
 2925SOL    HW220409   3.137   1.071   5.634 -2.1931  2.0190 -2.8496
 2926SOL     OW20410   4.000   3.059   5.998  0.1228 -0.7340 -0.6203
 2926SOL    HW120411   3.940   3.100   6.060  1.3814  0.7177 -0.3683
 2926SOL    HW220412   4.070   3.022   6.052 -0.8859 -0.7793  0.6487
 2927SOL     OW20413   4.009   0.135   8.499  0.5931 -0.4208 -0.1122
 2927SOL    HW120414   4.099   0.104   8.509  1.3141  1.7361  0.2017
 2927SOL    HW220415   4.008   0.218   8.547  1.6474 -0.3635 -0.2020
 2928SOL     OW20416   1.720   1.201  17.239  0.0358 -0.2487 -0.8810
 2928SOL    HW120417   1.646   1.205  17.298 -0.2765  2.8037 -1.4985
 2928SOL    HW220418   1.720   1.291  17.207 -0.0545  0.5856  1.4873
 2929SOL     OW20419   0.282   4.444   7.801 -0.0409 -0.7547 -0.7695
 2929SOL    HW120420   0.216   4.466   7.735 -1.8331 -1.3901  0.8045
 2929SOL    HW220421   0.335   4.385   7.748  0.1213 -2.7090  1.5887
 2930SOL     OW20422   4.136   1.542   5.059  0.2401  0.5415 -0.1123
 2930SOL    HW120423   4.181   1.617   5.020 -1.2008  0.0389 -2.7572
 2930SOL    HW220424   4.045   1.573   5.052  1.4641  3.7447 -1.8205
 2931SOL     OW20425   1.501   3.245   4.106 -0.2385  0.4386  0.0392
 2931SOL    HW120426   1.465   3.228   4.019  0.5496 -0.2572 -0.1456
 2931SOL    HW220427   1.431   3.213   4.163 -0.0527 -2.7776 -1.5294
 2932SOL     OW20428   1.769   2.792   6.049  0.3274 -0.3772 -0.0563
 2932SOL    HW120429   1.700   2.755   6.104  0.5019 -2.7970 -1.4453
 2932SOL    HW220430   1.844   2.744   6.083  0.3131 -0.7544 -0.5543
 2933SOL     OW20431   3.124   3.227   3.804 -0.3597 -0.1175  0.3685
 2933SOL    HW120432   3.163   3.168   3.869  1.3763  0.5689 -0.0718
 2933SOL    HW220433   3.091   3.163   3.741  0.1774  1.1332 -1.1780
 2934SOL     OW20434   4.311   1.884   2.215 -0.2232 -0.0045  0.2303
 2934SOL    HW120435   4.405   1.889   2.234  0.1442 -1.7815 -1.0213
 2934SOL    HW220436   4.301   1.790   2.198  0.0341  0.3446 -1.8774
 2935SOL     OW20437   1.212   4.096   3.745 -0.3213  0.2051 -0.0669
 2935SOL    HW120438   1.170   4.153   3.681 -0.2852  2.6675  2.1229
 2935SOL    HW220439   1.267   4.160   3.790 -0.3565  0.4476 -0.3673
 2936SOL     OW20440   4.128   2.003   3.406  0.2417 -0.4871 -0.1216
 2936SOL    HW120441   4.220   2.029   3.406  0.2802 -0.6306  2.0508
 2936SOL    HW220442   4.148   1.910   3.392  0.2223 -0.3079 -1.3351
 2937SOL     OW20443   4.720   0.430   8.233  0.2988  0.6824 -0.2126
 2937SOL    HW120444   4.734   0.371   8.160  3.1124  2.4890 -1.1386
 2937SOL    HW220445   4.706   0.368   8.305 -0.4406  0.0973 -0.8704
 2938SOL     OW20446   1.445   2.136   0.992 -0.4881  0.3242 -0.1726
 2938SOL    HW120447   1.484   2.059   1.034 -1.9638 -0.0405  0.5353
 2938SOL    HW220448   1.395   2.159   1.070 -1.0220  0.1636 -0.4642
 2939SOL     OW20449   4.416   1.034   8.967 -0.6867 -1.0731 -0.0864
 2939SOL    HW120450   4.485   1.003   8.908 -0.3581  1.0191 -0.8218
 2939SOL    HW220451   4.465   1.112   8.995 -3.8037  0.6228  0.6504
 2940SOL     OW20452   3.498   0.952   9.490 -0.5053 -0.0800  0.5179
 2940SOL    HW120453   3.426   0.894   9.464  0.8216 -0.9541 -1.2176
 2940SOL    HW220454   3.486   0.956   9.585 -0.2936 -0.3188  0.5564
 2941SOL     OW20455   0.319   2.755   0.063  0.2668 -0.2003  0.4942
 2941SOL    HW120456   0.252   2.810   0.104 -1.4291 -1.4685 -0.6010
 2941SOL    HW220457   0.299   2.676   0.114  1.7954  0.0305  1.4373
 2942SOL     OW20458   2.617   4.338   7.939  0.2363  0.4738 -0.2197
 2942SOL    HW120459   2.710   4.315   7.940  0.4029  1.1767  0.9599
 2942SOL    HW220460   2.621   4.406   7.872  2.2875 -0.4880 -1.0578
 2943SOL     OW20461   2.261   4.458   7.623  0.4684 -0.0158  0.0765
 2943SOL    HW120462   2.174   4.488   7.597  1.2235 -0.4095 -2.9588
 2943SOL    HW220463   2.292   4.392   7.562  3.2228  0.6280  0.7991
 2944SOL     OW20464   4.547   0.066  10.000  0.1039  0.4482  0.1591
 2944SOL    HW120465   4.544   0.046  10.093  2.2039 -1.6706 -0.2059
 2944SOL    HW220466   4.634   0.105   9.995  0.0613  0.6769  1.3815
 2945SOL     OW20467   4.040   2.648   3.580 -0.1850 -0.0448  0.2517
 2945SOL    HW120468   4.061   2.574   3.523  0.6533  0.5366 -0.1928
 2945SOL    HW220469   4.013   2.598   3.657 -0.2757  0.4205  0.5198
 2946SOL     OW20470   1.321   0.707   7.490  0.2084 -0.1235 -0.1335
 2946SOL    HW120471   1.385   0.703   7.419 -0.6711  1.5428 -1.0007
 2946SOL    HW220472   1.290   0.797   7.482 -1.3046 -0.6823 -0.5707
 2947SOL     OW20473   0.286   4.549   8.380  0.1197  0.1046 -0.3443
 2947SOL    HW120474   0.238   4.620   8.337 -0.0138 -0.0302 -0.4150
 2947SOL    HW220475   0.291   4.584   8.469  1.0299  0.6074 -0.5955
 2948SOL     OW20476   0.971   4.630   7.980 -0.2657  0.3466 -0.3613
 2948SOL    HW120477   1.033   4.585   7.924  1.2429  0.5166  1.1698
 2948SOL    HW220478   0.937   4.558   8.033 -2.1424  1.6381  0.1799
 2949SOL     OW20479   0.876   1.666   2.829 -0.0882 -0.3376  0.2855
 2949SOL    HW120480   0.893   1.577   2.860  1.8080  1.0326  3.1569
 2949SOL    HW220481   0.817   1.692   2.900  0.2182 -3.0186  1.5269
 2950SOL     OW20482   1.587   1.532   1.059 -0.4187 -0.5365  0.5571
 2950SOL    HW120483   1.588   1.598   0.990 -0.5092 -0.5106  0.5798
 2950SOL    HW220484   1.670   1.491   1.036 -1.0666 -0.3108 -2.1163
 2951SOL     OW20485   1.957   3.712   1.953 -0.3907 -0.4571  0.1872
 2951SOL    HW120486   2.016   3.705   1.878  1.9239 -0.4001  2.0031
 2951SOL    HW220487   1.897   3.785   1.939 -0.0659  0.3766  3.1858
 2952SOL     OW20488   2.647   3.149  10.945  0.0663  0.2362 -0.4379
 2952SOL    HW120489   2.702   3.217  10.984  1.3981 -0.2046 -1.5524
 2952SOL    HW220490   2.712   3.080  10.935 -2.3984 -2.0445 -0.8302
 2953SOL     OW20491   1.757   0.060   4.170  0.7200  0.0603  0.4690
 2953SOL    HW120492   1.698   0.114   4.222  1.5781  0.0563  1.4364
 2953SOL    HW220493   1.737   0.093   4.082  1.3204  1.6455  0.9281
 2954SOL     OW20494   4.112   2.109   0.742 -0.4627  0.0747 -0.3270
 2954SOL    HW120495   4.060   2.050   0.686 -0.1880 -0.6956  0.2282
 2954SOL    HW220496   4.200   2.079   0.719 -0.4778 -0.2945  0.0961
 2955SOL     OW20497   0.501   2.042   3.337 -0.6222  0.3112  0.2431
 2955SOL    HW120498   0.575   2.050   3.396 -0.6090 -0.4048  0.3240
 2955SOL    HW220499   0.428   2.068   3.393  0.1436 -0.7875  1.7653
 2956SOL     OW20500   2.814   0.983   6.584  0.1013 -0.1649  0.0652
 2956SOL    HW120501   2.855   1.047   6.641  0.6779 -0.4055 -0.0838
 2956SOL    HW220502   2.774   0.925   6.649  1.1694 -0.2019  0.6826
 2957SOL     OW20503   2.560   0.920   6.904  1.1361 -0.3995 -0.1752
 2957SOL    HW120504   2.479   0.896   6.859  1.5771 -1.4155 -0.4404
 2957SOL    HW220505   2.609   0.847   6.865  2.1173 -0.9720  2.0866
 2958SOL     OW20506   1.067   1.406  11.496  0.0747  0.0720  1.3284
 2958SOL    HW120507   0.988   1.389  11.445  1.7314 -2.7557 -0.2528
 2958SOL    HW220508   1.132   1.360  11.443 -2.1875  0.1091 -1.4838
 2959SOL     OW20509   3.845   2.752   1.780 -0.1485 -0.2907  0.2510
 2959SOL    HW120510   3.892   2.671   1.798  0.1170 -0.4658 -1.1864
 2959SOL    HW220511   3.797   2.764   1.862  0.6753 -0.7881  0.8028
 2960SOL     OW20512   0.786   3.572  15.379 -0.3976 -0.2304 -0.2579
 2960SOL    HW120513   0.797   3.666  15.370 -0.6020 -0.2848 -1.0923
 2960SOL    HW220514   0.720   3.561  15.448 -0.2616 -1.5663 -0.3342
 2961SOL     OW20515   2.445   1.880   6.380 -0.1626 -0.0422  0.0334
 2961SOL    HW120516   2.428   1.804   6.437 -0.8060 -0.2890 -0.4864
 2961SOL    HW220517   2.538   1.863   6.362  0.2127  2.5510 -0.3914
 2962SOL     OW20518   0.972   3.415   1.239 -0.3052 -0.2613 -0.3719
 2962SOL    HW120519   1.015   3.347   1.291 -1.0540 -1.0109 -0.7324
 2962SOL    HW220520   0.926   3.357   1.179 -0.0806  0.3809 -1.1640
 2963SOL     OW20521   2.600   1.357  13.071 -0.9101 -0.1246  0.2101
 2963SOL    HW120522   2.620   1.443  13.035 -0.6855 -0.9251 -1.5309
 2963SOL    HW220523   2.595   1.308  12.990  2.0776 -1.8468  1.0844
 2964SOL     OW20524   2.697   0.769   1.098 -0.8821 -0.2407  0.0875
 2964SOL    HW120525   2.657   0.794   1.181  0.7429  0.6148  0.6158
 2964SOL    HW220526   2.651   0.687   1.087  0.3226 -0.9471  0.2459
 2965SOL     OW20527   4.157   1.810   4.342  0.2754  0.2370  0.2449
 2965SOL    HW120528   4.078   1.761   4.363  0.4940 -0.9400 -1.6847
 2965SOL    HW220529   4.121   1.898   4.327  0.9837  0.6157  0.7673
 2966SOL     OW20530   4.251   0.591   7.938 -0.0531  0.1084  0.3497
 2966SOL    HW120531   4.189   0.518   7.939  2.2310 -1.8589 -1.0125
 2966SOL    HW220532   4.313   0.559   8.004  1.4138  2.1171 -0.0751
 2967SOL     OW20533   1.888   2.735   3.077  0.1329  0.5023 -0.6590
 2967SOL    HW120534   1.928   2.652   3.051 -0.0259 -0.6392  2.7392
 2967SOL    HW220535   1.949   2.800   3.040 -1.1190  0.8308 -2.1795
 2968SOL     OW20536   2.259   2.579   3.552  0.5741 -0.3789  0.3351
 2968SOL    HW120537   2.240   2.617   3.638 -0.6540 -1.2623  0.4574
 2968SOL    HW220538   2.178   2.528   3.550  2.1457 -2.8740  0.0667
 2969SOL     OW20539   0.332   0.076  12.663 -0.0025  0.7198 -0.4881
 2969SOL    HW120540   0.258   0.016  12.670 -2.0286  3.0424 -1.7452
 2969SOL    HW220541   0.380   0.029  12.595 -0.0169  1.7396 -1.2048
 2970SOL     OW20542   2.424   4.691   3.230  0.1003 -0.6447 -0.0196
 2970SOL    HW120543   2.459   4.613   3.187 -2.0852 -2.3004  1.2135
 2970SOL    HW220544   2.503   0.006   3.240 -0.6857  0.3992  0.7204
 2971SOL     OW20545   3.678   2.823   2.615  0.2483 -0.0539 -0.7369
 2971SOL    HW120546   3.629   2.905   2.613 -0.5816 -0.5434 -0.2663
 2971SOL    HW220547   3.653   2.786   2.530  1.0201  0.4613 -1.1936
 2972SOL     OW20548   3.715   2.939  11.957  0.0442  0.5881 -0.1269
 2972SOL    HW120549   3.764   2.870  11.913  1.1225  1.4192 -0.2322
 2972SOL    HW220550   3.728   3.016  11.902 -2.0683  0.1977 -1.1912
 2973SOL     OW20551   3.248   4.498   7.799  0.0748  0.5809  0.5442
 2973SOL    HW120552   3.276   4.409   7.777  1.8264  1.2014  0.2690
 2973SOL    HW220553   3.194   4.495   7.878 -0.1242  0.4980  0.4033
 2974SOL     OW20554   0.569   0.376   8.532 -0.0016 -0.1772 -0.3218
 2974SOL    HW120555   0.521   0.331   8.601 -0.6904 -0.2039 -0.8154
 2974SOL    HW220556   0.548   0.315   8.462  0.1272 -2.2560  1.4599
 2975SOL     OW20557   3.376   0.735   8.970  0.0179 -0.3167 -0.2400
 2975SOL    HW120558   3.306   0.798   8.987 -2.6604 -3.1172 -1.0354
 2975SOL    HW220559   3.446   0.799   8.958 -0.1110 -0.2431 -0.6203
 2976SOL     OW20560   3.446   1.800   6.332 -0.2884  0.2343 -0.6076
 2976SOL    HW120561   3.488   1.882   6.356 -0.5933  0.8354 -2.1906
 2976SOL    HW220562   3.520   1.747   6.303 -1.3383  0.0938 -3.0304
 2977SOL     OW20563   1.998   1.464   3.910 -0.3985  0.0635  0.1477
 2977SOL    HW120564   1.910   1.496   3.892 -0.0181  1.2005  0.3041
 2977SOL    HW220565   2.038   1.542   3.948 -1.4690  0.1290  1.1303
 2978SOL     OW20566   1.892   3.333   3.265 -0.3660  0.2084 -0.4600
 2978SOL    HW120567   1.863   3.423   3.249 -1.4779 -0.0521  0.1065
 2978SOL    HW220568   1.816   3.297   3.219 -0.8766 -0.3083  0.8004
 2979SOL     OW20569   4.721   1.156   6.435 -0.1984 -0.6885 -0.2408
 2979SOL    HW120570   0.077   1.131   6.430 -0.4064 -1.1189 -2.0239
 2979SOL    HW220571   4.683   1.079   6.392 -1.3878 -0.0939 -0.2279
 2980SOL     OW20572   0.369   4.568   4.734  0.0615 -0.1735  0.3497
 2980SOL    HW120573   0.314   4.618   4.795 -1.8667 -0.8508 -0.8256
 2980SOL    HW220574   0.331   4.482   4.751 -1.3991  0.7056  1.5892
 2981SOL     OW20575   1.553   4.127   3.413  0.9044  0.3185  0.3395
 2981SOL    HW120576   1.496   4.139   3.336 -1.1322 -0.4325  1.7343
 2981SOL    HW220577   1.494   4.082   3.472 -0.4377  0.7545 -0.6659
 2982SOL     OW20578   1.638   0.097   3.765 -0.3871  0.5495 -0.4004
 2982SOL    HW120579   1.625   0.002   3.775 -0.7611  0.3736 -2.4608
 2982SOL    HW220580   1.651   0.098   3.670 -0.1300 -0.1972 -0.3740
 2983SOL     OW20581   3.689   1.896  15.378  0.6703 -0.3772 -0.3899
 2983SOL    HW120582   3.707   1.811  15.338 -1.2094 -0.8544 -0.2433
 2983SOL    HW220583   3.762   1.955  15.359 -0.3005  0.5675 -1.2061
 2984SOL     OW20584   2.237   2.602   7.913  0.4820 -0.1900  0.6876
 2984SOL    HW120585   2.315   2.549   7.898  1.9577  1.7422  1.6870
 2984SOL    HW220586   2.215   2.589   8.005 -0.0844  0.2314  0.6156
 2985SOL     OW20587   3.332   1.795   8.197  0.5099  0.5624  0.2138
 2985SOL    HW120588   3.367   1.876   8.160  3.1366  0.2209  1.9090
 2985SOL    HW220589   3.398   1.765   8.260  0.3200 -1.8867 -0.7576
 2986SOL     OW20590   3.141   1.775   0.145  0.1279 -0.4226 -0.1387
 2986SOL    HW120591   3.074   1.832   0.183  0.2508  0.6529 -1.5316
 2986SOL    HW220592   3.190   1.837   0.091 -1.6725 -0.0661 -1.3547
 2987SOL     OW20593   4.246   1.153  14.512 -0.4870  0.8649 -0.1610
 2987SOL    HW120594   4.204   1.107  14.439 -1.2358 -1.6575  1.8639
 2987SOL    HW220595   4.338   1.157  14.486 -0.4568  0.3745 -0.1139
 2988SOL     OW20596   0.822   4.181   4.042  0.2654  0.1234 -0.0774
 2988SOL    HW120597   0.894   4.123   4.071  0.1735  0.2871  0.4708
 2988SOL    HW220598   0.825   4.162   3.948 -4.6407  1.3805 -0.4576
 2989SOL     OW20599   1.595   0.551   6.025  0.0212  0.0398  0.5283
 2989SOL    HW120600   1.664   0.518   6.082  0.6113  1.6233  0.7215
 2989SOL    HW220601   1.558   0.463   6.017 -0.2822  0.0493  1.8624
 2990SOL     OW20602   1.678   0.145  14.148  0.0047  0.4344  0.3518
 2990SOL    HW120603   1.704   0.134  14.240 -1.3264 -0.7737  0.5799
 2990SOL    HW220604   1.625   0.068  14.129  1.7580 -0.8256  0.5360
 2991SOL     OW20605   3.616   2.300   1.425  0.5115 -0.2471  0.2074
 2991SOL    HW120606   3.707   2.325   1.412  0.1914  1.0878  0.5610
 2991SOL    HW220607   3.632   2.215   1.466 -1.2403 -1.0236 -0.7008
 2992SOL     OW20608   2.192   2.692   3.780 -0.2068 -0.2868 -0.2096
 2992SOL    HW120609   2.222   2.783   3.786  1.7910 -0.9243 -0.5042
 2992SOL    HW220610   2.185   2.678   3.875 -0.3808 -2.5319 -0.5490
 2993SOL     OW20611   0.544   1.002   9.097  0.8769 -0.0588 -0.1125
 2993SOL    HW120612   0.580   1.078   9.144 -1.6242  0.0406  1.6515
 2993SOL    HW220613   0.465   0.974   9.144  1.8450  0.5496  1.8847
 2994SOL     OW20614   3.192   4.057   4.055  0.0358 -0.7147 -0.2417
 2994SOL    HW120615   3.144   3.994   4.109  1.4462 -0.4275  1.3356
 2994SOL    HW220616   3.129   4.071   3.984 -1.1723  0.4904  1.0504
 2995SOL     OW20617   3.512   0.871   6.801  0.4074 -0.0242  0.0289
 2995SOL    HW120618   3.442   0.808   6.787  0.0229  0.8228 -1.8015
 2995SOL    HW220619   3.469   0.953   6.828  2.5345  0.9899  0.3470
 2996SOL     OW20620   3.856   0.987   2.393  0.0519 -0.5578 -0.5199
 2996SOL    HW120621   3.812   0.929   2.456 -3.3095  0.9898 -1.4647
 2996SOL    HW220622   3.937   0.947   2.362  0.1838 -1.3034  0.7628
 2997SOL     OW20623   4.160   0.531   2.718  0.4060  0.3060 -0.1260
 2997SOL    HW120624   4.243   0.579   2.716  0.6878 -0.1535  0.4489
 2997SOL    HW220625   4.199   0.443   2.718 -1.0544 -0.3174  1.5364
 2998SOL     OW20626   2.090   4.253   7.795 -0.1039 -0.0290  0.9445
 2998SOL    HW120627   2.161   4.293   7.744  0.2779  0.1869  1.6411
 2998SOL    HW220628   2.016   4.277   7.741 -0.4702 -0.8134  1.0992
 2999SOL     OW20629   0.668   4.036   5.983 -0.2127  0.1083  0.0625
 2999SOL    HW120630   0.697   4.011   5.896  0.8441  1.4026  0.0342
 2999SOL    HW220631   0.694   4.127   5.972  1.9807 -0.4036  0.9440
 3000SOL     OW20632   0.652   3.114   2.013 -0.1240 -0.4307 -0.2091
 3000SOL    HW120633   0.726   3.097   1.955  0.2878  0.5440  0.0349
 3000SOL    HW220634   0.607   3.030   2.009  2.2772 -1.8756  2.8083
 3001SOL     OW20635   2.940   2.586   5.251  0.2335  0.2614  0.3659
 3001SOL    HW120636   2.856   2.553   5.219 -0.2174  1.0135  0.7866
 3001SOL    HW220637   3.000   2.559   5.181  0.5955  1.3156  0.2764
 3002SOL     OW20638   2.476   4.657  14.232 -0.0695 -0.1822 -0.5234
 3002SOL    HW120639   2.570   4.649  14.247  0.2008 -0.4564 -2.3920
 3002SOL    HW220640   2.475   4.659  14.136 -0.5412 -3.0841 -0.5677
 3003SOL     OW20641   1.988   3.730  17.412  0.3655  0.1276 -0.0161
 3003SOL    HW120642   1.998   3.703  17.321  1.5994 -1.0121  0.4531
 3003SOL    HW220643   2.078   3.730  17.445  0.0782  1.2618  0.7677
 3004SOL     OW20644   0.796   2.849   3.140  0.0446 -0.2362  0.1988
 3004SOL    HW120645   0.775   2.917   3.205 -1.6600 -0.7681  0.1801
 3004SOL    HW220646   0.891   2.862   3.138 -0.0176  0.0026 -1.1589
 3005SOL     OW20647   1.472   2.844  11.264  0.2492 -0.1244 -0.7002
 3005SOL    HW120648   1.450   2.805  11.349 -0.4032 -1.1100 -1.3239
 3005SOL    HW220649   1.541   2.785  11.235  1.2978  0.9897 -0.4855
 3006SOL     OW20650   3.196   3.934   7.476  0.7848 -0.3241  0.0993
 3006SOL    HW120651   3.222   3.845   7.454  1.2005 -0.6962  2.0915
 3006SOL    HW220652   3.250   3.950   7.553 -2.3238 -2.5061  2.7552
 3007SOL     OW20653   2.327   2.648   1.688  0.3257  0.4240 -0.1298
 3007SOL    HW120654   2.318   2.742   1.699 -0.4117  0.3533 -0.1657
 3007SOL    HW220655   2.240   2.641   1.651 -0.2276  0.8313  1.0968
 3008SOL     OW20656   0.954   0.683   4.638 -0.1491 -0.1556 -0.0442
 3008SOL    HW120657   0.937   0.625   4.712 -0.7137  2.3638  1.7861
 3008SOL    HW220658   0.870   0.725   4.621 -0.5742 -1.7062 -1.9232
 3009SOL     OW20659   1.212   2.370   4.353 -0.4006  0.2893 -0.1615
 3009SOL    HW120660   1.221   2.276   4.336 -2.1988  0.0376  0.2863
 3009SOL    HW220661   1.203   2.376   4.448 -1.3096  0.2802 -0.2487
 3010SOL     OW20662   3.062   4.125  17.084 -0.1663  0.2377  0.2432
 3010SOL    HW120663   3.133   4.189  17.081  0.0433 -0.1262 -2.5204
 3010SOL    HW220664   3.068   4.087  16.996 -0.4842  0.4105  0.1500
 3011SOL     OW20665   4.733   3.564   7.134  0.2376 -0.3728 -0.5074
 3011SOL    HW120666   4.643   3.533   7.144  0.7583 -1.3698  1.0314
 3011SOL    HW220667   0.040   3.480   7.141  0.2658 -0.4397 -1.3813
 3012SOL     OW20668   3.458   4.327   6.082 -0.4189  0.2171  0.0748
 3012SOL    HW120669   3.452   4.263   6.011  1.0317  1.6736 -1.3547
 3012SOL    HW220670   3.509   4.401   6.048  0.3679 -0.0642  0.6348
 3013SOL     OW20671   0.218   0.149   8.353 -0.0471  0.7051 -0.4333
 3013SOL    HW120672   0.156   0.214   8.387 -1.1995  0.0010 -1.1587
 3013SOL    HW220673   0.301   0.197   8.351  0.5684 -0.4008 -1.6132
 3014SOL     OW20674   4.266   3.542  13.941 -0.4683  0.1758 -0.1981
 3014SOL    HW120675   4.300   3.503  14.021 -2.3021  0.4313  0.6956
 3014SOL    HW220676   4.282   3.468  13.882 -0.7286  0.6023 -0.8056
 3015SOL     OW20677   3.759   3.791   9.852  0.4509 -0.7494 -0.1573
 3015SOL    HW120678   3.819   3.756   9.918  1.3800 -1.5540 -1.4480
 3015SOL    HW220679   3.814   3.814   9.778  1.5387 -0.1535  0.8526
 3016SOL     OW20680   3.913   0.148   4.593 -0.3712  0.4407 -0.4131
 3016SOL    HW120681   3.822   0.137   4.565 -1.1660  0.8157  2.0547
 3016SOL    HW220682   3.959   0.174   4.513  0.1474  1.4523  0.2152
 3017SOL     OW20683   4.037   3.843   4.396  0.0860 -0.3500 -0.3963
 3017SOL    HW120684   4.073   3.888   4.319 -1.6490  2.6994  0.6045
 3017SOL    HW220685   4.014   3.920   4.447  0.2856 -1.1492  0.8853
 3018SOL     OW20686   3.280   1.864   2.718  0.4198  0.0626 -0.1397
 3018SOL    HW120687   3.214   1.848   2.651  0.8770 -1.7080 -0.1653
 3018SOL    HW220688   3.222   1.848   2.792  0.8368 -1.6093 -0.1947
 3019SOL     OW20689   0.686   2.642   9.922  0.0482  0.3137  0.3263
 3019SOL    HW120690   0.739   2.567   9.950  0.0493 -0.1217 -0.8158
 3019SOL    HW220691   0.630   2.652   9.999 -0.4754 -1.9259  0.2456
 3020SOL     OW20692   0.518   1.605  11.261 -0.4132  0.3308 -0.0289
 3020SOL    HW120693   0.542   1.645  11.344 -0.7577  0.0311  0.2128
 3020SOL    HW220694   0.483   1.678  11.209 -1.2691 -0.3031 -0.3341
 3021SOL     OW20695   2.443   1.124   4.278  0.1185 -0.1582  0.0567
 3021SOL    HW120696   2.501   1.196   4.301  1.2119 -1.1696  0.4566
 3021SOL    HW220697   2.479   1.055   4.333 -1.2668 -0.2325  0.8802
 3022SOL     OW20698   3.176   3.263   8.812  0.5759  0.1191  0.4378
 3022SOL    HW120699   3.270   3.263   8.794  0.6070 -0.1144  0.5928
 3022SOL    HW220700   3.180   3.205   8.888  0.5035  0.4816  0.7176
 3023SOL     OW20701   3.544   1.571   8.612  0.2378  0.2569 -0.4874
 3023SOL    HW120702   3.634   1.603   8.609  0.1460  0.5986  0.5151
 3023SOL    HW220703   3.554   1.476   8.600  0.9263  0.2565  0.0749
 3024SOL     OW20704   3.793   4.659  16.273  0.7044 -0.8832  0.1179
 3024SOL    HW120705   3.823   4.629  16.359  0.0195  0.1013  0.6983
 3024SOL    HW220706   3.854   4.605  16.222  1.6368 -1.3927  1.7497
 3025SOL     OW20707   1.588   0.087   8.524  0.2413 -0.1891 -0.1413
 3025SOL    HW120708   1.611   0.087   8.617 -0.7328 -1.7433  0.0866
 3025SOL    HW220709   1.647   0.016   8.497  1.6390  0.3653  1.4037
 3026SOL     OW20710   3.386   3.469   5.499  0.6093 -0.0336  0.4175
 3026SOL    HW120711   3.421   3.552   5.531 -0.4336  0.2732  0.7386
 3026SOL    HW220712   3.300   3.495   5.468  0.3235 -0.0187  1.2127
 3027SOL     OW20713   0.822   1.271   9.941  0.1839  0.0731 -0.4433
 3027SOL    HW120714   0.876   1.192   9.948  1.1970  1.0127  2.2028
 3027SOL    HW220715   0.742   1.239   9.983 -0.0582  1.3310  0.0447
 3028SOL     OW20716   1.170   2.686   4.526 -0.3169 -0.4081 -0.2663
 3028SOL    HW120717   1.107   2.695   4.598  0.2780  0.1577  0.1875
 3028SOL    HW220718   1.131   2.739   4.457  2.5956  2.1644  0.0476
 3029SOL     OW20719   0.782   3.558   9.692 -0.6120 -0.1563  0.1699
 3029SOL    HW120720   0.770   3.507   9.773 -1.2435  1.8042  1.3228
 3029SOL    HW220721   0.701   3.528   9.649 -0.5553 -1.3825  0.9027
 3030SOL     OW20722   3.404   0.743  17.370 -0.0473  0.4264 -0.4628
 3030SOL    HW120723   3.443   0.826  17.400  0.4077  0.5637 -1.4424
 3030SOL    HW220724   3.401   0.704  17.457  1.2784 -1.2544 -1.1758
 3031SOL     OW20725   0.390   2.488   7.527  0.0933 -0.1910  0.2772
 3031SOL    HW120726   0.396   2.575   7.489 -0.0914 -1.1465 -1.9103
 3031SOL    HW220727   0.449   2.484   7.603  0.6609 -0.4862 -0.1846
 3032SOL     OW20728   1.364   1.636   5.450 -0.0320  0.1497 -0.5791
 3032SOL    HW120729   1.339   1.592   5.531 -1.0648  3.5036  0.9076
 3032SOL    HW220730   1.306   1.710   5.467 -0.2523 -0.4022  1.0188
 3033SOL     OW20731   0.322   1.698   1.838 -0.2143  0.2300  0.4504
 3033SOL    HW120732   0.265   1.625   1.860 -1.2649  1.5882  2.1864
 3033SOL    HW220733   0.271   1.775   1.863 -1.6757 -0.8850  0.8460
 3034SOL     OW20734   3.235   3.732  10.829 -0.1392  0.3679 -0.3627
 3034SOL    HW120735   3.208   3.809  10.779 -1.0212  2.2843  2.9972
 3034SOL    HW220736   3.308   3.769  10.879 -1.1708  0.2400  1.2482
 3035SOL     OW20737   4.479   3.469   7.819 -0.1153  0.7786  0.3073
 3035SOL    HW120738   4.431   3.449   7.899  1.2913 -0.3043  0.8822
 3035SOL    HW220739   4.445   3.391   7.776 -3.9198  2.0094  1.1280
 3036SOL     OW20740   1.927   0.770   7.159  0.9438 -0.1311 -0.2133
 3036SOL    HW120741   1.859   0.810   7.213  1.6055  0.2999  0.3084
 3036SOL    HW220742   2.003   0.828   7.150  0.8981 -0.2457 -1.2847
 3037SOL     OW20743   1.450   4.318   2.031 -0.2173  0.4715  0.0896
 3037SOL    HW120744   1.436   4.391   2.091 -2.4217  0.7329 -0.7434
 3037SOL    HW220745   1.523   4.350   1.978 -0.2351 -1.0935 -0.8800
 3038SOL     OW20746   4.003   4.493   3.321 -0.0070  1.0163  0.0758
 3038SOL    HW120747   4.077   4.551   3.336  0.4474  0.2936  0.6168
 3038SOL    HW220748   4.054   4.422   3.283 -1.2838 -0.3233  0.8334
 3039SOL     OW20749   4.396   4.036  11.052  0.2748 -0.2006 -0.2541
 3039SOL    HW120750   4.442   3.990  10.982 -0.1258  0.4701 -0.9610
 3039SOL    HW220751   4.330   4.094  11.014 -1.3118 -0.8440  1.5192
 3040SOL     OW20752   4.665   3.272   4.412  0.3166  0.2283  0.2145
 3040SOL    HW120753   0.012   3.313   4.389  0.5736 -0.0398  0.6483
 3040SOL    HW220754   4.628   3.237   4.331 -0.8716  2.1985 -0.0679
 3041SOL     OW20755   2.541   4.570  15.701 -0.1393  0.1366  0.8066
 3041SOL    HW120756   2.604   4.527  15.759  0.4588 -2.1860 -1.6061
 3041SOL    HW220757   2.467   4.594  15.758  0.3467  1.7107  0.7736
 3042SOL     OW20758   3.767   3.508   9.676  0.4603 -0.7258 -0.4539
 3042SOL    HW120759   3.786   3.592   9.634 -0.3368 -0.4118 -0.1864
 3042SOL    HW220760   3.833   3.488   9.742  2.4647  3.7502 -1.1247
 3043SOL     OW20761   0.112   0.266   0.712 -0.4595 -0.2192 -0.4658
 3043SOL    HW120762   0.022   0.283   0.742 -0.4638 -0.5028 -0.3196
 3043SOL    HW220763   0.098   0.181   0.669 -2.0123  0.5744 -1.5630
 3044SOL     OW20764   1.564   2.816   4.045  0.5946 -0.7802  1.2276
 3044SOL    HW120765   1.519   2.837   4.127  1.0290  1.4663  0.8926
 3044SOL    HW220766   1.651   2.800   4.080  1.8501  0.8815 -1.1368
 3045SOL     OW20767   3.509   2.537   3.846 -0.3608  0.0958  0.2663
 3045SOL    HW120768   3.497   2.527   3.940 -2.0328  0.1781  0.0628
 3045SOL    HW220769   3.472   2.454   3.816  0.0194 -1.0472  2.9806
 3046SOL     OW20770   3.009   1.332   4.176 -0.1214  0.3241  0.3622
 3046SOL    HW120771   3.045   1.362   4.093 -0.3592  0.8791  0.4597
 3046SOL    HW220772   3.054   1.390   4.238  1.2972 -1.8765  1.3931
 3047SOL     OW20773   0.751   2.786   2.339  0.2638 -0.4622 -0.3681
 3047SOL    HW120774   0.713   2.873   2.324 -2.2110 -1.8304 -2.0157
 3047SOL    HW220775   0.830   2.818   2.381  0.3348  0.1702 -0.9858
 3048SOL     OW20776   0.369   2.836  17.530 -0.0168  0.0463 -0.2434
 3048SOL    HW120777   0.330   2.810  17.613  0.2718 -1.0673 -0.4691
 3048SOL    HW220778   0.455   2.796  17.534 -0.3133 -0.6058 -0.4584
 3049SOL     OW20779   4.677   0.686   8.219 -0.1600  0.3097  0.4603
 3049SOL    HW120780   4.671   0.718   8.129 -1.4802  0.6973  0.6901
 3049SOL    HW220781   4.686   0.591   8.209 -0.5142  0.4305 -0.9541
 3050SOL     OW20782   4.281   3.577   5.074 -0.2883 -0.2908 -0.4628
 3050SOL    HW120783   4.328   3.494   5.063  1.5648  0.9656 -2.0340
 3050SOL    HW220784   4.294   3.614   4.986 -1.4981  1.4727  0.1059
 3051SOL     OW20785   0.570   4.511   8.383  0.2514  0.1568 -0.1927
 3051SOL    HW120786   0.569   4.581   8.448  0.5874  0.3573 -0.4067
 3051SOL    HW220787   0.478   4.523   8.358  0.6656 -0.9507 -2.2253
 3052SOL     OW20788   2.224   4.623  16.101 -0.3831 -0.7103 -0.1932
 3052SOL    HW120789   2.192   4.712  16.114  1.1391 -0.0148 -1.2442
 3052SOL    HW220790   2.145   4.570  16.092 -1.3424  0.6682  0.2878
 3053SOL     OW20791   0.047   2.925   5.657  0.3050  0.0692  0.0601
 3053SOL    HW120792   0.029   3.016   5.680 -0.3823 -0.0366 -0.0530
 3053SOL    HW220793   4.731   2.912   5.578 -0.4235  1.5610  0.2995
 3054SOL     OW20794   3.627   3.116   2.652  0.3697  0.1551  0.1677
 3054SOL    HW120795   3.583   3.200   2.658  2.1248  1.1696 -1.3160
 3054SOL    HW220796   3.717   3.148   2.641  0.1336  2.3506  4.8742
 3055SOL     OW20797   2.829   2.122   3.030  0.4758  0.4133  0.0279
 3055SOL    HW120798   2.864   2.193   2.976 -2.1235  0.1096 -2.0876
 3055SOL    HW220799   2.833   2.052   2.965 -1.6318  0.9805 -0.7350
 3056SOL     OW20800   1.288   0.066   9.826  0.3231 -0.4350 -0.3613
 3056SOL    HW120801   1.358   0.076   9.762 -0.4898 -0.1171 -1.2077
 3056SOL    HW220802   1.243   4.734   9.775  0.7351  0.5599 -2.0668
 3057SOL     OW20803   0.704   3.612  10.883 -0.1512  0.3164 -0.2147
 3057SOL    HW120804   0.706   3.528  10.927 -0.7832  0.5891  0.3266
 3057SOL    HW220805   0.643   3.656  10.943 -0.7152  3.4806 -3.0861
 3058SOL     OW20806   4.575   1.789   1.398  0.4861  0.1110 -0.0063
 3058SOL    HW120807   4.623   1.730   1.340  1.0843 -0.2118  0.8234
 3058SOL    HW220808   4.485   1.759   1.385  0.2750  0.4289  0.7442
 3059SOL     OW20809   1.908   3.278   5.343  0.3350 -0.4610  0.4594
 3059SOL    HW120810   1.966   3.251   5.272 -0.9801 -2.0236 -0.0053
 3059SOL    HW220811   1.860   3.346   5.295 -0.7825 -0.6226  1.3250
 3060SOL     OW20812   1.497   2.267   4.566 -0.0820 -0.1150  0.1160
 3060SOL    HW120813   1.555   2.302   4.498  2.3045  0.2555  2.3692
 3060SOL    HW220814   1.432   2.338   4.569 -1.1129 -1.2509  4.4734
 3061SOL     OW20815   2.182   1.712   3.337 -0.3520  0.3288 -0.4386
 3061SOL    HW120816   2.155   1.804   3.332  0.4473  0.5874  0.1212
 3061SOL    HW220817   2.174   1.690   3.244  0.5176 -2.4668  0.1625
 3062SOL     OW20818   2.737   3.737  14.502  0.6450 -0.3957 -0.2528
 3062SOL    HW120819   2.738   3.664  14.441 -3.8525 -2.2799  1.8925
 3062SOL    HW220820   2.824   3.773  14.484 -0.1592  2.2730  1.1327
 3063SOL     OW20821   3.585   2.648   0.638  0.1022 -0.2240 -0.9159
 3063SOL    HW120822   3.502   2.689   0.662  0.6325  1.3421 -1.7652
 3063SOL    HW220823   3.557   2.580   0.577  1.1100  0.3458 -2.0121
 3064SOL     OW20824   0.904   1.144   1.372  0.1632  0.0555 -0.6552
 3064SOL    HW120825   0.998   1.130   1.386  0.4671  1.4488 -1.2573
 3064SOL    HW220826   0.891   1.239   1.374  1.1122  0.1383  1.3489
 3065SOL     OW20827   4.184   2.839  12.653  0.0256  0.3440 -0.0233
 3065SOL    HW120828   4.154   2.759  12.611  2.2301  0.0518 -1.0538
 3065SOL    HW220829   4.166   2.816  12.744 -2.8984 -0.4381 -0.8198
 3066SOL     OW20830   4.379   1.413   3.321 -0.5393 -0.1170 -0.5202
 3066SOL    HW120831   4.314   1.481   3.301 -0.7390 -0.6257 -1.5956
 3066SOL    HW220832   4.381   1.352   3.247  0.7253 -0.7437  0.0417
 3067SOL     OW20833   1.201   2.547   7.126 -0.0295 -0.5440 -0.0272
 3067SOL    HW120834   1.167   2.504   7.048  1.2701  0.4716 -1.1517
 3067SOL    HW220835   1.188   2.473   7.185 -0.8782 -0.9886 -0.7824
 3068SOL     OW20836   1.211   1.644  12.739  0.2006  0.0041 -0.4224
 3068SOL    HW120837   1.231   1.600  12.822  3.1007 -0.1486 -1.2183
 3068SOL    HW220838   1.256   1.575  12.690  0.8383 -0.0145  0.1819
 3069SOL     OW20839   2.753   4.352   0.844 -0.4588 -0.0068 -0.1134
 3069SOL    HW120840   2.821   4.294   0.878  0.7320  1.7276  0.4557
 3069SOL    HW220841   2.684   4.286   0.836  1.7223 -2.4096  0.5290
 3070SOL     OW20842   3.385   3.153   7.563  0.3855  0.4050  0.1582
 3070SOL    HW120843   3.453   3.219   7.579  1.0978 -0.0142 -1.1165
 3070SOL    HW220844   3.307   3.205   7.581  1.4797  2.0852  0.0454
 3071SOL     OW20845   4.347   0.060   9.556 -0.0040  0.1672  0.2098
 3071SOL    HW120846   4.308   4.714   9.528 -2.1681  1.3139 -0.1697
 3071SOL    HW220847   4.321   0.080   9.646 -1.5796 -1.7577  0.1754
 3072SOL     OW20848   0.722   3.033   8.543 -0.4304  0.0200  0.3890
 3072SOL    HW120849   0.651   2.972   8.566 -0.6129 -0.5146 -1.6150
 3072SOL    HW220850   0.699   3.056   8.453 -0.6415 -0.2416  0.3759
 3073SOL     OW20851   0.936   3.761  15.861 -0.3148  0.3280  0.7559
 3073SOL    HW120852   0.923   3.707  15.939 -0.0127  1.6157  1.7015
 3073SOL    HW220853   1.023   3.798  15.875 -0.0280 -1.0922  2.6455
 3074SOL     OW20854   0.085   1.115   8.586  0.1429 -0.3388 -0.2146
 3074SOL    HW120855   0.160   1.170   8.562  0.0618 -0.3520 -0.5033
 3074SOL    HW220856   0.029   1.181   8.627 -0.3134  0.1808 -1.6471
 3075SOL     OW20857   0.980   2.724   9.016  0.2021 -0.6232  0.0429
 3075SOL    HW120858   1.008   2.633   9.013 -1.2515 -1.0474 -0.2084
 3075SOL    HW220859   1.063   2.769   8.997  0.4544 -0.3955  1.6257
 3076SOL     OW20860   2.808   0.131   1.669  0.0151  0.2566  0.1360
 3076SOL    HW120861   2.741   0.199   1.676  0.0270  0.1417  1.3409
 3076SOL    HW220862   2.863   0.183   1.610  2.6243 -3.1081 -0.3770
 3077SOL     OW20863   4.010   0.950   6.241 -0.0883  0.1307  0.3136
 3077SOL    HW120864   4.053   1.034   6.224  0.3174 -0.6622 -2.6713
 3077SOL    HW220865   4.034   0.936   6.332 -0.6066 -0.5426  0.3424
 3078SOL     OW20866   3.482   0.096   4.120  0.3946  0.1868 -0.0258
 3078SOL    HW120867   3.565   0.062   4.152 -0.6890 -1.7735  0.7025
 3078SOL    HW220868   3.443   0.009   4.106  1.4710 -0.1712 -0.7917
 3079SOL     OW20869   0.763   3.062   3.311 -0.2981 -0.3884 -0.0555
 3079SOL    HW120870   0.802   3.019   3.388 -0.6942 -0.8382 -0.1043
 3079SOL    HW220871   0.829   3.127   3.288  0.2530 -1.0260 -0.2661
 3080SOL     OW20872   3.735   0.847   0.071  0.2501 -0.2212  0.9681
 3080SOL    HW120873   3.744   0.935   0.107  2.2635 -1.6704  4.0882
 3080SOL    HW220874   3.710   0.798   0.150 -0.4051 -0.3670  0.6686
 3081SOL     OW20875   2.608   0.483  12.297  0.2275 -0.9744  0.1196
 3081SOL    HW120876   2.573   0.414  12.353  1.0229 -0.1531  1.6109
 3081SOL    HW220877   2.527   0.534  12.289  1.8418  1.6820  1.0708
 3082SOL     OW20878   4.189   3.935  11.515 -0.4184 -0.4951  0.5196
 3082SOL    HW120879   4.096   3.954  11.519 -0.1831  0.3255  1.7383
 3082SOL    HW220880   4.229   3.976  11.591  0.4911 -1.4238  0.5498
 3083SOL     OW20881   1.641   1.094   1.932  0.2145  0.0337  0.1847
 3083SOL    HW120882   1.688   1.159   1.985  0.8326 -1.2188  1.1758
 3083SOL    HW220883   1.634   1.134   1.846  3.1287 -1.8049 -0.8979
 3084SOL     OW20884   3.710   0.272   2.126  0.0883  0.0792 -0.5347
 3084SOL    HW120885   3.694   0.312   2.211  1.2943 -1.0696  0.2429
 3084SOL    HW220886   3.626   0.264   2.080 -0.5178  0.9253  0.4515
 3085SOL     OW20887   4.011   4.136   8.563  0.3761 -0.4398  0.6149
 3085SOL    HW120888   4.098   4.099   8.552 -0.1787 -1.1801 -1.2963
 3085SOL    HW220889   4.028   4.220   8.607  0.4242 -1.3070  2.2310
 3086SOL     OW20890   1.744   2.849  17.647 -0.2626  0.4234 -0.2905
 3086SOL    HW120891   1.778   2.762  17.666  2.6915  1.6913  0.2249
 3086SOL    HW220892   1.830   2.891  17.642 -0.0947  0.0271 -0.7034
 3087SOL     OW20893   0.087   4.712  13.084 -0.5581 -0.6988  0.0521
 3087SOL    HW120894   0.098   0.070  13.090  0.3910 -0.8031 -0.1073
 3087SOL    HW220895   0.170   4.687  13.124 -0.6469 -0.3129  0.4826
 3088SOL     OW20896   3.927   2.990   3.691 -0.1222 -0.3623 -0.4351
 3088SOL    HW120897   3.839   2.982   3.728 -0.4117 -1.9364 -1.4626
 3088SOL    HW220898   3.904   2.966   3.601  0.3027 -2.3207 -0.0190
 3089SOL     OW20899   2.352   1.488   7.310 -0.1281 -0.2852 -0.2241
 3089SOL    HW120900   2.447   1.494   7.310 -0.2343  1.3716  0.5460
 3089SOL    HW220901   2.348   1.392   7.316 -2.0010 -0.2172 -0.1351
 3090SOL     OW20902   0.710   1.653   9.501 -0.7088  0.0450  0.4331
 3090SOL    HW120903   0.647   1.596   9.544 -0.1474 -0.9639 -0.0996
 3090SOL    HW220904   0.787   1.631   9.555 -1.4302 -1.2645  0.9118
 3091SOL     OW20905   1.592   0.632   7.075 -0.7727  0.4245 -0.2638
 3091SOL    HW120906   1.672   0.580   7.064  0.4697  1.9735  1.4546
 3091SOL    HW220907   1.520   0.571   7.057 -1.5153  0.3090  3.0770
 3092SOL     OW20908   3.545   1.573   8.010  0.5605 -0.1681 -0.4258
 3092SOL    HW120909   3.474   1.598   7.950  0.8663  0.8449 -0.3708
 3092SOL    HW220910   3.509   1.537   8.091  1.2313  0.8240  0.3130
 3093SOL     OW20911   2.879   2.705   4.769  0.2166  0.2760 -0.1769
 3093SOL    HW120912   2.947   2.641   4.788 -0.8568 -0.7618  0.1933
 3093SOL    HW220913   2.795   2.665   4.793 -0.8266  2.0960 -0.8500
 3094SOL     OW20914   2.324   3.861   2.226 -0.1631  0.2722  0.0846
 3094SOL    HW120915   2.361   3.808   2.297  2.7725  1.8846 -0.2434
 3094SOL    HW220916   2.236   3.865   2.265 -0.3377  1.1053 -0.3814
 3095SOL     OW20917   2.060   1.182   1.943 -0.3069  0.3801  0.4674
 3095SOL    HW120918   2.015   1.105   1.978 -0.9964  0.8714  0.6681
 3095SOL    HW220919   1.996   1.241   1.903 -1.2944 -0.2217  1.1574
 3096SOL     OW20920   4.719   1.542  14.663 -0.3119 -0.0476  0.2825
 3096SOL    HW120921   0.060   1.596  14.674  1.1356 -1.5256 -2.6337
 3096SOL    HW220922   4.693   1.530  14.754 -0.5286  2.5957  0.5570
 3097SOL     OW20923   3.527   0.448   2.601  0.1160  0.1077 -0.3233
 3097SOL    HW120924   3.491   0.527   2.561 -0.3476 -0.2043 -0.5172
 3097SOL    HW220925   3.594   0.497   2.648  0.2024  1.2919 -1.6916
 3098SOL     OW20926   1.638   2.625   0.201  0.1762 -0.4520 -0.1598
 3098SOL    HW120927   1.690   2.616   0.281 -1.2749  0.3900  0.8767
 3098SOL    HW220928   1.571   2.556   0.209 -2.8968  2.8308  2.3832
 3099SOL     OW20929   2.356   4.247   7.450 -0.0617 -0.9144 -0.0573
 3099SOL    HW120930   2.435   4.227   7.400 -0.4276  1.1803 -1.4547
 3099SOL    HW220931   2.368   4.191   7.527 -1.7546 -0.4761  0.5250
 3100SOL     OW20932   0.863   1.568   8.125 -0.2703  0.1913 -0.5780
 3100SOL    HW120933   0.791   1.619   8.087 -0.9273  1.7969  2.8180
 3100SOL    HW220934   0.815   1.518   8.191 -1.4309  1.4476 -0.4619
 3101SOL     OW20935   3.052   0.991   2.897  0.0974 -0.1495  0.0866
 3101SOL    HW120936   3.128   0.967   2.843  2.2081  0.9005  2.5558
 3101SOL    HW220937   3.058   0.926   2.967  1.4200  1.0094  1.0626
 3102SOL     OW20938   0.308   0.061   9.974  0.2500 -0.1950 -0.5920
 3102SOL    HW120939   0.260   4.715   9.963 -0.3700  0.2974 -1.5269
 3102SOL    HW220940   0.337   0.054  10.065 -0.7908  0.5121 -0.1969
 3103SOL     OW20941   2.935   2.560   0.899 -0.3226  0.0118  0.0389
 3103SOL    HW120942   3.015   2.517   0.927  0.0494 -1.3163 -3.1547
 3103SOL    HW220943   2.884   2.557   0.981  0.1757 -0.0994  0.3433
 3104SOL     OW20944   3.004   3.672   4.952 -0.0237 -0.7296  0.2606
 3104SOL    HW120945   3.095   3.687   4.976 -0.1569  0.1922  0.1832
 3104SOL    HW220946   2.948   3.711   5.020 -1.0994 -0.7237 -0.6217
 3105SOL     OW20947   3.675   0.131   6.277 -0.0210 -0.9961  0.7455
 3105SOL    HW120948   3.700   0.148   6.186 -0.8478  0.4530  0.7915
 3105SOL    HW220949   3.753   0.103   6.326 -0.2386 -1.5644  0.7730
 3106SOL     OW20950   0.949   2.327  14.167  0.2245 -0.1181  0.0660
 3106SOL    HW120951   0.907   2.347  14.083  1.6104  1.3774 -0.2751
 3106SOL    HW220952   0.981   2.238  14.152  1.8015  0.3383  0.7698
 3107SOL     OW20953   0.309   1.150   9.435 -0.0767 -0.2952  0.5638
 3107SOL    HW120954   0.236   1.195   9.478  0.3175  1.1025 -0.2247
 3107SOL    HW220955   0.363   1.222   9.403  0.7289 -1.3604 -0.4712
 3108SOL     OW20956   0.590   0.011  16.472  0.2330 -0.0598  0.2439
 3108SOL    HW120957   0.612   0.093  16.428 -0.7632 -0.4630 -1.0033
 3108SOL    HW220958   0.661   0.004  16.536  0.0885  0.6403  0.4717
 3109SOL     OW20959   0.605   3.918  10.861 -0.3512 -0.2083 -0.3635
 3109SOL    HW120960   0.577   4.010  10.863 -0.1036 -0.1555  0.7288
 3109SOL    HW220961   0.517   3.885  10.847  0.2496 -1.8858 -0.1459
 3110SOL     OW20962   0.052   2.895  12.703 -0.3215  0.2360  0.2087
 3110SOL    HW120963   0.062   2.908  12.798 -0.7720 -0.5615  0.3690
 3110SOL    HW220964   0.061   2.983  12.667  3.0443 -0.4365 -0.5591
 3111SOL     OW20965   0.803   3.226   3.841 -0.4697  0.6096 -0.2619
 3111SOL    HW120966   0.721   3.210   3.795  0.0783  0.2317 -1.0988
 3111SOL    HW220967   0.834   3.141   3.873 -1.0858 -0.3283 -2.1661
 3112SOL     OW20968   4.256   3.040   0.939  0.3890  0.3619 -0.2077
 3112SOL    HW120969   4.246   2.996   1.024  1.0691 -0.4187 -0.5336
 3112SOL    HW220970   4.350   3.036   0.922 -0.2694 -0.9140 -3.4003
 3113SOL     OW20971   1.800   3.043   3.437  0.7170 -0.1409  0.2127
 3113SOL    HW120972   1.894   3.060   3.443  0.3070  3.0853 -2.9527
 3113SOL    HW220973   1.782   2.964   3.487  1.1840  0.1782  0.8936
 3114SOL     OW20974   1.832   1.825  13.159  0.5972  0.1828 -0.2228
 3114SOL    HW120975   1.863   1.911  13.189  2.1321  0.2296 -1.9053
 3114SOL    HW220976   1.901   1.763  13.182  0.8313  0.0683 -1.2602
 3115SOL     OW20977   3.044   4.682   0.584 -0.0374  0.2291 -0.3704
 3115SOL    HW120978   3.102   4.701   0.658  0.0850 -1.5435 -0.0147
 3115SOL    HW220979   2.960   4.686   0.629 -0.0569  0.2979 -0.4128
 3116SOL     OW20980   3.254   3.500  10.973 -0.4068  0.0212 -0.1276
 3116SOL    HW120981   3.301   3.527  11.051  0.7236 -1.3517 -0.3308
 3116SOL    HW220982   3.248   3.576  10.916  0.5921 -0.8104 -1.3445
 3117SOL     OW20983   0.631   3.274   6.823  0.2136  0.1118 -0.1511
 3117SOL    HW120984   0.716   3.296   6.861 -0.5229  0.2833  1.3589
 3117SOL    HW220985   0.663   3.242   6.739 -1.8284  0.5707 -1.1008
 3118SOL     OW20986   2.744   3.653   2.782 -0.1819  0.0624 -0.5898
 3118SOL    HW120987   2.709   3.591   2.718 -1.5415  1.6070 -1.3266
 3118SOL    HW220988   2.814   3.693   2.730  1.0104 -3.1579 -1.5117
 3119SOL     OW20989   1.257   1.355   6.659  0.5318 -0.1730  0.2071
 3119SOL    HW120990   1.286   1.279   6.608 -0.4973  1.2908 -2.5788
 3119SOL    HW220991   1.298   1.427   6.610  0.9547 -0.2297  0.4763
 3120SOL     OW20992   3.057   2.518   2.333 -0.3830  0.1501 -0.2355
 3120SOL    HW120993   2.980   2.573   2.319 -0.3295  0.5196  0.8873
 3120SOL    HW220994   3.107   2.587   2.378 -1.0007 -0.1800  0.9588
 3121SOL     OW20995   4.598   0.662   7.960 -0.3582  0.4166  0.2093
 3121SOL    HW120996   4.543   0.602   8.010 -1.4553 -0.3153 -1.8559
 3121SOL    HW220997   4.619   0.603   7.888  1.4402  0.6101  0.5909
 3122SOL     OW20998   3.422   1.220   2.383  0.5595 -0.2609 -0.4032
 3122SOL    HW120999   3.427   1.126   2.399  0.9205  0.2735  2.5247
 3122SOL    HW221000   3.367   1.254   2.453  1.6774 -0.4701  0.5605
 3123SOL     OW21001   2.710   1.510   5.595  0.0280 -0.0325  0.0821
 3123SOL    HW121002   2.772   1.451   5.552  0.9983  2.0082 -1.3395
 3123SOL    HW221003   2.628   1.462   5.607 -0.2309  0.2601 -0.4740
 3124SOL     OW21004   3.951   3.387   2.282  0.2109  0.1986  0.1252
 3124SOL    HW121005   3.968   3.393   2.188  0.7023  0.5864  0.2413
 3124SOL    HW221006   4.036   3.363   2.318 -0.2146 -1.1330  0.2762
 3125SOL     OW21007   0.407   3.158   6.885 -0.1548 -0.3762  0.2861
 3125SOL    HW121008   0.490   3.174   6.840  1.2734 -0.8270  2.7982
 3125SOL    HW221009   0.445   3.118   6.963 -0.1042 -0.2564  0.3225
 3126SOL     OW21010   1.117   2.630  10.626 -0.0598  0.3548  0.1365
 3126SOL    HW121011   1.168   2.711  10.630 -0.3166  0.6016 -1.4290
 3126SOL    HW221012   1.093   2.610  10.716  0.6026 -3.2956 -0.4881
 3127SOL     OW21013   0.854   4.353   4.354 -0.7790  0.0833  0.1088
 3127SOL    HW121014   0.895   4.311   4.430 -2.0966 -2.4815 -0.5725
 3127SOL    HW221015   0.909   4.430   4.341  0.6792 -1.2159 -1.4323
 3128SOL     OW21016   0.813   2.647   8.365 -0.3107 -0.4830  0.1053
 3128SOL    HW121017   0.823   2.706   8.440 -2.2742 -0.0847  0.0578
 3128SOL    HW221018   0.718   2.636   8.371 -0.1465 -1.6266  0.4162
 3129SOL     OW21019   0.534   3.800  13.724  0.2748 -0.3680  0.2209
 3129SOL    HW121020   0.567   3.850  13.799  3.0030 -1.4806 -0.2254
 3129SOL    HW221021   0.465   3.751  13.769  1.2163 -3.0179 -1.1945
 3130SOL     OW21022   0.849   0.027   5.142 -0.4096  0.0297 -0.5719
 3130SOL    HW121023   0.894   4.724   5.067  1.3016 -0.0610  0.5091
 3130SOL    HW221024   0.824   0.105   5.093 -0.9716  0.0216 -0.2928
 3131SOL     OW21025   4.201   3.736   7.170  0.1385  0.4536 -0.2536
 3131SOL    HW121026   4.220   3.822   7.132  1.7169  0.5842  0.8412
 3131SOL    HW221027   4.216   3.762   7.261  0.7461 -2.6716  0.5407
 3132SOL     OW21028   2.712   4.240   2.586 -0.2601 -0.3964  0.0691
 3132SOL    HW121029   2.652   4.314   2.587  3.2375  2.4505 -0.4333
 3132SOL    HW221030   2.661   4.186   2.646 -1.4503  1.8234  1.0425
 3133SOL     OW21031   2.135   0.500   6.270 -0.3089  0.1158 -0.0882
 3133SOL    HW121032   2.068   0.434   6.289 -0.8939  1.1535  1.4673
 3133SOL    HW221033   2.201   0.444   6.230  0.2154 -0.5809  1.7185
 3134SOL     OW21034   1.786   4.475   8.979  0.1680  0.3550 -0.1892
 3134SOL    HW121035   1.875   4.464   9.014  0.5631  1.5757 -0.8247
 3134SOL    HW221036   1.811   4.520   8.898  0.8106  0.0498 -0.1618
 3135SOL     OW21037   3.201   3.159  17.358 -0.6252 -0.0811  0.1706
 3135SOL    HW121038   3.204   3.131  17.450  0.0644  0.6786  0.3813
 3135SOL    HW221039   3.272   3.222  17.345  1.5419 -2.7741 -0.8951
 3136SOL     OW21040   1.363   4.543   7.638 -1.2349  0.1569  0.0276
 3136SOL    HW121041   1.406   4.459   7.655  0.5369  1.2582  0.9838
 3136SOL    HW221042   1.440   4.599   7.645 -0.3477 -0.9899 -0.5672
 3137SOL     OW21043   2.351   4.574   7.843  0.0724 -0.5906  0.1856
 3137SOL    HW121044   2.334   4.512   7.772  3.8393 -1.2614 -0.1676
 3137SOL    HW221045   2.293   4.646   7.819  1.8254  0.2191 -1.6239
 3138SOL     OW21046   4.315   4.438   1.065 -0.0472  0.3425  0.1347
 3138SOL    HW121047   4.335   4.370   1.000  1.0068 -0.4078  1.2482
 3138SOL    HW221048   4.222   4.432   1.090  0.0261 -1.9850 -0.0956
 3139SOL     OW21049   2.647   4.399   7.663 -0.5493  0.1003  0.6816
 3139SOL    HW121050   2.701   4.322   7.648 -1.4706 -0.8417  2.2599
 3139SOL    HW221051   2.717   4.464   7.669 -0.7435  0.4091 -0.4303
 3140SOL     OW21052   0.283   1.089  13.162 -0.2137  0.1094 -0.6786
 3140SOL    HW121053   0.237   1.007  13.144  0.3523 -0.4962  0.6176
 3140SOL    HW221054   0.344   1.060  13.230 -1.8040  0.6739  0.9904
 3141SOL     OW21055   3.187   1.867  15.089  0.1164 -0.1204  0.1657
 3141SOL    HW121056   3.256   1.930  15.068 -0.9180  1.4953  1.6087
 3141SOL    HW221057   3.163   1.847  14.999  1.3398  1.8932 -0.6193
 3142SOL     OW21058   4.347   4.720   6.534  0.2037  0.0405 -0.1616
 3142SOL    HW121059   4.384   4.699   6.448 -0.6277  1.2029 -0.8027
 3142SOL    HW221060   4.341   0.079   6.524  1.5883  0.1581  0.1090
 3143SOL     OW21061   3.854   1.344   1.160 -0.5801 -0.2529 -0.6475
 3143SOL    HW121062   3.811   1.274   1.210 -0.3839 -0.9722 -1.4910
 3143SOL    HW221063   3.840   1.317   1.069  0.6540  0.1768 -0.9652
 3144SOL     OW21064   1.653   0.159   2.134  0.5326 -0.6977 -0.5331
 3144SOL    HW121065   1.645   0.226   2.202  2.8346 -1.7722  0.7951
 3144SOL    HW221066   1.748   0.165   2.123  0.5947 -2.0357 -0.7997
 3145SOL     OW21067   0.043   4.634   2.146  0.5784 -0.0066  0.0945
 3145SOL    HW121068   0.122   4.678   2.175  1.4284  0.1008 -2.3731
 3145SOL    HW221069   4.717   4.673   2.208 -1.3887 -0.3791 -1.6419
 3146SOL     OW21070   1.516   4.657  14.059  0.1443 -0.2578  0.0583
 3146SOL    HW121071   1.575   4.584  14.040  0.6986  0.4801 -1.0406
 3146SOL    HW221072   1.429   4.618  14.048 -0.6768  1.4755  0.2921
 3147SOL     OW21073   0.149   0.953   9.072  0.0533 -0.5915  0.0116
 3147SOL    HW121074   0.125   1.042   9.044 -1.3307 -1.6456 -2.1758
 3147SOL    HW221075   0.225   0.971   9.128  1.4845 -1.1079 -1.7525
 3148SOL     OW21076   3.180   1.929  13.099  0.4191 -0.0038 -0.0516
 3148SOL    HW121077   3.183   1.835  13.082  0.6834 -0.0248  0.1165
 3148SOL    HW221078   3.256   1.944  13.155 -1.0104  0.9821  1.6314
 3149SOL     OW21079   0.743   3.480   8.183 -0.4161  0.0818  0.0137
 3149SOL    HW121080   0.702   3.538   8.119  1.1124  1.4764  0.2952
 3149SOL    HW221081   0.728   3.514   8.272  1.1867  1.9238 -0.4110
 3150SOL     OW21082   0.669   3.104   4.060 -0.0811 -0.2179 -0.5219
 3150SOL    HW121083   0.760   3.113   4.033 -0.1767 -0.0007 -0.7690
 3150SOL    HW221084   0.652   3.019   4.020  1.0655 -1.2351  1.1488
 3151SOL     OW21085   3.826   2.461   2.752 -0.1222  0.6395  0.2680
 3151SOL    HW121086   3.812   2.393   2.818 -1.8032 -0.4913 -1.2653
 3151SOL    HW221087   3.759   2.444   2.686  0.4884  1.7326 -0.6352
 3152SOL     OW21088   0.839   3.337   5.603  0.4421 -0.3782  0.0437
 3152SOL    HW121089   0.785   3.262   5.580 -0.5946  0.2401  0.4816
 3152SOL    HW221090   0.844   3.318   5.697  0.7309  2.4253  0.6044
 3153SOL     OW21091   2.727   3.918  15.554 -0.3119 -0.1802 -0.5953
 3153SOL    HW121092   2.671   3.994  15.569  0.2166  0.1890 -0.5024
 3153SOL    HW221093   2.817   3.948  15.544 -0.4490  0.1067 -0.9342
 3154SOL     OW21094   1.226   0.965   7.499  0.2668 -0.2093 -0.1586
 3154SOL    HW121095   1.137   0.967   7.533 -0.2887 -2.8015 -1.4875
 3154SOL    HW221096   1.264   1.014   7.572  0.1493  0.5197 -0.5822
 3155SOL     OW21097   2.484   2.020   5.802  0.1239 -0.2089  0.2624
 3155SOL    HW121098   2.447   2.098   5.760  0.7215  1.7770  3.4212
 3155SOL    HW221099   2.540   2.061   5.867  0.6348  0.7919 -0.8086
 3156SOL     OW21100   0.412   4.397   2.104  0.3597  0.1551  0.3438
 3156SOL    HW121101   0.504   4.402   2.081  0.3237 -0.6396  0.0438
 3156SOL    HW221102   0.405   4.417   2.198 -0.1299  0.3395  0.2684
 3157SOL     OW21103   3.503   0.879  10.061 -0.0289 -0.6202 -0.3144
 3157SOL    HW121104   3.485   0.942  10.131  2.7289  2.1541 -2.0816
 3157SOL    HW221105   3.434   0.814  10.073 -0.6861  0.1583  0.1262
 3158SOL     OW21106   2.897   1.837  12.461  0.3582 -0.2894  0.1747
 3158SOL    HW121107   2.933   1.911  12.413  2.7777 -1.5488  0.0498
 3158SOL    HW221108   2.873   1.876  12.545  0.5383 -1.0846  0.5975
 3159SOL     OW21109   1.194   2.198   2.970  0.4818 -0.2346 -0.0855
 3159SOL    HW121110   1.176   2.210   2.877  0.7047  0.4867 -0.0405
 3159SOL    HW221111   1.187   2.288   3.001  0.1170 -0.9368  1.8780
 3160SOL     OW21112   2.263   1.213  16.972 -0.2098  0.4202  0.1151
 3160SOL    HW121113   2.275   1.124  17.004  0.2556  0.4976  0.1531
 3160SOL    HW221114   2.167   1.216  16.970 -0.2387 -1.5427 -2.1431
 3161SOL     OW21115   3.037   2.197   8.908  0.4402  0.1727 -0.0278
 3161SOL    HW121116   3.116   2.240   8.875  0.7727 -1.1373 -0.9093
 3161SOL    HW221117   2.964   2.254   8.882  0.1456 -0.1559  0.0792
 3162SOL     OW21118   3.864   2.501   1.511  0.0252  0.6379  0.2158
 3162SOL    HW121119   3.952   2.528   1.487  0.3705 -0.7654 -0.0799
 3162SOL    HW221120   3.826   2.588   1.523 -0.8916  0.4587 -1.2481
 3163SOL     OW21121   4.330   3.817  12.814  0.0752 -0.0331 -0.0848
 3163SOL    HW121122   4.411   3.785  12.854  1.5050  3.6652 -0.0813
 3163SOL    HW221123   4.273   3.741  12.828  2.0690 -1.3986  0.6890
 3164SOL     OW21124   3.639   0.475   4.657 -0.5716 -0.3307  0.0251
 3164SOL    HW121125   3.604   0.526   4.583 -0.1749  1.9106  1.3964
 3164SOL    HW221126   3.642   0.388   4.617  0.7643 -0.2958  0.0479
 3165SOL     OW21127   1.170   1.317  17.487 -0.0420 -0.2436  0.2978
 3165SOL    HW121128   1.155   1.265  17.566  3.2442  0.8556  1.6877
 3165SOL    HW221129   1.165   1.246  17.423  2.5511 -1.6981  1.6998
 3166SOL     OW21130   1.589   1.133   5.177 -0.0810  0.7713 -0.0080
 3166SOL    HW121131   1.637   1.210   5.206  1.5801 -0.5895  0.8162
 3166SOL    HW221132   1.593   1.080   5.257  1.4491  1.1186  0.1344
 3167SOL     OW21133   0.312   3.895   3.802 -0.7894  1.0489  0.3373
 3167SOL    HW121134   0.226   3.873   3.837 -0.1386 -1.1787  0.4957
 3167SOL    HW221135   0.331   3.965   3.864 -0.3695 -0.2006  1.6036
 3168SOL     OW21136   1.355   4.027   9.845  0.3667  0.3486  0.2323
 3168SOL    HW121137   1.420   4.073   9.899  1.9445 -0.3660 -1.0336
 3168SOL    HW221138   1.271   4.045   9.886  0.2453  0.2187  0.0411
 3169SOL     OW21139   3.875   3.418  17.047 -0.3311 -0.1520 -0.2914
 3169SOL    HW121140   3.923   3.368  16.981 -0.5071  0.7992 -1.1354
 3169SOL    HW221141   3.792   3.374  17.065 -0.0817 -1.0279 -1.2430
 3170SOL     OW21142   2.138   4.355   8.552  1.0260 -0.0005 -1.0128
 3170SOL    HW121143   2.192   4.426   8.517  2.0557  0.8310  2.2685
 3170SOL    HW221144   2.081   4.392   8.618  0.1517 -0.5522 -1.4626
 3171SOL     OW21145   1.578   3.325   7.760  0.4762 -0.7576 -0.0577
 3171SOL    HW121146   1.553   3.360   7.845  2.7260  2.5879 -0.7899
 3171SOL    HW221147   1.569   3.233   7.786 -0.9974 -0.4997  0.3619
 3172SOL     OW21148   2.371   1.770   5.727 -0.1008  0.6560 -0.6431
 3172SOL    HW121149   2.380   1.726   5.811 -2.7755 -0.7137 -1.0616
 3172SOL    HW221150   2.393   1.858   5.757 -0.5917 -0.1960  2.1849
 3173SOL     OW21151   0.778   2.115  12.627 -0.3838  0.6713  0.1432
 3173SOL    HW121152   0.718   2.137  12.556 -0.4124 -0.3462 -0.1413
 3173SOL    HW221153   0.725   2.155  12.696  3.8155  0.9908  3.1852
 3174SOL     OW21154   3.863   1.693   3.529 -0.1233  0.4158  0.3516
 3174SOL    HW121155   3.823   1.714   3.614  1.6486 -1.2858  1.6031
 3174SOL    HW221156   3.883   1.602   3.551 -3.7947 -0.1459  1.3523
 3175SOL     OW21157   1.574   1.727  12.068 -0.7801 -0.4907 -0.7582
 3175SOL    HW121158   1.641   1.780  12.111 -0.5283 -1.5029  0.1033
 3175SOL    HW221159   1.624   1.657  12.025  1.3838 -1.2451  2.9514
 3176SOL     OW21160   1.717   0.921   4.353  0.0942 -0.0089  0.5907
 3176SOL    HW121161   1.645   0.870   4.315 -0.0092 -0.0529  0.8474
 3176SOL    HW221162   1.789   0.896   4.294  0.8466 -0.3286  1.6295
 3177SOL     OW21163   3.502   2.920   1.468  0.0687 -0.1144 -0.2086
 3177SOL    HW121164   3.467   2.952   1.551 -2.7812 -1.0187 -1.0667
 3177SOL    HW221165   3.548   2.997   1.436  1.0632 -0.6483 -0.0968
 3178SOL     OW21166   3.555   1.288  15.069  0.1469  0.0739  0.2409
 3178SOL    HW121167   3.649   1.292  15.088  0.4877  1.1722 -1.6057
 3178SOL    HW221168   3.563   1.354  15.000  0.1506 -0.4786 -0.2907
 3179SOL     OW21169   2.888   0.266   5.002  0.5988  0.0506  0.9156
 3179SOL    HW121170   2.916   0.178   4.976 -0.0122  0.0493  0.2847
 3179SOL    HW221171   2.914   0.316   4.925  1.3389  1.2169  1.9206
 3180SOL     OW21172   0.516   3.908  11.462  0.5776 -0.0620 -0.4279
 3180SOL    HW121173   0.432   3.952  11.452  1.9889  2.5466 -0.8817
 3180SOL    HW221174   0.573   3.981  11.439 -1.6384  1.3586 -1.4107
 3181SOL     OW21175   3.861   3.607   4.417 -0.2212  0.1308 -0.5972
 3181SOL    HW121176   3.928   3.675   4.421 -0.1386 -0.0547  0.9427
 3181SOL    HW221177   3.913   3.527   4.412  1.9064  1.4660  0.2637
 3182SOL     OW21178   2.940   1.786  15.158 -0.0768  0.2347  0.2727
 3182SOL    HW121179   3.029   1.809  15.132  0.7937 -2.3652  0.9910
 3182SOL    HW221180   2.939   1.700  15.116  1.0875  0.7783 -0.8543
 3183SOL     OW21181   0.335   1.400   9.633  0.3229 -0.3510 -0.2348
 3183SOL    HW121182   0.273   1.340   9.591 -1.7360  1.7030 -0.1595
 3183SOL    HW221183   0.315   1.482   9.588  0.6147  0.0344  0.3338
 3184SOL     OW21184   0.606   1.443   4.953  0.1000 -0.0200  0.0508
 3184SOL    HW121185   0.548   1.384   4.905  0.8589 -0.8011  0.0888
 3184SOL    HW221186   0.632   1.394   5.031  2.0515  0.3502 -0.3821
 3185SOL     OW21187   0.399   0.754  13.616  0.2051 -0.3613  0.2122
 3185SOL    HW121188   0.379   0.825  13.677  0.6526 -0.8457  0.9319
 3185SOL    HW221189   0.314   0.746  13.573 -0.6143 -2.7102  2.2367
 3186SOL     OW21190   2.263   1.746   2.451 -0.5379  0.0457  0.9650
 3186SOL    HW121191   2.273   1.841   2.440 -1.1742 -0.0273 -0.2776
 3186SOL    HW221192   2.339   1.712   2.405 -2.2185  0.2238 -1.9670
 3187SOL     OW21193   4.102   2.114   1.524  0.3423 -0.1881 -0.6151
 3187SOL    HW121194   4.045   2.055   1.474 -0.3810 -0.6214  0.7350
 3187SOL    HW221195   4.188   2.095   1.486 -0.6236 -3.2637 -1.2765
 3188SOL     OW21196   0.240   4.326   4.852  0.6803  0.2731 -0.7160
 3188SOL    HW121197   0.192   4.393   4.900 -0.6490 -0.4045 -1.0939
 3188SOL    HW221198   0.167   4.263   4.850 -0.7519  1.9324 -0.3676
 3189SOL     OW21199   4.493   3.617   2.857  0.5602 -0.1167 -0.3175
 3189SOL    HW121200   4.540   3.697   2.878  0.5395  0.1084 -1.1273
 3189SOL    HW221201   4.441   3.638   2.780 -2.1126 -0.6290  1.3328
 3190SOL     OW21202   4.481   1.788   3.650 -0.3115 -0.0789 -0.2709
 3190SOL    HW121203   4.502   1.771   3.558 -0.7962  1.1212 -0.6084
 3190SOL    HW221204   4.543   1.732   3.698  1.1560  0.5187 -1.4466
 3191SOL     OW21205   2.826   2.825   4.124 -0.1612 -0.1179 -0.4288
 3191SOL    HW121206   2.770   2.831   4.047 -0.3768 -0.5731 -0.3045
 3191SOL    HW221207   2.795   2.746   4.168  1.9616 -1.3852 -1.2326
 3192SOL     OW21208   1.446   0.663  11.981  0.0537  0.1580 -0.4010
 3192SOL    HW121209   1.457   0.604  12.055  0.9672  1.7510  0.7320
 3192SOL    HW221210   1.405   0.602  11.919  1.0917 -1.2884  0.3371
 3193SOL     OW21211   0.274   1.706   2.226 -0.1888  0.0084  0.4842
 3193SOL    HW121212   0.198   1.670   2.181  0.0327  0.0247  0.1006
 3193SOL    HW221213   0.312   1.626   2.263 -0.7618  0.5067  2.1366
 3194SOL     OW21214   4.418   0.467   8.396 -0.1993  0.5503 -0.0454
 3194SOL    HW121215   4.431   0.512   8.479  1.1252  0.6536 -0.3060
 3194SOL    HW221216   4.436   0.374   8.412 -0.0020  1.0607  2.6015
 3195SOL     OW21217   0.004   0.327   4.661  0.2078  0.0362  0.2665
 3195SOL    HW121218   4.666   0.306   4.606  0.6693  0.1990 -0.4286
 3195SOL    HW221219   4.724   0.271   4.737  0.4181 -0.7150 -0.2296
 3196SOL     OW21220   4.477   0.230   2.222  0.1819 -0.1512  0.5877
 3196SOL    HW121221   4.437   0.168   2.161  0.1218  0.9162 -0.4600
 3196SOL    HW221222   4.562   0.238   2.179 -0.0397  0.2646  0.2269
 3197SOL     OW21223   3.747   1.768   3.815  0.1202  0.3520 -0.3031
 3197SOL    HW121224   3.712   1.839   3.869  2.4275 -0.8724  2.8233
 3197SOL    HW221225   3.680   1.700   3.821  0.6477 -0.0189  1.5919
 3198SOL     OW21226   1.810   3.015   0.384 -0.1103  0.2359 -0.4036
 3198SOL    HW121227   1.737   2.984   0.330 -0.3171  2.6279 -1.5083
 3198SOL    HW221228   1.807   2.947   0.451 -0.1270  0.4837 -0.1540
 3199SOL     OW21229   0.157   2.016   6.074  0.5756  0.3424  0.8899
 3199SOL    HW121230   0.094   2.035   6.143  0.3255 -0.1715  0.7959
 3199SOL    HW221231   0.102   2.040   5.999  0.2883 -0.6214  0.8031
 3200SOL     OW21232   0.176   4.527   3.121  0.2934  0.1818  0.3437
 3200SOL    HW121233   0.263   4.500   3.093  0.5510  0.5041  0.8333
 3200SOL    HW221234   0.156   4.468   3.194  1.6059 -1.1176 -0.3512
 3201SOL     OW21235   1.379   0.969   8.867  0.0194 -0.4783 -1.0022
 3201SOL    HW121236   1.375   0.917   8.947 -1.0374  0.0085 -0.7297
 3201SOL    HW221237   1.474   0.975   8.857 -0.2879  0.5525 -3.3438
 3202SOL     OW21238   0.781   1.715   2.288  0.5629 -0.4792  0.4103
 3202SOL    HW121239   0.849   1.744   2.227  1.3350  0.8416  1.9095
 3202SOL    HW221240   0.704   1.729   2.232  2.0535  0.3921 -1.4085
 3203SOL     OW21241   0.663   1.804  13.806  0.3819  0.6789 -0.4558
 3203SOL    HW121242   0.720   1.746  13.858 -1.6726 -0.2090  0.7822
 3203SOL    HW221243   0.587   1.746  13.809  1.4346 -0.4600  3.6424
 3204SOL     OW21244   1.272   1.621   5.166 -0.2458  0.2464  0.3373
 3204SOL    HW121245   1.306   1.628   5.255 -1.6817 -0.3928  0.9313
 3204SOL    HW221246   1.183   1.589   5.181 -0.3774  1.2891  1.7037
 3205SOL     OW21247   1.250   1.389  12.581 -0.2828 -0.4399 -0.1758
 3205SOL    HW121248   1.258   1.330  12.656 -0.1577 -1.8252 -1.2905
 3205SOL    HW221249   1.334   1.368  12.542 -1.6043 -0.7855 -2.8050
 3206SOL     OW21250   3.901   1.556   9.294 -0.2454 -0.0346 -0.1435
 3206SOL    HW121251   3.839   1.613   9.340 -1.0451 -1.5498  0.6469
 3206SOL    HW221252   3.850   1.478   9.275  1.0955 -1.3154  1.5621
 3207SOL     OW21253   1.265   1.216   8.796  0.8063  0.1668 -0.3679
 3207SOL    HW121254   1.315   1.142   8.829  1.1510  1.1670  1.3400
 3207SOL    HW221255   1.221   1.167   8.726  2.3682  0.5560 -1.6130
 3208SOL     OW21256   0.504   4.624   9.396  0.3068  0.4785  0.2825
 3208SOL    HW121257   0.574   4.672   9.441  1.1031  0.3571 -0.8229
 3208SOL    HW221258   0.429   4.640   9.453 -1.7772 -2.9554 -1.5262
 3209SOL     OW21259   2.982   2.695   9.195  0.0687  0.0288  0.0338
 3209SOL    HW121260   2.910   2.741   9.238 -0.2474 -2.3455  2.0263
 3209SOL    HW221261   3.061   2.727   9.240 -0.0769  0.2906  0.1012
 3210SOL     OW21262   3.487   0.282   1.995 -0.0577 -0.4375  0.5209
 3210SOL    HW121263   3.417   0.220   1.979  1.3260 -1.4112 -1.9024
 3210SOL    HW221264   3.437   0.362   2.011 -0.3553 -0.4156 -0.4716
 3211SOL     OW21265   0.983   2.912  11.885  0.3528 -0.8937  0.1041
 3211SOL    HW121266   1.055   2.881  11.829  0.2309  0.6573 -0.8918
 3211SOL    HW221267   1.019   2.996  11.913 -0.8760 -0.3384  0.0110
 3212SOL     OW21268   3.464   2.262   1.196  0.0466 -0.0971 -0.5941
 3212SOL    HW121269   3.547   2.281   1.239  0.4974  0.7458 -1.8439
 3212SOL    HW221270   3.409   2.338   1.218  1.2084  1.1277 -1.9145
 3213SOL     OW21271   4.309   2.056  12.907 -0.0745  0.7113  0.9829
 3213SOL    HW121272   4.361   2.094  12.836  0.6785 -2.5426 -0.1763
 3213SOL    HW221273   4.215   2.072  12.896 -0.0863  0.3990  0.6422
 3214SOL     OW21274   0.207   0.606   8.848 -0.1336  0.2981  0.1462
 3214SOL    HW121275   0.129   0.579   8.800  0.1614  2.0999 -1.3385
 3214SOL    HW221276   0.188   0.697   8.869 -1.4981 -0.2645  1.3316
 3215SOL     OW21277   2.962   4.167   6.179 -0.2258 -0.1404 -0.2113
 3215SOL    HW121278   3.049   4.175   6.218  0.1468  3.5752 -1.7877
 3215SOL    HW221279   2.914   4.214   6.248 -0.0455 -0.9266  0.4429
 3216SOL     OW21280   3.128   1.209  12.752 -0.1995 -0.3794 -0.1485
 3216SOL    HW121281   3.099   1.253  12.672  0.1430  0.5560  0.2429
 3216SOL    HW221282   3.083   1.267  12.814  0.8462  1.2047 -0.9143
 3217SOL     OW21283   4.071   0.916   7.601 -0.3723  0.0819  0.0130
 3217SOL    HW121284   3.976   0.916   7.609 -0.2620 -1.1211  1.3455
 3217SOL    HW221285   4.097   0.867   7.679 -0.0244  1.8325  1.0091
 3218SOL     OW21286   0.737   0.198  14.912 -0.0799  0.3503 -0.3430
 3218SOL    HW121287   0.829   0.214  14.931 -0.0990  0.3352 -0.2381
 3218SOL    HW221288   0.730   0.104  14.926  0.5577  0.4106  0.3516
 3219SOL     OW21289   0.731   3.833   0.397  0.0287  0.1732  0.3704
 3219SOL    HW121290   0.703   3.878   0.317 -2.7313  1.1958  1.9018
 3219SOL    HW221291   0.726   3.742   0.368 -0.3485 -0.1618  1.5049
 3220SOL     OW21292   1.937   4.541   7.699  0.2973  0.0240  0.6553
 3220SOL    HW121293   2.000   4.600   7.658 -0.3609  0.0951 -0.2528
 3220SOL    HW221294   1.959   4.561   7.790  2.0564 -0.6811  0.3790
 3221SOL     OW21295   2.334   3.069   6.098  0.0624 -0.3431 -0.1100
 3221SOL    HW121296   2.376   3.100   6.178  0.0627 -0.8835  0.0968
 3221SOL    HW221297   2.248   3.040   6.130  0.2699 -1.1833 -0.3287
 3222SOL     OW21298   2.488   2.562   1.913 -0.0291  0.2858  0.3857
 3222SOL    HW121299   2.470   2.601   1.828  1.7634 -2.1111 -1.0791
 3222SOL    HW221300   2.419   2.497   1.923  1.4519 -1.2526  0.6934
 3223SOL     OW21301   0.509   0.112   7.242 -0.1656 -0.1645  1.0507
 3223SOL    HW121302   0.509   0.067   7.326  0.1649 -0.7230  0.7489
 3223SOL    HW221303   0.430   0.167   7.244  0.8984  1.4691 -1.3614
 3224SOL     OW21304   3.972   3.013   8.109 -0.3736  0.2076 -1.0714
 3224SOL    HW121305   3.964   2.980   8.198 -0.8570  2.1645 -0.4007
 3224SOL    HW221306   4.052   2.964   8.091  0.9863  0.8379  3.4358
 3225SOL     OW21307   2.123   0.771   1.505  0.4819 -0.6576  0.0072
 3225SOL    HW121308   2.160   0.684   1.520  0.4370 -0.8648 -1.0587
 3225SOL    HW221309   2.154   0.790   1.417  0.4070 -1.3330 -0.1705
 3226SOL     OW21310   4.599   0.704   5.108  0.3716  0.2233  0.2443
 3226SOL    HW121311   4.661   0.737   5.173 -0.4935 -0.4881  1.4258
 3226SOL    HW221312   4.552   0.787   5.096  1.0216  0.7020  1.0100
 3227SOL     OW21313   1.959   3.021   1.130 -0.6927  0.1668 -0.3926
 3227SOL    HW121314   1.991   2.936   1.102 -1.1794  0.2382 -1.1376
 3227SOL    HW221315   2.028   3.077   1.093 -1.3563  0.8176 -0.6472
 3228SOL     OW21316   0.506   4.223   1.390 -0.0239  0.5078 -0.3184
 3228SOL    HW121317   0.579   4.239   1.331  0.3434  1.5495  0.4087
 3228SOL    HW221318   0.541   4.264   1.469 -2.7631 -0.0330  1.1639
 3229SOL     OW21319   4.058   2.615   1.894  0.0812 -0.6686  0.2744
 3229SOL    HW121320   4.053   2.628   1.989 -1.0553  2.4887 -0.2033
 3229SOL    HW221321   4.131   2.669   1.863 -0.0844 -0.2684  0.5747
 3230SOL     OW21322   3.883   2.059  16.506 -0.3676  0.0239  0.3217
 3230SOL    HW121323   3.960   2.069  16.451  0.3636 -0.6895  1.2232
 3230SOL    HW221324   3.919   2.070  16.594  0.6553  0.1269 -0.1140
 3231SOL     OW21325   0.371   2.814   6.078 -0.4466  0.0183 -0.3295
 3231SOL    HW121326   0.379   2.908   6.098 -1.5403 -0.2360  1.3261
 3231SOL    HW221327   0.441   2.783   6.021 -0.5738 -0.5670 -0.1590
 3232SOL     OW21328   3.734   1.033   4.209 -0.1725  0.5861  0.2670
 3232SOL    HW121329   3.797   1.104   4.225  1.0740 -0.4492 -0.0434
 3232SOL    HW221330   3.796   0.961   4.205  0.0670  0.9507 -2.5824
 3233SOL     OW21331   2.274   2.895   6.783  1.0259  0.3860  0.0532
 3233SOL    HW121332   2.188   2.934   6.766  0.7141  0.6572  2.2415
 3233SOL    HW221333   2.312   2.960   6.841  3.2387 -0.3261 -0.5975
 3234SOL     OW21334   3.372   4.697   5.692  0.4923  0.1099 -0.0595
 3234SOL    HW121335   3.463   4.692   5.664 -0.0398  0.2149 -1.8384
 3234SOL    HW221336   3.378   4.682   5.786  1.7009 -1.8222 -0.4531
 3235SOL     OW21337   2.868   3.153   6.812 -0.4655 -0.0714 -0.0249
 3235SOL    HW121338   2.850   3.192   6.898 -0.3898  0.3834 -0.2191
 3235SOL    HW221339   2.813   3.075   6.819  1.1956 -1.3012 -0.5537
 3236SOL     OW21340   3.330   3.062   1.645  0.8163 -0.0726 -0.3791
 3236SOL    HW121341   3.249   3.109   1.623  0.5313 -0.9187 -1.1291
 3236SOL    HW221342   3.389   3.136   1.662 -0.3101  0.4219  1.4601
 3237SOL     OW21343   1.356   3.546   8.616 -0.3809  0.6457  0.0128
 3237SOL    HW121344   1.347   3.616   8.551  1.1479 -0.2469 -1.1744
 3237SOL    HW221345   1.318   3.472   8.568  1.2035 -0.6207  0.6905
 3238SOL     OW21346   3.301   4.699   2.228 -0.8838 -0.4315  0.3271
 3238SOL    HW121347   3.234   4.631   2.232 -0.3630 -0.8988  0.9374
 3238SOL    HW221348   3.274   0.006   2.147 -1.3681  1.1825  1.3509
 3239SOL     OW21349   3.402   3.449   3.469  1.2082 -0.3897 -0.0309
 3239SOL    HW121350   3.439   3.514   3.528 -0.1800  1.3478 -1.1024
 3239SOL    HW221351   3.483   3.412   3.433  1.8344 -0.2953  1.2489
 3240SOL     OW21352   2.013   0.020   3.575 -0.3245  0.2223  0.1290
 3240SOL    HW121353   2.000   0.109   3.607  0.7697  0.8178 -1.0927
 3240SOL    HW221354   2.061   4.721   3.650 -1.2382 -1.0623  0.1048
 3241SOL     OW21355   4.701   2.895   8.585 -0.0731 -0.0454  0.2935
 3241SOL    HW121356   4.721   2.852   8.502  0.3502 -1.3236  1.0465
 3241SOL    HW221357   4.694   2.989   8.568 -0.3156  0.5880  3.7739
 3242SOL     OW21358   1.406   3.698   8.239 -0.0794 -0.3711 -0.0360
 3242SOL    HW121359   1.456   3.673   8.162  0.8263 -1.6869  0.9843
 3242SOL    HW221360   1.339   3.629   8.232 -0.5145 -0.0051  0.4579
 3243SOL     OW21361   0.739   0.823   4.441 -0.3246  0.6510 -0.0678
 3243SOL    HW121362   0.667   0.822   4.377 -1.1825 -0.4773  0.9300
 3243SOL    HW221363   0.783   0.901   4.408 -0.1991  0.6690  0.1439
 3244SOL     OW21364   4.240   2.803   4.985 -0.2816 -0.1708 -0.3771
 3244SOL    HW121365   4.297   2.825   5.059 -0.8908  0.5201 -0.1195
 3244SOL    HW221366   4.151   2.800   5.021  0.0388  0.6263  0.4838
 3245SOL     OW21367   1.493   0.324   9.308 -0.8075  0.3934  0.0509
 3245SOL    HW121368   1.428   0.269   9.353 -0.4442 -0.1279 -0.0567
 3245SOL    HW221369   1.507   0.279   9.224  1.9762 -0.0348  0.7612
 3246SOL     OW21370   0.548   0.150   1.613 -0.1914  0.1783 -0.6431
 3246SOL    HW121371   0.607   0.212   1.655 -1.3560  1.1930 -0.4844
 3246SOL    HW221372   0.534   0.076   1.673  2.2177  0.9174  0.8254
 3247SOL     OW21373   1.500   2.706   5.839 -0.5598  0.0822  0.4236
 3247SOL    HW121374   1.534   2.789   5.806  0.0046 -1.3871 -2.6505
 3247SOL    HW221375   1.527   2.656   5.762  0.0851  2.4200 -0.8703
 3248SOL     OW21376   2.024   0.843   8.155  0.5818 -0.1117  0.1639
 3248SOL    HW121377   2.111   0.805   8.160  0.4600 -0.6739 -2.0770
 3248SOL    HW221378   1.989   0.817   8.241 -0.7547  1.3382  0.0619
 3249SOL     OW21379   3.922   2.840   4.814 -0.0287 -0.5935  0.0611
 3249SOL    HW121380   3.832   2.810   4.807  0.3426 -1.9427  1.0509
 3249SOL    HW221381   3.964   2.762   4.779  0.1788 -0.5294  0.1620
 3250SOL     OW21382   0.147   3.502   0.396 -0.0506 -0.6100  0.2352
 3250SOL    HW121383   0.113   3.589   0.418  0.0031 -0.2967 -0.9378
 3250SOL    HW221384   0.237   3.529   0.378  0.3863 -1.3186  1.3673
 3251SOL     OW21385   4.566   4.329   6.243 -0.2569  0.2599  0.2768
 3251SOL    HW121386   4.639   4.367   6.292  1.3688 -1.2757 -0.9661
 3251SOL    HW221387   4.497   4.303   6.305  0.8203 -0.1029  1.3180
 3252SOL     OW21388   2.243   0.277  11.462 -0.0108  0.2777 -0.0666
 3252SOL    HW121389   2.297   0.215  11.511  1.1340 -0.0708 -1.7782
 3252SOL    HW221390   2.270   0.359  11.505 -1.8728 -0.1084  1.8122
 3253SOL     OW21391   1.887   0.473   2.275  0.0727 -0.1786  0.5309
 3253SOL    HW121392   1.805   0.522   2.269 -0.4389 -0.9278  1.3104
 3253SOL    HW221393   1.945   0.531   2.325  1.2766 -0.9963  0.0808
 3254SOL     OW21394   0.815   2.869   2.799 -0.1724  0.7149  0.6882
 3254SOL    HW121395   0.762   2.882   2.720  0.1224 -0.8231  0.2438
 3254SOL    HW221396   0.756   2.908   2.863 -1.3875  0.0736 -0.0496
 3255SOL     OW21397   2.152   0.140   1.852  0.3800  0.0412  0.5268
 3255SOL    HW121398   2.232   0.188   1.876  0.0930  1.7770 -1.9448
 3255SOL    HW221399   2.198   0.063   1.820 -0.7162 -0.3606 -0.0634
 3256SOL     OW21400   3.458   0.140  15.750  0.4027 -0.4142 -0.8126
 3256SOL    HW121401   3.382   0.092  15.719  0.1358  0.7427 -1.9807
 3256SOL    HW221402   3.509   0.068  15.788 -0.2678 -0.6544 -0.3875
 3257SOL     OW21403   0.902   2.323   4.643 -0.2638 -0.2506  0.2816
 3257SOL    HW121404   0.815   2.349   4.612 -0.8875 -1.0969  1.3388
 3257SOL    HW221405   0.907   2.228   4.633 -2.5945 -0.2007 -1.5006
 3258SOL     OW21406   4.594   4.379   5.921  0.3031  0.2457  0.0679
 3258SOL    HW121407   4.648   4.456   5.903  1.3726 -0.4234  0.3676
 3258SOL    HW221408   4.542   4.398   5.999  0.7974 -0.5355  0.5915
 3259SOL     OW21409   2.737   1.134   1.045  0.0878 -0.2621  0.0196
 3259SOL    HW121410   2.686   1.215   1.036  1.0244  0.2486 -0.7391
 3259SOL    HW221411   2.688   1.087   1.113 -0.7559  0.3115 -0.1858
 3260SOL     OW21412   1.437   1.951   3.850 -0.0185  0.4703 -0.0712
 3260SOL    HW121413   1.423   2.032   3.899 -2.0278 -0.4554  0.8540
 3260SOL    HW221414   1.360   1.899   3.872 -1.2606  1.9505 -0.9090
 3261SOL     OW21415   2.024   0.198   5.295 -0.2009  0.1707  0.1514
 3261SOL    HW121416   2.026   0.104   5.313  0.4004 -0.0987 -1.3202
 3261SOL    HW221417   1.930   0.208   5.314 -0.3809 -1.1954  0.0191
 3262SOL     OW21418   2.905   3.583   8.797 -0.1224 -0.5858 -0.2432
 3262SOL    HW121419   2.823   3.628   8.817 -0.1719 -0.1257 -1.4592
 3262SOL    HW221420   2.972   3.624   8.852 -0.1529  0.1983 -0.7851
 3263SOL     OW21421   1.767   0.895   5.818 -0.0942  0.1833 -0.0853
 3263SOL    HW121422   1.747   0.823   5.758 -1.4454 -0.2732  0.9152
 3263SOL    HW221423   1.761   0.849   5.902  0.1813  2.0537  0.9638
 3264SOL     OW21424   4.139   2.093  16.389  0.4240  0.4665  0.2974
 3264SOL    HW121425   4.126   2.184  16.365 -0.8733  0.2365  0.1157
 3264SOL    HW221426   4.219   2.065  16.343  1.5277  2.3544  1.0918
 3265SOL     OW21427   1.784   3.865  13.268  0.2382 -0.0944  0.0114
 3265SOL    HW121428   1.822   3.783  13.302 -1.4933 -0.9455 -0.1347
 3265SOL    HW221429   1.694   3.834  13.258  0.5886 -0.7999 -1.0012
 3266SOL     OW21430   0.563   1.547  10.043  0.2277 -0.3427  0.5627
 3266SOL    HW121431   0.633   1.552   9.977  1.5614  0.1512  2.0273
 3266SOL    HW221432   0.504   1.476  10.018 -0.1066  0.8606 -2.1466
 3267SOL     OW21433   0.255   0.043   2.570 -0.0535 -0.5800 -0.0844
 3267SOL    HW121434   0.185   0.037   2.504 -0.9957 -1.8660  1.0341
 3267SOL    HW221435   0.203   0.044   2.650 -1.3084 -0.2151 -0.8954
 3268SOL     OW21436   0.001   1.541   7.437  0.2375  0.2735 -0.8751
 3268SOL    HW121437   4.659   1.570   7.392  0.6780  1.6221 -0.7868
 3268SOL    HW221438   4.700   1.498   7.514 -0.5537  0.0282 -1.4055
 3269SOL     OW21439   3.066   3.546   7.879  0.7485  0.1174  0.3907
 3269SOL    HW121440   3.107   3.495   7.949 -0.6973 -1.6492 -0.0325
 3269SOL    HW221441   2.976   3.513   7.887 -0.3558  3.1736  0.3976
 3270SOL     OW21442   3.887   0.341   7.185  0.1365 -0.0558 -0.5091
 3270SOL    HW121443   3.910   0.434   7.179 -0.3850  0.2824  2.6873
 3270SOL    HW221444   3.844   0.324   7.101 -0.8950  1.5534 -0.3113
 3271SOL     OW21445   0.381   2.103  11.917 -0.2979 -0.4192 -0.1200
 3271SOL    HW121446   0.434   2.094  11.996 -0.0282  0.1100 -0.2384
 3271SOL    HW221447   0.393   2.197  11.901 -0.8973 -0.1844  0.7570
 3272SOL     OW21448   1.162   3.087  11.605 -0.5685 -0.5138 -0.0549
 3272SOL    HW121449   1.115   3.140  11.669 -2.2269  0.1989 -1.8381
 3272SOL    HW221450   1.194   3.016  11.660 -4.2435 -1.6242  0.6720
 3273SOL     OW21451   4.036   2.564   5.945  0.0597  0.1958  0.0874
 3273SOL    HW121452   4.012   2.650   5.910  0.4689  0.1331 -0.3456
 3273SOL    HW221453   4.129   2.582   5.958 -0.4701  1.2957  2.3702
 3274SOL     OW21454   4.575   2.620  14.134 -0.4672 -0.4440  0.5256
 3274SOL    HW121455   4.660   2.644  14.096 -2.0267  2.6226 -1.0072
 3274SOL    HW221456   4.536   2.707  14.133 -2.5304 -1.3706 -0.1410
 3275SOL     OW21457   4.328   3.971   4.627  0.4812 -0.4397  0.3543
 3275SOL    HW121458   4.356   4.029   4.556 -0.7192 -1.1729 -0.7114
 3275SOL    HW221459   4.233   3.978   4.615  0.3155 -1.0359  1.2686
 3276SOL     OW21460   3.401   3.247  11.795 -0.2474 -0.2403  0.4172
 3276SOL    HW121461   3.428   3.170  11.745 -1.3071 -1.9911  2.5377
 3276SOL    HW221462   3.330   3.208  11.847  1.1435 -1.3610  1.4732
 3277SOL     OW21463   3.480   1.927  16.572 -0.3745 -0.5410  0.5596
 3277SOL    HW121464   3.553   1.974  16.530 -1.3530  0.7441  0.2734
 3277SOL    HW221465   3.506   1.839  16.547 -3.4749 -0.4838 -2.8174
 3278SOL     OW21466   4.053   2.440   6.190  0.3017 -0.0028  0.5049
 3278SOL    HW121467   3.965   2.409   6.169  0.6230 -1.1710  0.9209
 3278SOL    HW221468   4.049   2.509   6.123  1.6676  0.7618  1.2187
 3279SOL     OW21469   3.367   1.422  12.603  0.2766 -0.0579 -0.3047
 3279SOL    HW121470   3.439   1.442  12.543  1.3617 -3.8502 -0.2389
 3279SOL    HW221471   3.373   1.327  12.614  2.1893 -0.1770 -2.3947
 3280SOL     OW21472   2.259   3.792  15.127  0.1195  0.0778 -0.1952
 3280SOL    HW121473   2.283   3.781  15.035 -1.0493  2.1415 -0.7476
 3280SOL    HW221474   2.305   3.871  15.155  1.2045  0.2202 -2.4061
 3281SOL     OW21475   0.088   0.975   5.320 -0.4438 -0.1881 -0.3445
 3281SOL    HW121476   0.033   1.014   5.252  0.1977 -0.7306 -1.1767
 3281SOL    HW221477   0.128   0.903   5.271  0.8531  0.9390 -0.9335
 3282SOL     OW21478   0.486   0.518  17.620 -0.0377 -0.7082  0.0471
 3282SOL    HW121479   0.559   0.578  17.635 -0.4051 -0.2158 -0.1200
 3282SOL    HW221480   0.437   0.577  17.562  0.3721 -0.9910 -0.5837
 3283SOL     OW21481   3.771   0.820   4.430 -0.3284 -0.5073 -0.7404
 3283SOL    HW121482   3.715   0.897   4.445  0.7081  0.1014  0.0296
 3283SOL    HW221483   3.826   0.826   4.508 -1.1841 -0.6315 -0.1334
 3284SOL     OW21484   1.494   3.422  15.639 -0.1624 -0.0985  0.5130
 3284SOL    HW121485   1.572   3.398  15.690 -0.3764 -0.3388  0.7282
 3284SOL    HW221486   1.430   3.369  15.686  0.1684 -0.7923  0.1990
 3285SOL     OW21487   3.780   3.091   5.527 -0.3628  0.1474 -0.4806
 3285SOL    HW121488   3.700   3.135   5.552  1.0559  2.0774  0.6602
 3285SOL    HW221489   3.778   3.091   5.431 -4.0797  0.9235 -0.3989
 3286SOL     OW21490   2.672   2.585   7.487  0.0742 -0.5227 -0.1880
 3286SOL    HW121491   2.682   2.656   7.549  0.3943 -1.9711  1.4134
 3286SOL    HW221492   2.743   2.588   7.424 -0.7972 -1.4680 -1.2349
 3287SOL     OW21493   3.328   2.980   6.981 -0.0757 -0.1085  0.5461
 3287SOL    HW121494   3.279   2.982   6.898  1.7463 -0.4958 -0.5325
 3287SOL    HW221495   3.419   2.982   6.952 -0.6339  1.1466 -1.1541
 3288SOL     OW21496   4.473   1.409   9.616  0.1813  0.0253  0.0979
 3288SOL    HW121497   4.424   1.435   9.539 -0.6927 -2.8501 -0.2977
 3288SOL    HW221498   4.497   1.492   9.658 -1.1829  0.8068 -0.7034
 3289SOL     OW21499   2.418   3.974   3.522  0.4899 -0.0718 -0.1666
 3289SOL    HW121500   2.344   3.968   3.582 -0.5314  1.0365 -1.3162
 3289SOL    HW221501   2.480   3.921   3.573 -1.9244  0.8210  3.6733
 3290SOL     OW21502   1.243   3.800   0.784 -0.0022 -0.2497 -0.2587
 3290SOL    HW121503   1.171   3.741   0.804  0.1936 -1.4609 -3.1075
 3290SOL    HW221504   1.227   3.863   0.854  0.6983 -1.3104  0.8736
 3291SOL     OW21505   4.286   2.955   7.510 -0.0752  0.0564 -0.1521
 3291SOL    HW121506   4.233   3.003   7.574  1.2449 -0.1778  1.1106
 3291SOL    HW221507   4.330   3.026   7.464 -4.1013  3.8686  1.8846
 3292SOL     OW21508   1.271   1.891   5.502 -0.1419 -0.7720 -0.4439
 3292SOL    HW121509   1.230   1.925   5.582  0.7672 -1.5700  0.3675
 3292SOL    HW221510   1.304   1.974   5.470 -2.0311 -0.5243 -1.7487
 3293SOL     OW21511   0.188   4.669   9.244  0.2487  0.2896 -0.0107
 3293SOL    HW121512   0.266   4.612   9.241  0.4507  0.6240 -1.0213
 3293SOL    HW221513   0.128   4.622   9.303  1.2456 -1.7178 -0.6009
 3294SOL     OW21514   3.828   0.900   7.022 -0.4849 -0.4486  0.3865
 3294SOL    HW121515   3.888   0.895   7.096 -0.5960 -0.6394  0.4630
 3294SOL    HW221516   3.744   0.911   7.067 -0.1039 -0.5181  1.1240
 3295SOL     OW21517   1.487   3.980   1.404  0.0226 -0.2004  0.1240
 3295SOL    HW121518   1.521   3.903   1.359  1.0142  0.2405  0.1093
 3295SOL    HW221519   1.401   4.002   1.368 -1.6765 -0.4749  4.0121
 3296SOL     OW21520   0.590   1.739   1.865  0.0473  0.0757  0.1743
 3296SOL    HW121521   0.496   1.739   1.845 -0.2946 -1.1015  1.7910
 3296SOL    HW221522   0.590   1.731   1.960  0.8351  2.9072  0.3932
 3297SOL     OW21523   0.287   4.014   7.509  0.5640 -0.4913  0.4164
 3297SOL    HW121524   0.326   4.101   7.504  1.8942 -1.1391 -0.8636
 3297SOL    HW221525   0.274   3.997   7.415  2.8399  2.8525 -0.5223
 3298SOL     OW21526   3.476   1.927   5.165  0.3601 -0.0793  0.2563
 3298SOL    HW121527   3.456   1.881   5.083 -0.1202 -1.1620  0.9765
 3298SOL    HW221528   3.411   1.997   5.169  1.5583  1.1153 -1.2289
 3299SOL     OW21529   1.511   4.270   7.305 -0.1706  0.1917 -0.0253
 3299SOL    HW121530   1.514   4.215   7.226  2.0175  0.5969 -0.2285
 3299SOL    HW221531   1.601   4.303   7.306 -0.8351  1.9725 -0.5142
 3300SOL     OW21532   1.723   2.264   7.466 -0.7875  0.5544  0.8524
 3300SOL    HW121533   1.668   2.293   7.394  1.7132  0.5652 -1.0476
 3300SOL    HW221534   1.681   2.184   7.498 -0.4724 -0.8815 -2.2844
 3301SOL     OW21535   2.291   1.372   7.783 -0.0465  0.3452  0.7758
 3301SOL    HW121536   2.230   1.320   7.731 -1.3691  0.0637  2.6162
 3301SOL    HW221537   2.281   1.338   7.872  1.6752 -0.0562  0.8046
 3302SOL     OW21538   2.835   4.721  12.888  0.4748 -0.1434  0.2356
 3302SOL    HW121539   2.760   4.662  12.896  1.6681 -1.6801 -0.0448
 3302SOL    HW221540   2.884   4.683  12.961  0.4905 -0.8998 -0.1709
 3303SOL     OW21541   1.041   1.323   6.165  0.3338 -0.1146  0.3820
 3303SOL    HW121542   1.065   1.346   6.255 -0.1293  1.5511  0.0794
 3303SOL    HW221543   0.973   1.257   6.179  1.0622 -1.2383 -1.5361
 3304SOL     OW21544   3.969   2.865   5.490  0.1691  0.1377  0.1404
 3304SOL    HW121545   3.896   2.926   5.484  1.0975  1.0701 -1.8861
 3304SOL    HW221546   3.928   2.779   5.500 -0.3484  0.6277  2.2022
 3305SOL     OW21547   2.811   4.043   1.960 -0.0543  0.3894 -0.3837
 3305SOL    HW121548   2.892   4.077   1.996 -0.0933 -0.6871  0.7508
 3305SOL    HW221549   2.837   4.043   1.868 -1.0763 -1.9606 -0.6774
 3306SOL     OW21550   1.344   0.178   8.612 -0.4085  0.3703 -0.3416
 3306SOL    HW121551   1.414   0.128   8.570  0.0103  1.4788 -0.9330
 3306SOL    HW221552   1.279   0.182   8.543  0.3434 -0.6416 -1.1112
 3307SOL     OW21553   0.674   0.719   3.401 -0.0105 -0.0100 -0.5493
 3307SOL    HW121554   0.599   0.709   3.341 -1.7371 -1.7953  1.9111
 3307SOL    HW221555   0.684   0.814   3.406 -0.5101  0.1466 -2.3688
 3308SOL     OW21556   3.659   1.922   5.915 -0.1223 -0.0892  0.0251
 3308SOL    HW121557   3.753   1.934   5.903  0.3019 -4.9307 -1.4871
 3308SOL    HW221558   3.621   1.993   5.864  0.3841 -0.5361 -0.9666
 3309SOL     OW21559   0.867   0.818   9.550  0.1316  0.3488  0.5257
 3309SOL    HW121560   0.863   0.823   9.645  1.0773 -0.7614  0.6255
 3309SOL    HW221561   0.918   0.895   9.525  1.2804  0.1034  2.1343
 3310SOL     OW21562   4.731   3.975   0.380 -0.7914 -0.4008  0.0003
 3310SOL    HW121563   4.652   3.994   0.430 -0.2828 -0.8298  0.9599
 3310SOL    HW221564   0.015   4.064   0.351  1.0783 -0.5660  0.8577
 3311SOL     OW21565   3.944   1.243   2.889 -0.4329 -0.0189 -0.4863
 3311SOL    HW121566   3.895   1.224   2.809 -0.6457 -0.5919 -0.2165
 3311SOL    HW221567   4.012   1.176   2.882 -0.8196 -0.4839  0.2504
 3312SOL     OW21568   1.888   4.036  15.879 -0.4205 -0.3388  0.0972
 3312SOL    HW121569   1.845   4.019  15.796 -1.2961 -0.6360  0.6172
 3312SOL    HW221570   1.977   4.002  15.865 -0.6532 -1.0375  0.3560
 3313SOL     OW21571   2.181   2.976   2.558  0.2912 -0.1937 -0.5499
 3313SOL    HW121572   2.183   2.993   2.464  1.0819 -1.4348 -0.7440
 3313SOL    HW221573   2.102   2.922   2.560  1.0946 -1.4215 -2.2562
 3314SOL     OW21574   1.940   0.959   8.792 -0.3644  0.1443 -0.2358
 3314SOL    HW121575   1.847   0.951   8.814  0.0505 -1.4034  0.9079
 3314SOL    HW221576   1.973   1.002   8.871 -0.3937 -3.0950  1.5119
 3315SOL     OW21577   2.287   1.783  16.441 -0.3598 -0.2315 -0.2986
 3315SOL    HW121578   2.221   1.755  16.504 -1.3299  0.4723 -1.0180
 3315SOL    HW221579   2.339   1.843  16.495  1.6286  0.6070 -3.1655
 3316SOL     OW21580   0.933   3.321   8.027 -0.3470  0.1487 -0.6244
 3316SOL    HW121581   0.984   3.390   7.985 -0.0261  0.3552  0.1064
 3316SOL    HW221582   0.879   3.380   8.080 -0.4179 -0.2680 -0.2343
 3317SOL     OW21583   1.720   2.039   3.905 -0.2397 -0.5546 -0.6417
 3317SOL    HW121584   1.681   2.120   3.872 -0.6019 -0.3331  0.3207
 3317SOL    HW221585   1.657   2.013   3.972 -0.0758  1.5163  0.3326
 3318SOL     OW21586   1.809   3.910   7.194  0.0723 -0.5141 -0.1745
 3318SOL    HW121587   1.762   3.961   7.128 -1.0313 -1.3935 -0.0650
 3318SOL    HW221588   1.751   3.882   7.265 -0.5992 -0.4367 -0.6907
 3319SOL     OW21589   1.585   0.752  11.020  0.0316 -0.4457 -0.4247
 3319SOL    HW121590   1.544   0.800  10.948 -1.6353  0.3266  1.0430
 3319SOL    HW221591   1.502   0.735  11.065  0.3001 -0.9594 -0.1283
 3320SOL     OW21592   3.232   3.749  12.643  0.4382 -0.1890  1.0103
 3320SOL    HW121593   3.238   3.653  12.648  1.1100 -0.3480 -2.8257
 3320SOL    HW221594   3.324   3.775  12.642  0.2621  0.2961 -2.0565
 3321SOL     OW21595   1.310   1.506  13.381 -0.1847 -0.0943  0.1640
 3321SOL    HW121596   1.244   1.452  13.338  2.8500 -2.2206 -1.7736
 3321SOL    HW221597   1.341   1.434  13.435  1.3507  1.1232  0.9214
 3322SOL     OW21598   3.072   0.119   3.166  0.0369  0.0697  0.0039
 3322SOL    HW121599   3.051   0.028   3.185  1.9961  0.0648  2.1755
 3322SOL    HW221600   3.148   0.125   3.223  0.2965  1.0390 -0.4482
 3323SOL     OW21601   0.142   1.364   3.899 -0.8765 -0.0166 -0.7042
 3323SOL    HW121602   0.155   1.451   3.936 -1.2941  0.1107 -0.8545
 3323SOL    HW221603   0.229   1.352   3.860 -0.7148 -1.4799  0.1177
 3324SOL     OW21604   1.396   0.756  17.692 -0.5626 -0.3126  0.2679
 3324SOL    HW121605   1.422   0.848  17.701  0.6692 -0.9548  3.1228
 3324SOL    HW221606   1.366   0.765  17.601 -0.9217  0.8890  0.5051
 3325SOL     OW21607   4.246   3.261   6.413 -0.4185  1.0320  0.1202
 3325SOL    HW121608   4.277   3.255   6.503 -0.5645 -0.2077  0.0884
 3325SOL    HW221609   4.176   3.326   6.416 -1.0309  0.4236 -0.8943
 3326SOL     OW21610   2.363   3.578   8.985 -0.0994 -0.7428  0.1724
 3326SOL    HW121611   2.321   3.526   9.053  0.4855 -1.2534  0.1503
 3326SOL    HW221612   2.295   3.642   8.967 -0.7212 -1.6639 -0.7495
 3327SOL     OW21613   1.302   4.545   3.696  0.7469  0.1278  0.4388
 3327SOL    HW121614   1.352   4.626   3.686 -0.2239  0.5527 -0.9758
 3327SOL    HW221615   1.337   4.495   3.622 -0.5396  0.2081 -0.2316
 3328SOL     OW21616   0.291   1.381   1.184  0.8252  0.0623 -0.1176
 3328SOL    HW121617   0.267   1.390   1.277 -0.5337 -3.9653 -0.0531
 3328SOL    HW221618   0.235   1.307   1.159  1.3291 -0.2964 -0.1904
 3329SOL     OW21619   4.427   3.053   4.531 -0.2269 -0.5786 -0.0517
 3329SOL    HW121620   4.501   3.091   4.578  0.1178 -0.5377 -0.6318
 3329SOL    HW221621   4.396   2.986   4.592 -2.8817  0.4891 -0.2160
 3330SOL     OW21622   3.693   1.587   2.011  0.4594  0.4544  0.2172
 3330SOL    HW121623   3.690   1.576   2.107 -0.3947  0.8720  0.2443
 3330SOL    HW221624   3.739   1.670   2.005 -1.8239  1.6647 -0.8075
 3331SOL     OW21625   3.043   1.151   2.348 -0.0847  0.4413  0.5271
 3331SOL    HW121626   3.104   1.225   2.347  0.4846 -0.0410 -1.1632
 3331SOL    HW221627   3.047   1.139   2.443  1.2354  1.5595  0.6180
 3332SOL     OW21628   1.944   2.473   3.948 -0.1372  0.1631 -0.1374
 3332SOL    HW121629   1.990   2.454   4.030 -0.2307 -0.6937 -0.2824
 3332SOL    HW221630   1.974   2.561   3.926  0.0410  0.7211  2.4064
 3333SOL     OW21631   1.060   0.473  11.417  0.6926  0.6422  0.6328
 3333SOL    HW121632   0.995   0.528  11.461 -1.4542 -2.2671  1.0978
 3333SOL    HW221633   1.022   0.470  11.329 -1.9265 -0.4185  1.7912
 3334SOL     OW21634   2.274   0.554   1.505  0.2678 -0.2916  0.3202
 3334SOL    HW121635   2.225   0.480   1.539  1.0398 -0.8023  0.3065
 3334SOL    HW221636   2.298   0.609   1.579  1.4146  0.0919 -0.3254
 3335SOL     OW21637   1.834   4.329  11.003  0.2878  0.6358 -0.2137
 3335SOL    HW121638   1.879   4.246  11.023  0.6708  0.5555 -1.3756
 3335SOL    HW221639   1.859   4.388  11.073 -0.8893 -0.1984  0.9095
 3336SOL     OW21640   2.384   3.920   6.384  0.0080  0.3250 -0.1735
 3336SOL    HW121641   2.382   3.872   6.467 -1.5395 -0.8719 -0.9031
 3336SOL    HW221642   2.310   3.978   6.401  1.7258  2.5909 -0.4755
 3337SOL     OW21643   3.412   3.633   8.438  0.0972 -0.7358 -0.2639
 3337SOL    HW121644   3.327   3.610   8.475 -0.9215  2.5035 -0.5838
 3337SOL    HW221645   3.400   3.714   8.390 -0.8051 -0.8360 -0.2050
 3338SOL     OW21646   3.056   4.426   5.442 -0.0307 -0.0109 -0.1634
 3338SOL    HW121647   2.990   4.494   5.451 -0.3314 -0.2226 -0.7700
 3338SOL    HW221648   3.034   4.397   5.354  3.6448 -1.0077 -0.7625
 3339SOL     OW21649   0.653   1.510   3.582 -0.2129  0.3945 -0.1499
 3339SOL    HW121650   0.568   1.544   3.557 -0.5422  0.6407  1.3122
 3339SOL    HW221651   0.702   1.557   3.514 -0.1091 -0.1991 -0.4923
 3340SOL     OW21652   4.301   0.909   6.867  0.5348  0.0436 -0.2524
 3340SOL    HW121653   4.320   0.818   6.890 -1.0893 -0.4806 -0.9899
 3340SOL    HW221654   4.309   0.958   6.949 -2.1292 -1.2668  0.7819
 3341SOL     OW21655   0.111   2.096   5.305  0.3382  0.1150 -0.0604
 3341SOL    HW121656   0.053   2.170   5.317  1.1645  0.6228  0.8904
 3341SOL    HW221657   0.196   2.135   5.324 -1.4854  4.0087 -0.0028
 3342SOL     OW21658   0.708   0.827   8.409  0.6780  0.0073 -0.3256
 3342SOL    HW121659   0.658   0.772   8.348  0.2028 -0.6596  0.6737
 3342SOL    HW221660   0.669   0.790   8.487 -0.8876  0.8797 -0.6908
 3343SOL     OW21661   1.551   0.395   7.372 -0.0868  0.2197 -0.0099
 3343SOL    HW121662   1.503   0.478   7.367  0.6265  0.7088  1.0906
 3343SOL    HW221663   1.635   0.429   7.404  1.9670 -0.7354 -4.4306
 3344SOL     OW21664   4.030   2.331   1.843 -0.1591 -0.6201 -0.2065
 3344SOL    HW121665   4.057   2.297   1.928  1.2314  0.8565 -0.0594
 3344SOL    HW221666   4.031   2.424   1.864  1.5001 -0.4265 -1.1531
 3345SOL     OW21667   0.960   2.911   6.818  0.2836  0.6040  0.1842
 3345SOL    HW121668   0.890   2.865   6.772  2.6396 -1.7096 -1.0880
 3345SOL    HW221669   0.912   2.917   6.901  0.8242  0.2830  0.5203
 3346SOL     OW21670   1.639   3.220  16.990  0.4796  0.2825 -0.0512
 3346SOL    HW121671   1.722   3.172  17.000  0.6432  0.3993 -0.9378
 3346SOL    HW221672   1.671   3.262  16.911  0.3620 -0.6912 -0.6125
 3347SOL     OW21673   2.808   2.518   8.639 -0.1158 -0.2689 -0.5978
 3347SOL    HW121674   2.749   2.450   8.605  0.5450 -1.1851  0.0645
 3347SOL    HW221675   2.814   2.483   8.728 -2.0431 -0.1067 -0.3888
 3348SOL     OW21676   0.959   2.710   4.691  0.0227 -0.7193  0.3439
 3348SOL    HW121677   0.922   2.792   4.724  2.4892  1.1929 -1.5807
 3348SOL    HW221678   0.949   2.653   4.767  1.5852 -0.8458  0.4570
 3349SOL     OW21679   0.270   2.114   1.586 -0.5425  0.3573 -0.2018
 3349SOL    HW121680   0.197   2.112   1.523 -2.1489  1.1310  1.6605
 3349SOL    HW221681   0.321   2.035   1.568  0.1070  0.6734  0.2654
 3350SOL     OW21682   2.909   0.142  11.122 -0.7091  0.0634  0.3967
 3350SOL    HW121683   2.952   0.116  11.204 -0.5829 -0.5261  0.1417
 3350SOL    HW221684   2.819   0.136  11.153  0.7337  0.2288  4.6014
 3351SOL     OW21685   0.997   2.221  12.848 -0.2474 -0.0744  0.5217
 3351SOL    HW121686   0.963   2.242  12.761 -0.9138 -1.1850  0.5140
 3351SOL    HW221687   1.090   2.242  12.845 -0.5477  1.0517 -0.8965
 3352SOL     OW21688   2.898   0.479  15.469 -0.0678 -0.1121  0.3521
 3352SOL    HW121689   2.969   0.415  15.476  0.0787  0.0129  0.0010
 3352SOL    HW221690   2.823   0.433  15.507  0.8157 -2.4534 -0.8110
 3353SOL     OW21691   2.721   0.623  13.537 -0.0302 -0.2457  0.2688
 3353SOL    HW121692   2.815   0.605  13.529 -0.1833 -0.6035 -0.7436
 3353SOL    HW221693   2.709   0.709  13.496  1.7469 -0.1206 -0.0137
 3354SOL     OW21694   3.053   3.298  15.547  0.0957  0.5605 -0.3366
 3354SOL    HW121695   3.037   3.205  15.532  0.8925  0.2297  0.8907
 3354SOL    HW221696   2.999   3.325  15.472  1.5912  2.1018 -0.8571
 3355SOL     OW21697   3.088   1.796   2.903  0.1185 -0.4222 -0.1152
 3355SOL    HW121698   3.007   1.784   2.854 -0.2707  0.3883  0.3320
 3355SOL    HW221699   3.117   1.707   2.924 -3.1226 -1.3456  0.3848
 3356SOL     OW21700   0.807   3.739   6.124  0.2014 -0.0148  0.1276
 3356SOL    HW121701   0.785   3.740   6.217 -2.9443  2.2536 -0.6554
 3356SOL    HW221702   0.893   3.781   6.126  0.8597 -1.3096 -1.3178
 3357SOL     OW21703   2.312   2.908   8.546  0.0435 -0.5990  0.0471
 3357SOL    HW121704   2.288   2.819   8.521 -3.3115  0.4354 -0.4901
 3357SOL    HW221705   2.239   2.959   8.510 -0.8282 -2.9235 -1.4780
 3358SOL     OW21706   1.263   4.702   0.810  0.7839  0.2295 -0.0676
 3358SOL    HW121707   1.227   4.712   0.722  0.1597 -0.3494  0.1214
 3358SOL    HW221708   1.182   4.721   0.857  0.4956 -3.1797  0.8320
 3359SOL     OW21709   1.426   0.257   6.067 -0.1963  0.2421  0.2721
 3359SOL    HW121710   1.406   0.182   6.011 -1.1561 -0.0481  1.0146
 3359SOL    HW221711   1.350   0.258   6.125 -0.5796  2.3416 -0.2777
 3360SOL     OW21712   3.785   3.080   8.409  0.1607  0.3840  0.4223
 3360SOL    HW121713   3.844   3.006   8.394 -1.4986 -0.6554 -1.0331
 3360SOL    HW221714   3.696   3.051   8.389  0.6146 -1.0527  0.4606
 3361SOL     OW21715   2.499   1.508   6.115  0.1463 -0.0184  0.0467
 3361SOL    HW121716   2.589   1.538   6.105 -0.4195  2.0129  0.7824
 3361SOL    HW221717   2.502   1.455   6.195 -0.3775  0.0154  0.0881
 3362SOL     OW21718   0.902   3.861  17.085 -0.2731 -0.1629 -0.4913
 3362SOL    HW121719   0.968   3.792  17.086 -2.7836 -2.5489 -0.8683
 3362SOL    HW221720   0.934   3.928  17.025 -0.1378 -0.0418 -0.2865
 3363SOL     OW21721   2.775   1.933   1.702 -0.3060  0.2933 -0.3344
 3363SOL    HW121722   2.839   1.939   1.773 -1.3426 -0.1846  0.6320
 3363SOL    HW221723   2.833   1.900   1.633  1.0099 -0.0106  0.9079
 3364SOL     OW21724   1.282   3.908   2.766  0.4029  0.2146 -0.2990
 3364SOL    HW121725   1.368   3.928   2.729  0.2544 -1.3315 -1.4802
 3364SOL    HW221726   1.262   3.818   2.743  0.1690  0.1567  0.1423
 3365SOL     OW21727   2.999   0.790   4.895  0.3485  0.1180 -0.3102
 3365SOL    HW121728   3.086   0.762   4.924 -0.3445 -1.5242  0.2022
 3365SOL    HW221729   2.985   0.736   4.817 -0.6170 -1.3810  0.9051
 3366SOL     OW21730   2.071   1.338   6.353 -0.1043 -0.0451 -0.0601
 3366SOL    HW121731   2.004   1.335   6.284 -0.1326  1.0352 -0.0887
 3366SOL    HW221732   2.127   1.270   6.318  0.0193 -0.1002  0.2435
 3367SOL     OW21733   1.606   4.156  13.244 -0.8651 -0.1936  0.1349
 3367SOL    HW121734   1.631   4.247  13.260 -0.7484  0.1036 -1.7215
 3367SOL    HW221735   1.687   4.107  13.250 -0.5939  0.1509 -0.6988
 3368SOL     OW21736   3.833   0.149   5.528  0.2452  0.1959  0.2769
 3368SOL    HW121737   3.833   0.125   5.621  0.4596 -1.4102 -0.1481
 3368SOL    HW221738   3.829   0.244   5.539 -2.3089  0.0710  0.3773
 3369SOL     OW21739   4.586   2.296  17.654  0.6719  0.3252 -0.4362
 3369SOL    HW121740   4.615   2.224  17.711 -2.8978 -0.6096  0.1838
 3369SOL    HW221741   4.665   2.346  17.634  0.2788  2.0982  2.3988
 3370SOL     OW21742   2.686   3.713   7.238 -0.5489 -0.0114  0.3309
 3370SOL    HW121743   2.772   3.683   7.267 -0.0378  0.2154 -0.9912
 3370SOL    HW221744   2.715   3.753   7.156  0.4303 -0.0587  0.6608
 3371SOL     OW21745   2.447   2.444   0.321 -0.8521 -0.4569 -0.4067
 3371SOL    HW121746   2.439   2.425   0.414  1.9422 -0.9181 -0.2537
 3371SOL    HW221747   2.353   2.460   0.313 -0.8637  0.4742  1.6048
 3372SOL     OW21748   2.980   0.601  13.546  0.0634  0.4169  0.6667
 3372SOL    HW121749   3.053   0.567  13.598  1.2737  0.5419 -0.9499
 3372SOL    HW221750   3.019   0.641  13.469 -2.2704 -0.0357 -0.7557
 3373SOL     OW21751   2.958   2.624  16.792  0.1356 -0.2744  0.2424
 3373SOL    HW121752   3.001   2.599  16.711  1.0640  0.2820  0.5607
 3373SOL    HW221753   2.984   2.560  16.859 -0.4645  1.3223  1.9994
 3374SOL     OW21754   3.111   2.692   5.842  0.0500  0.1439 -0.2856
 3374SOL    HW121755   3.085   2.740   5.764 -1.9694 -0.6314 -0.0894
 3374SOL    HW221756   3.047   2.620   5.841 -1.0235  1.1039 -0.6441
 3375SOL     OW21757   2.830   0.155   8.807 -0.0622 -0.1060  0.1128
 3375SOL    HW121758   2.913   0.202   8.802  0.3028 -0.7684 -0.0955
 3375SOL    HW221759   2.767   0.227   8.800  0.4852  0.3821  0.1999
 3376SOL     OW21760   2.289   1.983   6.063 -0.3023 -0.2719  0.8329
 3376SOL    HW121761   2.294   2.002   6.156 -0.0432 -2.2141  1.2266
 3376SOL    HW221762   2.311   1.891   6.047  2.1219  0.0555  2.3107
 3377SOL     OW21763   0.178   1.951   2.306 -0.4851 -0.4786  0.1091
 3377SOL    HW121764   0.274   1.945   2.304 -0.4413  0.0482  0.8198
 3377SOL    HW221765   0.160   1.864   2.270  1.7297 -1.4674  1.3883
 3378SOL     OW21766   1.649   0.897   6.829 -0.2251 -0.5826  0.7184
 3378SOL    HW121767   1.701   0.901   6.748 -0.5764 -0.7175  0.4869
 3378SOL    HW221768   1.699   0.829   6.874  0.3050 -2.0283 -2.0543
 3379SOL     OW21769   2.424   2.370   6.146 -0.1571  0.2950 -0.0476
 3379SOL    HW121770   2.397   2.316   6.072 -1.3512 -1.0790  1.3857
 3379SOL    HW221771   2.510   2.334   6.168  0.1620  0.8125 -0.4350
 3380SOL     OW21772   0.228   2.276   8.736 -0.2364  0.5806  0.4076
 3380SOL    HW121773   0.306   2.270   8.681 -0.0167  1.0426  0.6675
 3380SOL    HW221774   0.182   2.354   8.704  0.9215  1.8722  1.9032
 3381SOL     OW21775   4.201   2.057  10.818  0.1183  0.5564  0.2336
 3381SOL    HW121776   4.231   2.033  10.731 -2.4239 -1.0660 -0.2111
 3381SOL    HW221777   4.272   2.115  10.845  0.1481  0.4284  0.4279
 3382SOL     OW21778   0.439   3.799  14.515  0.5590  0.2322  0.7006
 3382SOL    HW121779   0.375   3.733  14.542  0.3151  0.3521  0.4219
 3382SOL    HW221780   0.470   3.814  14.604 -1.4905  0.9560  1.2842
 3383SOL     OW21781   0.878   1.769  10.361 -0.6922 -0.0575  0.8035
 3383SOL    HW121782   0.790   1.755  10.325  0.0979  0.3342 -1.2757
 3383SOL    HW221783   0.933   1.735  10.291 -2.1858 -1.6382  0.3998
 3384SOL     OW21784   3.024   2.200   0.053 -0.1574 -0.4466 -0.2728
 3384SOL    HW121785   2.963   2.273   0.057 -1.3579 -1.1924 -4.2990
 3384SOL    HW221786   2.969   2.127   0.024 -0.7802 -0.1300  0.1254
 3385SOL     OW21787   4.305   3.689  12.429 -0.3212 -0.4842  0.1701
 3385SOL    HW121788   4.251   3.721  12.501 -0.2175 -1.2012  0.5643
 3385SOL    HW221789   4.266   3.604  12.409  2.0653 -1.7645  0.9246
 3386SOL     OW21790   2.179   3.194  11.671  0.2160  0.1002 -0.1270
 3386SOL    HW121791   2.136   3.110  11.657  1.1451 -0.8514  2.6378
 3386SOL    HW221792   2.181   3.227  11.581  2.2474  0.6008  0.0965
 3387SOL     OW21793   0.088   0.187   9.119  0.1932  0.1467 -0.2483
 3387SOL    HW121794   0.096   0.202   9.213  0.0231 -1.8248  0.0873
 3387SOL    HW221795   0.130   0.101   9.116 -2.2141 -1.0073 -1.1582
 3388SOL     OW21796   4.556   3.775   6.096  0.4914  0.2679  0.1270
 3388SOL    HW121797   4.464   3.762   6.121  1.7059 -0.0042  4.3393
 3388SOL    HW221798   4.562   3.864   6.130 -0.9014  0.0484  0.9568
 3389SOL     OW21799   0.093   3.384  11.582  0.4688 -0.0409  0.1207
 3389SOL    HW121800   0.104   3.471  11.620  1.8964 -0.4977  0.7633
 3389SOL    HW221801   0.183   3.352  11.578  0.0523 -0.8962 -2.6168
 3390SOL     OW21802   2.635   4.223   6.409 -0.0809 -0.0885 -0.4794
 3390SOL    HW121803   2.624   4.313   6.440  2.7257 -0.2699  1.0053
 3390SOL    HW221804   2.607   4.164   6.479  0.4893  1.2387  0.8601
 3391SOL     OW21805   3.297   3.826   6.147  0.1737 -0.2975  0.4551
 3391SOL    HW121806   3.360   3.803   6.079  1.1477  0.4241  1.1230
 3391SOL    HW221807   3.233   3.873   6.093 -0.0278  0.0295  0.9726
 3392SOL     OW21808   2.570   1.677   4.635 -0.2271 -1.0420 -0.0151
 3392SOL    HW121809   2.653   1.724   4.640  0.2190 -1.6331 -1.6342
 3392SOL    HW221810   2.543   1.667   4.726 -1.7970 -1.0212 -0.4830
 3393SOL     OW21811   1.802   3.901   1.740  0.4717  1.1059 -0.6008
 3393SOL    HW121812   1.738   3.972   1.746 -1.1743 -0.5643  1.2725
 3393SOL    HW221813   1.743   3.828   1.723  1.4845  0.0289  0.4819
 3394SOL     OW21814   0.525   1.563   4.017  0.1174  0.1631 -0.0365
 3394SOL    HW121815   0.431   1.555   4.002 -0.2212  1.8794  1.1747
 3394SOL    HW221816   0.529   1.653   4.049 -1.5466 -0.4822  1.9821
 3395SOL     OW21817   3.438   0.258   3.416 -0.2351 -0.2293 -0.1417
 3395SOL    HW121818   3.465   0.253   3.324  0.4030  2.2891 -0.0864
 3395SOL    HW221819   3.525   0.275   3.451 -1.3151  0.4520  2.2363
 3396SOL     OW21820   2.716   2.891   9.173 -0.1486 -0.1768 -0.1451
 3396SOL    HW121821   2.750   2.932   9.093  0.6167 -0.2518  0.1418
 3396SOL    HW221822   2.790   2.914   9.229  1.3686 -1.7431 -1.5141
 3397SOL     OW21823   3.072   1.248   3.204  0.0910  0.5015 -0.3431
 3397SOL    HW121824   3.157   1.216   3.234 -0.8504 -0.7855  1.0172
 3397SOL    HW221825   3.072   1.340   3.231 -1.2501 -0.0744  1.6889
 3398SOL     OW21826   0.310   1.888   8.540 -0.3340  0.6306  0.4847
 3398SOL    HW121827   0.218   1.893   8.567 -0.5122  0.3981 -0.0827
 3398SOL    HW221828   0.344   1.830   8.608 -1.4536 -1.2366 -0.5608
 3399SOL     OW21829   1.091   1.299   2.623 -0.1401  0.0578  1.0223
 3399SOL    HW121830   1.166   1.357   2.636 -1.3928  2.0336 -0.4370
 3399SOL    HW221831   1.094   1.261   2.711  1.8143  0.7072  1.2348
 3400SOL     OW21832   3.898   4.211  14.530  0.3354  0.4496  0.3854
 3400SOL    HW121833   3.906   4.279  14.463  0.4015  0.7002  0.6488
 3400SOL    HW221834   3.869   4.131  14.485 -2.1472  0.9193  1.1699
 3401SOL     OW21835   3.681   3.281  12.457 -0.5084  0.0337 -0.2701
 3401SOL    HW121836   3.697   3.368  12.421  0.7746  0.2812  0.9231
 3401SOL    HW221837   3.721   3.233  12.384 -2.0319 -2.7519  0.7312
 3402SOL     OW21838   2.256   0.547   6.886 -0.4012 -0.3039  0.2487
 3402SOL    HW121839   2.245   0.511   6.973  0.9421 -0.2633  0.4334
 3402SOL    HW221840   2.167   0.531   6.856 -0.4094 -0.0249  0.1223
 3403SOL     OW21841   1.168   0.861   1.482  1.2096  0.2625  0.3982
 3403SOL    HW121842   1.204   0.776   1.507  1.0610 -0.3503 -1.4613
 3403SOL    HW221843   1.203   0.914   1.554 -0.9888  0.8155  1.0611
 3404SOL     OW21844   4.149   0.420   8.837 -1.0100 -0.4732 -0.0915
 3404SOL    HW121845   4.092   0.358   8.882 -1.2193  0.8289  1.4336
 3404SOL    HW221846   4.217   0.427   8.903 -1.5976 -0.3933  0.5032
 3405SOL     OW21847   0.574   1.138  10.099  0.3057 -0.3817  0.3282
 3405SOL    HW121848   0.608   1.048  10.106 -1.3237 -1.0894 -0.6907
 3405SOL    HW221849   0.491   1.127  10.144  0.6321  0.7010  1.1942
 3406SOL     OW21850   1.690   2.685   8.531  0.3128  0.3777 -0.2265
 3406SOL    HW121851   1.742   2.743   8.587  1.2838 -0.8464  0.1230
 3406SOL    HW221852   1.623   2.750   8.508  0.3330  0.5432  0.1750
 3407SOL     OW21853   4.722   0.517   9.188  0.0396 -0.3738 -0.7882
 3407SOL    HW121854   0.029   0.444   9.145  3.7755  0.8319  0.9424
 3407SOL    HW221855   4.712   0.571   9.109  1.1356 -0.4724 -0.9941
 3408SOL     OW21856   3.922   3.036   9.068 -0.0234  0.1358 -0.2122
 3408SOL    HW121857   3.942   3.042   8.974 -1.7972 -1.2206 -0.6896
 3408SOL    HW221858   3.961   3.119   9.092 -1.8517  0.6281  1.0178
 3409SOL     OW21859   3.149   3.963   6.455 -0.0781  0.0887  0.4386
 3409SOL    HW121860   3.065   3.964   6.501 -0.7984  1.1583 -0.9269
 3409SOL    HW221861   3.193   4.030   6.507  1.5032 -1.5025  1.1493
 3410SOL     OW21862   2.178   0.227  15.889  0.7741 -0.4653 -0.2477
 3410SOL    HW121863   2.134   0.207  15.972  3.4520 -1.2301  0.9808
 3410SOL    HW221864   2.139   0.161  15.832  2.7169  0.5309 -2.7505
 3411SOL     OW21865   3.661   2.092  14.996  0.0647  0.4578  0.1473
 3411SOL    HW121866   3.604   2.138  14.935 -0.7464 -0.1715  0.4292
 3411SOL    HW221867   3.714   2.164  15.031  0.1100  0.4869  0.0173
 3412SOL     OW21868   1.855   1.711   0.785 -0.0498  0.5857 -0.0867
 3412SOL    HW121869   1.794   1.653   0.740  0.0383 -1.1296  2.0294
 3412SOL    HW221870   1.812   1.793   0.808 -2.7642 -0.3994 -1.6625
 3413SOL     OW21871   3.966   2.662   5.153  0.1552 -0.5181  0.2124
 3413SOL    HW121872   4.043   2.697   5.199 -0.0247 -1.5494  1.2670
 3413SOL    HW221873   3.923   2.747   5.146  3.6708  1.2382 -0.5293
 3414SOL     OW21874   1.587   1.418   5.548  0.4659  0.4230 -0.3698
 3414SOL    HW121875   1.624   1.339   5.510 -0.1211 -0.4966  0.9598
 3414SOL    HW221876   1.501   1.410   5.507 -0.5012 -3.0558  2.2439
 3415SOL     OW21877   3.657   2.783   0.402 -0.2474 -0.6151 -0.7007
 3415SOL    HW121878   3.610   2.849   0.454  0.3115  1.0064 -2.2338
 3415SOL    HW221879   3.631   2.699   0.439  1.1948 -0.6608  0.1933
 3416SOL     OW21880   1.910   2.938   9.695 -0.2769 -0.4783 -0.0200
 3416SOL    HW121881   1.961   2.983   9.628  0.9649 -1.4442  0.2826
 3416SOL    HW221882   1.951   2.984   9.768 -1.1064 -1.7881  1.2895
 3417SOL     OW21883   2.557   1.987   1.266 -0.3150 -0.2509  0.0076
 3417SOL    HW121884   2.571   2.079   1.287 -0.2782 -0.0889 -0.7093
 3417SOL    HW221885   2.490   2.012   1.202  0.9636 -0.1070 -1.2845
 3418SOL     OW21886   2.390   0.603  12.893 -0.5793 -0.1856 -0.2963
 3418SOL    HW121887   2.431   0.617  12.808  1.1473 -1.6834  0.2969
 3418SOL    HW221888   2.438   0.658  12.955 -1.6212  2.5466 -1.9303
 3419SOL     OW21889   2.007   0.462   6.766 -0.0231 -0.7276  0.5428
 3419SOL    HW121890   2.050   0.409   6.698  0.3270  0.4528 -0.1408
 3419SOL    HW221891   1.968   0.404   6.832 -1.6505 -0.0260  0.1975
 3420SOL     OW21892   3.529   3.377   8.478 -0.1732  0.8492  0.6353
 3420SOL    HW121893   3.507   3.468   8.459 -1.3031  0.6326  0.9240
 3420SOL    HW221894   3.505   3.357   8.568 -1.2499 -4.6541 -0.8581
 3421SOL     OW21895   1.653   1.857  14.507  0.0786 -0.3713 -0.6852
 3421SOL    HW121896   1.703   1.931  14.541 -0.3104  0.1267 -1.1969
 3421SOL    HW221897   1.568   1.899  14.493 -0.2601 -0.6111  0.6148
 3422SOL     OW21898   3.892   4.448   1.286 -0.2836  0.1128  0.1457
 3422SOL    HW121899   3.944   4.423   1.362 -0.1665  2.3469  0.7873
 3422SOL    HW221900   3.817   4.484   1.333  0.1068  1.4592 -0.2547
 3423SOL     OW21901   0.049   4.354   5.355  0.4386  0.0326 -0.1119
 3423SOL    HW121902   4.701   4.335   5.394  1.3505 -0.8628  1.4467
 3423SOL    HW221903   0.022   4.360   5.263  1.1151  0.0459 -0.3142
 3424SOL     OW21904   2.694   3.028  13.198  0.0311  0.0433  0.2274
 3424SOL    HW121905   2.703   2.933  13.206 -1.6130 -0.1763 -0.6243
 3424SOL    HW221906   2.602   3.038  13.222 -0.6349 -0.9981 -1.9227
 3425SOL     OW21907   3.087   3.284   6.754 -0.3313 -0.4246  0.1577
 3425SOL    HW121908   3.012   3.229   6.776  0.1520 -0.7210  1.0811
 3425SOL    HW221909   3.134   3.288   6.837 -0.4900  0.1892  0.2176
 3426SOL     OW21910   2.692   4.454  12.966  0.0635 -0.0696  0.7256
 3426SOL    HW121911   2.737   4.399  13.030 -0.7247 -0.8022  0.6386
 3426SOL    HW221912   2.627   4.393  12.932  1.8985 -1.1316 -0.8876
 3427SOL     OW21913   0.257   3.957   4.579 -0.0041 -0.2625 -0.2730
 3427SOL    HW121914   0.317   3.942   4.652 -2.4064 -0.9699  1.5572
 3427SOL    HW221915   0.262   3.872   4.535 -0.1543  0.6663 -2.0664
 3428SOL     OW21916   1.115   0.447   5.593 -0.3551  0.0224  0.1695
 3428SOL    HW121917   1.052   0.433   5.523 -0.1074  0.1712 -0.0857
 3428SOL    HW221918   1.099   0.539   5.613 -1.0181  0.2967 -1.6138
 3429SOL     OW21919   4.614   4.076  15.787  0.1331 -0.1764 -0.8646
 3429SOL    HW121920   4.645   3.990  15.813 -0.4093  0.4396  1.7634
 3429SOL    HW221921   4.699   4.121  15.788  0.5504 -0.9197 -3.0667
 3430SOL     OW21922   1.648   4.457   1.915  0.3975 -0.0722 -0.6319
 3430SOL    HW121923   1.717   4.468   1.850  1.8939  0.6546  1.0701
 3430SOL    HW221924   1.591   4.531   1.892  1.3706  0.9186  0.1566
 3431SOL     OW21925   4.607   4.709  11.048  1.0016  0.0896 -0.1326
 3431SOL    HW121926   4.696   4.712  11.083  0.1640 -1.6623  2.1611
 3431SOL    HW221927   4.599   0.063  11.016 -4.3942  0.3710  2.0362
 3432SOL     OW21928   0.485   4.734   4.139 -0.6127  0.0221 -0.4193
 3432SOL    HW121929   0.563   0.012   4.085  0.3756 -0.0663  0.9806
 3432SOL    HW221930   0.430   4.672   4.092  0.9214 -1.1624 -0.6578
 3433SOL     OW21931   4.647   0.266   6.386 -0.2472 -0.7122  0.1570
 3433SOL    HW121932   4.708   0.331   6.422  0.3224 -1.8978  1.3547
 3433SOL    HW221933   4.588   0.256   6.461  0.7922 -2.9283  0.7075
 3434SOL     OW21934   1.199   4.249   1.424 -0.2600  0.0206 -0.0922
 3434SOL    HW121935   1.208   4.157   1.401 -0.9130 -0.1759  0.4186
 3434SOL    HW221936   1.104   4.248   1.414 -0.1086 -0.3880 -1.4290
 3435SOL     OW21937   2.607   2.266   6.918 -0.2107 -0.1237  0.1439
 3435SOL    HW121938   2.573   2.177   6.909  1.8740 -0.8774 -0.3750
 3435SOL    HW221939   2.545   2.301   6.981  0.3357 -0.3260  0.7914
 3436SOL     OW21940   1.841   0.684   6.899  0.6363  0.2058  0.3494
 3436SOL    HW121941   1.913   0.621   6.893  1.3053  1.1411 -1.6094
 3436SOL    HW221942   1.853   0.729   6.983  0.8617 -0.7038  0.8076
 3437SOL     OW21943   3.093   0.028  10.934 -0.3032  0.1661  0.3901
 3437SOL    HW121944   3.025   0.052  10.996  0.0344 -3.6169  2.1910
 3437SOL    HW221945   3.162   4.734  10.993 -0.2590  1.6852  1.1494
 3438SOL     OW21946   1.753   2.885   5.780 -0.0470  0.2486  0.2134
 3438SOL    HW121947   1.820   2.953   5.781 -0.7233  0.9151 -0.3797
 3438SOL    HW221948   1.750   2.851   5.870  1.1717  2.8662  1.2323
 3439SOL     OW21949   3.046   0.623   5.566  1.0186  0.1231 -0.4242
 3439SOL    HW121950   3.141   0.615   5.557  1.1536  0.0885  1.0670
 3439SOL    HW221951   3.019   0.637   5.475  0.2379 -1.1462 -0.3802
 3440SOL     OW21952   3.640   2.269   3.195 -0.1053 -0.4361 -0.2220
 3440SOL    HW121953   3.658   2.292   3.104 -0.1440  0.2088 -0.0625
 3440SOL    HW221954   3.547   2.287   3.206 -0.5912 -3.3495  0.6244
 3441SOL     OW21955   2.474   2.379   7.596 -0.1660 -0.3107  0.1268
 3441SOL    HW121956   2.470   2.394   7.690  0.4793 -2.5005  0.5105
 3441SOL    HW221957   2.522   2.455   7.565  0.7182 -0.8254  0.2491
 3442SOL     OW21958   2.227   0.677  11.704  0.2713  0.1772  0.4664
 3442SOL    HW121959   2.245   0.687  11.610 -0.0188  0.2412  0.4189
 3442SOL    HW221960   2.150   0.732  11.716 -0.1275 -0.3685  0.4265
 3443SOL     OW21961   4.185   4.705   3.357  0.2687 -0.2333  0.0451
 3443SOL    HW121962   4.216   0.038   3.300 -0.1381 -0.7848 -0.8547
 3443SOL    HW221963   4.262   4.676   3.407 -0.0690  1.3572  1.4752
 3444SOL     OW21964   4.082   0.024   3.604 -0.3954 -0.3134 -0.0820
 3444SOL    HW121965   4.123   0.110   3.615 -1.1082  0.1550 -1.0614
 3444SOL    HW221966   4.110   0.012   3.513  2.6852  0.8643  0.7272
 3445SOL     OW21967   4.032   3.095   5.029  0.0295  0.1428 -0.9584
 3445SOL    HW121968   3.993   3.019   5.072 -1.5721  1.7806  0.4957
 3445SOL    HW221969   4.002   3.086   4.938 -0.1128  0.4981 -0.9471
 3446SOL     OW21970   4.479   0.223   2.898 -0.1046  0.3938 -0.0945
 3446SOL    HW121971   4.571   0.196   2.904 -0.4178 -0.4027  0.9757
 3446SOL    HW221972   4.438   0.187   2.976  0.0241 -0.1853 -0.2922
 3447SOL     OW21973   0.738   3.634  11.570 -0.3479  0.2349 -0.4680
 3447SOL    HW121974   0.807   3.696  11.546 -0.3222  1.0290  1.7088
 3447SOL    HW221975   0.778   3.589  11.644  1.6202  2.1124 -0.3859
 3448SOL     OW21976   2.160   2.815   0.602  0.8349  0.5077  0.2112
 3448SOL    HW121977   2.162   2.720   0.589  0.2133  0.1475  2.6891
 3448SOL    HW221978   2.182   2.850   0.516 -0.4188  2.6708  0.7684
 3449SOL     OW21979   0.516   1.030   8.490 -0.0514 -0.0858 -0.2238
 3449SOL    HW121980   0.596   0.983   8.469 -0.5570 -1.0031 -0.0730
 3449SOL    HW221981   0.465   0.959   8.528 -1.6028  0.8748 -0.5056
 3450SOL     OW21982   0.684   1.341   6.124  0.1452  0.1030  0.5120
 3450SOL    HW121983   0.723   1.279   6.186 -4.1038 -2.2364  0.8448
 3450SOL    HW221984   0.656   1.407   6.188 -0.5476  0.6569 -0.3700
 3451SOL     OW21985   3.037   2.649   3.054 -0.4039  0.0912  0.5001
 3451SOL    HW121986   3.041   2.564   3.010  0.4286  1.9844 -3.0904
 3451SOL    HW221987   3.046   2.701   2.974 -1.1522  2.6088  2.0419
 3452SOL     OW21988   1.323   1.176   0.895  0.1941 -0.4460  0.1211
 3452SOL    HW121989   1.285   1.218   0.972  0.0588 -1.6908  0.7296
 3452SOL    HW221990   1.417   1.165   0.912  0.4124  3.7028  1.6796
 3453SOL     OW21991   4.201   1.582   2.388 -0.2071  0.0464 -0.2483
 3453SOL    HW121992   4.295   1.601   2.392 -0.4177  0.7487  1.1626
 3453SOL    HW221993   4.166   1.669   2.408 -0.8923 -0.3231  0.1625
 3454SOL     OW21994   1.085   0.973  12.449 -0.1582 -0.1379 -0.3790
 3454SOL    HW121995   1.047   0.905  12.505  1.4013 -1.5561 -1.0413
 3454SOL    HW221996   1.128   1.011  12.525  0.3706 -0.7741 -0.3635
 3455SOL     OW21997   1.367   2.860   5.078  0.3631  0.2572 -0.1234
 3455SOL    HW121998   1.291   2.872   5.135  0.2676 -0.6129 -0.0756
 3455SOL    HW221999   1.335   2.808   5.005  1.4743 -2.3064  1.2382
 3456SOL     OW22000   3.671   0.171  12.139  0.7442 -0.4932 -0.1532
 3456SOL    HW122001   3.699   0.237  12.076  0.5491  0.7858  1.1080
 3456SOL    HW222002   3.752   0.150  12.186 -0.8035 -0.5037  2.5126
 3457SOL     OW22003   2.726   0.294   7.728  0.2555 -0.0133 -0.0710
 3457SOL    HW122004   2.761   0.382   7.746  0.9671 -0.7444  2.1224
 3457SOL    HW222005   2.779   0.276   7.651 -0.3759  0.0556 -0.5161
 3458SOL     OW22006   3.372   3.428   9.322 -0.1629 -0.0519  0.1298
 3458SOL    HW122007   3.404   3.479   9.397  1.7419 -2.6983  1.1177
 3458SOL    HW222008   3.425   3.348   9.332 -0.0899 -0.2106 -1.5722
 3459SOL     OW22009   4.150   4.323   3.663  0.1190 -0.0369 -0.4538
 3459SOL    HW122010   4.195   4.386   3.719 -1.2544  0.6219 -0.0934
 3459SOL    HW222011   4.067   4.369   3.651  0.4991  1.0295  1.0232
 3460SOL     OW22012   0.362   2.784  12.251 -0.0245 -0.3625 -0.5502
 3460SOL    HW122013   0.371   2.878  12.238 -0.0357 -0.3531 -0.4871
 3460SOL    HW222014   0.286   2.757  12.200 -2.0349  3.2004  0.5860
 3461SOL     OW22015   0.067   2.487   6.203  0.1910 -0.7809 -0.4359
 3461SOL    HW122016   0.083   2.538   6.123 -0.4581 -1.1873 -0.8229
 3461SOL    HW222017   0.133   2.418   6.195  1.0975  0.0218 -0.0025
 3462SOL     OW22018   1.662   4.407  14.049 -0.4338  0.6549  0.2723
 3462SOL    HW122019   1.737   4.351  14.068  0.3490  0.7025 -2.6809
 3462SOL    HW222020   1.626   4.350  13.981 -0.6959  0.9627  0.1522
 3463SOL     OW22021   4.706   1.095   7.948  0.4006  0.4734  0.3858
 3463SOL    HW122022   4.618   1.093   7.985  0.1498 -0.7277 -0.2955
 3463SOL    HW222023   4.737   1.168   8.002 -1.0767  0.0346  1.8069
 3464SOL     OW22024   0.661   4.397   9.325 -0.5930 -0.5922 -0.0394
 3464SOL    HW122025   0.606   4.468   9.356  1.6017  0.9223  0.3896
 3464SOL    HW222026   0.627   4.317   9.366  1.6214 -1.2247  0.5544
 3465SOL     OW22027   2.509   0.877   5.795  0.0776  0.2095 -0.4519
 3465SOL    HW122028   2.569   0.822   5.846  0.2056 -0.7352 -1.6235
 3465SOL    HW222029   2.483   0.941   5.861 -0.0891 -0.3781  0.0574
 3466SOL     OW22030   3.587   1.098   3.187  0.0771 -0.1548  0.8679
 3466SOL    HW122031   3.628   1.017   3.217 -0.3260 -0.4954  0.5099
 3466SOL    HW222032   3.658   1.146   3.145 -1.0000 -0.1664 -0.9890
 3467SOL     OW22033   3.759   2.636   5.566 -0.0281 -0.1937 -0.4501
 3467SOL    HW122034   3.735   2.635   5.658  1.9918 -0.8871  0.0488
 3467SOL    HW222035   3.848   2.603   5.566 -1.0332 -2.9096  0.0281
 3468SOL     OW22036   0.646   2.789   8.847 -0.2787  0.6427  0.3105
 3468SOL    HW122037   0.580   2.771   8.914  0.2014 -0.1461  0.5675
 3468SOL    HW222038   0.608   2.779   8.760 -1.8088  1.3128  0.9039
 3469SOL     OW22039   3.458   3.416   7.187 -0.1703 -0.7620 -0.1331
 3469SOL    HW122040   3.398   3.342   7.176 -2.1877  1.0745 -1.3897
 3469SOL    HW222041   3.493   3.429   7.099  2.1346 -0.8257  0.7863
 3470SOL     OW22042   2.556   1.858  12.582 -0.4134 -0.3442  0.7074
 3470SOL    HW122043   2.560   1.801  12.505 -2.0070  0.5167 -0.0050
 3470SOL    HW222044   2.635   1.912  12.578 -1.5340  1.0895 -2.3398
 3471SOL     OW22045   0.787   4.147  13.709  0.3157  0.1590  0.4070
 3471SOL    HW122046   0.819   4.098  13.784 -0.1137 -2.4779 -1.1337
 3471SOL    HW222047   0.817   4.237  13.719  1.4738 -0.2570  0.7125
 3472SOL     OW22048   2.600   2.499   5.864 -0.1013  0.1004  0.0138
 3472SOL    HW122049   2.556   2.423   5.827  1.3158 -1.7276  2.0591
 3472SOL    HW222050   2.578   2.502   5.957 -0.9625  3.1040 -0.2784
 3473SOL     OW22051   4.659   3.118   4.685 -0.1200 -0.2946 -0.0261
 3473SOL    HW122052   4.675   3.211   4.669 -2.6708  0.5831  2.5482
 3473SOL    HW222053   4.729   3.078   4.633  1.6914  2.1910  0.4895
 3474SOL     OW22054   4.029   2.485   4.048  1.3813 -0.0686  0.7768
 3474SOL    HW122055   4.108   2.521   4.089  1.4900  1.1787 -0.5444
 3474SOL    HW222056   4.056   2.483   3.956 -1.6805  0.7407 -0.1261
 3475SOL     OW22057   2.831   3.771   2.077 -0.3711  0.6123 -0.4994
 3475SOL    HW122058   2.813   3.864   2.063  0.1152  0.7512 -0.2024
 3475SOL    HW222059   2.876   3.740   1.998  2.0612 -2.2706  1.9979
 3476SOL     OW22060   3.046   4.491   9.026 -0.3596 -0.6031  0.2501
 3476SOL    HW122061   3.008   4.578   9.032  1.3856  0.2671 -1.0948
 3476SOL    HW222062   2.972   4.432   9.019 -0.2502 -0.6494 -0.5261
 3477SOL     OW22063   3.886   0.946   5.031  0.1563  0.0309  0.2241
 3477SOL    HW122064   3.918   1.031   5.063  0.5186  0.4303 -1.2190
 3477SOL    HW222065   3.841   0.971   4.950  0.6355  0.4361  0.0845
 3478SOL     OW22066   4.681   2.697   9.044 -0.3325  0.2432 -0.5097
 3478SOL    HW122067   4.602   2.645   9.031 -1.6797  1.6833  1.9956
 3478SOL    HW222068   4.664   2.771   9.103  1.4666 -2.0039  2.8187
 3479SOL     OW22069   2.275   0.256  15.508  0.0625  0.0691 -0.0509
 3479SOL    HW122070   2.228   0.339  15.520 -0.5897 -0.2508 -0.3764
 3479SOL    HW222071   2.351   0.279  15.454  0.9782  0.8448  1.5795
 3480SOL     OW22072   2.430   2.626  11.665 -0.1467 -0.0058 -0.7540
 3480SOL    HW122073   2.406   2.599  11.753 -1.5607 -2.0425 -1.7545
 3480SOL    HW222074   2.369   2.580  11.607 -0.8622 -0.6936  0.5454
 3481SOL     OW22075   0.820   2.451   1.326 -0.3186  0.5266  0.2646
 3481SOL    HW122076   0.867   2.387   1.380 -1.7862 -3.2215 -2.8785
 3481SOL    HW222077   0.734   2.408   1.328  0.1790 -0.4942 -0.7346
 3482SOL     OW22078   2.175   4.006   4.721 -0.4170 -0.7558  0.6527
 3482SOL    HW122079   2.197   3.918   4.750  0.3003 -1.2117 -1.2323
 3482SOL    HW222080   2.212   4.060   4.791  1.9605  0.8445 -1.8075
 3483SOL     OW22081   2.808   0.783   9.268 -0.0534  0.0072  0.5007
 3483SOL    HW122082   2.872   0.836   9.221 -0.6009 -1.1634 -1.5409
 3483SOL    HW222083   2.756   0.764   9.190  2.0760 -0.7005 -0.7476
 3484SOL     OW22084   2.937   1.150  16.694  0.7507 -0.1464 -0.5023
 3484SOL    HW122085   3.019   1.197  16.707 -0.7546  2.0612  1.0632
 3484SOL    HW222086   2.967   1.059  16.702  2.2588  0.3630 -0.5028
 3485SOL     OW22087   0.009   3.133   2.363  0.2864 -0.0740 -0.4744
 3485SOL    HW122088   0.054   3.125   2.279  1.1441  0.5782 -0.0744
 3485SOL    HW222089   0.072   3.102   2.428 -3.2789 -1.9644  2.0554
 3486SOL     OW22090   4.552   4.262   9.325  0.4363  0.0327 -0.1603
 3486SOL    HW122091   4.561   4.249   9.230 -1.4390  0.6423 -0.4259
 3486SOL    HW222092   4.528   4.173   9.350  1.3635  0.0882  0.9131
 3487SOL     OW22093   0.909   4.556   8.868  0.1960  0.9002 -0.4010
 3487SOL    HW122094   0.869   4.515   8.944  0.7768 -1.4385 -1.3373
 3487SOL    HW222095   0.998   4.521   8.879  0.2071  1.1049  0.1503
 3488SOL     OW22096   0.876   1.353   3.685 -0.1351  0.1020  0.1173
 3488SOL    HW122097   0.798   1.387   3.641  0.4009  2.2149  0.7659
 3488SOL    HW222098   0.900   1.279   3.630  0.8329  0.6134 -0.1584
 3489SOL     OW22099   1.988   0.664   6.599 -0.4721 -0.3307 -0.5526
 3489SOL    HW122100   2.083   0.667   6.584 -0.4067 -0.7319 -0.2188
 3489SOL    HW222101   1.979   0.584   6.651  1.3837 -2.5111 -3.5920
 3490SOL     OW22102   2.455   4.217   3.121 -0.3172 -0.1976  0.6984
 3490SOL    HW122103   2.492   4.142   3.168  1.3440  0.4125  0.3855
 3490SOL    HW222104   2.362   4.220   3.141 -0.2510 -0.2580  1.0157
 3491SOL     OW22105   0.249   3.271   1.557 -0.0130  0.3971  0.5267
 3491SOL    HW122106   0.327   3.282   1.611 -0.8049 -0.4479  1.8726
 3491SOL    HW222107   0.220   3.361   1.551  0.5061  0.2609 -3.6332
 3492SOL     OW22108   1.624   2.411   3.188 -0.7946  0.1620 -0.1773
 3492SOL    HW122109   1.570   2.380   3.115  0.8728 -0.4226 -1.1553
 3492SOL    HW222110   1.686   2.462   3.137 -1.3308 -1.1907 -2.1742
 3493SOL     OW22111   3.823   3.893  15.303 -0.6240  0.2640  0.3109
 3493SOL    HW122112   3.760   3.965  15.302 -1.9333 -0.8935 -0.5815
 3493SOL    HW222113   3.802   3.851  15.220 -3.6475  3.9630 -0.7920
 3494SOL     OW22114   1.359   1.019   8.212 -0.1627  0.4868  0.3315
 3494SOL    HW122115   1.307   1.068   8.275  1.8933  1.3109  1.3883
 3494SOL    HW222116   1.443   1.063   8.223  0.2878 -0.1464 -0.5001
 3495SOL     OW22117   4.634   3.984   0.692 -0.1270  0.3058 -0.3223
 3495SOL    HW122118   4.610   4.071   0.725 -0.0531  0.9941 -2.0843
 3495SOL    HW222119   4.553   3.950   0.654  0.2898 -0.2278 -0.7335
 3496SOL     OW22120   3.389   3.706   7.869 -0.8250 -0.5221 -0.0246
 3496SOL    HW122121   3.470   3.725   7.823 -0.6476 -1.0144  0.0927
 3496SOL    HW222122   3.394   3.611   7.873  0.6502 -0.3829  1.3272
 3497SOL     OW22123   3.085   3.665  16.114  0.4748 -0.3794  0.5682
 3497SOL    HW122124   3.093   3.718  16.193  0.0145  2.0149 -0.9856
 3497SOL    HW222125   2.999   3.695  16.084  0.3002  0.2819  1.7472
 3498SOL     OW22126   3.730   0.242   9.765 -0.2567  0.2164 -0.0805
 3498SOL    HW122127   3.758   0.280   9.849 -1.2024 -0.7489  0.6587
 3498SOL    HW222128   3.808   0.191   9.743  0.5044  2.1534 -1.9303
 3499SOL     OW22129   3.576   1.311   5.089 -0.0943  0.4971  0.2530
 3499SOL    HW122130   3.633   1.357   5.027  0.5622  1.5420  1.6208
 3499SOL    HW222131   3.635   1.254   5.138 -0.2997  0.3611  0.3427
 3500SOL     OW22132   1.396   1.995   2.824  0.4872 -0.3129  0.2752
 3500SOL    HW122133   1.481   2.001   2.868  1.0844  1.3418 -1.1464
 3500SOL    HW222134   1.342   1.968   2.899  0.9044  0.1022  0.7264
 3501SOL     OW22135   2.227   2.323   5.360  0.0220 -0.1348  0.6402
 3501SOL    HW122136   2.143   2.351   5.323  1.2336  1.3936 -0.9974
 3501SOL    HW222137   2.211   2.309   5.453 -0.5374  1.8941  0.8416
 3502SOL     OW22138   1.415   2.615   5.301 -0.7442  0.0729 -0.7299
 3502SOL    HW122139   1.326   2.584   5.287 -1.0708  1.2013 -1.1651
 3502SOL    HW222140   1.423   2.689   5.241  0.5646  2.5644  2.4817
 3503SOL     OW22141   2.326   1.262   5.433 -0.4518  0.3311  0.1666
 3503SOL    HW122142   2.354   1.313   5.357  1.6254 -0.4899  0.3657
 3503SOL    HW222143   2.232   1.245   5.425  0.0567 -3.3144  1.8056
 3504SOL     OW22144   2.961   3.532   6.989  0.0674 -0.3103  0.1060
 3504SOL    HW122145   3.014   3.526   7.069 -1.1964  2.2811  1.1415
 3504SOL    HW222146   3.009   3.478   6.926  1.2000  0.7820  0.0277
 3505SOL     OW22147   0.175   1.456   9.187 -0.5678 -0.0690 -0.4356
 3505SOL    HW122148   0.232   1.505   9.129 -0.7783  1.1587  0.3953
 3505SOL    HW222149   0.201   1.480   9.276 -0.7409 -0.8550 -0.1676
 3506SOL     OW22150   0.203   2.074   3.186 -0.3151  0.0507 -0.6536
 3506SOL    HW122151   0.227   2.165   3.169 -1.1878  0.4305  0.1001
 3506SOL    HW222152   0.217   2.067   3.281  1.7763 -1.5981 -1.1084
 3507SOL     OW22153   0.359   1.811   5.464 -0.5942 -0.3374 -0.2572
 3507SOL    HW122154   0.295   1.782   5.529 -0.5130  0.7703  0.3234
 3507SOL    HW222155   0.436   1.796   5.518  1.5506  0.6894 -3.0084
 3508SOL     OW22156   1.524   2.021   7.525  0.2345  0.3845 -0.0195
 3508SOL    HW122157   1.456   2.063   7.472  0.3121  0.2992 -0.1862
 3508SOL    HW222158   1.484   1.939   7.555 -1.1877  1.3413  0.7085
 3509SOL     OW22159   0.295   3.421   9.487  0.0610 -0.0753 -0.1089
 3509SOL    HW122160   0.263   3.427   9.397  0.2054 -0.7256 -0.2038
 3509SOL    HW222161   0.248   3.349   9.529  1.1698 -0.7254  0.0184
 3510SOL     OW22162   3.675   3.630   5.400  0.3126 -0.4769 -0.0835
 3510SOL    HW122163   3.760   3.659   5.367  0.4834 -0.7365  0.1358
 3510SOL    HW222164   3.638   3.709   5.439 -0.5732 -0.3331 -1.2038
 3511SOL     OW22165   2.305   0.359   2.219  0.4994 -0.1879 -0.6360
 3511SOL    HW122166   2.266   0.357   2.306  2.2365  2.9791  0.1951
 3511SOL    HW222167   2.371   0.428   2.216 -0.0456  0.3758  0.9946
 3512SOL     OW22168   2.061   2.524   3.013 -0.1066 -0.1041  0.3904
 3512SOL    HW122169   2.106   2.475   2.945 -0.1557  1.3750 -0.7147
 3512SOL    HW222170   2.132   2.583   3.040  0.4981 -0.4011 -0.5918
 3513SOL     OW22171   3.595   2.946  15.382 -0.7468  0.7900  0.5578
 3513SOL    HW122172   3.520   2.959  15.324 -0.9495 -1.2546  0.3336
 3513SOL    HW222173   3.542   2.918  15.457 -0.6470 -1.3214 -0.1503
 3514SOL     OW22174   4.190   4.588  17.461 -0.4477 -0.2337  0.0828
 3514SOL    HW122175   4.106   4.604  17.418 -1.5417  2.6801  3.2979
 3514SOL    HW222176   4.174   4.615  17.551  1.8892  1.1444  0.0797
 3515SOL     OW22177   3.101   2.995   2.099  0.2255  0.0200 -0.2258
 3515SOL    HW122178   3.102   3.026   2.189  0.3446 -0.1484 -0.1669
 3515SOL    HW222179   3.021   3.032   2.063 -0.0015  0.3790  0.6504
 3516SOL     OW22180   3.813   0.966  16.089 -0.0641 -0.2683 -0.7334
 3516SOL    HW122181   3.897   0.998  16.056  0.5841 -0.2813  0.9059
 3516SOL    HW222182   3.811   0.871  16.084  0.8224 -0.3055 -0.3726
 3517SOL     OW22183   2.675   2.767   8.723  0.6977  0.0996  0.2052
 3517SOL    HW122184   2.722   2.843   8.688  0.0603  0.0777 -0.7138
 3517SOL    HW222185   2.740   2.710   8.763  1.0933  0.3439 -0.0794
 3518SOL     OW22186   4.549   0.770   9.895 -0.0771 -0.0177 -0.3479
 3518SOL    HW122187   4.504   0.714   9.832 -0.7714 -1.0437  1.0369
 3518SOL    HW222188   4.535   0.854   9.852  1.5852 -0.8158 -2.4639
 3519SOL     OW22189   3.163   3.002   9.998  0.2729 -0.0684 -0.0782
 3519SOL    HW122190   3.072   2.982  10.019 -0.2206  1.7120 -0.5476
 3519SOL    HW222191   3.155   3.070   9.932  0.2101 -2.7832 -2.8800
 3520SOL     OW22192   3.532   1.897  13.487  0.0532 -0.0418 -0.0648
 3520SOL    HW122193   3.460   1.898  13.423  0.5247 -2.1326 -0.6034
 3520SOL    HW222194   3.604   1.919  13.427 -0.1630  0.8876  0.0045
 3521SOL     OW22195   3.934   3.948  16.639  0.3822  0.4330  0.4435
 3521SOL    HW122196   3.952   4.023  16.695  0.8512 -1.1500  2.4105
 3521SOL    HW222197   3.865   3.904  16.687  2.0973 -3.2261 -0.4476
 3522SOL     OW22198   4.373   4.112   6.005 -0.5564  0.8194  0.5262
 3522SOL    HW122199   4.318   4.186   6.032  0.0128  0.7540  1.8903
 3522SOL    HW222200   4.397   4.084   6.094 -0.0881 -1.7143 -0.4095
 3523SOL     OW22201   0.762   4.278   2.721  0.3605 -0.4487 -0.4952
 3523SOL    HW122202   0.703   4.305   2.650 -0.0378 -0.0896 -0.0327
 3523SOL    HW222203   0.703   4.286   2.796 -0.2062  2.6264 -1.2683
 3524SOL     OW22204   3.707   1.010   0.444  0.0483 -0.2783 -0.2632
 3524SOL    HW122205   3.739   1.086   0.395 -1.8247 -0.1835 -1.3453
 3524SOL    HW222206   3.648   0.975   0.377 -0.3302  1.6694 -0.9324
 3525SOL     OW22207   4.229   2.907   2.200  0.3617 -0.5500  0.3620
 3525SOL    HW122208   4.268   2.942   2.119 -0.3533  0.8562  0.6291
 3525SOL    HW222209   4.256   2.816   2.189  0.9432 -0.4377  0.8376
 3526SOL     OW22210   2.036   3.872   8.743 -0.3604  0.1753  0.4737
 3526SOL    HW122211   1.985   3.864   8.662 -1.9707 -1.8981  1.7055
 3526SOL    HW222212   1.981   3.929   8.797  0.1875  1.2694 -0.1144
 3527SOL     OW22213   2.238   0.833   3.269 -1.0677  0.2054  0.1098
 3527SOL    HW122214   2.157   0.856   3.224 -0.6325  1.6914  0.0886
 3527SOL    HW222215   2.218   0.861   3.358  0.6360  1.1268  0.2033
 3528SOL     OW22216   2.077   4.036   0.299  0.4299 -0.5241  0.0954
 3528SOL    HW122217   2.032   3.960   0.262  0.0315  0.0525 -0.5846
 3528SOL    HW222218   1.997   4.088   0.307 -0.0877 -1.0123 -1.8822
 3529SOL     OW22219   2.188   1.015   4.350  0.5295  0.1729  0.3301
 3529SOL    HW122220   2.233   0.933   4.329  2.9894  1.6767 -0.2376
 3529SOL    HW222221   2.260   1.077   4.344 -1.5907  2.4709 -1.2491
 3530SOL     OW22222   1.193   2.077   4.767 -0.3044  0.6748 -0.2070
 3530SOL    HW122223   1.100   2.057   4.757 -0.1399 -0.8211  1.2729
 3530SOL    HW222224   1.205   2.066   4.861 -2.4930  0.3770  0.0328
 3531SOL     OW22225   1.529   2.190  13.906 -0.2173 -0.2788  0.3158
 3531SOL    HW122226   1.499   2.174  13.817 -1.0691  0.2356  0.5123
 3531SOL    HW222227   1.610   2.139  13.905  1.4669  2.4048 -0.6095
 3532SOL     OW22228   2.286   2.870  10.000 -0.4164  0.4917 -0.6231
 3532SOL    HW122229   2.308   2.959  10.026 -0.3836  0.9298 -2.1449
 3532SOL    HW222230   2.364   2.830   9.960 -2.1000 -0.8925 -2.5514
 3533SOL     OW22231   4.136   2.829   5.286  0.7397 -0.2396  0.3407
 3533SOL    HW122232   4.215   2.828   5.340  0.9960  2.2492  0.0082
 3533SOL    HW222233   4.076   2.849   5.358 -1.7034  0.4207 -1.8731
 3534SOL     OW22234   0.629   1.683  10.261 -0.4997 -0.2794  0.3023
 3534SOL    HW122235   0.616   1.629  10.183  0.6793  1.2588 -0.9564
 3534SOL    HW222236   0.565   1.649  10.323 -0.9361 -0.1797 -0.0949
 3535SOL     OW22237   2.825   4.360   4.816 -0.3306 -0.3048  0.0895
 3535SOL    HW122238   2.792   4.305   4.887  2.8862  0.7751  2.4328
 3535SOL    HW222239   2.806   4.447   4.849 -1.9592 -1.3617  1.9384
 3536SOL     OW22240   0.249   3.106   4.271 -0.0515  0.0701 -0.0265
 3536SOL    HW122241   0.256   3.198   4.245 -1.4735  0.0549 -0.4204
 3536SOL    HW222242   0.178   3.091   4.209  1.2345 -3.8498 -0.5665
 3537SOL     OW22243   4.723   4.110   8.247  0.3206 -0.0964  0.3466
 3537SOL    HW122244   0.007   4.145   8.159 -1.5438  1.7130  0.6259
 3537SOL    HW222245   0.035   4.167   8.306  0.1115  0.0365  0.3906
 3538SOL     OW22246   4.422   1.584   1.238  0.3686  0.6382 -0.4610
 3538SOL    HW122247   4.333   1.568   1.270  0.9586 -1.6927 -0.0409
 3538SOL    HW222248   4.458   1.497   1.223  3.2018  1.6028  0.5993
 3539SOL     OW22249   4.492   0.922   8.030 -0.1011 -0.2790 -0.0466
 3539SOL    HW122250   4.553   0.852   8.006  0.7844  1.0240 -1.6098
 3539SOL    HW222251   4.414   0.873   8.007  0.9355 -1.7852 -0.3492
 3540SOL     OW22252   0.398   1.142  14.230 -0.0120  0.2873  0.0335
 3540SOL    HW122253   0.353   1.143  14.315  0.4802  0.2621  0.2937
 3540SOL    HW222254   0.427   1.053  14.216  0.1257  0.7184 -2.3689
 3541SOL     OW22255   0.854   2.246  10.607 -1.0697  0.3493 -0.0695
 3541SOL    HW122256   0.873   2.192  10.683 -1.0239  0.6461  0.1298
 3541SOL    HW222257   0.936   2.292  10.591 -0.5904 -0.2109  0.7859
 3542SOL     OW22258   4.547   0.367   9.328  0.2827 -0.1238 -0.1562
 3542SOL    HW122259   4.612   0.298   9.340  1.7065  1.1600 -0.4688
 3542SOL    HW222260   4.597   0.441   9.293 -0.4151  0.9296  1.0333
 3543SOL     OW22261   2.999   1.585  12.354  0.3610  0.2513  0.3688
 3543SOL    HW122262   2.962   1.665  12.392 -1.1911 -0.7522  0.9558
 3543SOL    HW222263   2.994   1.522  12.426 -1.3101 -0.7725 -0.6397
 3544SOL     OW22264   0.040   0.975   5.603  0.6620  0.2938 -0.5300
 3544SOL    HW122265   0.006   0.957   5.516  2.0140  0.6583 -1.1276
 3544SOL    HW222266   0.129   0.940   5.606  0.6943  0.5714  2.1214
 3545SOL     OW22267   3.502   4.267   7.526  0.1089  0.4722  0.0141
 3545SOL    HW122268   3.443   4.299   7.458  1.2524  2.4834 -0.0431
 3545SOL    HW222269   3.449   4.265   7.605 -1.4864  0.1806 -1.0682
 3546SOL     OW22270   2.159   2.338   2.825  0.0649  0.0423 -0.3971
 3546SOL    HW122271   2.097   2.345   2.753 -2.9845  0.3571  2.2922
 3546SOL    HW222272   2.124   2.255   2.858 -1.8446  0.0172 -2.4962
 3547SOL     OW22273   2.734   1.118   1.604  0.4209  0.3111 -0.4160
 3547SOL    HW122274   2.775   1.076   1.529 -1.7892 -0.5937 -1.1041
 3547SOL    HW222275   2.810   1.145   1.656  0.5062  0.0932 -0.4298
 3548SOL     OW22276   2.966   4.374   2.942 -0.0395 -0.5655  0.0682
 3548SOL    HW122277   2.966   4.283   2.970 -0.5410  0.3287  2.9272
 3548SOL    HW222278   2.912   4.359   2.864 -1.7982  1.4128  0.8822
 3549SOL     OW22279   3.898   3.456   3.915 -0.5626  0.4523 -0.1475
 3549SOL    HW122280   3.963   3.446   3.984 -2.4394 -4.8071  0.8413
 3549SOL    HW222281   3.821   3.480   3.967  0.5536  0.7833  1.3757
 3550SOL     OW22282   0.386   0.879  15.060  0.8404 -0.0134 -0.5101
 3550SOL    HW122283   0.418   0.850  14.975  2.4420  1.0358 -0.2560
 3550SOL    HW222284   0.449   0.850  15.126  0.7733 -0.8460 -0.8110
 3551SOL     OW22285   0.008   2.042   6.577  0.1136  0.0726 -0.2821
 3551SOL    HW122286   4.675   2.037   6.642  2.0106  0.0574  1.7629
 3551SOL    HW222287   0.066   2.006   6.644  1.0162  2.2670  0.1419
 3552SOL     OW22288   0.303   2.358   7.146 -0.5490  0.2547 -0.0069
 3552SOL    HW122289   0.213   2.390   7.136 -0.6188 -0.1709 -0.7574
 3552SOL    HW222290   0.294   2.322   7.234 -0.7019 -1.4778 -0.7359
 3553SOL     OW22291   3.530   1.702   9.534  0.3518  0.4001 -0.0688
 3553SOL    HW122292   3.445   1.694   9.491  0.7746 -2.1372 -0.3918
 3553SOL    HW222293   3.563   1.612   9.539  1.3159  0.8144  1.2542
 3554SOL     OW22294   2.653   3.646   7.728  0.5666  0.4008  0.3433
 3554SOL    HW122295   2.716   3.597   7.781 -0.3835 -0.4326  0.6947
 3554SOL    HW222296   2.696   3.660   7.643 -0.8354  3.3014  0.0958
 3555SOL     OW22297   0.663   1.686   3.818 -0.2167  0.4682  0.4604
 3555SOL    HW122298   0.616   1.622   3.870  0.2412  0.4716  0.8791
 3555SOL    HW222299   0.680   1.628   3.743  0.4994  1.8446 -0.4616
 3556SOL     OW22300   2.601   3.098   7.551 -0.0991 -0.3245  0.1653
 3556SOL    HW122301   2.509   3.071   7.553 -0.2885  0.3218  0.0613
 3556SOL    HW222302   2.630   3.025   7.496  1.9213  0.9781 -0.4648
 3557SOL     OW22303   0.151   1.353   3.261  0.3329 -0.7778 -0.6984
 3557SOL    HW122304   0.062   1.386   3.275 -0.6700 -2.3669 -3.4405
 3557SOL    HW222305   0.197   1.433   3.234  0.0299 -0.1081  0.7415
 3558SOL     OW22306   2.222   1.452   8.638  0.3320  0.4040 -0.3630
 3558SOL    HW122307   2.220   1.360   8.665  1.5277  0.6433  0.5195
 3558SOL    HW222308   2.129   1.471   8.636  0.5424  1.3777 -0.8771
 3559SOL     OW22309   0.900   2.138   3.991  0.0265 -0.1794  0.1331
 3559SOL    HW122310   0.995   2.149   3.990 -0.1299  0.9842 -0.9036
 3559SOL    HW222311   0.891   2.061   4.048 -2.9424  1.6062  2.0601
 3560SOL     OW22312   0.267   3.624  14.621 -0.2186 -0.2371 -0.5923
 3560SOL    HW122313   0.208   3.582  14.559 -1.3268  0.0188  0.3050
 3560SOL    HW222314   0.282   3.560  14.691  1.0433  0.5077 -0.1937
 3561SOL     OW22315   2.300   3.570   8.537  0.2140  0.3839 -0.3606
 3561SOL    HW122316   2.257   3.609   8.461  1.7968  1.0855 -0.8927
 3561SOL    HW222317   2.270   3.632   8.603  0.3328  1.0655 -0.9447
 3562SOL     OW22318   1.046   0.290   9.756 -0.0643 -0.1650 -0.0773
 3562SOL    HW122319   0.968   0.257   9.801 -0.0180 -0.0886  0.0582
 3562SOL    HW222320   1.109   0.288   9.828  3.0914 -0.9100 -2.8769
 3563SOL     OW22321   1.030   4.466   1.972 -0.7022  0.7211  0.5728
 3563SOL    HW122322   1.046   4.553   2.008 -0.4236 -0.3981  3.1144
 3563SOL    HW222323   1.016   4.413   2.050  0.5245  0.1340  0.4011
 3564SOL     OW22324   1.945   2.570   5.369  0.1611 -0.2076  0.4262
 3564SOL    HW122325   1.938   2.494   5.427  0.2954 -1.6678 -1.4830
 3564SOL    HW222326   1.886   2.631   5.415  0.4744 -0.2941  0.9460
 3565SOL     OW22327   4.180   4.335  17.210  0.5884  0.7946 -0.0634
 3565SOL    HW122328   4.098   4.312  17.254  0.9606  1.8355  1.1903
 3565SOL    HW222329   4.237   4.378  17.274 -0.3462  0.6132  0.8848
 3566SOL     OW22330   1.974   3.327  16.300  0.7501  0.5008  0.1581
 3566SOL    HW122331   2.065   3.346  16.278  1.1766 -1.6757  0.0385
 3566SOL    HW222332   1.953   3.266  16.230 -0.3921  0.9017  0.1494
 3567SOL     OW22333   3.273   4.320   2.487 -0.1158 -0.0595  0.1360
 3567SOL    HW122334   3.233   4.235   2.472 -1.8976  0.5334  1.6017
 3567SOL    HW222335   3.275   4.352   2.397  0.6471  0.3369  0.2897
 3568SOL     OW22336   3.266   2.742  12.807  0.0606  0.2680 -0.2862
 3568SOL    HW122337   3.290   2.674  12.870  2.6518 -0.7482 -2.3819
 3568SOL    HW222338   3.292   2.701  12.725  0.6350 -0.3566  0.2077
 3569SOL     OW22339   4.531   0.401   9.906 -0.3047  0.2409 -0.4460
 3569SOL    HW122340   4.488   0.387   9.990 -0.8224 -0.4813 -0.8221
 3569SOL    HW222341   4.623   0.420   9.920 -0.5017  0.1995  0.8431
 3570SOL     OW22342   2.955   3.801   6.721 -0.3342  0.0599 -0.2511
 3570SOL    HW122343   2.930   3.876   6.668 -1.3979  0.0658  0.2527
 3570SOL    HW222344   2.968   3.731   6.657 -0.8708 -1.4668  1.2766
 3571SOL     OW22345   4.256   4.146   4.426 -0.4895  0.9705 -0.6883
 3571SOL    HW122346   4.300   4.103   4.353 -1.8151 -4.0128  1.4499
 3571SOL    HW222347   4.165   4.152   4.398 -0.3899 -2.0534 -1.6355
 3572SOL     OW22348   0.989   0.471  11.876  0.4640  0.3798  0.6999
 3572SOL    HW122349   0.920   0.527  11.840  1.2754  1.0357  0.1645
 3572SOL    HW222350   1.047   0.539  11.912 -0.8052  2.5890 -1.4304
 3573SOL     OW22351   2.025   3.117  13.035 -0.7559 -0.1589  0.1044
 3573SOL    HW122352   1.998   3.203  13.067 -0.6403 -0.9353  2.2817
 3573SOL    HW222353   2.115   3.138  13.010 -0.7119  0.6475  0.9393
 3574SOL     OW22354   0.684   1.331   2.822 -0.1101 -0.3052 -0.5355
 3574SOL    HW122355   0.775   1.351   2.845  0.1424 -0.8390 -1.0562
 3574SOL    HW222356   0.638   1.409   2.853 -0.2434 -0.0502 -1.3703
 3575SOL     OW22357   4.300   1.265   6.268 -0.4414  0.6055  0.1140
 3575SOL    HW122358   4.314   1.332   6.335  1.3358  0.3222  0.0263
 3575SOL    HW222359   4.209   1.237   6.273 -0.7686  1.5282 -0.8527
 3576SOL     OW22360   3.802   4.603   2.110  0.1587 -0.1628 -1.0857
 3576SOL    HW122361   3.741   4.625   2.040  0.1032 -1.2406 -1.3702
 3576SOL    HW222362   3.752   4.640   2.184  1.6175 -1.6554  0.6387
 3577SOL     OW22363   0.013   4.110   2.860  0.1933 -0.0398 -0.3329
 3577SOL    HW122364   0.101   4.107   2.822  0.4283 -1.1892  0.3055
 3577SOL    HW222365   4.701   4.160   2.795  0.1373  0.4589  0.0889
 3578SOL     OW22366   3.091   4.383   8.350 -0.1967  0.5508 -0.5697
 3578SOL    HW122367   3.151   4.403   8.278 -1.0913 -0.1833 -1.5380
 3578SOL    HW222368   3.039   4.464   8.342  0.8713  1.1284 -1.6081
 3579SOL     OW22369   2.850   2.636   9.479 -0.0335 -0.1313  0.2138
 3579SOL    HW122370   2.832   2.680   9.562  2.0580  1.1018  0.0072
 3579SOL    HW222371   2.939   2.668   9.462 -0.8134  1.9722  0.0151
 3580SOL     OW22372   4.192   1.524   1.344  0.0907  0.3179 -0.5518
 3580SOL    HW122373   4.149   1.596   1.298 -1.1719 -0.7581 -1.0810
 3580SOL    HW222374   4.115   1.488   1.389 -0.0936  1.8080  0.3118
 3581SOL     OW22375   0.586   2.550  11.322  0.3514 -0.5215  0.3464
 3581SOL    HW122376   0.533   2.494  11.379  0.3988 -0.7137  0.2037
 3581SOL    HW222377   0.539   2.634  11.322  0.3465 -0.5218 -0.0940
 3582SOL     OW22378   2.536   1.956   2.200 -0.2829 -0.3710 -0.3180
 3582SOL    HW122379   2.489   1.967   2.282  0.3775 -0.4056  0.0644
 3582SOL    HW222380   2.622   1.938   2.238  0.8959  2.5027 -1.6002
 3583SOL     OW22381   4.290   1.030   3.039 -0.0576  0.0908  0.8495
 3583SOL    HW122382   4.218   1.019   3.101  0.1208 -1.8913  0.7232
 3583SOL    HW222383   4.237   1.015   2.960 -1.0546  2.0755  1.1335
 3584SOL     OW22384   3.757   1.579   7.568 -0.0952  0.1390  0.2121
 3584SOL    HW122385   3.740   1.590   7.662 -0.2071  3.4774 -0.2089
 3584SOL    HW222386   3.752   1.671   7.541 -2.6794 -0.3187 -0.7822
 3585SOL     OW22387   0.673   2.747   5.157  0.7000  0.1966 -0.2714
 3585SOL    HW122388   0.621   2.686   5.209  1.0489  0.4644  0.4046
 3585SOL    HW222389   0.615   2.768   5.084 -0.3878 -0.9697  0.2761
 3586SOL     OW22390   4.420   1.159   8.382 -0.1669 -0.2400  0.1106
 3586SOL    HW122391   4.343   1.105   8.398 -0.1719 -0.2700 -0.0116
 3586SOL    HW222392   4.394   1.217   8.311 -2.4021 -1.5066 -0.0960
 3587SOL     OW22393   2.402   2.061   2.979 -0.6832  0.2766 -0.1881
 3587SOL    HW122394   2.442   2.127   3.036 -1.0870 -1.1607  1.7404
 3587SOL    HW222395   2.420   2.092   2.890  0.9520 -3.9012 -1.2720
 3588SOL     OW22396   0.155   1.971   3.909  0.4632  0.1329 -0.5659
 3588SOL    HW122397   0.117   2.058   3.900  0.3221  0.2230  0.9591
 3588SOL    HW222398   0.244   1.982   3.943  0.4396 -1.2699 -0.0424
 3589SOL     OW22399   1.951   3.032   3.763 -0.1245  0.0697 -0.4950
 3589SOL    HW122400   1.876   2.990   3.723  0.2218 -0.9934 -0.0351
 3589SOL    HW222401   2.021   3.007   3.702  0.6792  1.0219  0.0362
 3590SOL     OW22402   0.733   4.531   7.515 -0.0453 -0.0707 -0.3874
 3590SOL    HW122403   0.680   4.491   7.445 -0.0535 -1.1117  0.2115
 3590SOL    HW222404   0.816   4.511   7.471  1.2921  2.0988  1.1295
 3591SOL     OW22405   0.894   1.221   7.023 -0.3633  0.8079  0.4233
 3591SOL    HW122406   0.979   1.197   7.062 -1.1304  1.6320  2.6006
 3591SOL    HW222407   0.850   1.170   7.091  1.7526  0.3252  1.4449
 3592SOL     OW22408   1.761   0.354   9.969 -0.0167  0.3444  0.2950
 3592SOL    HW122409   1.800   0.286  10.025 -2.1753 -1.9360 -0.9692
 3592SOL    HW222410   1.697   0.309   9.914  0.3460  0.5182 -0.2644
 3593SOL     OW22411   2.307   1.205   3.854  0.0356 -0.0098 -0.4559
 3593SOL    HW122412   2.224   1.203   3.806 -0.6239 -1.7474  0.7530
 3593SOL    HW222413   2.317   1.298   3.877 -0.0084 -0.0989 -0.0844
 3594SOL     OW22414   4.699   0.991  12.036 -0.9616 -0.2084  0.4706
 3594SOL    HW122415   0.049   1.016  12.004 -1.4019 -1.6518 -1.8904
 3594SOL    HW222416   4.728   0.956  12.120  1.7998 -1.4019 -0.9823
 3595SOL     OW22417   4.240   4.515  14.227 -0.8662 -0.6556  0.1692
 3595SOL    HW122418   4.329   4.483  14.237 -0.5152 -0.2946 -1.7394
 3595SOL    HW222419   4.247   4.599  14.181 -2.8079  0.0077  1.1027
 3596SOL     OW22420   3.980   2.353  14.285 -0.1366  0.3474 -0.0580
 3596SOL    HW122421   3.998   2.412  14.213 -0.7507  3.3062  2.2194
 3596SOL    HW222422   4.016   2.269  14.257  2.0168  1.7185 -1.3489
 3597SOL     OW22423   1.598   0.454  17.477  0.6703 -1.0331  0.0975
 3597SOL    HW122424   1.513   0.440  17.434 -0.5158  2.7712  1.2788
 3597SOL    HW222425   1.587   0.517  17.548 -1.9072 -1.1415 -0.2188
 3598SOL     OW22426   0.476   2.139   1.801 -0.1472  0.3048  0.5163
 3598SOL    HW122427   0.531   2.131   1.723 -0.4232 -1.2058  0.4627
 3598SOL    HW222428   0.402   2.182   1.757  0.1212 -0.9003 -1.1304
 3599SOL     OW22429   3.903   3.314   6.333 -0.4928  0.1970  0.9413
 3599SOL    HW122430   3.950   3.329   6.251 -1.3236 -2.1177  0.0275
 3599SOL    HW222431   3.889   3.219   6.323  0.0352  0.0841  1.2740
 3600SOL     OW22432   3.939   2.482   3.184 -0.1791  0.1217  0.6894
 3600SOL    HW122433   3.894   2.549   3.133  1.3047  0.3251 -0.3632
 3600SOL    HW222434   3.880   2.471   3.259 -1.2711  2.2942  0.1377
 3601SOL     OW22435   2.927   2.104   9.149  0.0827 -0.3261  0.1278
 3601SOL    HW122436   2.980   2.150   9.084  0.1327 -0.9665 -0.2732
 3601SOL    HW222437   2.994   2.046   9.185  0.0227  0.6746  1.8819
 3602SOL     OW22438   2.122   2.628   2.719  0.4000  0.5666 -0.5083
 3602SOL    HW122439   2.072   2.676   2.653 -1.0259 -1.7606 -1.1244
 3602SOL    HW222440   2.116   2.535   2.699 -0.6502  0.4903  0.2176
 3603SOL     OW22441   1.899   4.581  16.722 -0.4267  0.1831 -0.1413
 3603SOL    HW122442   1.806   4.594  16.703 -0.5359  0.0746  0.3321
 3603SOL    HW222443   1.897   4.518  16.793  1.4845 -1.5845 -1.6417
 3604SOL     OW22444   1.871   2.496  16.876  0.5391 -0.0436 -0.1386
 3604SOL    HW122445   1.832   2.421  16.920 -1.5401  0.6138 -0.8563
 3604SOL    HW222446   1.803   2.549  16.834  0.0823  0.3296  1.0570
 3605SOL     OW22447   3.342   0.521   2.037 -0.4389  0.7540  0.0668
 3605SOL    HW122448   3.405   0.586   2.008 -0.6722  2.3043  3.0511
 3605SOL    HW222449   3.271   0.525   1.972 -0.1566  1.1595 -0.2125
 3606SOL     OW22450   2.270   4.432   7.266 -0.0211 -0.5671  0.2945
 3606SOL    HW122451   2.291   4.364   7.330  2.2374  0.1106  0.2790
 3606SOL    HW222452   2.347   4.489   7.256  1.0999 -2.5307 -2.4683
 3607SOL     OW22453   4.693   2.554   6.667  0.5558  0.3873 -0.7264
 3607SOL    HW122454   4.714   2.641   6.635 -0.2645  1.7847  2.6129
 3607SOL    HW222455   4.709   2.511   6.582 -0.8706  2.8230 -2.2139
 3608SOL     OW22456   1.874   3.762   0.483  0.1091  0.1284 -0.0288
 3608SOL    HW122457   1.927   3.720   0.415 -0.9342 -0.4428 -0.4872
 3608SOL    HW222458   1.810   3.692   0.496 -0.5122  0.6245 -0.4340
 3609SOL     OW22459   0.744   1.279   8.544 -0.0470 -0.5161  0.1900
 3609SOL    HW122460   0.697   1.260   8.625 -0.8104  0.3004 -0.0612
 3609SOL    HW222461   0.771   1.191   8.518 -1.6046 -0.6773 -0.9063
 3610SOL     OW22462   4.552   3.457  14.803 -0.6567 -0.1769 -0.1127
 3610SOL    HW122463   4.473   3.403  14.808 -2.5125  2.4868 -0.5849
 3610SOL    HW222464   4.582   3.456  14.894  1.9944 -0.0657 -1.0004
 3611SOL     OW22465   0.757   2.025   3.490  0.4331  0.1019 -0.0887
 3611SOL    HW122466   0.762   2.121   3.484 -0.1275  0.1592  0.3508
 3611SOL    HW222467   0.775   2.002   3.581 -1.4271 -0.8934  0.0219
 3612SOL     OW22468   4.349   3.228  15.072 -0.6597 -0.0978 -0.3100
 3612SOL    HW122469   4.424   3.288  15.064 -0.5465 -0.2030 -0.0169
 3612SOL    HW222470   4.369   3.180  15.152  1.9533  1.2293 -0.1413
 3613SOL     OW22471   3.237   2.918   3.026  0.1168 -0.6963 -0.7154
 3613SOL    HW122472   3.239   2.931   3.121 -0.3950  1.1853 -0.9533
 3613SOL    HW222473   3.323   2.944   2.993  0.8048 -3.6849 -1.2248
 3614SOL     OW22474   4.263   1.058   7.462  0.6818  0.3630  0.2441
 3614SOL    HW122475   4.276   0.977   7.411  3.0497  2.0618 -1.8393
 3614SOL    HW222476   4.198   1.022   7.523 -0.5337 -0.1150 -1.3411
 3615SOL     OW22477   1.814   4.474   4.031  0.1658 -0.4616 -0.1208
 3615SOL    HW122478   1.908   4.489   4.024 -0.0103  1.3241  1.5033
 3615SOL    HW222479   1.806   4.380   4.051  0.2232 -0.4236  0.0828
 3616SOL     OW22480   4.574   3.624   7.570  0.3307  0.7777  0.5802
 3616SOL    HW122481   4.518   3.581   7.634 -1.0987  1.5404 -0.1484
 3616SOL    HW222482   4.621   3.687   7.625  1.2873  0.9664 -0.4510
 3617SOL     OW22483   0.774   3.634   8.412 -0.2395 -0.6205 -0.4881
 3617SOL    HW122484   0.854   3.686   8.414 -1.7836  1.7310  1.1974
 3617SOL    HW222485   0.797   3.577   8.486 -1.1152  0.2425  0.4525
 3618SOL     OW22486   3.156   1.481   2.684 -0.3811 -0.5588  0.2874
 3618SOL    HW122487   3.247   1.504   2.704 -0.0750 -0.1454 -1.6413
 3618SOL    HW222488   3.109   1.497   2.766  0.6300 -1.3859  1.0513
 3619SOL     OW22489   2.837   3.371   4.939 -0.0729 -0.4247  0.6473
 3619SOL    HW122490   2.893   3.344   5.011  0.5164 -0.7986  0.0514
 3619SOL    HW222491   2.902   3.413   4.883 -1.4572 -1.8514 -2.0726
 3620SOL     OW22492   2.573   0.639   7.638 -0.1252 -0.0068  0.0530
 3620SOL    HW122493   2.654   0.687   7.655 -0.5763  0.9815 -0.5830
 3620SOL    HW222494   2.554   0.666   7.548 -2.1557 -2.4643 -0.2555
 3621SOL     OW22495   4.102   2.086   2.431 -0.6151 -0.1028  0.3194
 3621SOL    HW122496   4.017   2.096   2.388 -1.1226  1.4100  1.6814
 3621SOL    HW222497   4.089   2.126   2.517 -2.8079 -0.9105  0.3441
 3622SOL     OW22498   3.089   1.384  12.529  0.4051  0.3292  0.1346
 3622SOL    HW122499   3.182   1.403  12.540  0.5431 -0.9330  1.1618
 3622SOL    HW222500   3.102   1.329  12.452  1.8924 -0.9879  1.3272
 3623SOL     OW22501   0.447   1.599   0.391  0.0487 -0.1851 -0.0323
 3623SOL    HW122502   0.415   1.686   0.416 -1.3777 -0.6142 -0.3624
 3623SOL    HW222503   0.364   1.565   0.356 -0.2364 -0.6780  1.1454
 3624SOL     OW22504   3.642   1.676   1.399 -0.1546  0.3059  0.0961
 3624SOL    HW122505   3.597   1.652   1.318 -0.4536 -1.5718  0.8218
 3624SOL    HW222506   3.624   1.594   1.444 -1.7787 -1.0997 -3.1161
 3625SOL     OW22507   4.554   3.976   5.618  0.0195  0.1932  0.0513
 3625SOL    HW122508   4.639   3.982   5.574  0.8992 -0.9798  1.5909
 3625SOL    HW222509   4.573   4.033   5.693 -1.3799  1.8243 -0.8200
 3626SOL     OW22510   4.010   1.721   1.176  0.2347 -0.4235 -1.1272
 3626SOL    HW122511   4.005   1.777   1.254  2.9784 -2.6431  0.6506
 3626SOL    HW222512   4.030   1.775   1.099 -0.5161  1.9419  0.3324
 3627SOL     OW22513   4.304   1.521   8.437 -0.0084  0.1678  0.1733
 3627SOL    HW122514   4.299   1.472   8.354  2.8657  0.4461 -0.1429
 3627SOL    HW222515   4.290   1.463   8.511  0.5029  0.1675  0.2657
 3628SOL     OW22516   2.197   1.410   4.259 -0.4482 -0.1989  0.3820
 3628SOL    HW122517   2.271   1.366   4.301 -0.0556  2.1359  2.1333
 3628SOL    HW222518   2.222   1.502   4.258 -0.3469 -0.2363 -0.8636
 3629SOL     OW22519   0.629   0.760   9.946 -0.4467  0.5152 -0.2957
 3629SOL    HW122520   0.543   0.801   9.935 -0.6159  0.3034  0.2445
 3629SOL    HW222521   0.650   0.734   9.856 -1.7470 -1.8373  0.0551
 3630SOL     OW22522   0.767   2.641   1.630  0.2967 -0.3118  0.0984
 3630SOL    HW122523   0.754   2.727   1.590 -0.5051 -0.7397 -0.5713
 3630SOL    HW222524   0.827   2.598   1.570  0.1075  0.7834 -0.8737
 3631SOL     OW22525   4.429   1.668  14.781  0.0741 -0.0081 -0.0393
 3631SOL    HW122526   4.479   1.749  14.771 -1.3236  0.7718 -0.7734
 3631SOL    HW222527   4.488   1.607  14.826  0.2684  0.0729 -0.1850
 3632SOL     OW22528   2.858   4.541   8.393 -0.3059  0.0474 -0.3152
 3632SOL    HW122529   2.798   4.475   8.427  1.1803  0.2609  2.7376
 3632SOL    HW222530   2.840   4.619   8.445  1.8621  0.3299  0.0324
 3633SOL     OW22531   3.112   1.032   5.087 -0.0166 -0.1211  0.3206
 3633SOL    HW122532   3.132   0.958   5.144 -3.3106 -1.0360  0.2816
 3633SOL    HW222533   3.189   1.090   5.088 -0.4710  0.4829  0.3515
 3634SOL     OW22534   3.636   2.191   3.685  0.3510 -0.4161 -0.1849
 3634SOL    HW122535   3.645   2.101   3.652 -0.0355 -0.4597 -0.1750
 3634SOL    HW222536   3.598   2.247   3.617 -0.6692 -0.8965 -0.0189
 3635SOL     OW22537   3.050   2.875   5.329 -1.1734  0.7884 -0.4661
 3635SOL    HW122538   3.035   2.928   5.250 -1.5696  0.7089 -0.4469
 3635SOL    HW222539   3.010   2.790   5.309  1.0084 -0.7853  1.9346
 3636SOL     OW22540   4.533   3.990  17.107  0.1749  0.0224  0.2920
 3636SOL    HW122541   4.575   4.049  17.169 -0.0402 -0.8118  1.2433
 3636SOL    HW222542   4.613   3.949  17.076 -0.4005 -0.6811 -0.2562
 3637SOL     OW22543   4.327   2.526   4.094  0.0988  0.1252  0.2128
 3637SOL    HW122544   4.408   2.491   4.057 -1.3682 -0.6414 -2.2366
 3637SOL    HW222545   4.349   2.522   4.188 -1.0969 -0.3219  0.4737
 3638SOL     OW22546   1.846   4.102   1.367  0.0224 -0.3571  0.1158
 3638SOL    HW122547   1.788   4.156   1.420 -0.7168  1.9270 -2.9640
 3638SOL    HW222548   1.920   4.075   1.422 -1.6756 -0.3069  2.3989
 3639SOL     OW22549   4.160   4.082   7.274  0.3220 -0.2868 -0.1842
 3639SOL    HW122550   4.091   4.041   7.326  0.3679 -1.4851 -1.0596
 3639SOL    HW222551   4.146   4.172   7.302  1.0710 -0.2838  0.1683
 3640SOL     OW22552   3.869   1.426   5.229 -0.3045  0.6581  0.0649
 3640SOL    HW122553   3.887   1.471   5.312 -1.2117  3.2523 -1.1423
 3640SOL    HW222554   3.876   1.502   5.171  2.7816  1.0989  1.0230
 3641SOL     OW22555   3.735   0.175  16.756  0.4784  0.1248 -0.6335
 3641SOL    HW122556   3.642   0.156  16.772  1.2253 -3.1998 -0.3284
 3641SOL    HW222557   3.739   0.242  16.688 -0.7508 -0.1803 -1.0168
 3642SOL     OW22558   2.536   0.515   4.762  0.1420 -0.0467  0.0730
 3642SOL    HW122559   2.497   0.442   4.810  0.0359  0.1267  0.2498
 3642SOL    HW222560   2.565   0.570   4.835  0.7181  0.0346 -0.2177
 3643SOL     OW22561   1.546   4.139   6.154  0.3978 -0.1419  0.7772
 3643SOL    HW122562   1.545   4.230   6.184 -0.5652 -0.5317  1.9263
 3643SOL    HW222563   1.637   4.126   6.126  0.3291 -2.1704  1.5165
 3644SOL     OW22564   4.017   1.285  17.379  0.3941  0.2449 -0.3564
 3644SOL    HW122565   4.105   1.306  17.408  1.5170 -1.6333 -2.3869
 3644SOL    HW222566   3.986   1.372  17.355  0.3822  0.0261 -1.1575
 3645SOL     OW22567   0.636   2.257   5.244 -0.8986  0.4788  0.1174
 3645SOL    HW122568   0.729   2.278   5.245 -0.8301  0.2191 -0.4526
 3645SOL    HW222569   0.613   2.294   5.159 -0.7556 -0.6468 -0.4137
 3646SOL     OW22570   4.210   3.372   7.369  0.1105  0.6226  0.2302
 3646SOL    HW122571   4.284   3.311   7.363 -0.8190 -0.2807 -2.3658
 3646SOL    HW222572   4.224   3.415   7.453 -1.2734 -1.3005  1.4371
 3647SOL     OW22573   4.596   3.525   8.960  0.4626 -0.1709 -0.1767
 3647SOL    HW122574   4.546   3.455   9.001 -1.9970  1.6849 -0.0282
 3647SOL    HW222575   4.598   3.602   9.016 -2.0886  0.7959 -1.4263
 3648SOL     OW22576   2.637   1.090   5.131  0.1605  0.4113  0.2392
 3648SOL    HW122577   2.713   1.074   5.075  0.6184  2.4564  0.2549
 3648SOL    HW222578   2.567   1.068   5.070  0.2439 -3.3350  1.5024
 3649SOL     OW22579   0.782   1.417  11.393  0.0468 -0.0652  0.6222
 3649SOL    HW122580   0.719   1.481  11.426 -1.4406 -0.7536 -0.9333
 3649SOL    HW222581   0.819   1.481  11.332 -0.3946 -0.2367  0.1801
 3650SOL     OW22582   0.837   4.196  11.515 -0.4418  0.3697  0.0581
 3650SOL    HW122583   0.922   4.182  11.472 -0.6269  1.0516 -0.5243
 3650SOL    HW222584   0.860   4.234  11.600  0.4597 -1.9824  0.8512
 3651SOL     OW22585   4.694   3.400   7.450 -0.0533 -0.5768  0.5326
 3651SOL    HW122586   0.038   3.433   7.490 -0.7193  0.0478  1.3736
 3651SOL    HW222587   4.630   3.468   7.473 -0.6237 -0.6099 -0.9578
 3652SOL     OW22588   0.877   4.051   3.222  0.5257 -0.0780  0.0427
 3652SOL    HW122589   0.862   4.145   3.212  2.1570  0.1617 -0.0671
 3652SOL    HW222590   0.826   4.016   3.149  1.2788  1.2937 -1.1374
 3653SOL     OW22591   0.155   2.326  12.999  0.4518 -0.0263  0.5338
 3653SOL    HW122592   0.142   2.275  13.079  0.2729  1.0872  1.2163
 3653SOL    HW222593   0.065   2.356  12.990  1.1239  1.4791 -1.1965
 3654SOL     OW22594   0.155   3.312   7.143  0.2941 -0.1909  0.0060
 3654SOL    HW122595   0.215   3.359   7.200 -0.5285  0.1132  0.6264
 3654SOL    HW222596   0.188   3.355   7.065  1.2111  0.0188  0.5131
 3655SOL     OW22597   2.039   2.957   4.973 -0.0932  0.5555 -0.3492
 3655SOL    HW122598   1.996   3.041   4.991  0.6161  1.5824 -3.4320
 3655SOL    HW222599   1.975   2.905   4.924 -1.5224  1.4543  0.5760
 3656SOL     OW22600   2.338   2.844   4.920  0.3316  0.6442 -0.1536
 3656SOL    HW122601   2.384   2.921   4.954  1.8427 -0.4802  0.3620
 3656SOL    HW222602   2.246   2.869   4.921 -0.1001 -1.0497  1.0875
 3657SOL     OW22603   2.753   1.679   7.100 -0.3930  0.6961  0.3733
 3657SOL    HW122604   2.678   1.709   7.049  0.6870  0.2287 -1.5010
 3657SOL    HW222605   2.802   1.761   7.102 -0.0123  0.4254  1.9174
 3658SOL     OW22606   0.432   3.097   7.372  0.4688  0.3643 -0.4272
 3658SOL    HW122607   0.408   3.164   7.436  2.0505  1.8747 -1.4329
 3658SOL    HW222608   0.360   3.037   7.391 -0.3454  1.3666 -0.3173
 3659SOL     OW22609   0.353   2.356   3.332  0.1165 -0.7423  0.4653
 3659SOL    HW122610   0.429   2.372   3.277  0.4912 -0.9614  0.9183
 3659SOL    HW222611   0.380   2.384   3.420  0.1932  0.7251 -0.0215
 3660SOL     OW22612   3.745   0.904  13.879  0.2687 -0.0024 -0.3317
 3660SOL    HW122613   3.798   0.942  13.808  0.2910  0.3269 -0.1369
 3660SOL    HW222614   3.791   0.820  13.880  1.8062  0.8595  0.5575
 3661SOL     OW22615   1.807   2.920   4.750 -0.1597  0.2325  0.0426
 3661SOL    HW122616   1.713   2.935   4.754 -0.0533  0.4397  1.7884
 3661SOL    HW222617   1.832   2.987   4.686  1.8234 -0.3484  0.2170
 3662SOL     OW22618   0.355   3.442   4.796 -0.6874 -0.2171  0.1123
 3662SOL    HW122619   0.276   3.482   4.760  0.5359  1.4166 -0.7762
 3662SOL    HW222620   0.393   3.515   4.844 -0.4648 -0.3320  0.1137
 3663SOL     OW22621   1.920   3.198   2.033  0.2062 -0.1095 -0.5656
 3663SOL    HW122622   1.982   3.168   1.966  1.4850  0.3431  0.4144
 3663SOL    HW222623   1.854   3.129   2.042 -0.7761  0.7478 -1.2416
 3664SOL     OW22624   3.209   1.056   8.275 -0.1630  0.0845 -0.9303
 3664SOL    HW122625   3.154   1.104   8.214  0.8366  0.8835 -1.2156
 3664SOL    HW222626   3.215   1.124   8.342 -0.6537  0.2215 -1.0284
 3665SOL     OW22627   1.473   1.013  10.104  0.2377 -0.2258  0.0410
 3665SOL    HW122628   1.401   0.953  10.087 -0.7740  0.8228  0.6575
 3665SOL    HW222629   1.516   0.945  10.156  1.2887 -0.2243 -0.8131
 3666SOL     OW22630   1.521   0.252   7.615  0.0305 -0.8693 -0.1703
 3666SOL    HW122631   1.544   0.289   7.529  0.3974  0.7203  0.6142
 3666SOL    HW222632   1.497   0.160   7.601  4.1760 -2.2309  1.6370
 3667SOL     OW22633   3.648   2.176   5.811  0.2137  0.8806  0.7428
 3667SOL    HW122634   3.625   2.176   5.904  1.2810 -1.3273  1.0083
 3667SOL    HW222635   3.733   2.220   5.812  0.6640  0.0310 -0.8447
 3668SOL     OW22636   2.371   1.779   4.453 -0.0536  0.1164 -0.2653
 3668SOL    HW122637   2.371   1.841   4.526  2.2789 -2.1054  1.6504
 3668SOL    HW222638   2.441   1.725   4.489 -3.2909 -1.3093  3.9112
 3669SOL     OW22639   2.247   3.176   1.627  0.4993  0.2864  0.4605
 3669SOL    HW122640   2.290   3.262   1.633  2.4138 -0.7688  1.8366
 3669SOL    HW222641   2.168   3.198   1.579  1.6703  1.7872 -0.7823
 3670SOL     OW22642   3.860   4.634  15.940 -0.4756  0.3733 -0.0762
 3670SOL    HW122643   3.855   4.725  15.972  1.5075  1.4658 -2.8824
 3670SOL    HW222644   3.955   4.629  15.928 -0.7608  0.7771 -2.4875
 3671SOL     OW22645   2.782   0.484  12.622  0.2669 -0.0572  0.1202
 3671SOL    HW122646   2.774   0.392  12.647 -0.0664 -0.0256  0.1185
 3671SOL    HW222647   2.688   0.489  12.605  0.2905  2.1124  0.6208
 3672SOL     OW22648   4.090   0.864   2.097  0.2059  0.4646 -0.2385
 3672SOL    HW122649   4.082   0.868   2.192  0.7262 -4.8484  0.0198
 3672SOL    HW222650   4.183   0.868   2.076 -0.0314  0.2902 -1.3414
 3673SOL     OW22651   4.479   0.898   5.613 -0.7297 -0.6466  0.1210
 3673SOL    HW122652   4.513   0.934   5.531 -1.6804 -0.0129  0.0010
 3673SOL    HW222653   4.556   0.871   5.662 -0.7478  2.0867  1.6291
 3674SOL     OW22654   3.982   2.245   7.036  0.7573 -0.2885 -0.5516
 3674SOL    HW122655   4.064   2.287   7.060 -0.4531  1.8046 -0.1169
 3674SOL    HW222656   3.973   2.171   7.097  1.5042 -0.6282 -0.8575
 3675SOL     OW22657   0.939   3.823   4.795 -0.2991 -0.4848 -0.4441
 3675SOL    HW122658   0.968   3.892   4.735  0.9461  0.4710  1.2513
 3675SOL    HW222659   0.895   3.757   4.741  1.0576 -0.0990 -2.0267
 3676SOL     OW22660   1.455   0.332   3.607 -0.0921 -0.4695 -0.0185
 3676SOL    HW122661   1.429   0.358   3.696 -0.9616  1.1804 -0.7407
 3676SOL    HW222662   1.531   0.276   3.618  0.8132  0.4300 -1.7409
 3677SOL     OW22663   0.445   0.151   2.827 -0.5569 -0.3065 -0.1761
 3677SOL    HW122664   0.507   0.092   2.870 -1.7426  0.9148  3.2154
 3677SOL    HW222665   0.487   0.157   2.741  1.1713  0.5616  0.7389
 3678SOL     OW22666   2.907   0.026   7.864  0.1640  0.6393 -0.3908
 3678SOL    HW122667   2.906   4.729   7.954  1.3587  1.8815  0.0862
 3678SOL    HW222668   2.970   4.704   7.821 -0.8666 -0.7942  0.0586
 3679SOL     OW22669   4.502   2.095   5.153  0.0899 -0.1579  0.4104
 3679SOL    HW122670   4.517   2.126   5.063  1.9528 -0.7580  0.5036
 3679SOL    HW222671   4.407   2.084   5.146  0.1814 -1.0180  0.5397
 3680SOL     OW22672   0.489   1.750   5.916  0.1513 -0.1935 -0.0900
 3680SOL    HW122673   0.447   1.664   5.913 -2.8489  1.2464  0.1849
 3680SOL    HW222674   0.564   1.726   5.970 -1.4867 -1.4090  1.6732
 3681SOL     OW22675   2.691   1.669   3.792  0.0843 -0.4714 -0.8485
 3681SOL    HW122676   2.783   1.693   3.801 -0.2482  0.0394  1.1197
 3681SOL    HW222677   2.679   1.611   3.868 -3.8226  1.2776 -0.0862
 3682SOL     OW22678   3.061   4.367   5.171 -0.6265 -0.0688  0.4123
 3682SOL    HW122679   3.056   4.288   5.118  2.0447 -0.7549  1.1427
 3682SOL    HW222680   3.088   4.437   5.112  0.5641 -1.6903 -0.9892
 3683SOL     OW22681   0.034   3.222   2.719  0.0968  0.1036 -0.0890
 3683SOL    HW122682   4.686   3.181   2.736 -0.6248  1.8147  0.5052
 3683SOL    HW222683   0.096   3.162   2.760  0.1311  1.0166  1.2068
 3684SOL     OW22684   2.105   0.970   7.193 -0.0273 -0.6526 -0.3454
 3684SOL    HW122685   2.093   1.061   7.167 -0.2242 -0.7183 -0.4835
 3684SOL    HW222686   2.201   0.971   7.196 -0.0318 -1.0696 -0.0540
 3685SOL     OW22687   3.552   1.221   7.777 -0.1205  0.2082 -0.2017
 3685SOL    HW122688   3.500   1.294   7.742  0.6898 -0.3307 -2.5509
 3685SOL    HW222689   3.487   1.157   7.807 -0.7300  1.2991  0.7783
 3686SOL     OW22690   1.080   4.294   2.186  0.5177 -0.6222 -0.5368
 3686SOL    HW122691   1.077   4.211   2.137  2.9662 -1.5273  0.8457
 3686SOL    HW222692   1.165   4.287   2.229  1.3765 -0.5026 -2.2239
 3687SOL     OW22693   1.927   2.720   4.337 -0.4638 -0.0347 -0.4559
 3687SOL    HW122694   1.965   2.642   4.378 -0.8685 -0.3909 -0.7533
 3687SOL    HW222695   1.989   2.786   4.369 -2.3893  1.6852 -0.2793
 3688SOL     OW22696   2.340   1.148   0.559 -0.2088 -0.2771  0.3934
 3688SOL    HW122697   2.426   1.142   0.599 -0.5341  2.7607  1.5627
 3688SOL    HW222698   2.334   1.062   0.518  1.6496 -0.3561  0.3148
 3689SOL     OW22699   1.704   0.366  10.653 -0.4353  0.2812  0.0375
 3689SOL    HW122700   1.640   0.300  10.679  1.7376 -1.6905  0.3156
 3689SOL    HW222701   1.783   0.349  10.703  0.5326  1.4781 -1.1079
 3690SOL     OW22702   0.482   3.962   1.315  0.7904 -0.4272  0.0207
 3690SOL    HW122703   0.498   4.054   1.336 -0.4835  0.2810 -2.2023
 3690SOL    HW222704   0.391   3.952   1.345  0.5443 -0.9861 -0.9156
 3691SOL     OW22705   3.668   0.710   0.335  0.4327 -0.1628 -0.0461
 3691SOL    HW122706   3.625   0.633   0.372 -0.3229 -0.4446 -1.4923
 3691SOL    HW222707   3.593   0.768   0.345 -1.2523 -2.5713  1.3234
 3692SOL     OW22708   2.896   0.799   5.708  1.1074  0.1344 -0.8395
 3692SOL    HW122709   2.946   0.719   5.691  1.7977 -0.0424  2.1060
 3692SOL    HW222710   2.835   0.802   5.634  1.3471 -0.1899 -1.0492
 3693SOL     OW22711   0.437   4.191   5.415  0.5579  0.2558  0.3740
 3693SOL    HW122712   0.423   4.107   5.459 -0.3957 -0.0854 -0.5949
 3693SOL    HW222713   0.374   4.256   5.444  0.1411  0.1444 -0.2787
 3694SOL     OW22714   0.912   0.469   7.039 -0.0753  0.4305 -0.0837
 3694SOL    HW122715   0.835   0.417   7.063  0.2650  1.4506  3.2358
 3694SOL    HW222716   0.979   0.426   7.092 -0.4328  0.5387  0.4541
 3695SOL     OW22717   0.121   1.512   1.827 -0.2608 -0.1923 -0.4542
 3695SOL    HW122718   0.129   1.428   1.783 -1.9220 -1.3263  1.4141
 3695SOL    HW222719   0.049   1.551   1.776 -1.4499  0.4018  1.6674
 3696SOL     OW22720   0.039   2.474   1.842 -0.1523  0.3561 -0.3678
 3696SOL    HW122721   0.056   2.478   1.748  1.0876  1.4679 -0.1036
 3696SOL    HW222722   0.068   2.387   1.867 -1.1216  0.5404  1.4096
 3697SOL     OW22723   0.580   2.576   2.309  0.1117  0.1679 -0.7497
 3697SOL    HW122724   0.639   2.651   2.308 -1.5485  1.5145  1.0962
 3697SOL    HW222725   0.531   2.588   2.390  0.6488  0.5490 -0.4806
 3698SOL     OW22726   1.331   0.697   5.817 -0.1021 -0.1731  0.3227
 3698SOL    HW122727   1.378   0.618   5.791 -0.2360 -0.6075  1.3993
 3698SOL    HW222728   1.298   0.726   5.732 -0.3071  0.7454  0.7127
 3699SOL     OW22729   0.684   2.090  13.778  0.0611  0.1312 -0.2639
 3699SOL    HW122730   0.761   2.111  13.725 -1.5834  2.8549 -1.6317
 3699SOL    HW222731   0.704   1.999  13.799 -0.1565  0.1307 -0.0617
 3700SOL     OW22732   2.083   1.731  10.287  0.1313  0.1087 -0.0449
 3700SOL    HW122733   2.010   1.698  10.236 -0.3676  0.3300  0.5244
 3700SOL    HW222734   2.147   1.753  10.219  0.5169  0.7084  0.5060
 3701SOL     OW22735   2.416   3.787   2.472  0.3861  0.2535 -0.2346
 3701SOL    HW122736   2.431   3.703   2.515 -0.7448 -0.1105 -0.5537
 3701SOL    HW222737   2.354   3.817   2.539 -2.7606 -1.5079 -2.3667
 3702SOL     OW22738   4.116   4.345   4.748  0.3216 -0.4456  0.2442
 3702SOL    HW122739   4.115   4.321   4.840 -0.5135  1.2880  0.6734
 3702SOL    HW222740   4.023   4.346   4.726  0.2722  0.2946  0.4913
 3703SOL     OW22741   2.242   4.606   4.665 -0.1945 -0.3873 -0.1061
 3703SOL    HW122742   2.175   4.540   4.680 -1.1999  0.6284 -0.1425
 3703SOL    HW222743   2.223   4.666   4.737  1.6893  0.0035  0.0857
 3704SOL     OW22744   0.262   0.046   2.199 -0.0647  0.5070  0.5847
 3704SOL    HW122745   0.350   0.007   2.195 -0.1796  0.1572  1.3937
 3704SOL    HW222746   0.279   0.139   2.207 -0.3324  0.5151  1.0342
 3705SOL     OW22747   2.880   0.472   1.308  0.1913 -0.1053  0.0917
 3705SOL    HW122748   2.938   0.418   1.362  0.6172 -1.0559 -1.3348
 3705SOL    HW222749   2.892   0.560   1.345 -0.7457 -0.7662  1.9518
 3706SOL     OW22750   1.765   1.333   0.320  0.0904 -0.6294 -0.1451
 3706SOL    HW122751   1.694   1.358   0.379 -0.3217 -0.2992 -0.7868
 3706SOL    HW222752   1.784   1.412   0.270 -0.1448 -1.1242 -1.0247
 3707SOL     OW22753   2.283   3.424   7.431  0.1531  0.1336 -0.6360
 3707SOL    HW122754   2.336   3.399   7.507 -1.6945  0.7685  0.8716
 3707SOL    HW222755   2.347   3.473   7.380  1.0052  2.3297  2.5543
 3708SOL     OW22756   4.507   2.636   3.780  0.1473 -0.2400  0.4071
 3708SOL    HW122757   4.430   2.693   3.776  0.8566  0.6912  0.0061
 3708SOL    HW222758   4.577   2.700   3.769 -0.0219 -0.2895 -0.9485
 3709SOL     OW22759   0.671   2.006   2.092  0.0202 -1.2094  0.3950
 3709SOL    HW122760   0.733   2.022   2.163  1.7553 -1.3710 -1.0990
 3709SOL    HW222761   0.651   2.095   2.062 -0.1033 -0.7487  1.8279
 3710SOL     OW22762   4.724   2.372   9.537  0.2642 -0.3088  0.3077
 3710SOL    HW122763   0.070   2.393   9.493 -1.5257 -0.1072 -2.9280
 3710SOL    HW222764   4.652   2.422   9.500  0.1413 -1.2342 -0.6881
 3711SOL     OW22765   2.301   4.397   1.796 -0.5008 -0.1739 -0.1727
 3711SOL    HW122766   2.367   4.337   1.831  1.9049  2.9556  0.6406
 3711SOL    HW222767   2.220   4.362   1.833  1.9814  0.2233  5.6554
 3712SOL     OW22768   1.556   3.264   9.844 -0.0164  0.0178 -0.2387
 3712SOL    HW122769   1.561   3.173   9.814  2.4884 -0.0738  0.4115
 3712SOL    HW222770   1.616   3.263   9.919  2.6959 -0.4994 -2.3982
 3713SOL     OW22771   0.054   1.180   4.103  0.3766 -0.0510  0.4857
 3713SOL    HW122772   0.126   1.228   4.065  1.2099 -2.1388 -0.5575
 3713SOL    HW222773   0.095   1.098   4.130  0.1586 -0.1494  0.5231
 3714SOL     OW22774   4.070   3.967  16.401 -0.0224 -0.2494  0.3541
 3714SOL    HW122775   4.053   3.941  16.491  0.3283 -1.8500 -0.0425
 3714SOL    HW222776   4.050   3.888  16.350  0.5560 -1.3383  1.8283
 3715SOL     OW22777   4.462   2.801   8.110 -0.3142  0.1576  0.2361
 3715SOL    HW122778   4.548   2.763   8.129 -0.6614 -0.0585  1.4133
 3715SOL    HW222779   4.445   2.772   8.021 -0.6197 -0.0903  0.3761
 3716SOL     OW22780   1.913   3.559  10.027  0.0320  0.2495  0.5304
 3716SOL    HW122781   1.932   3.487   9.967 -1.4626  0.3716 -0.0918
 3716SOL    HW222782   1.883   3.510  10.103 -1.5132 -0.9445 -0.8545
 3717SOL     OW22783   1.310   0.640   6.082 -0.0684 -0.5667  0.3864
 3717SOL    HW122784   1.318   0.654   5.988  0.4608  0.6730  0.6292
 3717SOL    HW222785   1.398   0.611   6.104 -0.5796 -0.8561  2.0322
 3718SOL     OW22786   1.674   3.304   3.544  0.3710  0.5805  0.4909
 3718SOL    HW122787   1.729   3.382   3.538  1.0974  0.0292  0.0158
 3718SOL    HW222788   1.726   3.230   3.512 -0.8969 -0.2986  0.4681
 3719SOL     OW22789   3.612   4.606   7.989 -0.1461 -0.4408  0.0790
 3719SOL    HW122790   3.628   4.518   7.955 -0.2492  0.4853 -2.3651
 3719SOL    HW222791   3.629   4.599   8.083  0.3845  2.0159  0.1751
 3720SOL     OW22792   0.108   1.496  10.539  0.1205 -0.0004  0.2686
 3720SOL    HW122793   0.186   1.509  10.485 -0.9037  2.2925 -0.6629
 3720SOL    HW222794   0.146   1.470  10.623 -0.1089 -0.9646  0.0826
 3721SOL     OW22795   0.579   1.544   8.872  0.7658  0.6857 -0.0052
 3721SOL    HW122796   0.656   1.584   8.912  0.4625  1.0860  0.1770
 3721SOL    HW222797   0.588   1.554   8.777 -0.9296 -0.4151 -0.2809
 3722SOL     OW22798   1.603   4.265  17.002 -0.0588 -0.4197 -0.1148
 3722SOL    HW122799   1.630   4.354  16.978 -3.0462  0.2926 -0.8528
 3722SOL    HW222800   1.579   4.221  16.921 -1.5873  1.0208 -0.4441
 3723SOL     OW22801   3.432   4.059   4.791 -0.1509 -0.0733 -0.6042
 3723SOL    HW122802   3.439   3.967   4.765 -0.6141 -0.5180  0.8755
 3723SOL    HW222803   3.338   4.075   4.791  0.2906  2.4732  1.9518
 3724SOL     OW22804   2.401   3.818   5.855  0.6394  0.3466  0.0883
 3724SOL    HW122805   2.316   3.786   5.885  1.1681 -0.5326  0.6489
 3724SOL    HW222806   2.418   3.748   5.793  1.0645  0.0568  0.5333
 3725SOL     OW22807   4.524   0.702   2.320  0.6608  0.4494  0.7305
 3725SOL    HW122808   4.463   0.721   2.249  0.5391  0.9915  0.9831
 3725SOL    HW222809   4.590   0.768   2.302  0.4266  0.1948 -1.0367
 3726SOL     OW22810   0.504   4.108  16.352  0.1742 -0.1199 -0.2040
 3726SOL    HW122811   0.485   4.040  16.417 -2.4703  1.1693  0.3363
 3726SOL    HW222812   0.440   4.174  16.377 -0.7043 -1.2411  0.5068
 3727SOL     OW22813   2.069   4.713   3.075  0.2073 -0.2471 -0.0052
 3727SOL    HW122814   2.080   0.070   3.090  0.9884  0.0840 -2.7232
 3727SOL    HW222815   2.044   4.703   2.983 -0.9063  3.4235 -0.0909
 3728SOL     OW22816   2.452   1.676   4.889  0.1273  0.5358  0.4341
 3728SOL    HW122817   2.380   1.706   4.943  0.6567  0.3860  1.2210
 3728SOL    HW222818   2.521   1.719   4.939  1.6630 -0.9229 -0.3858
 3729SOL     OW22819   3.068   2.040   1.243 -0.7731  0.5914  0.4753
 3729SOL    HW122820   3.105   1.957   1.272  0.9068  0.7530 -1.1794
 3729SOL    HW222821   3.117   2.101   1.297  2.5050 -1.1649 -0.5024
 3730SOL     OW22822   3.062   4.257  14.934 -0.0224 -0.4089  0.4759
 3730SOL    HW122823   2.998   4.290  14.997 -1.4032 -0.6203 -0.8235
 3730SOL    HW222824   3.140   4.266  14.988 -0.1080 -1.0242  0.7112
 3731SOL     OW22825   3.832   1.532   5.632 -0.2674 -0.6943 -0.1712
 3731SOL    HW122826   3.764   1.467   5.650  0.5819 -0.9828  1.9826
 3731SOL    HW222827   3.896   1.479   5.584 -0.8788 -1.7404  0.1765
 3732SOL     OW22828   3.291   2.108   5.232 -0.3748  0.1292  0.0582
 3732SOL    HW122829   3.284   2.062   5.315 -2.3196 -1.9406 -1.2457
 3732SOL    HW222830   3.199   2.111   5.206 -0.3361 -0.0060 -0.0924
 3733SOL     OW22831   4.658   4.543   0.412  0.0233  0.1257  0.0161
 3733SOL    HW122832   4.710   4.522   0.334 -0.6696 -0.1467 -0.3653
 3733SOL    HW222833   4.582   4.595   0.388 -0.1651  0.1016  0.5476
 3734SOL     OW22834   1.670   1.451   4.562 -0.0652 -0.1113  0.4283
 3734SOL    HW122835   1.686   1.512   4.634 -1.5760  0.9708 -0.1646
 3734SOL    HW222836   1.752   1.438   4.515 -0.5381  0.2792 -0.5018
 3735SOL     OW22837   4.449   0.254   3.764  0.4154 -0.2484  0.1201
 3735SOL    HW122838   4.530   0.203   3.761 -0.4856 -1.6256 -0.6004
 3735SOL    HW222839   4.453   0.320   3.695  0.2958 -1.8374 -1.3968
 3736SOL     OW22840   1.313   3.635   2.384  0.3895 -0.4176 -0.0638
 3736SOL    HW122841   1.257   3.557   2.377  1.5135 -1.3266  1.0752
 3736SOL    HW222842   1.292   3.655   2.475 -0.2094  2.9874 -0.9588
 3737SOL     OW22843   2.275   1.733   3.615 -0.0827 -0.6608 -0.2439
 3737SOL    HW122844   2.180   1.743   3.612 -0.2326 -1.3552  2.3672
 3737SOL    HW222845   2.297   1.825   3.635 -0.4467 -0.9411  1.4577
 3738SOL     OW22846   3.783   1.926   9.759 -0.7082 -0.1055 -0.2504
 3738SOL    HW122847   3.688   1.917   9.765 -0.6835  1.0546  1.8874
 3738SOL    HW222848   3.789   1.958   9.669 -0.2898 -0.2411 -0.2727
 3739SOL     OW22849   3.664   2.913   5.862  0.3180 -0.1303 -0.2035
 3739SOL    HW122850   3.663   2.820   5.840 -0.3390 -0.7092  2.2083
 3739SOL    HW222851   3.603   2.939   5.793 -0.9301  1.1060  1.3589
 3740SOL     OW22852   2.123   2.064   8.713 -0.2122 -0.0523  0.2305
 3740SOL    HW122853   2.149   1.973   8.732  0.5488  0.2604  0.7058
 3740SOL    HW222854   2.212   2.100   8.709 -0.6215  1.0502  1.3471
 3741SOL     OW22855   1.126   1.597  15.137 -0.5540 -0.1750 -0.0911
 3741SOL    HW122856   1.143   1.642  15.054  2.6546  0.1090  0.7207
 3741SOL    HW222857   1.155   1.661  15.202 -0.1934 -0.0822 -0.3411
 3742SOL     OW22858   2.052   2.437   8.335  0.5539  0.0436  0.2197
 3742SOL    HW122859   1.983   2.484   8.289  1.0040  2.1393  1.6880
 3742SOL    HW222860   2.007   2.404   8.413 -0.2881  0.9280  0.1074
 3743SOL     OW22861   2.577   4.412  17.458 -0.1224  0.4641  0.2766
 3743SOL    HW122862   2.546   4.411  17.367  0.0579 -0.8276  0.2326
 3743SOL    HW222863   2.552   4.327  17.494  1.1907  0.7529  1.8674
 3744SOL     OW22864   2.218   3.782   2.682  0.2859 -0.6340  0.0941
 3744SOL    HW122865   2.174   3.767   2.598  0.6404 -1.4108  0.0418
 3744SOL    HW222866   2.172   3.712   2.729  0.3596 -1.8734 -1.6666
 3745SOL     OW22867   1.012   1.905  12.941 -0.0311 -0.0499  0.0981
 3745SOL    HW122868   1.006   1.937  12.851  0.1913 -2.2798 -0.7220
 3745SOL    HW222869   0.986   1.984  12.988  0.7022  0.7182 -0.7911
 3746SOL     OW22870   2.600   2.628   1.385  0.3365  0.2679 -0.5358
 3746SOL    HW122871   2.529   2.572   1.414  0.2463  0.2129 -0.8603
 3746SOL    HW222872   2.660   2.611   1.458  0.9599 -0.6010 -1.2556
 3747SOL     OW22873   2.099   0.455  14.936 -0.2794  0.3558 -0.0475
 3747SOL    HW122874   2.065   0.430  14.850  0.2790 -0.1195 -0.1321
 3747SOL    HW222875   2.091   0.371  14.981 -1.1352  0.3619 -0.1915
 3748SOL     OW22876   1.438   2.957   2.033 -0.1566  0.0270 -0.2916
 3748SOL    HW122877   1.361   3.004   2.064 -0.7527 -0.9174 -0.3584
 3748SOL    HW222878   1.411   2.954   1.941 -0.9391 -2.7572  0.0322
 3749SOL     OW22879   3.398   2.503  12.767 -0.0590  0.5009 -0.1261
 3749SOL    HW122880   3.460   2.494  12.695 -1.0506 -0.2203 -0.8822
 3749SOL    HW222881   3.406   2.410  12.789 -0.6235  1.1500  2.7680
 3750SOL     OW22882   3.539   0.566   2.920 -0.1329  1.2395  0.1579
 3750SOL    HW122883   3.467   0.503   2.916  0.4793  0.5421  0.1153
 3750SOL    HW222884   3.584   0.566   3.004  1.5313 -1.5988 -0.7512
 3751SOL     OW22885   0.591   2.264  17.196 -0.3691  0.4831  0.0518
 3751SOL    HW122886   0.685   2.261  17.181 -0.3090  1.0921  0.2809
 3751SOL    HW222887   0.570   2.310  17.114  0.6430 -0.5749 -0.7841
 3752SOL     OW22888   3.151   1.309   5.870 -0.1150  0.1425 -0.1981
 3752SOL    HW122889   3.060   1.334   5.856 -0.1411 -0.4163 -0.9911
 3752SOL    HW222890   3.144   1.234   5.930  1.9623  0.9042  0.9973
 3753SOL     OW22891   2.277   1.886   2.110 -0.0140 -0.3988 -0.6481
 3753SOL    HW122892   2.357   1.915   2.154  0.0902  0.3448 -1.3459
 3753SOL    HW222893   2.303   1.794   2.099  0.2698 -0.2595 -1.1656
 3754SOL     OW22894   4.038   2.973   9.732  0.6280  0.3623  0.0870
 3754SOL    HW122895   3.982   2.895   9.728  0.7458  0.1514  2.9942
 3754SOL    HW222896   4.108   2.939   9.676  1.4675  1.5324  0.4230
 3755SOL     OW22897   1.076   3.451   6.532 -0.1316  0.2453 -0.0344
 3755SOL    HW122898   1.002   3.407   6.574 -1.0508 -0.6050 -2.5173
 3755SOL    HW222899   1.146   3.418   6.588 -0.5347 -0.0296  0.3036
 3756SOL     OW22900   2.462   1.499  10.113 -0.5180 -0.6625 -0.1820
 3756SOL    HW122901   2.460   1.454  10.028  2.0850  0.8006 -0.9938
 3756SOL    HW222902   2.395   1.567  10.103  1.4273  1.4089  1.0359
 3757SOL     OW22903   4.693   0.751   7.002  0.7553  0.3573 -0.6381
 3757SOL    HW122904   4.724   0.670   7.043 -1.2692  0.7272  1.5668
 3757SOL    HW222905   4.735   0.827   7.043 -0.8490  0.3569  0.9718
 3758SOL     OW22906   1.191   2.778   2.575  0.0962 -0.2919 -0.0157
 3758SOL    HW122907   1.217   2.719   2.505  0.7325 -1.1293  0.9200
 3758SOL    HW222908   1.180   2.715   2.647 -1.3840  0.3483  0.3132
 3759SOL     OW22909   1.197   3.785  12.322  0.1041 -0.2991  0.0456
 3759SOL    HW122910   1.232   3.697  12.337 -0.3526 -0.3422  0.8539
 3759SOL    HW222911   1.157   3.804  12.406 -0.9414  0.6061 -0.6538
 3760SOL     OW22912   1.910   2.981  15.133 -0.1507  0.1477 -0.2933
 3760SOL    HW122913   1.957   3.061  15.156 -0.3802  0.3822 -0.6392
 3760SOL    HW222914   1.982   2.924  15.106  0.5951  1.2495 -0.6245
 3761SOL     OW22915   0.721   4.253   1.213 -0.4928  0.2463  0.1058
 3761SOL    HW122916   0.777   4.330   1.228 -0.2350 -0.0453  0.6269
 3761SOL    HW222917   0.732   4.242   1.118 -0.4793  0.1284  0.1212
 3762SOL     OW22918   0.415   3.824   2.914  0.3067  0.4731  0.1315
 3762SOL    HW122919   0.333   3.775   2.923  0.9079 -0.1761  2.1605
 3762SOL    HW222920   0.380   3.913   2.902 -1.6714 -0.1115  1.5100
 3763SOL     OW22921   0.725   4.127   7.298 -0.0280 -0.5923  0.6151
 3763SOL    HW122922   0.710   4.158   7.209 -0.8945 -0.8854  0.6530
 3763SOL    HW222923   0.792   4.188   7.327 -0.9335  0.7298 -0.0652
 3764SOL     OW22924   3.350   0.808  16.255  0.1452  0.1233 -0.0258
 3764SOL    HW122925   3.378   0.894  16.225 -1.2998  0.1590 -1.2721
 3764SOL    HW222926   3.426   0.775  16.303 -0.2819  0.2032  0.7126
 3765SOL     OW22927   1.574   2.694   6.235  0.8839 -0.2344 -0.4144
 3765SOL    HW122928   1.481   2.689   6.257  0.8116 -0.7790 -0.8706
 3765SOL    HW222929   1.615   2.665   6.317 -0.8502 -1.3488  0.0542
 3766SOL     OW22930   2.372   3.526  11.184 -0.0449  0.0956  0.4962
 3766SOL    HW122931   2.418   3.444  11.169  0.6624  0.4934  0.5227
 3766SOL    HW222932   2.309   3.508  11.114  1.7390  2.7663 -1.7816
 3767SOL     OW22933   3.603   1.861   6.766 -0.2209 -0.0674  0.0879
 3767SOL    HW122934   3.643   1.774   6.766  1.2115  0.5886  2.7558
 3767SOL    HW222935   3.595   1.863   6.861  0.5216  1.3766  0.1147
 3768SOL     OW22936   2.868   4.175   9.099 -0.4004  0.0389 -0.4662
 3768SOL    HW122937   2.826   4.152   9.016 -1.1009 -1.8224  0.3954
 3768SOL    HW222938   2.803   4.162   9.168 -0.0328  1.7706  0.2094
 3769SOL     OW22939   2.177   4.599   2.479 -0.0931 -0.0657  0.4636
 3769SOL    HW122940   2.260   4.647   2.479  0.6810 -1.4010  0.9387
 3769SOL    HW222941   2.161   4.616   2.386  0.7738 -1.2529  0.0902
 3770SOL     OW22942   0.358   0.407   3.740  0.0409 -0.3726 -0.7668
 3770SOL    HW122943   0.301   0.350   3.688 -0.4762 -1.3452  0.8567
 3770SOL    HW222944   0.408   0.439   3.665  0.6556  1.4876  0.4430
 3771SOL     OW22945   4.684   1.704   5.825  0.7885  0.9268 -0.2208
 3771SOL    HW122946   4.645   1.649   5.892 -0.9253  0.6846 -1.4101
 3771SOL    HW222947   4.688   1.642   5.752  2.2783  0.4902  0.2208
 3772SOL     OW22948   1.957   0.283  11.452  0.5770 -0.4732 -0.4023
 3772SOL    HW122949   2.048   0.255  11.464  0.8853  0.4250 -0.6823
 3772SOL    HW222950   1.954   0.337  11.531 -0.5501  0.1011 -0.8313
 3773SOL     OW22951   0.042   1.940   3.615  0.2650 -0.0412  0.6378
 3773SOL    HW122952   4.701   1.994   3.631 -0.7999 -0.7058 -2.3319
 3773SOL    HW222953   0.074   1.946   3.705  1.5277 -3.5381  0.3891
 3774SOL     OW22954   0.677   1.219   9.246  0.0534  0.1267  0.1131
 3774SOL    HW122955   0.615   1.285   9.275  1.4839  1.4627  0.1514
 3774SOL    HW222956   0.716   1.256   9.166 -3.6604  0.2619 -1.6107
 3775SOL     OW22957   0.352   1.602   5.106 -0.5895  0.6471 -0.4364
 3775SOL    HW122958   0.285   1.665   5.132  0.6216  0.9966  1.8148
 3775SOL    HW222959   0.406   1.607   5.185  0.5645  2.9697 -1.3639
 3776SOL     OW22960   3.192   2.970   3.307 -0.5571  0.3753 -0.4848
 3776SOL    HW122961   3.146   3.053   3.322  0.1280  0.4011  1.4886
 3776SOL    HW222962   3.218   2.946   3.396 -0.0763  0.9638 -0.4698
 3777SOL     OW22963   1.816   1.290  15.453  0.3384  0.1712 -0.0128
 3777SOL    HW122964   1.864   1.348  15.393 -2.1962  1.0528 -1.2084
 3777SOL    HW222965   1.768   1.230  15.396 -1.3796  1.1032  0.4487
 3778SOL     OW22966   1.994   3.133   1.421 -0.6076  0.1856  0.5386
 3778SOL    HW122967   1.988   3.095   1.334 -1.9252  0.5320  0.4834
 3778SOL    HW222968   1.903   3.156   1.438 -0.9971 -0.0074 -1.2987
 3779SOL     OW22969   2.004   4.258   6.266 -0.1704 -0.4915  0.3259
 3779SOL    HW122970   1.932   4.282   6.207  2.2569  2.3275 -1.4990
 3779SOL    HW222971   1.959   4.262   6.351 -0.2478  0.8803  0.2264
 3780SOL     OW22972   4.170   2.763   2.933  0.1608  0.2923 -0.3893
 3780SOL    HW122973   4.081   2.797   2.926  0.0627 -0.1823 -1.4859
 3780SOL    HW222974   4.177   2.705   2.857 -2.5730  1.7189 -1.6994
 3781SOL     OW22975   1.541   0.002   5.947 -0.4930  0.1975 -0.2940
 3781SOL    HW122976   1.595   4.681   5.893  1.3522  1.9481 -0.3392
 3781SOL    HW222977   1.482   0.045   5.885  0.8556 -0.9373 -2.3714
 3782SOL     OW22978   1.449   0.159   6.548 -0.1980  0.2471 -0.1591
 3782SOL    HW122979   1.396   0.114   6.614 -1.7160 -1.6857 -2.7297
 3782SOL    HW222980   1.425   0.249   6.572  0.3789  0.1192  0.9071
 3783SOL     OW22981   1.632   0.461   4.083 -0.0844  0.0588  0.1274
 3783SOL    HW122982   1.601   0.434   4.169 -2.8590  0.4968 -0.7265
 3783SOL    HW222983   1.671   0.380   4.049 -1.1666  0.2341 -1.5430
 3784SOL     OW22984   3.607   2.491   6.074  0.4093 -0.0671 -0.7517
 3784SOL    HW122985   3.667   2.436   6.124  0.4393  0.6769  0.0259
 3784SOL    HW222986   3.521   2.448   6.072  0.0395  0.5417  1.6368
 3785SOL     OW22987   0.724   4.703   1.808  0.3001  0.1193  0.5604
 3785SOL    HW122988   0.690   0.047   1.845 -0.6746  2.5639 -5.6507
 3785SOL    HW222989   0.814   4.735   1.795 -0.0938  0.4657 -1.3086
 3786SOL     OW22990   1.282   1.794   7.091 -0.1074 -0.4630 -0.5767
 3786SOL    HW122991   1.272   1.812   6.997 -0.3344  0.5889 -0.3477
 3786SOL    HW222992   1.278   1.699   7.080  2.8287 -0.6816  0.2310
 3787SOL     OW22993   0.109   4.214   0.308 -0.1949  0.1923 -0.1151
 3787SOL    HW122994   0.203   4.209   0.322 -0.1259  1.3226 -0.1751
 3787SOL    HW222995   0.096   4.309   0.306 -1.2883  0.0383 -0.4643
 3788SOL     OW22996   3.133   1.046   5.993  0.0375  0.3459 -0.5597
 3788SOL    HW122997   3.114   0.968   5.941  0.1698 -0.3995  0.4956
 3788SOL    HW222998   3.205   1.013   6.047 -1.4632 -1.5212  0.3020
 3789SOL     OW22999   4.585   3.917   7.945  0.0808  0.6116  0.5981
 3789SOL    HW123000   4.636   3.852   7.993 -0.9892 -2.7772 -2.8710
 3789SOL    HW223001   4.600   3.886   7.856  1.0240  0.8341  0.6860
 3790SOL     OW23002   0.016   1.271  11.860  0.0794  0.5006  0.3414
 3790SOL    HW123003   4.682   1.247  11.800  0.8905  0.7142 -0.6972
 3790SOL    HW223004   4.702   1.287  11.939 -0.6913 -1.5418  0.2691
 3791SOL     OW23005   3.987   0.260   2.902  0.1792  0.0289  0.1711
 3791SOL    HW123006   3.971   0.353   2.912 -1.3474 -0.3504  1.1336
 3791SOL    HW223007   4.011   0.255   2.809  0.1388  1.3700  0.0882
 3792SOL     OW23008   2.717   0.911   9.712  0.3423 -0.2893 -0.3829
 3792SOL    HW123009   2.682   0.996   9.685 -0.1333  0.2302  1.8164
 3792SOL    HW223010   2.699   0.915   9.806 -0.9617  1.9349 -0.7168
 3793SOL     OW23011   4.667   1.310   8.690  0.2979  0.0209  0.4195
 3793SOL    HW123012   4.635   1.351   8.771 -0.5696 -0.5238  0.3444
 3793SOL    HW223013   4.700   1.387   8.643  0.0685  0.3462  0.7869
 3794SOL     OW23014   4.540   4.433   7.405 -0.0674  0.3241  0.2930
 3794SOL    HW123015   4.579   4.479   7.331 -0.8027 -0.4984 -0.5996
 3794SOL    HW223016   4.450   4.464   7.400  0.0777  0.3292 -2.1433
 3795SOL     OW23017   1.545   2.655   5.565 -0.1467 -0.4533 -0.0750
 3795SOL    HW123018   1.621   2.701   5.529 -1.3999  0.7913 -1.1220
 3795SOL    HW223019   1.478   2.647   5.497  0.0748  2.4107 -0.6433
 3796SOL     OW23020   0.510   1.577   4.575  0.5621  0.7745  0.4238
 3796SOL    HW123021   0.509   1.672   4.588 -0.3483  0.7080  0.7870
 3796SOL    HW223022   0.489   1.552   4.665 -0.3444 -0.6752 -0.1915
 3797SOL     OW23023   0.902   2.089  13.354 -0.0721 -0.4488 -0.2720
 3797SOL    HW123024   0.902   2.153  13.283  0.7364  0.8532  0.8944
 3797SOL    HW223025   0.964   2.022  13.324 -0.6224 -1.3178  0.5102
 3798SOL     OW23026   2.882   4.283   3.473  0.2400  0.7102 -0.1661
 3798SOL    HW123027   2.901   4.235   3.393  2.6986  1.2398  0.0943
 3798SOL    HW223028   2.812   4.344   3.447  0.0855  0.2066 -0.9183
 3799SOL     OW23029   0.851   2.430   8.955  0.2568 -0.4159  0.2012
 3799SOL    HW123030   0.794   2.507   8.955  2.7964  1.4709 -0.3209
 3799SOL    HW223031   0.871   2.421   9.048  0.3690 -2.0566  0.0209
 3800SOL     OW23032   1.723   4.075   2.049 -0.4849 -0.4300 -0.7465
 3800SOL    HW123033   1.641   4.041   2.013 -0.8784  2.6683 -2.7802
 3800SOL    HW223034   1.693   4.144   2.108 -1.6793 -1.0572 -0.6268
 3801SOL     OW23035   3.138   3.424   0.179 -0.3371 -0.2507 -0.0544
 3801SOL    HW123036   3.143   3.372   0.259  1.4697  1.8065  1.1619
 3801SOL    HW223037   3.213   3.481   0.195 -0.9968  0.3867  0.7588
 3802SOL     OW23038   0.810   1.677   8.907  0.0755 -0.2170  0.5913
 3802SOL    HW123039   0.853   1.758   8.934  0.2861  0.9307 -3.1719
 3802SOL    HW223040   0.812   1.686   8.812 -0.2720  1.0495  0.7107
 3803SOL     OW23041   2.624   1.578   5.212 -0.5380 -0.4422 -0.2385
 3803SOL    HW123042   2.676   1.499   5.229  0.0989  0.0087 -0.0896
 3803SOL    HW223043   2.584   1.582   5.299  1.4986  2.0390  0.5637
 3804SOL     OW23044   2.333   3.032   7.564 -0.0658 -0.6052 -0.0949
 3804SOL    HW123045   2.305   2.943   7.542  0.6574 -0.6032 -1.0355
 3804SOL    HW223046   2.301   3.082   7.489  0.7680 -0.2170 -0.1894
 3805SOL     OW23047   2.467   3.295  15.289  0.2720  0.1437  0.0632
 3805SOL    HW123048   2.555   3.306  15.326 -1.3678  0.5063  3.9111
 3805SOL    HW223049   2.426   3.272  15.373  0.4773 -3.0485 -0.6813
 3806SOL     OW23050   1.872   1.794   4.188  0.3733 -0.7137  0.6554
 3806SOL    HW123051   1.921   1.816   4.267 -1.6178  1.9298  1.1291
 3806SOL    HW223052   1.878   1.875   4.137  0.7967 -0.8140  0.5467
 3807SOL     OW23053   2.403   1.972   4.682  0.1713  0.4516  0.3462
 3807SOL    HW123054   2.497   1.984   4.693 -0.0492  0.5409  2.0735
 3807SOL    HW223055   2.372   2.059   4.659  0.0930  0.4301  0.3701
 3808SOL     OW23056   0.790   1.502  12.354  0.5084  0.2895 -0.3315
 3808SOL    HW123057   0.814   1.459  12.273 -1.2473 -0.4121 -0.4708
 3808SOL    HW223058   0.840   1.460  12.424  0.1424  1.8710  0.8930
 3809SOL     OW23059   2.381   0.342   8.233 -0.4777  0.5539 -0.3489
 3809SOL    HW123060   2.464   0.376   8.200  0.0942  0.1037  0.6410
 3809SOL    HW223061   2.353   0.316   8.145  1.3883 -0.4669 -0.6234
 3810SOL     OW23062   0.829   2.208   6.999  0.2875  0.3288 -0.1354
 3810SOL    HW123063   0.796   2.282   7.050  1.5880  1.9292 -1.6307
 3810SOL    HW223064   0.807   2.134   7.055  3.7344 -0.5620  0.0675
 3811SOL     OW23065   0.510   3.591   1.570  0.3263  0.3141  0.5062
 3811SOL    HW123066   0.422   3.589   1.532  1.4879 -0.3662 -2.1581
 3811SOL    HW223067   0.555   3.664   1.526  0.6196 -0.9488 -1.2611
 3812SOL     OW23068   0.330   0.791   0.610  0.4812 -0.2192  0.8581
 3812SOL    HW123069   0.266   0.863   0.609  1.3253  0.5200  0.6919
 3812SOL    HW223070   0.406   0.838   0.642  0.7480 -0.3044  0.3481
 3813SOL     OW23071   0.576   2.090   6.899  0.3208 -0.2123  0.0060
 3813SOL    HW123072   0.589   2.049   6.985  1.8054 -0.6363 -0.4296
 3813SOL    HW223073   0.631   2.168   6.906 -1.0872  0.7169  0.9631
 3814SOL     OW23074   2.776   3.620   5.595 -0.5736 -0.0426  0.2670
 3814SOL    HW123075   2.726   3.550   5.552 -0.7078  1.2074 -1.6013
 3814SOL    HW223076   2.708   3.672   5.637  1.1458  1.4311  1.2174
 3815SOL     OW23077   0.351   4.408   2.779 -0.3599  0.4643  0.3292
 3815SOL    HW123078   0.380   4.458   2.702 -0.4858  1.0329  0.6464
 3815SOL    HW223079   0.268   4.451   2.799 -0.9478 -1.2925  1.6731
 3816SOL     OW23080   2.727   3.518   9.849  0.1400 -0.6321  0.4484
 3816SOL    HW123081   2.739   3.613   9.838  1.0324 -0.9197 -1.0877
 3816SOL    HW223082   2.808   3.484   9.886  0.2675  2.2792  2.8305
 3817SOL     OW23083   4.480   3.253   9.150  0.0650 -0.1430 -0.5743
 3817SOL    HW123084   4.575   3.252   9.160 -0.0266  1.4588  0.3358
 3817SOL    HW223085   4.452   3.181   9.208  0.2130  0.6868  0.5221
 3818SOL     OW23086   1.899   0.156   1.851 -0.6503 -0.1333 -0.6127
 3818SOL    HW123087   1.927   0.184   1.939 -1.3129  2.1698 -1.1401
 3818SOL    HW223088   1.992   0.139   1.833 -0.5315  0.3093 -0.4448
 3819SOL     OW23089   3.703   3.678   2.159 -0.1438 -0.0317  0.5828
 3819SOL    HW123090   3.676   3.603   2.107  1.6143 -0.5298  0.3796
 3819SOL    HW223091   3.780   3.710   2.112  0.2599 -0.4748  0.9500
 3820SOL     OW23092   1.900   4.533   3.449  0.5129 -0.1495 -0.2395
 3820SOL    HW123093   1.824   4.518   3.394 -0.9601 -2.4192  2.4228
 3820SOL    HW223094   1.893   4.626   3.474  0.6420 -0.2283  0.0920
 3821SOL     OW23095   1.158   3.121   7.941  0.5563 -0.3845  0.2183
 3821SOL    HW123096   1.230   3.072   7.979  0.8171 -0.3226 -0.2056
 3821SOL    HW223097   1.087   3.086   7.996  0.4230  1.5826  1.3295
 3822SOL     OW23098   2.220   1.156   1.057 -0.1147 -0.2105 -0.0617
 3822SOL    HW123099   2.161   1.123   1.125  1.8590  0.1612  1.8081
 3822SOL    HW223100   2.272   1.221   1.103 -0.1164 -0.1639 -0.1253
 3823SOL     OW23101   0.080   2.007  11.827  0.1956  0.8152 -0.3051
 3823SOL    HW123102   0.169   2.043  11.838  0.2705 -0.3763  2.8009
 3823SOL    HW223103   0.069   1.970  11.739  1.4799 -1.9939  0.7419
 3824SOL     OW23104   3.537   3.483   7.861 -0.4698 -0.0796  0.1602
 3824SOL    HW123105   3.585   3.401   7.850 -0.2131 -0.0915  1.3123
 3824SOL    HW223106   3.606   3.550   7.860 -1.5221  1.0533  3.7310
 3825SOL     OW23107   2.761   4.442   9.248  0.5013  0.4213 -0.1265
 3825SOL    HW123108   2.780   4.352   9.220 -1.3548  0.1870 -0.5985
 3825SOL    HW223109   2.738   4.481   9.164  0.2689 -0.0458 -0.2749
 3826SOL     OW23110   0.486   1.908   1.546 -0.9639 -0.3655  0.2378
 3826SOL    HW123111   0.544   1.832   1.538 -0.7534 -0.0740 -0.9868
 3826SOL    HW223112   0.555   1.973   1.563  0.9113 -2.2861 -0.1405
 3827SOL     OW23113   3.193   1.261  16.427 -0.7437  0.1371 -0.0600
 3827SOL    HW123114   3.190   1.274  16.333 -0.2838  0.5543 -0.0179
 3827SOL    HW223115   3.144   1.179  16.431 -1.0621  0.2764 -1.3603
 3828SOL     OW23116   2.920   1.311   8.491 -0.4006  0.0480  0.8119
 3828SOL    HW123117   2.931   1.406   8.484 -1.4905 -0.0938 -2.5237
 3828SOL    HW223118   2.867   1.297   8.413 -0.1718  2.2156  0.2650
 3829SOL     OW23119   1.985   3.033   9.007 -0.2888  0.3037 -0.1623
 3829SOL    HW123120   2.034   2.984   8.940 -1.1366 -0.5001 -0.1962
 3829SOL    HW223121   1.894   3.041   8.978 -0.0118 -1.6433 -1.6498
 3830SOL     OW23122   4.168   0.162   2.013  0.7512  0.1807 -0.1481
 3830SOL    HW123123   4.118   0.152   1.932 -0.7153 -0.0797  0.7864
 3830SOL    HW223124   4.096   0.179   2.074  1.8727  1.3431  0.8473
 3831SOL     OW23125   1.508   0.217   3.221  0.0305  0.6782  1.0477
 3831SOL    HW123126   1.479   0.307   3.236  0.0264  0.9731 -0.6672
 3831SOL    HW223127   1.599   0.246   3.219 -0.3818  1.8381 -1.8601
 3832SOL     OW23128   2.704   2.459   3.121 -0.4281  0.0728 -0.0386
 3832SOL    HW123129   2.615   2.434   3.098 -0.9029  1.9163 -0.1815
 3832SOL    HW223130   2.723   2.415   3.204 -1.6944 -2.8368 -1.2787
 3833SOL     OW23131   4.248   2.291   3.116 -0.0801  0.0350 -0.3597
 3833SOL    HW123132   4.196   2.289   3.036  0.9584 -1.0840 -1.0018
 3833SOL    HW223133   4.283   2.380   3.108 -2.4934  1.0057 -0.0060
 3834SOL     OW23134   1.445   4.648  14.717 -0.3329 -0.1946 -0.3845
 3834SOL    HW123135   1.434   4.553  14.715 -4.1603  0.2271  0.9228
 3834SOL    HW223136   1.413   4.681  14.633  4.5049  2.2923 -1.2375
 3835SOL     OW23137   4.274   3.327   9.840 -0.3156 -0.1488 -0.2347
 3835SOL    HW123138   4.213   3.274   9.891  1.1413 -2.1075 -0.5723
 3835SOL    HW223139   4.244   3.416   9.860  0.5584  0.3018 -0.9438
 3836SOL     OW23140   2.589   2.083   1.944 -0.4164 -0.5635  0.7561
 3836SOL    HW123141   2.571   2.012   2.005 -1.4879 -0.9473 -0.0095
 3836SOL    HW223142   2.649   2.046   1.880 -2.9548 -1.2862 -1.1822
 3837SOL     OW23143   2.504   3.196   6.289  0.0490 -0.0477  0.3928
 3837SOL    HW123144   2.595   3.203   6.259  0.2742  2.9548  1.7967
 3837SOL    HW223145   2.515   3.166   6.379  0.4110 -0.0234  0.3554
 3838SOL     OW23146   1.236   1.811   8.971  0.6783 -0.4509 -0.2156
 3838SOL    HW123147   1.265   1.848   9.054 -0.6382 -2.6599  1.2093
 3838SOL    HW223148   1.253   1.881   8.907 -0.8070  0.8430  0.8198
 3839SOL     OW23149   1.709   1.327   6.778 -0.2012  1.1115  0.0711
 3839SOL    HW123150   1.706   1.361   6.688 -3.8784  0.9756  0.1541
 3839SOL    HW223151   1.785   1.270   6.766 -1.7785 -0.9039 -0.2789
 3840SOL     OW23152   1.747   2.903   8.222  0.5079  0.2104  0.4417
 3840SOL    HW123153   1.780   2.973   8.278 -1.0429  1.2076  0.1286
 3840SOL    HW223154   1.655   2.924   8.242 -0.0387  0.6638 -2.5941
 3841SOL     OW23155   1.687   1.245   0.030 -1.0640 -0.0116 -0.3501
 3841SOL    HW123156   1.756   1.310   0.015  2.1802 -3.4177 -0.3904
 3841SOL    HW223157   1.675   1.263   0.124 -2.4113  2.9905 -1.1005
 3842SOL     OW23158   3.307   1.731   1.439  0.5097 -0.0980  0.2669
 3842SOL    HW123159   3.368   1.657   1.441  0.4135 -0.2080 -1.1782
 3842SOL    HW223160   3.315   1.764   1.350 -1.1011 -0.3640  0.0355
 3843SOL     OW23161   2.911   3.228   3.427 -0.2781  0.2101 -0.1660
 3843SOL    HW123162   2.931   3.309   3.380  0.0142 -0.2816 -0.8823
 3843SOL    HW223163   2.837   3.206   3.370 -0.9366 -0.2590  0.8702
 3844SOL     OW23164   3.334   4.227   7.760  0.1878  0.9163 -0.0029
 3844SOL    HW123165   3.401   4.229   7.828 -1.1678 -1.2687  1.3670
 3844SOL    HW223166   3.307   4.136   7.768  0.3448  0.9728  1.0857
 3845SOL     OW23167   0.468   1.335   0.975 -0.2121  0.2093 -0.1038
 3845SOL    HW123168   0.406   1.358   1.044 -0.5245 -1.5715  0.2195
 3845SOL    HW223169   0.486   1.423   0.945  0.2175  0.1812  0.0756
 3846SOL     OW23170   2.863   1.003   1.400  0.2535 -0.1312 -0.1200
 3846SOL    HW123171   2.825   0.915   1.402 -0.1132  0.0522  0.9360
 3846SOL    HW223172   2.907   0.997   1.316  1.0873 -0.3894  0.3392
 3847SOL     OW23173   2.776   1.782   5.548  0.2952  0.3669  0.3082
 3847SOL    HW123174   2.692   1.809   5.511  1.0148  0.8436 -0.9774
 3847SOL    HW223175   2.751   1.690   5.558 -3.0357  1.2061 -0.4908
 3848SOL     OW23176   2.005   2.464  16.490  0.6664  0.1104  0.3539
 3848SOL    HW123177   1.951   2.403  16.440 -1.2285  0.0995  2.4067
 3848SOL    HW223178   1.941   2.533  16.508  0.0793  0.0027 -1.2966
 3849SOL     OW23179   4.683   0.190   4.883 -0.0817  0.3765  0.0443
 3849SOL    HW123180   4.659   0.098   4.880  0.1711  0.2706  1.4623
 3849SOL    HW223181   4.674   0.220   4.973 -0.2798  0.3290  0.0409
 3850SOL     OW23182   2.251   4.387   6.700  0.0630  0.3114 -0.5782
 3850SOL    HW123183   2.165   4.430   6.702  0.0709  0.2171  2.0755
 3850SOL    HW223184   2.307   4.457   6.734 -1.3021  1.1950 -0.1569
 3851SOL     OW23185   0.659   2.557   7.354 -0.2135 -0.2577  0.0930
 3851SOL    HW123186   0.647   2.473   7.309 -0.2392 -0.8576  1.2285
 3851SOL    HW223187   0.721   2.527   7.421  0.9402  0.1912 -0.7692
 3852SOL     OW23188   1.655   4.714   2.890  0.8709  0.3332 -0.4273
 3852SOL    HW123189   1.674   4.659   2.814  1.5326 -3.0789  2.2487
 3852SOL    HW223190   1.708   4.667   2.954 -2.2995 -0.8889  1.3148
 3853SOL     OW23191   1.739   3.259   1.461  0.1802 -0.0116 -0.3575
 3853SOL    HW123192   1.778   3.324   1.403  2.2664  0.9572  2.1028
 3853SOL    HW223193   1.659   3.302   1.490 -0.3106 -0.7999 -0.5501
 3854SOL     OW23194   0.500   1.072   1.383  0.3986  0.4736  0.7743
 3854SOL    HW123195   0.577   1.045   1.434  1.5501  3.9832  0.8539
 3854SOL    HW223196   0.462   1.137   1.442 -2.0293 -1.0398  0.8938
 3855SOL     OW23197   3.911   1.150   7.259 -0.1384  0.0926  0.0597
 3855SOL    HW123198   3.994   1.177   7.219  0.5669 -0.2689  1.2828
 3855SOL    HW223199   3.930   1.180   7.348 -0.9010 -0.8346  0.5362
 3856SOL     OW23200   4.097   2.629   7.852 -0.1335 -0.1753 -0.4637
 3856SOL    HW123201   4.059   2.578   7.780 -2.9666 -0.4657  1.2544
 3856SOL    HW223202   4.015   2.640   7.901  0.8591 -3.2135  1.8673
 3857SOL     OW23203   3.835   2.895   3.245  0.0804  0.1208 -0.1929
 3857SOL    HW123204   3.828   2.860   3.334  1.5106  0.5102  0.0665
 3857SOL    HW223205   3.804   2.824   3.189  1.8790  0.1510 -1.2163
 3858SOL     OW23206   0.583   2.766   5.535  0.3250 -0.0916 -0.8216
 3858SOL    HW123207   0.590   2.690   5.593  0.4764  1.5687  1.3244
 3858SOL    HW223208   0.517   2.826   5.569  2.1189  1.4348  0.0093
 3859SOL     OW23209   3.987   3.624   3.470  0.2166  0.5115 -0.5440
 3859SOL    HW123210   3.949   3.678   3.400 -0.9720  0.8286  0.3424
 3859SOL    HW223211   3.919   3.620   3.538  0.6590 -0.5824 -0.1827
 3860SOL     OW23212   1.196   3.286   1.300 -0.6659  0.3981 -0.0072
 3860SOL    HW123213   1.240   3.370   1.296  2.1301 -1.1203 -0.8736
 3860SOL    HW223214   1.212   3.270   1.207  1.2800  0.6940  0.2815
 3861SOL     OW23215   2.480   3.358   7.620  0.0072  0.1664 -0.1718
 3861SOL    HW123216   2.533   3.403   7.686  0.2484  0.7429 -0.7540
 3861SOL    HW223217   2.542   3.305   7.570 -0.6592 -1.3771  0.6444
 3862SOL     OW23218   2.468   1.072   9.522  0.0365 -0.7142  0.2246
 3862SOL    HW123219   2.533   1.007   9.494 -0.7710 -1.9213  1.1128
 3862SOL    HW223220   2.523   1.128   9.576 -1.7711  0.7805  0.5084
 3863SOL     OW23221   1.923   1.138   9.566  0.0073 -0.3413  0.0572
 3863SOL    HW123222   2.006   1.180   9.588  0.5145 -0.2032 -2.1127
 3863SOL    HW223223   1.902   1.120   9.657  1.9341  0.1310  0.5822
 3864SOL     OW23224   4.560   1.364   1.167  0.8882 -0.3606  0.3806
 3864SOL    HW123225   4.590   1.355   1.076  0.7716  3.7764 -0.0625
 3864SOL    HW223226   4.585   1.282   1.209 -1.0863 -0.7305  0.8134
 3865SOL     OW23227   3.343   4.637   5.977  0.1495  0.3939 -0.1341
 3865SOL    HW123228   3.400   4.663   6.049 -0.0442  0.3469  0.0358
 3865SOL    HW223229   3.260   4.626   6.023  0.2521 -2.9042 -0.6971
 3866SOL     OW23230   3.925   4.043   7.943  0.1221  0.1066  0.2953
 3866SOL    HW123231   3.946   3.968   7.887 -2.2044 -1.3035  1.2856
 3866SOL    HW223232   3.989   4.030   8.013 -1.2933 -2.2976  1.1599
 3867SOL     OW23233   2.191   3.018   4.225  0.4011 -0.3832 -0.2235
 3867SOL    HW123234   2.110   3.008   4.175 -0.7114  1.1020  1.2903
 3867SOL    HW223235   2.167   3.096   4.275  2.1805 -0.3055  0.5241
 3868SOL     OW23236   2.646   1.717  10.103 -0.1023 -0.2565  0.1094
 3868SOL    HW123237   2.742   1.712  10.106 -0.2351 -2.1781  1.5326
 3868SOL    HW223238   2.614   1.627  10.116  0.4869 -0.5853 -0.7347
 3869SOL     OW23239   0.005   4.307   4.666  0.1543 -0.1649 -0.1305
 3869SOL    HW123240   4.689   4.349   4.597  1.5804  3.4210  0.9499
 3869SOL    HW223241   4.690   4.336   4.742  0.9422 -0.5280  0.5390
 3870SOL     OW23242   4.599   0.022   8.250  0.2004 -0.2708 -0.4399
 3870SOL    HW123243   4.587   4.728   8.340 -1.0149 -0.1353 -0.5580
 3870SOL    HW223244   4.659   4.688   8.228 -1.0320 -1.0949 -1.1593
 3871SOL     OW23245   3.133   3.555  11.975 -0.2363 -0.3301 -0.0258
 3871SOL    HW123246   3.084   3.481  11.940 -1.6492  0.8460 -0.5352
 3871SOL    HW223247   3.185   3.516  12.045  0.6651 -0.4116 -0.7362
 3872SOL     OW23248   4.304   0.103   2.561 -0.1018 -0.1827  0.1663
 3872SOL    HW123249   4.316   0.107   2.466 -0.0358  0.7558  0.2175
 3872SOL    HW223250   4.296   0.008   2.571  1.2582 -0.0651  2.3850
 3873SOL     OW23251   3.311   3.023   3.851 -0.4741  0.1752 -0.0167
 3873SOL    HW123252   3.358   2.940   3.846  0.0574  0.3812  1.4135
 3873SOL    HW223253   3.276   3.022   3.940 -2.0903 -0.8084 -0.6818
 3874SOL     OW23254   2.719   2.063   3.270 -0.1347 -0.4584 -0.0503
 3874SOL    HW123255   2.699   1.971   3.257  2.3058 -1.0367  0.2175
 3874SOL    HW223256   2.752   2.071   3.181  1.4121 -1.3612  0.4431
 3875SOL     OW23257   0.071   0.894   1.334  0.4124  0.8231  0.2206
 3875SOL    HW123258   0.080   0.883   1.429 -0.1153  0.9937  0.2915
 3875SOL    HW223259   0.160   0.911   1.304  1.5252  1.1962  3.7211
 3876SOL     OW23260   4.300   0.833  11.620 -0.1851 -0.3714 -0.0736
 3876SOL    HW123261   4.237   0.781  11.571 -0.3671 -1.0729  0.9163
 3876SOL    HW223262   4.279   0.924  11.596  2.5667  0.4784  0.6869
 3877SOL     OW23263   4.392   2.772  12.472 -0.3573  0.4584  0.5719
 3877SOL    HW123264   4.326   2.792  12.538 -1.2793 -2.8932  0.6745
 3877SOL    HW223265   4.460   2.735  12.528 -0.4195  0.0846  0.4085
 3878SOL     OW23266   1.545   1.593  13.757 -0.2982 -0.0897 -0.1133
 3878SOL    HW123267   1.593   1.513  13.733  0.5149 -0.2557  2.0696
 3878SOL    HW223268   1.456   1.577  13.727 -0.3075 -0.5328  0.1584
 3879SOL     OW23269   4.015   0.167   2.499 -0.3180 -0.0177  0.0607
 3879SOL    HW123270   4.006   0.247   2.551 -0.3503 -0.3256  0.5310
 3879SOL    HW223271   4.107   0.142   2.497 -0.7039 -1.3453 -1.0472
 3880SOL     OW23272   2.617   4.274   6.034 -0.1220  0.1430  0.1267
 3880SOL    HW123273   2.573   4.245   5.955 -0.6737 -0.5603  0.6907
 3880SOL    HW223274   2.654   4.189   6.058  1.7728  0.5846 -1.2289
 3881SOL     OW23275   1.155   4.576   9.691  0.0296 -0.1183 -0.2466
 3881SOL    HW123276   1.118   4.623   9.617  0.7155  0.2498 -0.3539
 3881SOL    HW223277   1.090   4.579   9.762  0.8126  4.9350  0.2190
 3882SOL     OW23278   2.148   0.525   8.639  0.6643 -0.0976 -0.0956
 3882SOL    HW123279   2.237   0.549   8.615  1.1288 -0.6650  1.0735
 3882SOL    HW223280   2.123   0.592   8.702  0.5888  0.5596 -0.8203
 3883SOL     OW23281   2.704   0.217   6.331 -0.5850 -0.0053 -0.0162
 3883SOL    HW123282   2.762   0.174   6.394  0.3770  1.8390  0.3641
 3883SOL    HW223283   2.637   0.149   6.338 -0.8486  0.1411 -1.1188
 3884SOL     OW23284   4.724   4.254   7.035  0.8256  0.1960 -0.5502
 3884SOL    HW123285   0.069   4.214   7.007  0.8621  0.8606 -1.4066
 3884SOL    HW223286   4.721   4.210   7.120  2.1697 -0.0212 -0.6224
 3885SOL     OW23287   4.577   0.831   1.834  0.0267  0.1900  0.0214
 3885SOL    HW123288   4.552   0.893   1.902  0.4611 -1.3244  1.5589
 3885SOL    HW223289   4.498   0.778   1.818  1.1958 -0.9720 -1.9214
 3886SOL     OW23290   1.354   2.010  12.869 -0.1761  0.0124 -0.3268
 3886SOL    HW123291   1.324   2.101  12.867 -0.8011 -0.2247 -1.8755
 3886SOL    HW223292   1.294   1.968  12.807  2.3792 -2.1319 -1.3270
 3887SOL     OW23293   2.135   1.225   4.099 -0.0090 -0.0455  0.2692
 3887SOL    HW123294   2.151   1.293   4.164  0.0928 -1.2072  1.4610
 3887SOL    HW223295   2.219   1.205   4.059 -0.7596 -3.3853  0.3428
 3888SOL     OW23296   2.298   2.405   1.153  0.3639 -0.4170 -0.6962
 3888SOL    HW123297   2.264   2.494   1.146  1.8222  0.1548 -0.6388
 3888SOL    HW223298   2.267   2.367   1.235  0.0219 -1.0648 -1.1259
 3889SOL     OW23299   1.748   3.807   6.749 -0.3721  0.1736 -0.4239
 3889SOL    HW123300   1.774   3.750   6.822 -3.2009  0.3275  0.7204
 3889SOL    HW223301   1.820   3.804   6.686  0.1322  1.7671  0.0574
 3890SOL     OW23302   0.223   0.498   8.401  0.3729 -0.4606 -0.3089
 3890SOL    HW123303   0.148   0.474   8.346 -0.0126 -0.9278  0.4346
 3890SOL    HW223304   0.297   0.494   8.340  0.3477 -1.8431 -0.2469
 3891SOL     OW23305   4.407   3.299   6.665  0.5138  0.1606  0.4442
 3891SOL    HW123306   4.372   3.388   6.654 -0.9548 -0.3475  0.9910
 3891SOL    HW223307   4.490   3.325   6.705  0.6239 -1.4370  1.2456
 3892SOL     OW23308   1.293   3.965  11.225  0.8591  0.3430  0.7194
 3892SOL    HW123309   1.307   4.058  11.211  1.3012  0.3361  1.1106
 3892SOL    HW223310   1.198   3.953  11.226  0.7191  1.5888  1.8911
 3893SOL     OW23311   3.873   1.594   0.668  0.0050  0.1978  0.3829
 3893SOL    HW123312   3.849   1.595   0.575  2.6954 -0.6433 -0.3116
 3893SOL    HW223313   3.839   1.675   0.706 -1.6975  0.0174 -0.7522
 3894SOL     OW23314   2.104   1.949  15.573  0.2465 -0.3182  0.0154
 3894SOL    HW123315   2.046   1.971  15.501 -1.8702  1.9155  2.3947
 3894SOL    HW223316   2.040   1.931  15.642 -1.0660  0.0587 -1.1014
 3895SOL     OW23317   2.053   3.447   1.972 -0.0251  0.1962 -0.2613
 3895SOL    HW123318   2.008   3.371   2.009  1.5156 -0.3544  0.4854
 3895SOL    HW223319   1.990   3.478   1.907  2.9473  1.7692 -2.3659
 3896SOL     OW23320   2.273   3.087  15.019  0.2048 -0.0113 -0.2102
 3896SOL    HW123321   2.296   3.054  14.932 -1.2614  3.4397 -1.9064
 3896SOL    HW223322   2.294   3.002  15.059  3.3186  0.5279 -0.6815
 3897SOL     OW23323   1.918   1.850   2.310 -0.2803 -0.0296 -0.1231
 3897SOL    HW123324   1.968   1.873   2.388 -2.2110  0.4982  0.9426
 3897SOL    HW223325   1.962   1.767   2.290  0.7355  1.0422 -2.3754
 3898SOL     OW23326   1.909   4.174   1.135 -0.6667  0.3589 -0.2978
 3898SOL    HW123327   1.886   4.143   1.223 -0.7720  0.2262 -0.3712
 3898SOL    HW223328   1.834   4.233   1.121 -0.3544  0.8765  0.1917
 3899SOL     OW23329   0.208   0.962  13.502 -0.1195 -0.1970 -0.2397
 3899SOL    HW123330   0.136   0.905  13.531  0.3582  0.6855  2.6539
 3899SOL    HW223331   0.160   1.031  13.456  1.9058  2.4966  1.6979
 3900SOL     OW23332   0.583   0.233   2.360  0.2532  0.9024 -0.2752
 3900SOL    HW123333   0.649   0.300   2.375 -0.2336  0.4453  3.9903
 3900SOL    HW223334   0.514   0.275   2.310 -0.6446  2.3788  2.2295
 3901SOL     OW23335   2.937   2.394   2.945 -0.0052 -0.1549 -0.0363
 3901SOL    HW123336   2.851   2.377   2.982  0.5277  0.1305  1.3434
 3901SOL    HW223337   2.923   2.447   2.867 -0.5817  1.4481  1.1583
 3902SOL     OW23338   0.640   1.487  15.454 -0.2925 -0.1715  0.2818
 3902SOL    HW123339   0.592   1.518  15.377  0.2940 -2.1303 -0.8690
 3902SOL    HW223340   0.707   1.554  15.468 -1.0725  1.0070 -1.5364
 3903SOL     OW23341   4.021   1.566   4.699 -0.2667 -0.3193  0.4060
 3903SOL    HW123342   3.966   1.621   4.643 -0.5802  0.7316  1.7481
 3903SOL    HW223343   4.099   1.621   4.690  0.4632 -1.3971  0.2027
 3904SOL     OW23344   4.703   3.945  11.984  0.4105  0.4699  0.7559
 3904SOL    HW123345   4.679   4.025  11.937 -1.0250  0.2159  1.0350
 3904SOL    HW223346   4.726   3.884  11.914  0.8064 -0.1592  1.4369
 3905SOL     OW23347   3.947   2.644   8.181  0.2304 -0.1797 -0.3472
 3905SOL    HW123348   3.878   2.626   8.246  0.4751  0.3131  0.0500
 3905SOL    HW223349   3.906   2.672   8.099  0.6284  1.4107 -0.0012
 3906SOL     OW23350   1.360   1.975   8.119 -0.0102  0.8174  0.1402
 3906SOL    HW123351   1.361   1.902   8.057 -1.6337  0.5525  0.4093
 3906SOL    HW223352   1.388   2.051   8.067 -0.6481  1.5071  0.7849
 3907SOL     OW23353   0.001   2.554   2.251 -0.4899 -0.1071  0.3783
 3907SOL    HW123354   4.681   2.580   2.179 -1.0731 -1.1296  0.4696
 3907SOL    HW223355   4.698   2.473   2.283 -0.8589  0.9506  2.5844
 3908SOL     OW23356   2.430   0.795  17.722  0.0801 -0.4225  0.7432
 3908SOL    HW123357   2.390   0.730   0.034 -1.7082  0.6400  0.7026
 3908SOL    HW223358   2.518   0.782   0.012  0.2935 -1.2704 -0.1349
 3909SOL     OW23359   2.501   1.293   7.021  0.0478 -0.0913 -0.3573
 3909SOL    HW123360   2.528   1.237   6.948  1.3474  0.5310 -0.3597
 3909SOL    HW223361   2.407   1.280   7.014  0.3357 -0.6581 -3.2998
 3910SOL     OW23362   1.044   0.842  17.321 -0.2694  0.0585  0.2403
 3910SOL    HW123363   1.095   0.842  17.240  2.4938 -0.3810  1.9840
 3910SOL    HW223364   0.955   0.839  17.287 -0.9889 -2.3797  2.3169
 3911SOL     OW23365   0.209   0.681   6.855  0.1516  0.0900 -0.3988
 3911SOL    HW123366   0.133   0.628   6.878 -0.2083 -0.1218 -2.0752
 3911SOL    HW223367   0.189   0.735   6.778 -0.9236  0.9549  0.4756
 3912SOL     OW23368   3.283   0.965   2.790 -0.2604  0.6357 -0.4898
 3912SOL    HW123369   3.331   0.984   2.870 -2.8568  0.2012  1.1464
 3912SOL    HW223370   3.358   0.956   2.730 -1.7523 -0.2606 -2.2331
 3913SOL     OW23371   0.171   3.685   7.454  0.1899 -0.3539  0.6285
 3913SOL    HW123372   0.223   3.762   7.431  1.6755 -1.3868  0.5105
 3913SOL    HW223373   0.082   3.716   7.439 -0.2549 -1.7224  0.4852
 3914SOL     OW23374   0.113   3.377   6.524  0.2011  0.2476  0.2271
 3914SOL    HW123375   0.156   3.328   6.454 -0.1313 -0.1684  0.3193
 3914SOL    HW223376   0.130   3.317   6.597 -0.3314  1.9160  1.7380
 3915SOL     OW23377   4.527   4.640  10.786 -1.2747 -0.4031 -0.2776
 3915SOL    HW123378   4.557   4.696  10.714 -0.6804 -0.3263  0.0238
 3915SOL    HW223379   4.585   4.667  10.858 -1.1271 -2.5529  0.4034
 3916SOL     OW23380   3.044   4.109   3.849  0.2664 -0.6699 -0.0542
 3916SOL    HW123381   2.948   4.107   3.857  0.3582 -0.4093  1.1189
 3916SOL    HW223382   3.055   4.191   3.802  0.3522  0.2885  1.6167
 3917SOL     OW23383   0.532   2.180   8.186  0.3804  0.6493  0.2688
 3917SOL    HW123384   0.582   2.109   8.225  0.8629 -0.0146 -1.6024
 3917SOL    HW223385   0.461   2.186   8.251 -0.4809  2.1587 -0.7992
 3918SOL     OW23386   0.382   1.160  13.647 -0.0174 -0.1783 -0.4445
 3918SOL    HW123387   0.301   1.185  13.603 -0.2623  0.2701  0.2649
 3918SOL    HW223388   0.442   1.179  13.574 -0.0936  0.1209 -0.4286
 3919SOL     OW23389   0.520   0.736   7.080 -0.7862  0.1419 -0.8925
 3919SOL    HW123390   0.600   0.725   7.132 -2.1826 -0.9193  1.0482
 3919SOL    HW223391   0.495   0.827   7.097 -0.8535 -0.0728  0.1807
 3920SOL     OW23392   3.789   4.616   9.076 -0.0352  0.3094 -0.0008
 3920SOL    HW123393   3.757   4.576   9.157 -2.1718  3.9878  0.9874
 3920SOL    HW223394   3.870   4.654   9.109  0.7884 -1.6974  0.3067
 3921SOL     OW23395   3.504   3.506   2.045  0.3378  0.0570 -0.0442
 3921SOL    HW123396   3.465   3.504   2.133  1.8780 -2.8577  0.5656
 3921SOL    HW223397   3.426   3.501   1.990  0.9068 -1.1778 -0.7341
 3922SOL     OW23398   1.208   1.156   9.190  0.0175  0.0640 -0.0355
 3922SOL    HW123399   1.137   1.221   9.194 -0.3411 -0.2394 -1.3939
 3922SOL    HW223400   1.171   1.085   9.241  2.0490  1.3488  3.2606
 3923SOL     OW23401   2.430   0.670  12.314  0.5973 -0.3802  0.2955
 3923SOL    HW123402   2.343   0.706  12.295  0.4076 -1.6775 -1.2740
 3923SOL    HW223403   2.459   0.747  12.363 -2.1229  1.9124 -1.6748
 3924SOL     OW23404   2.001   3.241   6.060  0.0914  0.0483 -0.4124
 3924SOL    HW123405   1.914   3.208   6.038 -0.4190  1.3347 -0.3236
 3924SOL    HW223406   2.042   3.243   5.973 -0.4583  0.3225 -0.6661
 3925SOL     OW23407   2.949   4.564  15.643  0.2342 -0.0458 -0.0940
 3925SOL    HW123408   3.018   4.569  15.576 -0.3308 -1.4883 -0.7869
 3925SOL    HW223409   2.879   4.534  15.585  0.7839  1.6934 -1.6582
 3926SOL     OW23410   1.903   1.990   1.563  0.0639 -0.0294  0.0939
 3926SOL    HW123411   1.996   1.967   1.563  0.3329  1.0434 -0.4681
 3926SOL    HW223412   1.865   1.903   1.577 -2.8562  1.4038  1.1102
 3927SOL     OW23413   1.035   3.199  14.242 -0.5430  0.1103 -0.1476
 3927SOL    HW123414   1.012   3.165  14.329  2.6203  0.9234  1.0019
 3927SOL    HW223415   1.055   3.113  14.204 -2.6387  0.0696 -1.1507
 3928SOL     OW23416   0.333   1.272   5.082  0.1805 -0.2832 -0.0124
 3928SOL    HW123417   0.377   1.187   5.083  0.8576  0.0642  0.8071
 3928SOL    HW223418   0.255   1.257   5.135 -1.1866  0.5638 -1.8019
 3929SOL     OW23419   2.073   1.696   4.421 -0.1463 -0.0469 -0.1012
 3929SOL    HW123420   2.148   1.752   4.400 -0.5438  0.2552 -0.7061
 3929SOL    HW223421   2.018   1.759   4.467  0.7999  0.7769 -0.0785
 3930SOL     OW23422   1.908   1.657   6.629 -0.1770 -0.2143 -0.3768
 3930SOL    HW123423   1.993   1.688   6.660 -1.0123 -0.2794  2.0054
 3930SOL    HW223424   1.848   1.673   6.703 -3.7266 -0.2689 -3.2630
 3931SOL     OW23425   0.479   3.034   5.670  0.0492 -0.1076  0.0613
 3931SOL    HW123426   0.523   3.016   5.753  1.9245 -0.3645 -0.9884
 3931SOL    HW223427   0.427   3.111   5.690 -0.5717 -0.7497  0.9298
 3932SOL     OW23428   1.861   2.349   7.199 -0.5244  0.3964  0.0035
 3932SOL    HW123429   1.949   2.359   7.163 -1.4504  1.2645 -2.0452
 3932SOL    HW223430   1.889   2.299   7.276 -0.2892 -1.7223 -1.4642
 3933SOL     OW23431   0.044   3.372   0.171  0.8053  0.1525 -0.0929
 3933SOL    HW123432   0.060   3.414   0.256 -1.3925 -0.5045  0.6448
 3933SOL    HW223433   0.128   3.391   0.128 -1.1294  3.0012 -2.5963
 3934SOL     OW23434   3.265   0.084  17.395  0.2732  0.0581  0.5752
 3934SOL    HW123435   3.333   0.072  17.328  1.0684 -1.5829  1.6530
 3934SOL    HW223436   3.201   0.138  17.349  0.4160 -2.3247 -2.4943
 3935SOL     OW23437   0.083   4.423   9.033 -0.9302  0.1936  0.3338
 3935SOL    HW123438   0.085   4.396   8.942 -0.4801  0.6630  0.2043
 3935SOL    HW223439   0.057   4.515   9.020  1.3237  0.5072 -1.8283
 3936SOL     OW23440   3.226   4.631   0.160  0.6638 -0.7499 -0.1325
 3936SOL    HW123441   3.144   4.582   0.164  1.0747 -1.2991  1.7319
 3936SOL    HW223442   3.260   4.583   0.085 -0.0781 -0.8464 -0.4024
 3937SOL     OW23443   0.859   0.321  12.051 -0.5733  0.4952  0.2545
 3937SOL    HW123444   0.924   0.377  12.008  1.3082 -2.3990 -0.6442
 3937SOL    HW223445   0.880   0.337  12.143  1.3118 -0.9399  0.0764
 3938SOL     OW23446   1.092   2.895   2.151  0.1290 -0.6776 -0.6144
 3938SOL    HW123447   1.067   2.848   2.071 -0.0329  1.0207 -1.5486
 3938SOL    HW223448   1.029   2.865   2.217  0.2204  1.0124  0.2268
 3939SOL     OW23449   1.461   2.954  10.972 -0.5458 -0.4451  0.5519
 3939SOL    HW123450   1.527   3.012  11.010 -1.7312  0.8759  0.6112
 3939SOL    HW223451   1.455   2.892  11.044 -0.9492  1.9259  2.5794
 3940SOL     OW23452   3.239   3.469  15.968 -0.3145 -0.2545 -0.3169
 3940SOL    HW123453   3.168   3.422  15.925 -1.9305  0.8591  1.1464
 3940SOL    HW223454   3.193   3.538  16.016 -0.5822 -0.5066 -0.2136
 3941SOL     OW23455   3.768   2.478   6.969 -0.0218  0.1080  0.0610
 3941SOL    HW123456   3.742   2.386   6.969 -0.0933  0.1288 -0.6013
 3941SOL    HW223457   3.713   2.490   7.046  0.1187  1.8957 -0.1195
 3942SOL     OW23458   1.071   4.611   5.912  0.3950  0.4193 -0.2953
 3942SOL    HW123459   0.984   4.602   5.952  1.4132 -0.3419  1.7779
 3942SOL    HW223460   1.114   4.673   5.972 -0.5578  1.5229 -0.7553
 3943SOL     OW23461   0.625   2.677   3.003 -0.6608  0.0660  0.2302
 3943SOL    HW123462   0.694   2.647   2.944 -0.7574 -1.2778  0.8083
 3943SOL    HW223463   0.685   2.738   3.047 -2.1686  1.1551  0.7751
 3944SOL     OW23464   1.804   0.001  12.235 -0.4988 -0.0221 -0.0201
 3944SOL    HW123465   1.764   0.004  12.322  0.4910 -1.1776  0.4765
 3944SOL    HW223466   1.736   0.032  12.176  0.4974  1.2178 -0.5365
 3945SOL     OW23467   0.466   4.736   6.201 -0.3316 -0.3003  0.0913
 3945SOL    HW123468   0.537   0.023   6.261  0.3869  0.1330 -0.9339
 3945SOL    HW223469   0.517   4.668   6.157 -0.0623  0.3169 -0.5500
 3946SOL     OW23470   1.342   1.380   5.047 -0.6349  0.1078 -0.1878
 3946SOL    HW123471   1.390   1.424   4.977  0.5376 -0.3163  0.3414
 3946SOL    HW223472   1.316   1.462   5.088  1.3839 -0.2501  1.8300
 3947SOL     OW23473   3.115   1.660   5.476  0.3889  0.1497 -0.0846
 3947SOL    HW123474   3.056   1.727   5.440  1.0538 -0.1850 -1.8269
 3947SOL    HW223475   3.146   1.692   5.560  0.0868  2.9632 -1.0255
 3948SOL     OW23476   2.401   1.643   2.031  0.2042 -0.0899 -0.3434
 3948SOL    HW123477   2.497   1.634   2.025  0.2370  0.5392 -0.7024
 3948SOL    HW223478   2.380   1.552   2.009  0.5728 -0.2974  0.1361
 3949SOL     OW23479   3.746   3.717   7.208  0.4656  0.5232  0.3926
 3949SOL    HW123480   3.746   3.757   7.121 -0.9750 -2.2349 -0.8707
 3949SOL    HW223481   3.677   3.768   7.251  1.8412  1.5689  1.3510
 3950SOL     OW23482   4.603   1.753   7.020 -0.6922  0.1207 -0.0523
 3950SOL    HW123483   4.530   1.738   6.960  0.2025  0.9708 -1.3565
 3950SOL    HW223484   4.675   1.768   6.958  0.4127 -1.7632  0.7600
 3951SOL     OW23485   2.154   0.969   4.050  0.1777 -0.2817  0.6480
 3951SOL    HW123486   2.130   1.051   4.092 -2.2053 -1.8631  2.4019
 3951SOL    HW223487   2.214   0.932   4.115 -1.5405 -1.8505  1.3430
 3952SOL     OW23488   3.179   4.168   4.793  0.4825 -0.2861 -0.0083
 3952SOL    HW123489   3.142   4.229   4.729  0.4715  0.4232  0.6756
 3952SOL    HW223490   3.138   4.084   4.774  0.9017 -0.6284  0.5834
 3953SOL     OW23491   1.393   2.172  17.460 -0.4875  0.8035  0.1153
 3953SOL    HW123492   1.402   2.107  17.530  0.9000  0.7222 -0.1338
 3953SOL    HW223493   1.485   2.181  17.433 -1.1286  3.0929 -1.2938
 3954SOL     OW23494   2.049   2.854   3.274  0.2977  0.1915  0.4578
 3954SOL    HW123495   2.029   2.934   3.225 -0.1940 -0.1849  0.0384
 3954SOL    HW223496   1.976   2.804   3.238  1.7925 -1.8948  0.3094
 3955SOL     OW23497   3.706   1.781   5.568 -0.1679 -0.5746  0.4692
 3955SOL    HW123498   3.712   1.688   5.590 -0.5650 -0.6798  0.1388
 3955SOL    HW223499   3.687   1.776   5.474  0.2650  0.1437  0.3418
 3956SOL     OW23500   1.091   0.142   9.301  0.1213  0.0859  0.0196
 3956SOL    HW123501   1.060   0.114   9.214 -1.8893 -0.9680  1.0618
 3956SOL    HW223502   1.180   0.108   9.301  0.1908  0.2615  0.8398
 3957SOL     OW23503   0.683   3.371   0.470 -0.4127  0.0407 -0.4319
 3957SOL    HW123504   0.658   3.281   0.489  0.2369 -0.2133 -0.7612
 3957SOL    HW223505   0.770   3.352   0.434 -0.6049 -0.4366 -0.6475
 3958SOL     OW23506   0.877   2.263  15.748 -0.7190 -0.1900 -0.6437
 3958SOL    HW123507   0.811   2.330  15.729 -2.2811 -1.0330  1.8282
 3958SOL    HW223508   0.955   2.318  15.754 -1.4394  0.8083 -0.4420
 3959SOL     OW23509   0.738   4.029   1.559 -0.4567  0.2165 -0.7658
 3959SOL    HW123510   0.727   3.944   1.602 -2.0250  1.3670  1.1010
 3959SOL    HW223511   0.649   4.064   1.560 -0.3917  0.3597  0.0158
 3960SOL     OW23512   3.054   1.659  17.019 -0.2185 -0.4131  0.0767
 3960SOL    HW123513   3.115   1.713  16.968 -1.5755  0.8760 -0.2023
 3960SOL    HW223514   3.080   1.578  16.974  2.4706  0.5314 -0.1093
 3961SOL     OW23515   0.683   0.113   2.943  0.6515 -0.4524  0.0599
 3961SOL    HW123516   0.738   0.164   3.002 -0.3758  2.1927 -1.2875
 3961SOL    HW223517   0.760   0.064   2.916 -0.3730 -0.8552 -2.1404
 3962SOL     OW23518   4.326   3.641   6.412  0.0009 -0.8370 -0.4471
 3962SOL    HW123519   4.243   3.596   6.425 -1.7697  2.4099 -0.3286
 3962SOL    HW223520   4.382   3.569   6.383  0.5210 -0.8876  0.6844
 3963SOL     OW23521   4.133   0.245   3.155 -0.0742 -0.1005  0.4044
 3963SOL    HW123522   4.080   0.247   3.075 -0.4664 -3.3852  0.5840
 3963SOL    HW223523   4.200   0.181   3.130  1.0963  1.6739 -1.0321
 3964SOL     OW23524   2.431   2.627  13.502  0.4945  0.5400  0.1269
 3964SOL    HW123525   2.364   2.611  13.569  0.1873 -0.3600 -0.3918
 3964SOL    HW223526   2.512   2.583  13.529  0.6082 -0.1612 -1.3251
 3965SOL     OW23527   2.679   3.464   8.144  0.3008  0.1211 -0.6514
 3965SOL    HW123528   2.623   3.508   8.080  1.4147  2.5401  0.0201
 3965SOL    HW223529   2.616   3.405   8.186  0.2366  0.0172 -0.8935
 3966SOL     OW23530   0.710   1.071   2.078 -0.1848 -0.7273 -0.3832
 3966SOL    HW123531   0.781   1.033   2.129  0.0414  4.2978  2.9333
 3966SOL    HW223532   0.694   1.153   2.123  0.3457 -0.4586 -0.6856
 3967SOL     OW23533   3.090   0.585  12.818 -0.1221 -0.8495 -0.0745
 3967SOL    HW123534   3.045   0.506  12.847 -1.5365  0.9126  2.5612
 3967SOL    HW223535   3.180   0.574  12.849  0.2271 -1.2827 -1.2613
 3968SOL     OW23536   0.185   0.948   4.143 -0.1717  0.0290 -0.1524
 3968SOL    HW123537   0.135   0.881   4.096  0.6913  0.1885 -1.3171
 3968SOL    HW223538   0.191   0.918   4.233 -2.0300  1.3728  0.4177
 3969SOL     OW23539   1.646   3.025   2.845 -0.4979  0.0989 -0.0545
 3969SOL    HW123540   1.665   2.958   2.910  0.7882 -0.1572 -0.7004
 3969SOL    HW223541   1.716   3.089   2.862  1.0857 -1.9377  1.0676
 3970SOL     OW23542   0.465   2.623   7.178 -0.3255 -0.3886 -0.2759
 3970SOL    HW123543   0.398   2.555   7.171  0.5883 -1.1199 -1.8716
 3970SOL    HW223544   0.522   2.581   7.243  0.3167  0.1023 -0.5127
 3971SOL     OW23545   3.335   4.083   2.086 -0.7210  0.0308  0.6813
 3971SOL    HW123546   3.377   4.103   2.002  1.8246 -0.1402  1.8971
 3971SOL    HW223547   3.389   4.008   2.111 -1.3811 -1.8993 -3.7249
 3972SOL     OW23548   3.184   3.506   5.301  0.1498 -0.7909  0.0287
 3972SOL    HW123549   3.234   3.582   5.272  1.0282 -1.8408 -1.1885
 3972SOL    HW223550   3.125   3.549   5.363  0.7171  1.0775 -0.7416
 3973SOL     OW23551   3.429   3.155   3.246  0.3035  0.6032  0.1273
 3973SOL    HW123552   3.358   3.169   3.309  0.6571  1.2609  0.3819
 3973SOL    HW223553   3.416   3.060   3.242  0.9692  0.4823  0.8728
 3974SOL     OW23554   2.992   2.143  16.011  0.2358  0.3594  0.4650
 3974SOL    HW123555   2.981   2.076  15.943  0.3550  1.4582 -0.6367
 3974SOL    HW223556   2.900   2.158  16.034 -0.2003 -0.5210 -0.7204
 3975SOL     OW23557   1.052   0.239   5.826 -0.0287 -0.5029 -0.1749
 3975SOL    HW123558   1.020   0.185   5.753  0.6216  1.3091 -1.7681
 3975SOL    HW223559   1.094   0.314   5.786 -0.2072 -1.6574 -2.5576
 3976SOL     OW23560   2.534   0.016   8.407 -0.7858  0.5999 -0.2139
 3976SOL    HW123561   2.613   0.049   8.450  0.1661 -3.4089  1.0845
 3976SOL    HW223562   2.505   4.682   8.464 -2.0044  0.0409 -1.5230
 3977SOL     OW23563   4.487   0.172   7.135  0.1477 -0.1277  0.3881
 3977SOL    HW123564   4.421   0.198   7.070  0.7148 -0.1810 -0.2135
 3977SOL    HW223565   4.467   0.228   7.210  1.9822  0.4749  0.4286
 3978SOL     OW23566   4.357   3.509   1.805  0.2393 -0.2981  0.2997
 3978SOL    HW123567   4.399   3.437   1.759 -0.0565  0.2871 -0.8726
 3978SOL    HW223568   4.373   3.579   1.742  1.6786 -1.5955 -0.7582
 3979SOL     OW23569   1.615   3.452  12.479 -0.5099 -0.2367 -0.5732
 3979SOL    HW123570   1.547   3.476  12.542 -0.2592  0.0787 -0.4247
 3979SOL    HW223571   1.575   3.497  12.404  1.1189  1.7945 -0.2219
 3980SOL     OW23572   1.961   0.267   2.110 -0.0173  0.2072  0.6775
 3980SOL    HW123573   2.050   0.283   2.141 -0.1788  2.0692  0.1833
 3980SOL    HW223574   1.914   0.319   2.176 -0.7378  0.8549 -0.3505
 3981SOL     OW23575   3.235   3.209   5.809  0.1719  0.0691 -0.0754
 3981SOL    HW123576   3.160   3.190   5.753 -1.0522  1.5576  1.0429
 3981SOL    HW223577   3.223   3.301   5.831 -1.4901  0.0293 -0.7795
 3982SOL     OW23578   3.849   1.768   4.666 -0.4910  0.6636 -0.0828
 3982SOL    HW123579   3.827   1.859   4.645 -1.3288  0.4540 -0.1308
 3982SOL    HW223580   3.805   1.766   4.751 -0.4928 -0.3219 -0.1159
 3983SOL     OW23581   3.258   0.871   5.232 -0.2016  0.0001  0.0652
 3983SOL    HW123582   3.329   0.876   5.297  1.8375 -1.9317 -2.0111
 3983SOL    HW223583   3.315   0.879   5.156  2.0521 -0.4542  1.7164
 3984SOL     OW23584   4.091   0.559   4.228  0.1934  0.2302  0.5014
 3984SOL    HW123585   4.049   0.606   4.155  0.5242 -0.1928  0.0350
 3984SOL    HW223586   4.020   0.514   4.274  0.3033  0.2207  0.6598
 3985SOL     OW23587   3.401   0.671   8.149  0.8748  0.5027 -0.5884
 3985SOL    HW123588   3.373   0.591   8.194 -1.1796  0.2934 -2.2255
 3985SOL    HW223589   3.457   0.711   8.215 -0.4184  1.2974  0.0145
 3986SOL     OW23590   2.847   1.175  17.381  0.4365  0.1630 -0.2442
 3986SOL    HW123591   2.778   1.217  17.433 -0.4293 -1.1447 -0.3175
 3986SOL    HW223592   2.923   1.227  17.408 -0.1304  1.2292 -0.7219
 3987SOL     OW23593   3.836   2.161   6.816  0.6526  0.0558  0.0383
 3987SOL    HW123594   3.899   2.170   6.745  2.3476 -0.5316  1.4475
 3987SOL    HW223595   3.876   2.215   6.885 -0.2655  2.1065 -1.0337
 3988SOL     OW23596   1.316   1.153  14.242 -0.0306 -0.2177 -0.0545
 3988SOL    HW123597   1.384   1.214  14.211 -2.4574  1.2916 -2.4674
 3988SOL    HW223598   1.343   1.143  14.333  0.4351 -1.4659 -0.3360
 3989SOL     OW23599   0.266   0.262   4.114  0.3587 -0.2680  0.4426
 3989SOL    HW123600   0.188   0.279   4.062 -0.8435 -0.5048  2.1835
 3989SOL    HW223601   0.253   0.172   4.143  2.4972 -1.4280 -2.1653
 3990SOL     OW23602   1.741   3.402  13.051 -0.6822  0.0036 -0.5087
 3990SOL    HW123603   1.808   3.353  13.099 -0.0048  2.3498  0.9199
 3990SOL    HW223604   1.707   3.451  13.126 -1.4527 -0.3811 -0.6040
 3991SOL     OW23605   3.857   3.527   8.368  0.6957  0.0375 -0.2803
 3991SOL    HW123606   3.881   3.503   8.458  1.5464  3.5379  0.4192
 3991SOL    HW223607   3.801   3.603   8.380  3.0027  1.6319  0.2709
 3992SOL     OW23608   0.331   2.648   8.043 -0.3116  0.0945  0.3438
 3992SOL    HW123609   0.292   2.662   7.956 -0.9868  3.8631  1.2339
 3992SOL    HW223610   0.395   2.719   8.033 -0.4965 -0.3642 -4.0717
 3993SOL     OW23611   1.110   1.017   3.222  0.3725  0.3187 -0.0404
 3993SOL    HW123612   1.171   1.018   3.149  2.8580 -2.9637  1.9624
 3993SOL    HW223613   1.032   0.985   3.176  0.3139  0.6451 -0.1679
 3994SOL     OW23614   2.148   4.265   4.397  0.0548  0.0109  0.1525
 3994SOL    HW123615   2.228   4.317   4.399 -0.0830  0.2061  0.5508
 3994SOL    HW223616   2.164   4.207   4.322  1.2512  0.5274  0.0022
 3995SOL     OW23617   0.891   0.262  13.803 -0.2960 -0.2316  0.1004
 3995SOL    HW123618   0.860   0.321  13.872 -0.6932 -0.4732  0.1279
 3995SOL    HW223619   0.984   0.252  13.824 -0.3757 -0.8053  0.1789
 3996SOL     OW23620   0.429   2.236   4.689 -0.2513  0.0780 -0.6250
 3996SOL    HW123621   0.454   2.144   4.698 -0.9596  0.1276  1.8615
 3996SOL    HW223622   0.379   2.231   4.608 -0.4303 -0.4917 -0.4736
 3997SOL     OW23623   1.581   2.923  16.660  0.1752  0.0431  0.1938
 3997SOL    HW123624   1.673   2.902  16.675  0.1991  0.5570  0.7810
 3997SOL    HW223625   1.598   2.999  16.604 -2.0699  0.2595 -0.1973
 3998SOL     OW23626   3.177   2.965   7.377 -0.2167 -0.3472  0.4167
 3998SOL    HW123627   3.152   2.872   7.385  2.2148 -0.9171  1.2215
 3998SOL    HW223628   3.257   2.976   7.428  0.6754 -2.3122 -0.5579
 3999SOL     OW23629   4.210   0.163   5.669  0.0834 -0.0801  0.1335
 3999SOL    HW123630   4.150   0.155   5.595  0.0540  0.3301  0.1135
 3999SOL    HW223631   4.246   0.074   5.676 -1.6272 -0.6462  1.6880
 4000SOL     OW23632   2.484   3.627  17.327  0.5200 -0.1342  0.5200
 4000SOL    HW123633   2.485   3.566  17.253 -1.8433  1.1939 -0.6093
 4000SOL    HW223634   2.448   3.579  17.401 -1.0806 -1.0357 -0.8331
 4001SOL     OW23635   0.734   1.413   8.321 -0.0450  0.6703 -0.3034
 4001SOL    HW123636   0.664   1.355   8.290  1.2387 -0.8975 -0.2776
 4001SOL    HW223637   0.751   1.373   8.406 -2.6875  1.4042  0.5822
 4002SOL     OW23638   1.183   2.949   5.261  0.0060 -0.5096  0.3521
 4002SOL    HW123639   1.236   3.019   5.299  0.5263 -0.8568  0.2660
 4002SOL    HW223640   1.121   3.007   5.216  2.2319 -0.4149 -2.5848
 4003SOL     OW23641   1.375   0.150   0.571 -0.2332 -0.1226 -0.3613
 4003SOL    HW123642   1.455   0.132   0.619  0.5614 -1.2379 -2.0961
 4003SOL    HW223643   1.314   0.194   0.631 -0.3612  0.3813 -0.8552
 4004SOL     OW23644   4.534   2.605   5.645  0.3708  0.0336 -0.0710
 4004SOL    HW123645   4.507   2.513   5.652  3.2184 -0.4593  4.6481
 4004SOL    HW223646   4.552   2.627   5.736  2.7505  2.9071 -1.2345
 4005SOL     OW23647   0.987   2.774   4.199  0.3243  0.4999  0.0510
 4005SOL    HW123648   0.992   2.683   4.172 -1.2572  0.1830  0.8628
 4005SOL    HW223649   1.066   2.804   4.154  1.0418 -2.7027 -0.8028
 4006SOL     OW23650   0.432   1.930   4.459  0.2803  0.1612  0.1085
 4006SOL    HW123651   0.449   1.907   4.550  0.3251 -0.5119 -0.0720
 4006SOL    HW223652   0.338   1.915   4.447  0.1561 -0.8669  2.3496
 4007SOL     OW23653   4.629   4.236   9.073 -0.0154 -0.5932 -0.3976
 4007SOL    HW123654   4.687   4.311   9.068 -1.2225  0.3961  0.4521
 4007SOL    HW223655   4.690   4.163   9.070  0.7198 -0.0357  1.0612
 4008SOL     OW23656   1.136   1.594  12.385  0.0348 -0.7527  0.2247
 4008SOL    HW123657   1.183   1.562  12.462 -2.0545  0.3815  1.9822
 4008SOL    HW223658   1.200   1.568  12.319  0.4677  3.2934 -0.9178
 4009SOL     OW23659   3.935   0.524   4.979 -0.4058 -0.5365 -0.0095
 4009SOL    HW123660   3.939   0.475   4.897 -2.7890 -1.1435  0.2446
 4009SOL    HW223661   3.855   0.574   4.964 -0.2717  0.2553  1.9898
 4010SOL     OW23662   3.501   3.035   9.002 -0.1645 -0.0613 -0.0852
 4010SOL    HW123663   3.585   3.068   8.969 -0.0291 -0.3418 -0.0169
 4010SOL    HW223664   3.453   3.033   8.919  0.5754  2.2537 -0.5860
 4011SOL     OW23665   0.730   1.201   0.976 -0.5432 -0.5920  0.1939
 4011SOL    HW123666   0.655   1.250   1.009  0.5298  0.7349  0.6949
 4011SOL    HW223667   0.722   1.112   1.009  0.5924 -1.2542 -1.2996
 4012SOL     OW23668   3.650   0.916   5.584  0.0694  0.0859  0.0786
 4012SOL    HW123669   3.712   0.846   5.605  0.8290  0.3534 -1.2402
 4012SOL    HW223670   3.710   0.982   5.550 -0.1190  0.3019  0.1665
 4013SOL     OW23671   4.420   1.536  15.148 -0.1832 -0.6117  0.5695
 4013SOL    HW123672   4.422   1.494  15.234  1.4706  1.5659  1.5698
 4013SOL    HW223673   4.503   1.582  15.155  0.0424 -0.8333 -0.5760
 4014SOL     OW23674   4.242   1.116   7.876  0.2935 -0.2022  0.3243
 4014SOL    HW123675   4.246   1.021   7.868 -2.6022 -0.1973 -1.4260
 4014SOL    HW223676   4.295   1.134   7.954 -0.1858  1.2400  0.3179
 4015SOL     OW23677   3.032   4.594  15.231 -0.4545 -0.3115 -0.1010
 4015SOL    HW123678   2.964   4.546  15.183 -2.9070 -0.6857  3.7101
 4015SOL    HW223679   3.113   4.572  15.185 -0.1643 -1.1296  0.7809
 4016SOL     OW23680   0.627   1.386  17.061 -0.1837 -0.1214  0.2636
 4016SOL    HW123681   0.602   1.478  17.054  1.5401  0.3726  0.6851
 4016SOL    HW223682   0.571   1.360  17.134  0.2722  0.4181  0.7997
 4017SOL     OW23683   2.804   3.340  11.034 -0.2311 -0.2413 -0.6062
 4017SOL    HW123684   2.783   3.403  11.103 -2.0160 -1.3750 -0.0969
 4017SOL    HW223685   2.880   3.380  10.993 -0.9944  1.9222  0.1104
 4018SOL     OW23686   2.310   0.489  16.913  0.1385  0.8180 -0.0278
 4018SOL    HW123687   2.326   0.562  16.973  2.1865 -1.0357  1.6827
 4018SOL    HW223688   2.216   0.500  16.901  0.4695  3.8167  0.0341
 4019SOL     OW23689   3.043   3.076   5.683 -0.0013 -0.0148 -0.6009
 4019SOL    HW123690   3.051   2.983   5.665  0.9926  0.1266 -0.8716
 4019SOL    HW223691   2.964   3.077   5.737  0.6444  0.5791  0.3227
 4020SOL     OW23692   0.441   4.273   7.638 -0.1401  0.2532  0.2699
 4020SOL    HW123693   0.501   4.313   7.701 -1.8544 -0.1288  2.1657
 4020SOL    HW223694   0.501   4.203   7.614  0.9181  0.9185  0.9408
 4021SOL     OW23695   4.558   4.109   1.142  0.1632  0.1354 -0.1942
 4021SOL    HW123696   4.559   4.149   1.054  0.6973  2.6459  0.9458
 4021SOL    HW223697   4.616   4.035   1.125  0.8828  0.8269 -0.7899
 4022SOL     OW23698   0.771   3.330   9.118 -0.0394  0.1373  0.1882
 4022SOL    HW123699   0.834   3.321   9.190  0.2510  3.2424  0.3500
 4022SOL    HW223700   0.783   3.258   9.056  0.0352  0.4268 -0.1305
 4023SOL     OW23701   3.852   1.924   8.434  0.1330  0.2331 -0.5483
 4023SOL    HW123702   3.921   1.908   8.370  1.4071  0.0487  0.8577
 4023SOL    HW223703   3.863   2.014   8.462  1.6056 -0.1221  0.0276
 4024SOL     OW23704   3.308   4.417   1.591  0.5379  0.2000 -0.6545
 4024SOL    HW123705   3.328   4.479   1.521  2.0345  1.9104  1.2748
 4024SOL    HW223706   3.342   4.337   1.552 -0.7075 -0.0407 -1.2376
 4025SOL     OW23707   1.639   1.320  16.879 -0.0114  0.5207  0.5629
 4025SOL    HW123708   1.577   1.301  16.809 -1.0018  1.9503  1.0471
 4025SOL    HW223709   1.713   1.265  16.853  0.5749  1.4227  0.3365
 4026SOL     OW23710   3.311   1.635   9.357 -0.0181  0.2124 -0.4624
 4026SOL    HW123711   3.223   1.626   9.321  0.0482 -0.6845 -0.3875
 4026SOL    HW223712   3.365   1.670   9.287  1.0036  0.6771  0.5448
 4027SOL     OW23713   1.067   3.032   5.897  0.0870  0.1321 -0.3035
 4027SOL    HW123714   1.019   2.996   5.823 -0.7092 -1.3260  0.9180
 4027SOL    HW223715   1.151   2.986   5.894 -1.3998 -2.7629  1.7760
 4028SOL     OW23716   3.242   1.796  16.897 -1.2283 -0.3344  0.5542
 4028SOL    HW123717   3.240   1.773  16.804  0.3972  0.6462  0.2886
 4028SOL    HW223718   3.305   1.867  16.888 -1.8432 -0.1124 -2.0304
 4029SOL     OW23719   4.083   4.575   3.793 -0.1826 -0.2821 -0.6274
 4029SOL    HW123720   4.005   4.527   3.767  0.8949 -2.3922  0.0319
 4029SOL    HW223721   4.062   4.651   3.739  0.7221  0.5920  0.2592
 4030SOL     OW23722   3.332   2.440   2.934 -0.0627  0.4769 -0.2735
 4030SOL    HW123723   3.339   2.498   3.010 -3.4071 -0.3487  0.6674
 4030SOL    HW223724   3.365   2.507   2.874 -0.6757 -0.1473 -1.3090
 4031SOL     OW23725   0.792   3.806  16.217 -0.4078  0.8193 -0.2934
 4031SOL    HW123726   0.713   3.853  16.190 -2.5689 -2.4011  0.3801
 4031SOL    HW223727   0.795   3.835  16.308 -0.6802 -2.6528  0.8227
 4032SOL     OW23728   2.014   3.127  10.719 -0.1426 -0.2264  0.0665
 4032SOL    HW123729   2.092   3.078  10.744 -1.4306 -1.4027  1.7806
 4032SOL    HW223730   1.949   3.101  10.784  0.4250  0.5930  0.9793
 4033SOL     OW23731   3.603   3.774   3.792 -0.0279 -0.0808 -0.3819
 4033SOL    HW123732   3.568   3.854   3.832 -1.5209 -0.3692 -1.1297
 4033SOL    HW223733   3.550   3.702   3.825 -2.5496  1.6313 -0.7063
 4034SOL     OW23734   3.984   3.513  16.482 -0.1964 -0.1164 -0.2112
 4034SOL    HW123735   4.052   3.520  16.415  0.8818  1.6148  1.0595
 4034SOL    HW223736   4.030   3.487  16.561  1.5840 -0.5566 -1.3981
 4035SOL     OW23737   2.654   2.944   7.829  0.6531  0.5612  0.1878
 4035SOL    HW123738   2.723   2.997   7.870  0.3605  1.6059 -0.6682
 4035SOL    HW223739   2.588   3.013   7.819  1.3570  1.1864 -0.2004
 4036SOL     OW23740   4.386   4.057  15.178  0.2821  0.0993 -0.0127
 4036SOL    HW123741   4.308   4.018  15.138  0.3405  1.4456 -1.4539
 4036SOL    HW223742   4.438   3.990  15.223  0.9641  1.2273  0.9193
 4037SOL     OW23743   4.074   1.803   2.464  0.0512 -0.6238  0.1734
 4037SOL    HW123744   4.023   1.843   2.534  0.7216 -0.8736  0.8120
 4037SOL    HW223745   4.135   1.868   2.430 -2.4678  1.9518  0.5446
 4038SOL     OW23746   2.856   1.589   6.811  0.7597 -0.6603  0.7855
 4038SOL    HW123747   2.855   1.683   6.793  5.0466 -0.8470 -0.3511
 4038SOL    HW223748   2.764   1.565   6.818  1.1363 -2.0841  0.9173
 4039SOL     OW23749   3.334   3.677   2.193 -0.4254 -0.1113 -0.1024
 4039SOL    HW123750   3.302   3.651   2.106 -3.9739 -0.3233  1.2535
 4039SOL    HW223751   3.377   3.759   2.167 -0.0419 -1.0063 -2.3278
 4040SOL     OW23752   4.191   0.647   2.388 -0.5490 -0.2388 -0.1937
 4040SOL    HW123753   4.259   0.607   2.442 -0.0034 -2.2713 -2.3443
 4040SOL    HW223754   4.195   0.594   2.308  1.1096  0.7589 -0.7670
 4041SOL     OW23755   0.359   2.177   5.307 -0.4170 -0.2228  0.4348
 4041SOL    HW123756   0.403   2.121   5.242 -0.9824 -0.0621 -0.0854
 4041SOL    HW223757   0.433   2.232   5.333  0.1720 -0.4760 -0.6838
 4042SOL     OW23758   0.623   3.113   0.484 -0.5774  0.2826 -0.0531
 4042SOL    HW123759   0.643   3.097   0.391 -2.6980 -0.0118 -0.4543
 4042SOL    HW223760   0.562   3.040   0.495 -1.2175  0.5785 -1.6153
 4043SOL     OW23761   2.576   0.528   3.039  0.2556 -0.3628 -0.1698
 4043SOL    HW123762   2.532   0.579   3.108  0.8189  2.1603 -1.6921
 4043SOL    HW223763   2.665   0.558   3.056  0.4934 -1.1013 -0.0932
 4044SOL     OW23764   4.571   0.812  11.777  0.0810 -0.2072  0.7740
 4044SOL    HW123765   4.630   0.885  11.759  0.6859 -0.9527 -0.2492
 4044SOL    HW223766   4.492   0.829  11.725  1.1495  3.5182  0.4028
 4045SOL     OW23767   2.225   4.648   1.726 -0.3569 -0.3128 -0.0784
 4045SOL    HW123768   2.261   4.566   1.758 -0.6089 -0.6515 -0.6588
 4045SOL    HW223769   2.203   4.632   1.634  3.2083 -0.5986 -0.8806
 4046SOL     OW23770   0.343   0.951   9.263 -0.3047  0.1671 -0.1510
 4046SOL    HW123771   0.336   1.020   9.329 -1.3413  1.2065 -1.3458
 4046SOL    HW223772   0.325   0.868   9.307 -0.5243  0.4128  0.2204
 4047SOL     OW23773   3.845   1.190   2.618 -0.1685  0.3565 -0.1512
 4047SOL    HW123774   3.784   1.253   2.581  0.1248  1.6030  1.4615
 4047SOL    HW223775   3.816   1.112   2.571 -0.9973 -0.0854  1.0864
 4048SOL     OW23776   3.077   0.496   6.688 -0.5857 -0.1518  0.0166
 4048SOL    HW123777   3.060   0.588   6.670  1.4257  0.0208 -0.9748
 4048SOL    HW223778   3.013   0.448   6.635 -1.2530 -0.3999  1.0386
 4049SOL     OW23779   3.772   0.582   0.666  0.5875  0.1329  0.0535
 4049SOL    HW123780   3.708   0.607   0.599 -0.3972 -2.2251  0.1293
 4049SOL    HW223781   3.859   0.599   0.629 -0.0391  2.1659 -0.4997
 4050SOL     OW23782   4.624   0.069  10.304  0.2473  0.1438  0.3025
 4050SOL    HW123783   4.542   0.074  10.353 -0.4256 -2.6314 -0.5577
 4050SOL    HW223784   4.657   0.159  10.312 -0.1934  0.4300 -1.1383
 4051SOL     OW23785   1.430   4.530   2.264  0.6346 -0.1187 -0.4079
 4051SOL    HW123786   1.432   4.622   2.238  1.7982 -0.7624 -2.6894
 4051SOL    HW223787   1.518   4.519   2.301 -0.1075 -1.4081  0.9734
 4052SOL     OW23788   4.499   1.684   8.564 -0.4636  0.2580  0.3631
 4052SOL    HW123789   4.437   1.697   8.636 -0.1819  0.1546  0.6248
 4052SOL    HW223790   4.443   1.636   8.504 -1.1606 -1.6363  2.5260
 4053SOL     OW23791   2.968   0.770   8.844 -0.7642 -0.2115 -0.6755
 4053SOL    HW123792   2.948   0.686   8.802 -2.4263  0.6628 -1.6554
 4053SOL    HW223793   3.015   0.733   8.919  1.0656  0.5622 -1.4672
 4054SOL     OW23794   2.027   1.903   7.510 -0.3845 -0.0026 -0.2565
 4054SOL    HW123795   1.965   1.923   7.580 -0.7696 -2.2606  0.0330
 4054SOL    HW223796   1.965   1.873   7.443  0.4091  2.2072 -2.0077
 4055SOL     OW23797   0.469   3.862   5.742  0.3271  0.3957  0.1425
 4055SOL    HW123798   0.414   3.801   5.792  0.4106  0.3491  0.1777
 4055SOL    HW223799   0.556   3.830   5.764  0.0098 -0.9041 -0.5143
 4056SOL     OW23800   4.507   2.835   7.359  0.3354  0.5367 -0.1565
 4056SOL    HW123801   4.441   2.879   7.412 -0.2377 -0.7909  0.2254
 4056SOL    HW223802   4.448   2.792   7.297 -0.7840  0.6282  0.8324
 4057SOL     OW23803   2.972   1.953   5.502  0.3642 -0.5309 -0.3500
 4057SOL    HW123804   2.920   2.015   5.553  0.2334 -0.3609 -0.6876
 4057SOL    HW223805   2.904   1.886   5.510  0.7336 -1.1011 -2.0039
 4058SOL     OW23806   4.532   3.558   4.202  0.1999 -0.5875  0.7588
 4058SOL    HW123807   4.587   3.571   4.124  0.4900 -1.1101  0.8784
 4058SOL    HW223808   4.551   3.640   4.247 -2.5556 -0.7507  2.2140
 4059SOL     OW23809   4.704   4.052   2.215  0.2976 -0.6699  0.1247
 4059SOL    HW123810   4.641   4.122   2.234  0.6318 -0.4104  0.2798
 4059SOL    HW223811   4.673   4.001   2.140  0.9199 -1.1476  0.1966
 4060SOL     OW23812   2.829   4.528  17.415 -0.0576 -0.0420 -0.2135
 4060SOL    HW123813   2.743   4.491  17.435  0.0014  0.2291  0.5386
 4060SOL    HW223814   2.862   4.478  17.341  0.8599 -0.1106  0.2439
 4061SOL     OW23815   1.206   2.642   4.914 -0.7791  0.1244  0.4610
 4061SOL    HW123816   1.119   2.605   4.904 -0.9308  0.0511  2.1350
 4061SOL    HW223817   1.263   2.566   4.904 -1.3619 -0.1818 -0.5624
 4062SOL     OW23818   1.623   3.113  14.094 -0.3742 -0.3013  0.1887
 4062SOL    HW123819   1.530   3.115  14.071 -0.4497  3.6478  0.8536
 4062SOL    HW223820   1.617   3.045  14.162 -0.1929  0.6921  1.2044
 4063SOL     OW23821   4.387   4.316  17.013 -0.2411  0.0884  0.5436
 4063SOL    HW123822   4.309   4.319  17.069 -0.9953 -0.0926 -0.4936
 4063SOL    HW223823   4.351   4.349  16.931  2.3676 -1.3397 -1.1519
 4064SOL     OW23824   1.801   2.743   3.819  0.2775  0.0092 -0.0126
 4064SOL    HW123825   1.783   2.778   3.906 -2.0504 -0.9655 -0.0939
 4064SOL    HW223826   1.794   2.648   3.830  1.0873 -0.2395 -1.8319
 4065SOL     OW23827   1.977   4.677   5.354 -0.2274 -0.4503 -0.1666
 4065SOL    HW123828   1.896   4.678   5.406 -1.1159 -0.2043 -1.5647
 4065SOL    HW223829   1.967   4.598   5.302  3.9540 -0.3926 -1.0529
 4066SOL     OW23830   1.300   1.740  16.467 -0.4128 -0.1217  0.1235
 4066SOL    HW123831   1.241   1.753  16.540  0.7336  3.4960  0.4083
 4066SOL    HW223832   1.248   1.684  16.409 -0.0728  0.4737 -0.7580
 4067SOL     OW23833   0.910   0.302   5.432 -0.2161  0.4785  0.2278
 4067SOL    HW123834   0.850   0.316   5.359 -0.2470 -1.4556 -0.1347
 4067SOL    HW223835   0.843   0.296   5.501 -1.2885  1.8605 -0.7061
 4068SOL     OW23836   1.243   4.054   4.960 -0.2830  0.8477  0.6811
 4068SOL    HW123837   1.326   4.044   4.913 -1.9910  0.4727 -2.3065
 4068SOL    HW223838   1.193   4.072   4.880 -2.4057  0.3220  1.8968
 4069SOL     OW23839   0.103   3.766   5.481 -0.6183 -0.1487  0.5040
 4069SOL    HW123840   0.197   3.746   5.478 -1.0097 -2.0271  0.5750
 4069SOL    HW223841   0.097   3.861   5.494  1.1228  0.3350 -2.2230
 4070SOL     OW23842   4.549   3.182  17.613  0.3907 -0.2083  0.3510
 4070SOL    HW123843   4.631   3.226  17.588  0.8749  0.3482  2.9702
 4070SOL    HW223844   4.556   3.190  17.708 -1.4093 -2.3203  0.6633
 4071SOL     OW23845   0.702   0.545   3.803 -0.6003 -0.0053 -0.1399
 4071SOL    HW123846   0.684   0.509   3.716  2.3876 -1.5831 -0.1093
 4071SOL    HW223847   0.632   0.509   3.858 -1.5704  1.1752 -0.5968
 4072SOL     OW23848   1.703   3.866   5.786 -0.6394  0.1579  0.1659
 4072SOL    HW123849   1.628   3.817   5.752  0.3107 -0.7245 -0.6555
 4072SOL    HW223850   1.658   3.943   5.822 -0.9187  0.5123 -0.9551
 4073SOL     OW23851   3.891   3.236   5.729 -0.0326  0.1536  0.7271
 4073SOL    HW123852   3.871   3.314   5.677 -1.7227  0.1374  1.3295
 4073SOL    HW223853   3.876   3.177   5.655  1.2526 -1.0092  1.4116
 4074SOL     OW23854   4.428   4.087   3.155 -1.0693 -0.3347  0.5821
 4074SOL    HW123855   4.513   4.063   3.191  0.2435  0.8742 -1.6949
 4074SOL    HW223856   4.458   4.134   3.077  0.3859 -0.6435  0.9512
 4075SOL     OW23857   3.621   1.642  13.569  0.5008  0.6579  0.1399
 4075SOL    HW123858   3.587   1.729  13.548  2.1925  1.0068 -1.1759
 4075SOL    HW223859   3.552   1.621  13.632  1.6571 -0.7044  0.9336
 4076SOL     OW23860   2.493   0.906   5.328  0.1989 -0.0942  0.2040
 4076SOL    HW123861   2.522   0.977   5.271  0.6940 -1.3943 -1.1642
 4076SOL    HW223862   2.399   0.908   5.312 -0.1513 -0.9714  2.0750
 4077SOL     OW23863   1.853   2.610  15.874 -0.2240  0.3833 -0.0850
 4077SOL    HW123864   1.880   2.557  15.950  0.3277  1.1829  0.2692
 4077SOL    HW223865   1.840   2.697  15.912 -0.7821  0.4958 -0.5283
 4078SOL     OW23866   3.937   1.488   2.327 -1.0034 -0.0835 -0.4421
 4078SOL    HW123867   4.030   1.513   2.332 -0.7352 -0.8522 -1.6159
 4078SOL    HW223868   3.906   1.469   2.416  2.5615 -0.4895  0.7152
 4079SOL     OW23869   2.590   4.297  15.910 -0.0426 -0.4301  0.3874
 4079SOL    HW123870   2.533   4.309  15.986  0.5873  0.3936  0.7368
 4079SOL    HW223871   2.674   4.329  15.945 -0.7591  1.5322  0.3023
 4080SOL     OW23872   2.528   0.857   6.127 -0.4057  0.3761  0.0577
 4080SOL    HW123873   2.591   0.806   6.076  1.1964  1.0301  1.3397
 4080SOL    HW223874   2.572   0.861   6.212 -2.2066  1.0364  0.9599
 4081SOL     OW23875   4.337   2.733   7.163  0.0628 -0.7564 -0.0701
 4081SOL    HW123876   4.373   2.816   7.130 -0.2569 -0.7804 -0.4794
 4081SOL    HW223877   4.306   2.696   7.081 -1.0592 -1.6927  0.7799
 4082SOL     OW23878   0.051   3.121  13.114  0.9309  0.1752  0.2550
 4082SOL    HW123879   0.095   3.111  13.030 -0.7423 -0.3962 -0.5380
 4082SOL    HW223880   4.707   3.075  13.092 -1.3525  3.6918  1.4202
 4083SOL     OW23881   4.719   1.603   8.204  0.6260  0.1963  0.9722
 4083SOL    HW123882   4.632   1.636   8.228  0.2399 -0.3505  0.3118
 4083SOL    HW223883   0.028   1.616   8.286  0.4289 -1.3061  1.3171
 4084SOL     OW23884   3.725   3.289   2.011  0.4522  0.4559  0.3340
 4084SOL    HW123885   3.665   3.363   2.000  2.4481  2.1897  1.3736
 4084SOL    HW223886   3.810   3.332   2.010  0.8838 -0.3933 -0.0902
 4085SOL     OW23887   0.506   1.523  12.406 -0.3504  0.3674  0.5493
 4085SOL    HW123888   0.536   1.523  12.497  0.5101  0.3255  0.2743
 4085SOL    HW223889   0.593   1.506  12.368 -0.2833 -0.6988  1.1694
 4086SOL     OW23890   0.782   2.113   7.533 -0.7195  0.4961 -0.2206
 4086SOL    HW123891   0.869   2.083   7.561 -0.9649 -0.5248 -0.5411
 4086SOL    HW223892   0.741   2.036   7.494  2.1457 -2.3761  2.4798
 4087SOL     OW23893   4.654   4.077   0.056  0.1295  0.0605  0.4517
 4087SOL    HW123894   4.675   4.127   0.135 -1.2053 -0.0992  0.9102
 4087SOL    HW223895   4.678   3.988   0.083 -1.8461  0.0827  2.2659
 4088SOL     OW23896   0.385   2.257  16.840  0.0701  0.2962  0.6004
 4088SOL    HW123897   0.325   2.284  16.910  2.5591  0.8313  2.5467
 4088SOL    HW223898   0.461   2.309  16.865  0.6624  1.2283 -3.2230
 4089SOL     OW23899   3.705   3.657  17.212 -0.5191  0.4036  0.1463
 4089SOL    HW123900   3.766   3.701  17.152  0.9802  0.4915  1.7299
 4089SOL    HW223901   3.631   3.716  17.201  0.7241  1.9025 -0.3470
 4090SOL     OW23902   2.142   3.883  12.370 -0.2824 -0.4626 -0.2527
 4090SOL    HW123903   2.067   3.925  12.327 -0.2767 -0.6611 -0.4583
 4090SOL    HW223904   2.192   3.857  12.293  0.7744 -1.3231  0.7237
 4091SOL     OW23905   1.226   3.022   1.218 -0.1342  0.3636  0.7821
 4091SOL    HW123906   1.135   3.017   1.190 -0.3304 -0.9324  1.6144
 4091SOL    HW223907   1.224   3.097   1.277 -0.3557 -0.0515  1.3049
 4092SOL     OW23908   2.324   0.889   6.735  0.1802 -0.1379 -0.3478
 4092SOL    HW123909   2.327   0.876   6.640 -1.4662 -2.5057 -0.0732
 4092SOL    HW223910   2.237   0.919   6.758  0.3827  0.7509 -0.7437
 4093SOL     OW23911   4.693   2.197   4.616 -0.4020  0.6291 -0.1025
 4093SOL    HW123912   4.599   2.208   4.601 -0.2135  2.8092  0.3144
 4093SOL    HW223913   4.686   2.158   4.703  0.1714  1.1153  0.1667
 4094SOL     OW23914   1.515   0.964  17.227 -0.2163 -0.1114 -0.6352
 4094SOL    HW123915   1.502   1.048  17.271  2.2610 -0.3675  0.5785
 4094SOL    HW223916   1.547   0.987  17.140  0.4743 -1.9819 -0.8721
 4095SOL     OW23917   0.930   2.428   5.119 -0.1544 -0.0118 -0.0808
 4095SOL    HW123918   0.918   2.358   5.184  2.9589  0.6070  1.1514
 4095SOL    HW223919   1.025   2.442   5.125  0.6201 -3.6047 -3.7159
 4096SOL     OW23920   2.934   1.938   5.154 -0.0023  0.1736  0.7253
 4096SOL    HW123921   2.947   1.982   5.070  1.2159 -0.4823  0.5710
 4096SOL    HW223922   2.865   1.992   5.193 -2.1958 -1.5843 -0.7394
 4097SOL     OW23923   2.633   2.286   8.673 -0.2667 -0.1976  0.5511
 4097SOL    HW123924   2.678   2.249   8.749 -1.4250  0.1306  1.3915
 4097SOL    HW223925   2.545   2.258   8.696 -1.0314  2.1792  0.5154
 4098SOL     OW23926   3.965   4.694   2.672  0.0042  0.1652 -0.0622
 4098SOL    HW123927   3.882   4.705   2.719 -0.7938 -0.1352 -1.4130
 4098SOL    HW223928   3.966   0.036   2.618  0.8476  1.1220  1.3450
 4099SOL     OW23929   1.789   0.347  13.680  0.3287  0.5390 -0.4834
 4099SOL    HW123930   1.871   0.355  13.631  0.1115 -0.5341 -1.0175
 4099SOL    HW223931   1.819   0.389  13.760  0.1618 -0.3816  0.0506
 4100SOL     OW23932   0.818   4.692   4.384 -0.3435  0.9144 -0.0669
 4100SOL    HW123933   0.876   0.019   4.343  0.9953  0.6433  1.3900
 4100SOL    HW223934   0.871   4.638   4.444 -0.8165 -0.9756 -1.3376
 4101SOL     OW23935   1.273   0.516   8.089 -0.1744 -0.3741  0.3398
 4101SOL    HW123936   1.202   0.454   8.072  0.7602 -0.7562 -2.1346
 4101SOL    HW223937   1.336   0.466   8.142  1.3106  1.3430  0.1947
 4102SOL     OW23938   3.041   4.345   4.629  0.1523  0.3034 -0.4696
 4102SOL    HW123939   3.066   4.437   4.639  1.6976 -0.0533 -1.0626
 4102SOL    HW223940   2.976   4.352   4.699  1.7569  2.0704  0.8442
 4103SOL     OW23941   4.716   0.143   2.380 -0.2347 -0.0110  0.4744
 4103SOL    HW123942   4.625   0.164   2.360  0.1962  2.4650  1.0690
 4103SOL    HW223943   4.731   0.178   2.468  0.5381  1.1437 -0.1088
 4104SOL     OW23944   1.770   2.588   0.450  0.6071  0.0485  0.1442
 4104SOL    HW123945   1.844   2.535   0.479 -0.2742 -0.6550  1.0917
 4104SOL    HW223946   1.702   2.530   0.485  0.3451 -0.9081 -1.9595
 4105SOL     OW23947   4.192   4.006   6.822 -0.3212  0.0175  0.0715
 4105SOL    HW123948   4.242   3.943   6.771  1.3138  0.4566  1.1101
 4105SOL    HW223949   4.213   4.091   6.783  2.1302  0.4204  2.2189
 4106SOL     OW23950   1.140   4.218   8.198 -0.4475 -0.0210 -0.1050
 4106SOL    HW123951   1.126   4.128   8.228  1.3734 -1.1840 -2.7238
 4106SOL    HW223952   1.156   4.259   8.282 -0.1723 -1.4152  0.5211
 4107SOL     OW23953   3.435   0.095  16.689  0.8845  0.2298 -0.1805
 4107SOL    HW123954   3.437   4.737  16.696 -0.3019  0.1137 -1.3083
 4107SOL    HW223955   3.392   0.114  16.773  0.2034 -1.2376 -0.2102
 4108SOL     OW23956   2.803   1.012   2.036 -0.2811  0.6654 -0.1506
 4108SOL    HW123957   2.859   0.945   2.074  0.8831  2.3134  1.0569
 4108SOL    HW223958   2.863   1.071   1.990  1.1479  0.0534  0.9375
 4109SOL     OW23959   3.226   2.969   3.579 -0.8331 -0.6212 -0.2954
 4109SOL    HW123960   3.278   2.967   3.659 -0.3402  1.0047 -0.5836
 4109SOL    HW223961   3.143   2.982   3.624 -1.2347 -0.6171 -1.0410
 4110SOL     OW23962   2.188   1.756   8.783  0.1789  0.5076  0.0969
 4110SOL    HW123963   2.096   1.763   8.807  0.0710  0.4336 -0.3003
 4110SOL    HW223964   2.174   1.754   8.689 -1.2484  3.5584  0.2420
 4111SOL     OW23965   1.595   3.544   5.393 -0.0421 -0.4655 -0.0594
 4111SOL    HW123966   1.516   3.499   5.423  1.1248 -1.1496  1.9801
 4111SOL    HW223967   1.550   3.628   5.387  1.9423  0.5879 -0.1984
 4112SOL     OW23968   2.377   0.010   2.911 -0.0977 -0.3972 -0.0957
 4112SOL    HW123969   2.430   4.668   2.921 -0.8623 -1.0978 -1.5653
 4112SOL    HW223970   2.376   0.026   3.006  0.9899  0.1177 -0.1755
 4113SOL     OW23971   3.156   4.188   9.657  0.1950  0.6158  0.5845
 4113SOL    HW123972   3.105   4.200   9.737  4.1162  0.3397  3.0728
 4113SOL    HW223973   3.107   4.242   9.594  0.1293  1.0408  1.0034
 4114SOL     OW23974   1.175   0.559   9.539 -0.7484 -0.2865  0.4719
 4114SOL    HW123975   1.152   0.518   9.455  0.7495  2.9331 -1.5331
 4114SOL    HW223976   1.258   0.512   9.544 -0.6332 -0.1464 -0.0737
 4115SOL     OW23977   1.504   1.308  14.125  0.1852 -0.5985  0.4532
 4115SOL    HW123978   1.514   1.402  14.138 -1.3276 -0.3329 -0.3479
 4115SOL    HW223979   1.577   1.270  14.173 -0.1397 -0.3254  1.1751
 4116SOL     OW23980   1.256   4.402  12.799  0.7298 -0.3624  0.0839
 4116SOL    HW123981   1.323   4.387  12.865 -1.0840 -2.0551  1.5349
 4116SOL    HW223982   1.229   4.315  12.769 -0.5924  0.7567 -2.0520
 4117SOL     OW23983   0.289   4.083   5.758  0.5450 -0.0014  0.5362
 4117SOL    HW123984   0.364   4.025   5.744  1.5623  0.7435  2.9728
 4117SOL    HW223985   0.237   4.053   5.832 -0.0908 -2.6957 -0.9798
 4118SOL     OW23986   1.029   1.651  10.185 -0.2514  0.7357 -0.3583
 4118SOL    HW123987   1.030   1.592  10.110  2.4671  2.3092 -1.5115
 4118SOL    HW223988   1.122   1.669  10.183  0.1459 -1.0123  1.5627
 4119SOL     OW23989   2.825   2.167   2.158  0.3433 -0.0669  0.5438
 4119SOL    HW123990   2.742   2.181   2.111 -0.0751 -1.2888  0.9051
 4119SOL    HW223991   2.819   2.075   2.184 -2.1940 -0.3274 -0.9235
 4120SOL     OW23992   4.088   2.056  11.816  0.3548  0.6732 -0.0072
 4120SOL    HW123993   4.036   2.052  11.736  2.9111 -0.4146 -1.6016
 4120SOL    HW223994   4.171   2.088  11.779  1.6343  0.3650  2.5787
 4121SOL     OW23995   0.269   1.143  14.482  0.9739  0.3051  0.3720
 4121SOL    HW123996   0.184   1.184  14.467  0.1066 -2.1385 -1.4819
 4121SOL    HW223997   0.234   1.058  14.512  1.3515  0.0862  0.1907
 4122SOL     OW23998   3.738   0.620   7.188 -0.2467 -0.0294 -0.1846
 4122SOL    HW123999   3.715   0.665   7.269  0.4397  1.9198 -1.0393
 4122SOL    HW224000   3.743   0.684   7.116 -3.6202  2.4783  1.8016
 4123SOL     OW24001   1.137   1.709   3.071  0.2086  0.0010  0.0397
 4123SOL    HW124002   1.150   1.771   2.999 -1.6560 -1.7654 -1.8091
 4123SOL    HW224003   1.069   1.657   3.028  1.3081  1.1656 -3.1087
 4124SOL     OW24004   4.295   4.206   5.753 -0.2067 -0.3713 -0.3224
 4124SOL    HW124005   4.352   4.174   5.822  0.1897  0.4579 -0.2564
 4124SOL    HW224006   4.229   4.256   5.802  1.9501  0.6741  1.5041
 4125SOL     OW24007   2.052   3.167   7.031  0.0375 -0.7009 -0.0613
 4125SOL    HW124008   1.980   3.174   7.093 -1.0842 -2.8525 -1.1257
 4125SOL    HW224009   2.074   3.254   6.999 -1.4776 -0.2420  0.1774
 4126SOL     OW24010   0.548   2.347   4.980  0.4565  0.5914  0.3580
 4126SOL    HW124011   0.457   2.341   4.952  0.5000  1.2315  0.0764
 4126SOL    HW224012   0.576   2.420   4.925  2.3838 -0.0770  0.4563
 4127SOL     OW24013   0.705   1.501   7.118 -0.0252  0.3144 -0.1161
 4127SOL    HW124014   0.781   1.449   7.093  1.7438  1.5280  2.7470
 4127SOL    HW224015   0.740   1.589   7.101 -0.1661  0.4075  0.0846
 4128SOL     OW24016   3.349   0.099   6.494  0.0251 -0.0442 -0.1178
 4128SOL    HW124017   3.428   0.122   6.542 -0.8391 -1.4415  1.9927
 4128SOL    HW224018   3.291   0.164   6.535  0.4375 -0.9798  1.9357
 4129SOL     OW24019   4.275   0.914   3.922 -0.2853  0.5532  0.2250
 4129SOL    HW124020   4.264   0.856   3.846 -1.7028 -2.2571  2.5658
 4129SOL    HW224021   4.325   0.849   3.971 -0.7393  0.8400  1.0679
 4130SOL     OW24022   4.063   3.552   6.845  0.0825  0.6296  0.1613
 4130SOL    HW124023   4.029   3.516   6.927  1.1339 -2.1757 -0.6363
 4130SOL    HW224024   4.132   3.491   6.818  0.1335  0.4710  0.6661
 4131SOL     OW24025   1.036   0.092   5.582  0.2945 -0.5505 -0.1135
 4131SOL    HW124026   1.047   0.035   5.506  1.2358 -0.0190 -0.3769
 4131SOL    HW224027   0.963   0.143   5.546  0.2064 -1.3143 -0.9984
 4132SOL     OW24028   2.155   2.544  17.624  0.2253 -0.5361  0.2307
 4132SOL    HW124029   2.247   2.529  17.644  0.5542  2.7267  1.1130
 4132SOL    HW224030   2.171   2.601  17.550  0.4336  0.5067  1.0839
 4133SOL     OW24031   0.592   3.769   9.466  0.0212 -0.1814  0.0271
 4133SOL    HW124032   0.666   3.829   9.471  1.0939 -1.7248  2.6498
 4133SOL    HW224033   0.621   3.697   9.523 -0.6318 -1.6330 -1.4710
 4134SOL     OW24034   0.519   0.871   7.830 -0.3402  0.1463 -0.5285
 4134SOL    HW124035   0.601   0.906   7.866  0.2566 -0.2580 -1.5016
 4134SOL    HW224036   0.456   0.914   7.888 -0.7808  0.1031 -0.9760
 4135SOL     OW24037   4.182   2.883   6.109  0.3227  0.9207 -0.1954
 4135SOL    HW124038   4.203   2.880   6.016 -1.0479 -0.2527 -0.4641
 4135SOL    HW224039   4.230   2.809   6.145  0.7764  1.5172  0.4271
 4136SOL     OW24040   3.605   3.383  17.082 -0.6659 -0.9292  0.5372
 4136SOL    HW124041   3.565   3.450  17.027  1.5021 -1.1539 -1.3444
 4136SOL    HW224042   3.568   3.400  17.168 -2.0879  0.5206 -0.3707
 4137SOL     OW24043   4.703   3.557   1.840  0.1991 -0.7484 -0.1363
 4137SOL    HW124044   4.713   3.462   1.834 -2.0134 -1.0714  1.1519
 4137SOL    HW224045   4.722   3.562   1.934 -0.4766  3.2036 -0.1915
 4138SOL     OW24046   3.215   4.199  13.013  0.5205 -0.1417 -0.7168
 4138SOL    HW124047   3.172   4.180  13.096 -0.2612  0.5236 -0.9709
 4138SOL    HW224048   3.144   4.175  12.954  0.5837 -2.0359 -0.0139
 4139SOL     OW24049   1.308   3.339   1.976  0.6458 -0.1982  0.0156
 4139SOL    HW124050   1.250   3.265   1.992 -0.9240  0.4432 -2.6817
 4139SOL    HW224051   1.269   3.408   2.031  0.5899 -0.4513  0.2921
 4140SOL     OW24052   3.554   0.848  16.976 -0.4174 -0.4593  0.2700
 4140SOL    HW124053   3.614   0.911  16.936 -0.7078 -0.4440 -0.1426
 4140SOL    HW224054   3.467   0.880  16.949  0.9594 -0.1900 -3.7947
 4141SOL     OW24055   0.784   1.746  12.866 -0.7441  0.6741  0.3025
 4141SOL    HW124056   0.794   1.782  12.778 -0.1493  2.2287  1.0115
 4141SOL    HW224057   0.850   1.796  12.914  1.1816 -1.1145 -0.4864
 4142SOL     OW24058   3.210   0.681  15.958  0.0105 -0.1510  1.0875
 4142SOL    HW124059   3.142   0.709  16.020  0.2121  1.3370  0.6504
 4142SOL    HW224060   3.213   0.587  15.976 -1.4732 -0.6659 -1.4229
 4143SOL     OW24061   4.106   3.956  12.784 -0.1329  0.5463  0.2171
 4143SOL    HW124062   4.083   3.959  12.876  1.2735  1.5138  0.5502
 4143SOL    HW224063   4.201   3.940  12.783  0.1528  2.1442  0.4840
 4144SOL     OW24064   0.593   2.415   7.723 -0.0158 -0.3678  0.4160
 4144SOL    HW124065   0.586   2.336   7.776  0.6456 -1.3558 -0.9860
 4144SOL    HW224066   0.687   2.431   7.730 -0.2051  0.1866  1.7216
 4145SOL     OW24067   4.055   2.572   7.334  0.1818  0.0221 -0.3167
 4145SOL    HW124068   4.096   2.514   7.269  0.0820 -2.2545  1.6426
 4145SOL    HW224069   3.975   2.525   7.358 -0.2019  1.6800  1.5500
 4146SOL     OW24070   1.166   3.649   6.111  0.5918 -0.0315 -0.2344
 4146SOL    HW124071   1.207   3.677   6.193  0.8672  0.6924 -0.6155
 4146SOL    HW224072   1.108   3.580   6.142  0.6942 -0.0138 -0.0057
 4147SOL     OW24073   4.623   2.923   9.184  0.5610  0.5313 -0.2614
 4147SOL    HW124074   4.569   2.954   9.112  1.4271 -2.3682 -2.1924
 4147SOL    HW224075   4.564   2.928   9.260 -1.5674  0.6048 -1.9261
 4148SOL     OW24076   2.032   2.689   6.144  0.1086  0.1184  0.2848
 4148SOL    HW124077   2.115   2.640   6.139 -0.7753 -1.1943 -1.6464
 4148SOL    HW224078   2.012   2.694   6.238 -0.8934  0.3535  0.0608
 4149SOL     OW24079   2.993   1.363   7.714  0.0515 -0.2665 -0.8712
 4149SOL    HW124080   2.936   1.429   7.676 -1.4477 -0.9381  0.1955
 4149SOL    HW224081   2.937   1.296   7.754 -0.7986  0.9109 -0.0854
 4150SOL     OW24082   4.426   4.010   4.237  0.0731  0.0246 -0.1653
 4150SOL    HW124083   4.385   4.038   4.156  1.7147 -1.5258 -1.5529
 4150SOL    HW224084   4.478   3.937   4.203 -0.4888  0.2800 -1.5509
 4151SOL     OW24085   0.248   0.322  10.966  0.4595  0.5354  0.0754
 4151SOL    HW124086   0.211   0.278  11.042 -0.4144 -0.8873 -1.1779
 4151SOL    HW224087   0.325   0.359  11.010  0.4922 -0.7121  1.0734
 4152SOL     OW24088   3.234   1.247   7.146  0.4910  0.1318 -0.4419
 4152SOL    HW124089   3.269   1.197   7.072 -1.7099 -0.1107 -1.3420
 4152SOL    HW224090   3.317   1.273   7.186  0.4493 -0.3501 -0.0350
 4153SOL     OW24091   1.623   0.071   0.263  0.1517 -0.0433 -0.3966
 4153SOL    HW124092   1.618   0.139   0.196  1.3138 -0.9302 -1.3939
 4153SOL    HW224093   1.669   4.736   0.219  0.2671  0.9138 -1.8275
 4154SOL     OW24094   0.242   1.405  11.079 -0.4751  0.4301  0.1691
 4154SOL    HW124095   0.208   1.467  11.143 -1.4734 -2.1234  2.1346
 4154SOL    HW224096   0.232   1.327  11.134  1.5161 -0.3562 -0.5848
 4155SOL     OW24097   2.334   0.679   4.990 -0.4641  0.0493  0.5968
 4155SOL    HW124098   2.239   0.675   5.002 -0.6682  0.1327 -1.0124
 4155SOL    HW224099   2.349   0.673   4.896 -0.2403  1.8887  0.5092
 4156SOL     OW24100   2.149   0.620   3.739  0.5119  0.1558  0.5512
 4156SOL    HW124101   2.082   0.638   3.805  2.0614  2.2097  1.5642
 4156SOL    HW224102   2.228   0.627   3.792  1.2191 -0.6626 -0.3900
 4157SOL     OW24103   0.776   1.745   4.596  0.1883  0.2993 -0.9635
 4157SOL    HW124104   0.707   1.702   4.646  1.2759 -1.8255 -1.3070
 4157SOL    HW224105   0.857   1.722   4.641  0.8287  0.0995 -2.2435
 4158SOL     OW24106   4.196   3.033   2.565  0.3622 -0.3536 -0.4372
 4158SOL    HW124107   4.287   3.003   2.563  0.5417  0.1582  0.0616
 4158SOL    HW224108   4.153   2.976   2.502  0.2689 -1.2232  0.4177
 4159SOL     OW24109   2.369   3.062   5.121 -0.3337 -0.0191 -0.9162
 4159SOL    HW124110   2.430   3.135   5.135 -0.4992 -0.3595  1.4919
 4159SOL    HW224111   2.409   3.000   5.181  3.1778 -1.6465 -4.9872
 4160SOL     OW24112   2.261   1.876   8.162  0.0358  0.5400 -0.5286
 4160SOL    HW124113   2.169   1.888   8.182  0.5645  0.4690  1.9706
 4160SOL    HW224114   2.275   1.927   8.083 -1.3305  0.3344 -0.8877
 4161SOL     OW24115   4.241   0.057   2.302  0.0001 -0.5907  0.4824
 4161SOL    HW124116   4.310   0.045   2.237  1.7285  2.9314  1.6931
 4161SOL    HW224117   4.169   4.734   2.280 -1.5149  1.0012  1.2134
 4162SOL     OW24118   3.242   2.875  13.706  0.5940  0.2552 -0.3687
 4162SOL    HW124119   3.164   2.922  13.736  0.5137  0.0557 -0.2660
 4162SOL    HW224120   3.271   2.832  13.787  0.8664 -0.6485 -0.9492
 4163SOL     OW24121   3.704   3.161   3.280 -0.1987  0.1016 -0.2465
 4163SOL    HW124122   3.614   3.139   3.255 -0.4965  1.1101 -0.0692
 4163SOL    HW224123   3.752   3.095   3.231 -0.1611 -0.9045  1.1345
 4164SOL     OW24124   1.042   1.689   5.888 -0.3489 -0.0521 -0.1499
 4164SOL    HW124125   1.087   1.647   5.961 -2.2568 -3.4890 -1.0005
 4164SOL    HW224126   1.006   1.770   5.926  0.4731  0.2253  0.0527
 4165SOL     OW24127   3.068   2.542  14.848  0.2038 -0.2889 -0.1775
 4165SOL    HW124128   3.154   2.506  14.830  0.3277 -0.3673  0.5957
 4165SOL    HW224129   3.063   2.521  14.941  1.3121  1.0158  0.1763
 4166SOL     OW24130   4.437   3.370   2.610  0.1649  0.5969  0.0288
 4166SOL    HW124131   4.364   3.431   2.621 -0.7298 -0.6687  0.9932
 4166SOL    HW224132   4.427   3.320   2.691 -2.9142  0.5871 -0.3626
 4167SOL     OW24133   0.416   4.479   1.709 -0.3824  0.3307  0.1511
 4167SOL    HW124134   0.380   4.557   1.750 -0.4985 -1.2070  2.9787
 4167SOL    HW224135   0.338   4.433   1.676  0.0516 -0.1156 -0.2638
 4168SOL     OW24136   2.517   1.394  15.018  0.4454  0.0796 -0.2147
 4168SOL    HW124137   2.488   1.304  15.030  0.1850  0.1175 -0.5383
 4168SOL    HW224138   2.597   1.400  15.069  0.6061  2.0455 -0.6784
 4169SOL     OW24139   2.546   4.605   2.000  0.1672 -0.6210  0.4784
 4169SOL    HW124140   2.554   4.573   1.910  1.7847  2.5805 -0.5141
 4169SOL    HW224141   2.471   4.551   2.025 -0.0497 -0.9204 -0.8013
 4170SOL     OW24142   2.542   1.386   4.970 -0.3248  0.4699  0.0193
 4170SOL    HW124143   2.622   1.436   4.957  1.8062 -2.3365  2.4138
 4170SOL    HW224144   2.481   1.445   4.926  1.0412  2.0143  0.2085
 4171SOL     OW24145   1.318   1.727   1.339  0.1327 -0.0262 -0.6071
 4171SOL    HW124146   1.332   1.821   1.336  0.6316 -0.0364  1.4594
 4171SOL    HW224147   1.235   1.724   1.387 -0.3388 -3.1141 -1.6178
 4172SOL     OW24148   3.524   0.901   2.397  0.9572  0.3277 -0.7259
 4172SOL    HW124149   3.557   0.931   2.313  1.1564  1.3399 -0.2847
 4172SOL    HW224150   3.432   0.886   2.377  0.2834  4.0745 -0.3020
 4173SOL     OW24151   3.337   2.676  12.468 -0.9487  0.7142 -0.1147
 4173SOL    HW124152   3.386   2.643  12.392 -0.4224  2.0859 -0.3571
 4173SOL    HW224153   3.380   2.761  12.471  0.1946  0.1408  0.0918
 4174SOL     OW24154   1.621   3.067   9.464 -0.2025 -0.7114 -0.2216
 4174SOL    HW124155   1.651   3.154   9.492 -0.4756 -0.6297 -0.1847
 4174SOL    HW224156   1.698   3.013   9.480 -0.3387 -0.5906  0.8445
 4175SOL     OW24157   0.757   3.559   3.349  0.1458 -0.7211  0.3445
 4175SOL    HW124158   0.729   3.650   3.359 -1.2265 -0.9205 -1.6495
 4175SOL    HW224159   0.835   3.548   3.402  0.0929 -1.3964  0.2798
 4176SOL     OW24160   4.339   1.012  12.138 -0.2826  0.3300  0.2291
 4176SOL    HW124161   4.378   1.038  12.055  3.5594 -1.5073  1.4357
 4176SOL    HW224162   4.249   0.987  12.118  0.1418 -2.0850  1.3555
 4177SOL     OW24163   4.335   0.844   7.326 -0.0711 -0.4978 -0.4983
 4177SOL    HW124164   4.346   0.760   7.371 -0.5466 -0.5255 -0.4283
 4177SOL    HW224165   4.345   0.821   7.233 -0.7063  1.7011 -1.1063
 4178SOL     OW24166   1.542   3.797   6.130  0.0629 -0.1987  0.7898
 4178SOL    HW124167   1.494   3.862   6.181  0.6773 -0.5124  1.7762
 4178SOL    HW224168   1.572   3.841   6.051  0.7514 -0.5453  0.8547
 4179SOL     OW24169   1.124   1.567   9.438 -0.3042 -0.0380  0.7048
 4179SOL    HW124170   1.191   1.535   9.378  0.2142  0.1931  1.1611
 4179SOL    HW224171   1.067   1.597   9.367  0.9292  0.8853  0.1039
 4180SOL     OW24172   0.246   3.435   6.920  0.0906 -0.1225  0.7949
 4180SOL    HW124173   0.299   3.424   6.841  1.7232  2.3214  1.5355
 4180SOL    HW224174   0.197   3.516   6.905  1.5919  1.2263  3.0862
 4181SOL     OW24175   4.578   1.941   9.275  0.0422 -0.2697  0.1884
 4181SOL    HW124176   4.617   1.871   9.328  0.7178  0.8074  1.1321
 4181SOL    HW224177   4.486   1.915   9.278 -0.1430  0.2322 -1.1814
 4182SOL     OW24178   0.363   3.560  15.696 -0.1987  0.0168  0.2467
 4182SOL    HW124179   0.440   3.606  15.729  0.0329  0.5278 -1.0225
 4182SOL    HW224180   0.297   3.629  15.693  1.7394  1.9133  1.3125
 4183SOL     OW24181   3.097   1.782   2.288 -0.1127 -0.5866 -0.3144
 4183SOL    HW124182   3.160   1.712   2.271 -0.3240 -1.0676  0.9045
 4183SOL    HW224183   3.141   1.857   2.247  0.7224 -0.0583  1.5316
 4184SOL     OW24184   4.690   3.912   3.343  0.0796 -0.2865  0.7399
 4184SOL    HW124185   4.714   3.821   3.328  1.5861  0.0836  0.8777
 4184SOL    HW224186   0.034   3.949   3.307 -0.9530  0.7260 -0.5152
 4185SOL     OW24187   1.145   0.045   0.403 -0.4602  0.0309  0.2721
 4185SOL    HW124188   1.093   0.037   0.484  1.6974  2.0515  1.8700
 4185SOL    HW224189   1.232   0.049   0.442  0.0799  3.3127 -1.2729
 4186SOL     OW24190   0.244   3.786  13.729 -0.4102 -0.0191  0.1445
 4186SOL    HW124191   0.220   3.865  13.777 -1.0721  0.5191 -1.0812
 4186SOL    HW224192   0.260   3.725  13.801  1.6057 -0.1727 -0.4370
 4187SOL     OW24193   0.685   0.505   2.420 -0.2112  0.2869 -0.7673
 4187SOL    HW124194   0.671   0.489   2.513  2.6649 -1.5699 -0.6251
 4187SOL    HW224195   0.757   0.569   2.427 -0.1785  0.2069 -0.3768
 4188SOL     OW24196   0.606   0.908   7.427 -0.1465  0.3848  0.0691
 4188SOL    HW124197   0.541   0.857   7.476  0.0142  0.9878  0.9093
 4188SOL    HW224198   0.634   0.846   7.359  2.7731  1.3887  0.3973
 4189SOL     OW24199   1.440   3.684   7.985 -0.1272  0.2262 -0.6615
 4189SOL    HW124200   1.362   3.709   7.936 -0.7754  0.7973  0.6445
 4189SOL    HW224201   1.501   3.745   7.945  1.0997  0.0072  0.8959
 4190SOL     OW24202   1.557   4.671   3.349  0.7608  0.0675  0.0096
 4190SOL    HW124203   1.534   0.017   3.391  0.9012 -1.2415  2.6557
 4190SOL    HW224204   1.603   4.717   3.279 -0.4547  3.3811  1.4021
 4191SOL     OW24205   2.710   3.451   2.981 -0.2410 -0.1168  0.7357
 4191SOL    HW124206   2.687   3.509   2.908 -1.0270 -1.6597 -0.2471
 4191SOL    HW224207   2.784   3.496   3.020 -1.8951  1.5764  1.8744
 4192SOL     OW24208   0.635   3.477  15.577  0.0394  0.0347 -0.6909
 4192SOL    HW124209   0.706   3.475  15.642  1.3784 -2.1259 -2.2419
 4192SOL    HW224210   0.565   3.523  15.623 -1.6629 -0.9155 -2.3418
 4193SOL     OW24211   0.075   0.039   6.143  0.0250  0.2609  0.0287
 4193SOL    HW124212   0.125   4.733   6.213 -0.6058  1.4287  1.1921
 4193SOL    HW224213   0.130   0.115   6.123 -0.1593  0.7067  1.2232
 4194SOL     OW24214   3.799   3.871  12.677  0.2454  0.3945  0.1249
 4194SOL    HW124215   3.767   3.813  12.608  3.2698  0.3868 -1.2754
 4194SOL    HW224216   3.829   3.944  12.622  1.1020 -1.8637 -2.4059
 4195SOL     OW24217   4.087   3.783   7.495 -0.1376  0.0098 -0.1610
 4195SOL    HW124218   4.028   3.842   7.449  1.8213  1.8684 -0.3151
 4195SOL    HW224219   4.032   3.705   7.495 -0.4167  0.2089  0.4660
 4196SOL     OW24220   3.852   0.727   3.761 -0.0641 -0.6130 -0.1528
 4196SOL    HW124221   3.943   0.717   3.790  0.0126 -3.0147 -1.1937
 4196SOL    HW224222   3.812   0.764   3.840  0.8573  0.8603 -0.3726
 4197SOL     OW24223   1.615   1.404   4.219 -0.1612 -0.3296 -0.5900
 4197SOL    HW124224   1.665   1.355   4.284 -0.6862  0.9627  0.8017
 4197SOL    HW224225   1.688   1.410   4.158 -0.1793  3.1172 -0.2964
 4198SOL     OW24226   1.614   4.675   9.090 -0.2158 -0.4554 -0.0366
 4198SOL    HW124227   1.532   4.626   9.086 -0.3254 -0.2500 -0.3072
 4198SOL    HW224228   1.666   4.603   9.054 -0.8426 -0.3600 -1.1445
 4199SOL     OW24229   0.683   3.119   8.931  0.4265  0.0547  0.5395
 4199SOL    HW124230   0.596   3.136   8.895  1.1447  0.8364 -0.8094
 4199SOL    HW224231   0.687   3.024   8.941  2.1960 -0.0106 -0.7779
 4200SOL     OW24232   0.417   3.762   7.080 -0.1581 -0.1993 -0.5352
 4200SOL    HW124233   0.483   3.810   7.130  1.1362  0.4190 -2.8171
 4200SOL    HW224234   0.443   3.672   7.101  0.0867  0.4750  2.0406
 4201SOL     OW24235   3.465   2.032   8.799  0.4342  0.0465  0.1122
 4201SOL    HW124236   3.418   2.110   8.769  2.4084  1.0111 -0.4339
 4201SOL    HW224237   3.426   1.964   8.745  1.4357 -0.9286  0.6135
 4202SOL     OW24238   1.189   4.159  10.024 -0.2248  0.5043  0.9881
 4202SOL    HW124239   1.251   4.230  10.009  0.7986 -0.7001 -0.4225
 4202SOL    HW224240   1.140   4.199  10.096  0.0974  1.2501  0.7925
 4203SOL     OW24241   2.432   0.511   2.485  0.4909  0.1468  0.6261
 4203SOL    HW124242   2.340   0.524   2.461  0.2044 -1.2808  0.9478
 4203SOL    HW224243   2.462   0.437   2.431 -0.5669 -1.4746  2.2509
 4204SOL     OW24244   2.082   0.503   0.974 -0.4695 -0.2702 -0.5540
 4204SOL    HW124245   1.987   0.500   0.980 -0.4160  1.5473  1.3418
 4204SOL    HW224246   2.102   0.412   0.956  0.0725 -0.8615  2.9632
 4205SOL     OW24247   2.063   0.834   2.625 -0.0704  0.1142 -0.4626
 4205SOL    HW124248   2.121   0.789   2.688  1.4177  2.0517 -0.4472
 4205SOL    HW224249   2.088   0.924   2.647  1.7074 -0.4005 -0.3916
 4206SOL     OW24250   1.929   4.165   6.797  0.3718  0.2907  0.2584
 4206SOL    HW124251   1.856   4.174   6.736 -0.3421  0.2629  1.1098
 4206SOL    HW224252   1.959   4.254   6.812  1.1597 -0.0615  0.7963
 4207SOL     OW24253   3.315   4.002   5.492  0.4233  0.0681  0.4087
 4207SOL    HW124254   3.320   4.097   5.503 -1.2434  0.4284 -1.8663
 4207SOL    HW224255   3.253   3.976   5.561  0.3822 -0.0567  0.3249
 4208SOL     OW24256   2.177   1.670   9.221  0.3389  0.6298  0.0736
 4208SOL    HW124257   2.176   1.725   9.300 -1.7911  0.7336 -0.0320
 4208SOL    HW224258   2.152   1.735   9.155 -0.9060  1.8124  1.7198
 4209SOL     OW24259   2.527   2.777   6.757  0.1595 -0.6175 -0.5422
 4209SOL    HW124260   2.436   2.805   6.747 -0.1661 -1.6191 -0.3795
 4209SOL    HW224261   2.540   2.700   6.812  1.4544 -0.8149 -1.1300
 4210SOL     OW24262   3.655   4.302  14.198  0.1681 -0.8906  0.2142
 4210SOL    HW124263   3.624   4.360  14.128  2.6866  1.7344  1.2641
 4210SOL    HW224264   3.670   4.219  14.153 -0.3371 -0.0224 -1.5569
 4211SOL     OW24265   3.317   3.186   7.170 -0.0619 -0.5563 -0.0716
 4211SOL    HW124266   3.327   3.116   7.106  2.0608  1.4522 -1.9467
 4211SOL    HW224267   3.257   3.138   7.227 -2.2720  0.7515 -1.2704
 4212SOL     OW24268   2.564   3.942   5.409  0.0459  0.2828  0.1453
 4212SOL    HW124269   2.636   3.985   5.454 -0.3480  1.4545 -0.3345
 4212SOL    HW224270   2.501   3.941   5.481 -0.1998 -1.0217 -0.0958
 4213SOL     OW24271   1.086   1.473  10.387  0.2373 -0.7744 -0.2561
 4213SOL    HW124272   1.029   1.522  10.327  1.4444  2.0863  0.8983
 4213SOL    HW224273   1.176   1.482  10.354 -0.0832  1.7463 -0.4798
 4214SOL     OW24274   1.233   2.490  10.091 -0.1410  0.0009  0.0459
 4214SOL    HW124275   1.140   2.501  10.114 -0.0504 -0.1569  0.4669
 4214SOL    HW224276   1.252   2.402  10.121 -0.1721 -0.5483 -1.5065
 4215SOL     OW24277   2.368   1.189   6.537  0.0421 -0.0055 -0.3119
 4215SOL    HW124278   2.330   1.177   6.449 -0.1939  0.8029 -0.3226
 4215SOL    HW224279   2.440   1.128   6.521 -1.2245 -1.7548  0.5611
 4216SOL     OW24280   0.942   3.465   4.246  0.0037 -0.5196 -0.2015
 4216SOL    HW124281   0.940   3.559   4.230 -4.3460 -0.6789 -0.5336
 4216SOL    HW224282   1.036   3.445   4.240  0.4324  1.1948  0.8476
 4217SOL     OW24283   1.356   3.439   5.497 -0.2762 -0.3344  0.0274
 4217SOL    HW124284   1.345   3.423   5.590  0.0712 -0.2118  0.0907
 4217SOL    HW224285   1.267   3.461   5.469 -0.6448 -0.0749  1.4388
 4218SOL     OW24286   2.398   2.743  10.469  0.4166  0.2325  0.2948
 4218SOL    HW124287   2.390   2.648  10.465 -0.0173  0.2714  0.3241
 4218SOL    HW224288   2.316   2.764  10.425 -0.1538 -0.9341  0.8192
 4219SOL     OW24289   0.964   0.396  12.276 -0.1704 -0.6665  0.0224
 4219SOL    HW124290   0.982   0.359  12.362  0.7932  1.7474  0.8808
 4219SOL    HW224291   1.045   0.363  12.237 -0.8233 -3.0287  0.7137
 4220SOL     OW24292   3.665   1.834   8.851 -0.1607 -0.0941 -0.3331
 4220SOL    HW124293   3.569   1.832   8.853 -0.2066  1.5929 -0.8978
 4220SOL    HW224294   3.677   1.926   8.874 -2.3817  0.3112 -0.7972
 4221SOL     OW24295   0.988   1.825   2.073  0.0356 -0.1717  0.1061
 4221SOL    HW124296   1.075   1.856   2.050 -0.3388  2.8111  2.7849
 4221SOL    HW224297   0.943   1.843   1.990  1.5518 -2.8187 -1.2672
 4222SOL     OW24298   2.129   1.525  12.141  0.3370 -0.2466  0.5322
 4222SOL    HW124299   2.208   1.498  12.188  0.7565  0.9631  0.5205
 4222SOL    HW224300   2.087   1.583  12.204 -0.8419 -0.6804  0.1479
 4223SOL     OW24301   2.166   4.416   5.825  0.3688  0.0242  0.1780
 4223SOL    HW124302   2.230   4.487   5.827  0.6596 -0.0973 -3.8645
 4223SOL    HW224303   2.178   4.371   5.909  1.4443 -0.9949 -0.5126
 4224SOL     OW24304   3.803   2.148   1.781  0.0362 -0.0231 -0.4727
 4224SOL    HW124305   3.897   2.163   1.790  0.5028 -2.2587 -1.5977
 4224SOL    HW224306   3.780   2.128   1.871  0.5514  0.0281 -0.3332
 4225SOL     OW24307   4.513   1.762   3.358 -0.0072 -0.5000 -0.4056
 4225SOL    HW124308   4.528   1.855   3.344 -0.0854 -0.2315  1.2968
 4225SOL    HW224309   4.592   1.736   3.311  0.1411 -0.4044 -0.2097
 4226SOL     OW24310   2.243   1.566   8.409  0.5074  0.0910  0.0416
 4226SOL    HW124311   2.242   1.662   8.416  1.0897  0.3487 -3.1396
 4226SOL    HW224312   2.254   1.533   8.498 -0.1878  1.2670  0.5689
 4227SOL     OW24313   2.185   0.752   0.906 -0.1139  0.7893 -0.1292
 4227SOL    HW124314   2.142   0.675   0.943 -0.0053  0.1416 -1.3361
 4227SOL    HW224315   2.265   0.740   0.958  0.6910  1.5067 -1.1973
 4228SOL     OW24316   3.800   2.641   6.587 -0.0121  0.7349 -0.8235
 4228SOL    HW124317   3.731   2.591   6.631  1.2557  0.2412  0.6026
 4228SOL    HW224318   3.764   2.652   6.499 -0.1903 -1.4118 -1.0178
 4229SOL     OW24319   0.280   0.416  10.683  0.4966  0.8276 -0.8867
 4229SOL    HW124320   0.341   0.440  10.614 -0.5441  0.2495 -2.0066
 4229SOL    HW224321   0.262   0.501  10.725 -0.3527  0.0453  0.3462
 4230SOL     OW24322   1.051   1.834   4.345 -0.9108 -0.4892  0.6043
 4230SOL    HW124323   1.088   1.820   4.433  1.4242  0.9408 -0.1406
 4230SOL    HW224324   1.114   1.778   4.300 -0.7901  0.4083 -0.3476
 4231SOL     OW24325   3.524   2.074   6.396  0.0497 -0.0792 -0.2758
 4231SOL    HW124326   3.485   2.063   6.483 -0.6958  3.3687 -0.1788
 4231SOL    HW224327   3.471   2.148   6.367 -1.3922 -2.1164 -2.8218
 4232SOL     OW24328   0.774   2.734   3.680 -0.0673  0.5029  0.6563
 4232SOL    HW124329   0.794   2.742   3.773 -0.7847 -2.8034  1.0882
 4232SOL    HW224330   0.693   2.683   3.683 -0.9438  2.1250  3.7611
 4233SOL     OW24331   4.311   3.615   4.559  1.1373  0.1311 -0.2450
 4233SOL    HW124332   4.391   3.565   4.544  3.2279  3.0890  1.0657
 4233SOL    HW224333   4.322   3.678   4.488  1.8658 -0.5778 -0.7571
 4234SOL     OW24334   2.823   3.261   7.686  0.4137 -0.0214  0.2868
 4234SOL    HW124335   2.755   3.215   7.636  1.8089 -1.4017 -0.3149
 4234SOL    HW224336   2.849   3.195   7.751 -1.2186  1.1372  2.1339
 4235SOL     OW24337   1.060   4.215   5.473 -0.2941 -0.4624  0.9952
 4235SOL    HW124338   1.000   4.144   5.451  0.5956 -0.6527 -0.8044
 4235SOL    HW224339   1.056   4.232   5.567 -0.1282 -0.0523  0.9295
 4236SOL     OW24340   4.714   0.944   4.862 -0.0255 -0.3947  0.1348
 4236SOL    HW124341   0.010   0.961   4.774 -0.7206 -1.0043 -0.2368
 4236SOL    HW224342   4.628   0.908   4.844 -0.5029  1.9339 -2.3224
 4237SOL     OW24343   3.680   0.729  13.070  0.0375  0.3424 -0.0699
 4237SOL    HW124344   3.680   0.664  13.141  2.5950  1.6248  1.1122
 4237SOL    HW224345   3.634   0.682  13.001  0.9783 -0.2215 -0.3063
 4238SOL     OW24346   1.739   1.494   8.049  0.2332 -0.6066 -0.3800
 4238SOL    HW124347   1.751   1.584   8.080  1.3023 -1.2688  1.1238
 4238SOL    HW224348   1.799   1.441   8.101 -0.4708  0.2869  1.3544
 4239SOL     OW24349   4.504   2.486  11.176 -0.5965 -0.2493 -0.0334
 4239SOL    HW124350   4.569   2.428  11.137  0.6030  1.3960 -0.4543
 4239SOL    HW224351   4.540   2.574  11.175  1.8465 -1.2004  2.6652
 4240SOL     OW24352   4.580   3.523   4.530 -0.0042  0.3213 -0.5892
 4240SOL    HW124353   4.600   3.442   4.482  0.4320 -0.3128  0.6590
 4240SOL    HW224354   4.667   3.564   4.531 -0.5621  1.5322 -1.9411
 4241SOL     OW24355   2.513   2.734   9.920  1.2798  0.7140 -0.0793
 4241SOL    HW124356   2.497   2.778   9.837  0.2136  1.5922  0.5872
 4241SOL    HW224357   2.608   2.732   9.922  1.1689 -2.1197  2.2989
 4242SOL     OW24358   2.802   2.750   7.185 -0.1141  0.8528  0.2259
 4242SOL    HW124359   2.773   2.675   7.132  5.3717 -1.6867  0.8092
 4242SOL    HW224360   2.859   2.794   7.122  1.1981 -0.9410  0.1661
 4243SOL     OW24361   1.107   3.987   4.664 -0.2329 -0.2163  0.2978
 4243SOL    HW124362   1.160   4.062   4.641 -0.7097 -0.1830 -0.6964
 4243SOL    HW224363   1.135   3.916   4.606 -0.4176 -1.1454  1.3379
 4244SOL     OW24364   0.749   0.978   1.124  0.3646 -0.0481 -0.6142
 4244SOL    HW124365   0.812   0.999   1.192  0.7680 -0.0339 -0.9990
 4244SOL    HW224366   0.671   0.980   1.181  0.2628 -0.6218 -0.7363
 4245SOL     OW24367   1.427   3.201  12.098 -0.4293  0.6009 -0.0950
 4245SOL    HW124368   1.394   3.111  12.094 -2.1654  1.2706 -0.5424
 4245SOL    HW224369   1.400   3.243  12.017 -0.2317 -0.6354 -0.8095
 4246SOL     OW24370   2.501   3.842  14.605  1.0296 -0.1900 -0.3254
 4246SOL    HW124371   2.516   3.906  14.534  0.6239 -0.9342 -1.0794
 4246SOL    HW224372   2.580   3.791  14.589  0.0768 -1.7318 -0.0668
 4247SOL     OW24373   2.721   0.784   5.925 -0.1736  0.0045  0.0894
 4247SOL    HW124374   2.764   0.799   5.841 -0.5299 -1.1554 -0.2956
 4247SOL    HW224375   2.800   0.756   5.972 -0.7083 -2.0470 -0.2267
 4248SOL     OW24376   1.291   0.237  13.086  0.6038 -0.0943 -0.0493
 4248SOL    HW124377   1.240   0.181  13.028  0.7379  0.0935 -0.3518
 4248SOL    HW224378   1.354   0.266  13.020 -0.1418 -0.7968 -1.0599
 4249SOL     OW24379   2.443   0.412  10.658  0.2933 -0.2729  0.1819
 4249SOL    HW124380   2.382   0.408  10.731  0.3042 -2.0958  0.0928
 4249SOL    HW224381   2.475   0.498  10.684  0.9017 -0.5112  0.2344
 4250SOL     OW24382   3.085   1.596   1.286 -0.2843  0.0412 -0.4814
 4250SOL    HW124383   3.060   1.605   1.378  0.9570 -3.3500  0.2049
 4250SOL    HW224384   3.171   1.555   1.298 -0.8727 -0.8937  0.6136
 4251SOL     OW24385   0.238   1.354   7.601  0.1752  0.8181 -0.0308
 4251SOL    HW124386   0.330   1.345   7.578  0.0454 -1.9035  0.4485
 4251SOL    HW224387   0.205   1.344   7.512  2.0905 -0.6645 -0.5761
 4252SOL     OW24388   0.719   1.697   6.132  0.1701  0.0000 -0.6329
 4252SOL    HW124389   0.777   1.655   6.069  0.9270 -1.9342  1.3721
 4252SOL    HW224390   0.774   1.772   6.158 -1.8084  0.4648  2.1463
 4253SOL     OW24391   1.575   0.479  10.448 -0.0482  0.3044  0.0681
 4253SOL    HW124392   1.587   0.417  10.519 -1.1260  1.4334  1.2496
 4253SOL    HW224393   1.663   0.482  10.409 -0.4714  1.1749 -0.8305
 4254SOL     OW24394   2.883   1.288   5.509 -0.0586  0.0200 -0.4398
 4254SOL    HW124395   2.960   1.275   5.455  2.6018 -0.7433  3.5152
 4254SOL    HW224396   2.884   1.213   5.568  1.4939 -1.2691 -2.1402
 4255SOL     OW24397   4.026   0.616  16.175  0.1730  0.3167 -0.4983
 4255SOL    HW124398   4.100   0.675  16.161  1.5358 -1.1206  0.6353
 4255SOL    HW224399   4.063   0.538  16.216  0.2576  0.2234 -0.7504
 4256SOL     OW24400   0.573   4.434   8.114  0.0766 -0.6183  0.7410
 4256SOL    HW124401   0.596   4.434   8.207 -2.6260  3.2095  1.4288
 4256SOL    HW224402   0.586   4.527   8.096 -0.8625 -0.4850  0.7264
 4257SOL     OW24403   1.520   3.264   6.805 -0.1132  0.0010  0.0538
 4257SOL    HW124404   1.535   3.284   6.898 -0.7082  1.3206 -0.1281
 4257SOL    HW224405   1.430   3.232   6.806 -0.0245 -0.1791  1.7789
 4258SOL     OW24406   2.112   3.254  12.458  0.3655 -0.0445 -0.4387
 4258SOL    HW124407   2.204   3.232  12.473 -0.2139 -1.7418  0.6835
 4258SOL    HW224408   2.064   3.200  12.521 -1.7474  3.2595  0.7277
 4259SOL     OW24409   0.076   2.130   8.024  0.0160  0.6009  0.3668
 4259SOL    HW124410   4.717   2.132   8.022  0.0652  1.5268 -0.8282
 4259SOL    HW224411   0.101   2.222   8.036  0.6436  0.7875 -2.4527
 4260SOL     OW24412   3.139   2.105   1.002 -0.0054 -0.2208 -0.1129
 4260SOL    HW124413   3.107   2.100   1.092  0.8783  0.6500  0.2524
 4260SOL    HW224414   3.055   2.122   0.960 -0.6063  0.7083  1.4374
 4261SOL     OW24415   2.392   0.463  11.606  0.2336  0.3508 -0.2707
 4261SOL    HW124416   2.481   0.453  11.639 -0.3545 -0.5693  1.0283
 4261SOL    HW224417   2.350   0.539  11.646 -5.1782 -2.2518 -0.9245
 4262SOL     OW24418   1.863   2.758   1.283  0.0598 -0.6736  0.4285
 4262SOL    HW124419   1.930   2.763   1.214 -0.3292 -0.2310  0.0804
 4262SOL    HW224420   1.885   2.673   1.319 -1.4802 -1.6941 -1.0089
 4263SOL     OW24421   1.880   3.494   4.772 -0.0361 -0.1634  0.2130
 4263SOL    HW124422   1.849   3.449   4.694 -1.7520  2.3546 -0.5551
 4263SOL    HW224423   1.972   3.470   4.776 -0.2069 -0.5862  1.5664
 4264SOL     OW24424   3.029   3.101   2.565 -0.1561  0.3378 -0.1854
 4264SOL    HW124425   3.023   3.145   2.480 -0.7134 -0.9157 -0.8041
 4264SOL    HW224426   3.029   3.013   2.528  3.7048 -0.0559  0.7514
 4265SOL     OW24427   2.819   0.522   7.826 -0.3130  0.0587  0.4493
 4265SOL    HW124428   2.864   0.588   7.773  1.6301 -0.8232  1.0224
 4265SOL    HW224429   2.745   0.568   7.865 -1.6889 -0.6015 -1.4137
 4266SOL     OW24430   0.422   0.030   5.257  0.1222 -0.2652 -0.2637
 4266SOL    HW124431   0.479   0.002   5.187  0.2090  2.7549 -1.3954
 4266SOL    HW224432   0.486   0.059   5.322 -1.9859 -0.4179  1.9170
 4267SOL     OW24433   1.085   3.227  17.582  0.0290  0.2537 -0.0123
 4267SOL    HW124434   1.171   3.191  17.603  0.1442  0.4425 -0.1552
 4267SOL    HW224435   1.098   3.253  17.491 -1.3756 -0.9326 -0.5661
 4268SOL     OW24436   0.101   3.540   8.780 -0.0650  0.5945 -0.0072
 4268SOL    HW124437   0.014   3.570   8.806 -0.0769  0.3728  0.2053
 4268SOL    HW224438   0.139   3.523   8.866 -2.0980  0.9062  0.9536
 4269SOL     OW24439   0.836   2.142   2.988 -0.5387  0.4074 -0.2723
 4269SOL    HW124440   0.845   2.067   2.928 -2.5059 -0.9911  1.1518
 4269SOL    HW224441   0.766   2.119   3.049  0.1798  2.2341  1.2273
 4270SOL     OW24442   3.111   2.340  11.775  0.4771  0.0490  0.4250
 4270SOL    HW124443   3.058   2.328  11.854  0.4876  1.6604  0.6614
 4270SOL    HW224444   3.173   2.270  11.797 -0.5312 -1.7615 -2.3784
 4271SOL     OW24445   2.624   0.530   9.345 -0.1577 -0.4106 -0.1908
 4271SOL    HW124446   2.605   0.482   9.265  2.2114  1.1350 -1.7131
 4271SOL    HW224447   2.611   0.619   9.310  0.6947 -0.6217 -1.0374
 4272SOL     OW24448   2.789   1.061   6.854  0.2518  0.2030 -0.0155
 4272SOL    HW124449   2.705   1.015   6.860 -0.3539  1.4288  0.7945
 4272SOL    HW224450   2.780   1.109   6.936 -0.6198  0.8050 -0.4649
 4273SOL     OW24451   1.126   2.064   7.516 -0.2956  0.2282  0.0252
 4273SOL    HW124452   1.206   2.083   7.468 -0.8805 -2.1181 -1.8424
 4273SOL    HW224453   1.108   2.153   7.547  0.2195 -0.7721  3.2137
 4274SOL     OW24454   0.571   3.796   8.654  0.1468  0.2968  0.0132
 4274SOL    HW124455   0.657   3.812   8.692 -0.8976  0.9951  2.0796
 4274SOL    HW224456   0.504   3.817   8.720 -0.3492 -0.1005 -0.3576
 4275SOL     OW24457   4.261   1.535   8.148  0.5572  0.3032 -0.3620
 4275SOL    HW124458   4.246   1.574   8.062  0.0461 -0.9050 -0.8221
 4275SOL    HW224459   4.176   1.495   8.168  0.5709  0.7707  0.6745
 4276SOL     OW24460   0.401   0.635   2.699 -0.2569 -0.4829 -0.2089
 4276SOL    HW124461   0.343   0.604   2.629 -0.7009 -0.3240  0.0945
 4276SOL    HW224462   0.395   0.728   2.721  1.4358 -0.3921 -0.1027
 4277SOL     OW24463   0.305   2.984   8.457  0.7885 -0.6019 -0.0593
 4277SOL    HW124464   0.261   2.996   8.541  0.9775  0.5593 -0.1212
 4277SOL    HW224465   0.229   2.983   8.399 -0.1068  0.3895  1.0832
 4278SOL     OW24466   1.690   2.856   1.608  0.1175 -0.0232 -0.3370
 4278SOL    HW124467   1.628   2.833   1.677  0.0280 -0.8992 -0.7211
 4278SOL    HW224468   1.714   2.771   1.571  1.8834  0.2613  0.1452
 4279SOL     OW24469   2.533   0.062   8.149 -0.1882  0.2836 -0.8509
 4279SOL    HW124470   2.523   0.049   8.243 -0.2710  0.1648 -0.8763
 4279SOL    HW224471   2.523   4.711   8.112 -0.6162  0.3168 -0.8106
 4280SOL     OW24472   1.638   3.492  14.940  0.2698 -0.2176 -0.3546
 4280SOL    HW124473   1.672   3.581  14.924  1.2771 -0.6887 -0.8524
 4280SOL    HW224474   1.554   3.495  14.894 -0.3675  3.2427  1.0274
 4281SOL     OW24475   4.416   2.123   5.763  0.0437  0.2309 -0.2227
 4281SOL    HW124476   4.476   2.133   5.689 -0.4055  0.3713 -0.5717
 4281SOL    HW224477   4.362   2.047   5.739 -0.4266  0.2848  0.6729
 4282SOL     OW24478   1.118   3.195  15.943 -0.5847  0.5485  0.1215
 4282SOL    HW124479   1.155   3.147  16.017 -2.7647  1.1949  1.6321
 4282SOL    HW224480   1.036   3.150  15.921  0.1995  0.2186 -2.0958
 4283SOL     OW24481   1.771   2.904  11.247  0.1402 -0.4438  0.1358
 4283SOL    HW124482   1.738   2.968  11.183 -0.3736  0.7448  1.5977
 4283SOL    HW224483   1.786   2.835  11.183  1.8184  0.9881 -1.0230
 4284SOL     OW24484   1.198   1.886  12.668 -0.1399 -0.1576 -0.7925
 4284SOL    HW124485   1.211   1.793  12.684  0.6447  0.3841  1.7733
 4284SOL    HW224486   1.105   1.877  12.647 -0.3929 -1.3258  0.8465
 4285SOL     OW24487   4.309   3.854   6.617  0.1067  0.1960  0.2608
 4285SOL    HW124488   4.372   3.803   6.566  2.5188  2.4346  0.9892
 4285SOL    HW224489   4.254   3.877   6.541  0.3542 -0.8314 -0.2288
 4286SOL     OW24490   4.732   1.273   2.928 -0.0612  0.0402  0.3257
 4286SOL    HW124491   0.046   1.352   2.944 -1.0857  0.5083  1.2543
 4286SOL    HW224492   4.714   1.271   2.834 -0.6683 -0.0852  0.4487
 4287SOL     OW24493   0.051   0.052  14.708  0.3568  0.2192  0.3665
 4287SOL    HW124494   0.053   0.094  14.795  1.5414  0.6084  0.1464
 4287SOL    HW224495   0.128   0.093  14.670  0.5542  0.1202  0.6565
 4288SOL     OW24496   0.265   0.490  13.927 -0.2267 -0.1651 -0.3257
 4288SOL    HW124497   0.313   0.553  13.980 -2.0244  0.4227  0.6067
 4288SOL    HW224498   0.335   0.454  13.872  0.3347 -0.9472  0.9035
 4289SOL     OW24499   2.954   1.248   2.983 -0.3991  0.3568  0.6913
 4289SOL    HW124500   2.964   1.161   2.944 -3.6037 -0.0696  0.7628
 4289SOL    HW224501   3.011   1.233   3.058 -0.9747 -0.4169  0.9771
 4290SOL     OW24502   1.174   3.574  10.684  0.5759 -0.1623 -0.1869
 4290SOL    HW124503   1.242   3.584  10.750 -1.1517 -1.2293  1.7430
 4290SOL    HW224504   1.102   3.558  10.746  0.7068 -0.0927 -0.0191
 4291SOL     OW24505   0.380   3.321   7.569  0.3298  0.0319  0.0829
 4291SOL    HW124506   0.385   3.277   7.653 -1.3197  0.1193  0.2243
 4291SOL    HW224507   0.454   3.381   7.583  0.2898  0.3339 -1.0064
 4292SOL     OW24508   3.691   0.838   8.769 -0.3644 -0.1788  0.0866
 4292SOL    HW124509   3.636   0.768   8.733  0.8316  0.4299 -2.9309
 4292SOL    HW224510   3.777   0.796   8.781  0.7208  1.4452 -2.0668
 4293SOL     OW24511   0.774   4.211   6.195  0.7807 -0.4865  0.7689
 4293SOL    HW124512   0.739   4.126   6.169 -1.7100  0.5455  0.7390
 4293SOL    HW224513   0.740   4.223   6.284  0.5411  2.3769  0.3031
 4294SOL     OW24514   3.254   4.014   2.650  0.3310  0.2236  0.7860
 4294SOL    HW124515   3.347   3.996   2.636  0.9744  1.9814  2.7540
 4294SOL    HW224516   3.226   4.041   2.562  0.8858 -1.2544  0.1672
 4295SOL     OW24517   2.025   3.544   6.019 -0.0664 -0.0594 -0.5427
 4295SOL    HW124518   1.967   3.495   6.076  0.8669 -2.0598 -1.3170
 4295SOL    HW224519   1.986   3.517   5.936  0.3201  0.1383 -0.7923
 4296SOL     OW24520   2.886   4.116   8.154  1.0955  0.6163  0.3694
 4296SOL    HW124521   2.806   4.073   8.126  1.7518  1.8083 -3.4161
 4296SOL    HW224522   2.875   4.121   8.249 -1.1651  0.3054  0.1191
 4297SOL     OW24523   2.392   2.481  13.015  0.3745 -0.0326  0.0699
 4297SOL    HW124524   2.331   2.474  12.942  1.1536 -0.2613 -0.5568
 4297SOL    HW224525   2.427   2.393  13.007 -1.5743 -0.9665  1.7664
 4298SOL     OW24526   3.787   1.776  11.620  0.0568  0.3145 -0.5937
 4298SOL    HW124527   3.757   1.710  11.681 -0.8605 -0.4081 -1.8216
 4298SOL    HW224528   3.862   1.816  11.665  0.7054 -0.9426 -0.5686
 4299SOL     OW24529   4.734   1.345   8.057 -0.2900 -0.2098  0.4171
 4299SOL    HW124530   0.033   1.419   8.106 -0.5462 -1.8763  3.1199
 4299SOL    HW224531   4.649   1.384   8.037 -2.0677 -2.6226  3.3399
 4300SOL     OW24532   0.517   3.468   3.601  0.1207 -0.1551 -0.0900
 4300SOL    HW124533   0.438   3.509   3.565 -0.0063  0.0131  0.3789
 4300SOL    HW224534   0.556   3.408   3.537 -0.5256 -0.0179 -0.6119
 4301SOL     OW24535   0.762   0.666  17.462 -0.1556  0.0403 -0.2996
 4301SOL    HW124536   0.778   0.581  17.420  0.3057  0.7484 -1.5329
 4301SOL    HW224537   0.849   0.674  17.501 -0.0846 -0.5239 -0.3348
 4302SOL     OW24538   2.838   1.340   0.254  0.5489 -0.1158  0.0199
 4302SOL    HW124539   2.795   1.292   0.325  1.1434 -0.3792  0.2005
 4302SOL    HW224540   2.803   1.428   0.269  1.2965  0.2701 -0.5274
 4303SOL     OW24541   2.960   4.414   6.970 -0.0499  0.0622 -0.0281
 4303SOL    HW124542   2.905   4.469   7.026 -0.5927 -0.6960  0.1729
 4303SOL    HW224543   2.898   4.354   6.929 -0.3952 -0.8825  1.8823
 4304SOL     OW24544   0.418   0.630   7.430 -0.5843 -0.6477  0.4090
 4304SOL    HW124545   0.360   0.622   7.506 -0.5503 -1.9456  0.2844
 4304SOL    HW224546   0.374   0.701   7.383  0.1111  0.3465  1.2559
 4305SOL     OW24547   1.659   2.803   1.933 -0.0175  0.5308  0.1947
 4305SOL    HW124548   1.585   2.820   1.991  0.8129  1.9816  0.8452
 4305SOL    HW224549   1.685   2.887   1.894 -1.5230  0.9114  0.0044
 4306SOL     OW24550   0.402   0.039   5.649  0.1773 -0.1293  0.6864
 4306SOL    HW124551   0.495   0.049   5.628 -0.3613  1.9699 -0.7201
 4306SOL    HW224552   0.399   4.687   5.684 -0.4038 -0.8619 -1.2488
 4307SOL     OW24553   0.361   3.714   4.461 -0.2167 -0.2538  0.0512
 4307SOL    HW124554   0.423   3.721   4.533  0.0427  0.4888 -0.2483
 4307SOL    HW224555   0.419   3.735   4.388  0.3866  0.6667  0.8009
 4308SOL     OW24556   4.147   2.120   8.714  0.8707  0.0024  0.2072
 4308SOL    HW124557   4.132   2.204   8.757 -0.2048  0.2508 -0.6695
 4308SOL    HW224558   4.243   2.123   8.716  0.8037  2.8453 -1.1565
 4309SOL     OW24559   0.888   2.383   8.327 -0.5692  0.6119 -0.3597
 4309SOL    HW124560   0.864   2.472   8.349  1.3569  0.9863  0.2904
 4309SOL    HW224561   0.815   2.327   8.354  1.5897 -1.9837  0.1460
 4310SOL     OW24562   1.298   4.088   5.489  0.3040 -0.2202  0.1453
 4310SOL    HW124563   1.261   4.025   5.551  0.2212 -1.3476 -1.0583
 4310SOL    HW224564   1.225   4.148   5.474  0.1108 -0.5988 -0.4573
 4311SOL     OW24565   1.561   1.706   6.562 -0.0614 -0.0903 -0.2926
 4311SOL    HW124566   1.624   1.694   6.491  0.3720 -1.9366  0.4029
 4311SOL    HW224567   1.525   1.791   6.535  0.0053  0.2910  0.8065
 4312SOL     OW24568   3.682   3.641   3.210  0.2046  0.6899 -0.6892
 4312SOL    HW124569   3.748   3.708   3.229  1.3006 -0.6827  0.3099
 4312SOL    HW224570   3.680   3.576   3.280  1.6572  1.4186  0.0399
 4313SOL     OW24571   2.674   0.567   7.040  0.8292 -0.4112  0.2575
 4313SOL    HW124572   2.758   0.538   7.003  0.9463  2.4414 -1.7449
 4313SOL    HW224573   2.701   0.637   7.100 -0.1451 -1.1888  1.5939
 4314SOL     OW24574   1.470   0.500   2.653 -0.0196 -0.0544 -0.5398
 4314SOL    HW124575   1.434   0.424   2.699  2.6292  0.0432  1.6147
 4314SOL    HW224576   1.558   0.471   2.630  0.2993  0.7959 -0.3916
 4315SOL     OW24577   1.916   1.230   9.327 -0.1425 -0.1612 -0.4385
 4315SOL    HW124578   1.912   1.176   9.406  2.3765 -1.2325 -1.0628
 4315SOL    HW224579   1.858   1.184   9.266 -0.4126 -2.3039  1.4200
 4316SOL     OW24580   4.487   0.483   5.204 -0.0543  0.1069  0.3164
 4316SOL    HW124581   4.524   0.561   5.164 -0.0236  0.1550  0.4387
 4316SOL    HW224582   4.417   0.474   5.138  2.1737 -2.4679 -1.6925
 4317SOL     OW24583   1.046   2.534   3.916 -0.0737 -0.3523 -0.0917
 4317SOL    HW124584   1.101   2.538   3.838 -0.4465  1.5522 -0.2708
 4317SOL    HW224585   1.108   2.577   3.975  1.5033 -3.8607  0.8021
 4318SOL     OW24586   2.005   2.639   5.108  0.1997  0.2360  0.2248
 4318SOL    HW124587   1.922   2.681   5.085 -0.1555  0.2468  1.5475
 4318SOL    HW224588   1.986   2.621   5.200 -0.1883  0.0692  0.1120
 4319SOL     OW24589   2.157   0.984  14.115  0.6300  0.0301 -0.1062
 4319SOL    HW124590   2.063   0.977  14.129 -0.2020  1.7670 -4.6299
 4319SOL    HW224591   2.181   0.908  14.061  0.3048  0.6607 -1.1408
 4320SOL     OW24592   3.386   0.780   7.264  0.2904 -0.2955  0.4519
 4320SOL    HW124593   3.328   0.830   7.207  0.9777 -1.5044 -1.3152
 4320SOL    HW224594   3.347   0.692   7.269 -1.1281  0.3292  0.5167
 4321SOL     OW24595   3.106   2.797   2.820 -0.3215 -0.3050  0.4178
 4321SOL    HW124596   3.151   2.847   2.888 -0.7106  0.2815  0.2379
 4321SOL    HW224597   3.158   2.822   2.744  0.8155 -2.1472  0.5713
 4322SOL     OW24598   1.188   0.766   8.100  0.3128  0.5309  0.2163
 4322SOL    HW124599   1.117   0.743   8.161  0.3516 -0.4362 -0.1033
 4322SOL    HW224600   1.236   0.683   8.095  0.2727  0.4873  0.5138
 4323SOL     OW24601   1.188   2.019   5.026  0.1406 -0.1040 -0.1566
 4323SOL    HW124602   1.261   1.998   5.083 -0.2844 -2.4893 -0.4691
 4323SOL    HW224603   1.134   2.071   5.085  1.9251 -0.9997  2.2661
 4324SOL     OW24604   3.434   2.190   2.148 -0.6408 -0.1031 -0.7718
 4324SOL    HW124605   3.485   2.239   2.084  0.2581  0.8049  0.6505
 4324SOL    HW224606   3.344   2.208   2.121 -0.7841 -0.9584 -0.8822
 4325SOL     OW24607   0.294   2.591   1.993  0.0518  0.6034  0.1455
 4325SOL    HW124608   0.261   2.543   2.068  1.0212 -0.5480 -0.1734
 4325SOL    HW224609   0.245   2.673   1.989 -2.3055 -0.8551 -0.5159
 4326SOL     OW24610   1.220   2.630   4.075  0.1822 -0.0156  0.0060
 4326SOL    HW124611   1.264   2.715   4.083  1.4151 -0.3765 -2.8252
 4326SOL    HW224612   1.268   2.573   4.135  0.7080 -0.7174 -1.0779
 4327SOL     OW24613   2.415   2.340   5.753 -0.2498 -0.0085  1.0376
 4327SOL    HW124614   2.367   2.423   5.747  1.7209  1.1719  1.4568
 4327SOL    HW224615   2.365   2.297   5.822 -1.1255 -1.8219 -0.7455
 4328SOL     OW24616   3.785   4.367   4.219  0.6458 -0.1465 -0.1652
 4328SOL    HW124617   3.750   4.295   4.166  1.0244  1.0949 -2.1397
 4328SOL    HW224618   3.872   4.332   4.236  0.4604 -1.2699 -1.5179
 4329SOL     OW24619   1.557   1.107   1.663 -0.1895 -0.7879 -0.2136
 4329SOL    HW124620   1.597   1.021   1.649  2.5202 -0.3463  4.5433
 4329SOL    HW224621   1.586   1.158   1.587 -0.4884  2.9225  2.1473
 4330SOL     OW24622   3.808   1.282   8.864  0.3495 -0.5666 -0.0550
 4330SOL    HW124623   3.811   1.373   8.894  2.5159 -1.1253  1.4464
 4330SOL    HW224624   3.764   1.240   8.938  1.1910  0.6282  1.1230
 4331SOL     OW24625   0.724   1.523   0.441  0.5230  0.5621  0.0460
 4331SOL    HW124626   0.698   1.486   0.525  0.3573  0.7652  0.0859
 4331SOL    HW224627   0.638   1.530   0.399 -0.0711 -0.9737  1.0086
 4332SOL     OW24628   3.097   1.856   7.485  0.3662 -0.7137  0.2351
 4332SOL    HW124629   3.034   1.928   7.476  3.1589  2.0963  3.3090
 4332SOL    HW224630   3.046   1.778   7.464  1.8031 -2.2872  2.5497
 4333SOL     OW24631   1.842   2.795   7.320 -0.3833 -0.5496  0.5728
 4333SOL    HW124632   1.860   2.791   7.226 -1.6454 -0.2757  0.3144
 4333SOL    HW224633   1.747   2.806   7.313 -0.2668  2.1165  3.3299
 4334SOL     OW24634   4.382   0.858   2.693 -0.2117 -0.1603  0.3982
 4334SOL    HW124635   4.300   0.905   2.708  0.0155  0.5233 -0.5115
 4334SOL    HW224636   4.433   0.920   2.641 -0.6695 -0.7191 -0.6921
 4335SOL     OW24637   4.135   3.815   4.969 -0.2516 -0.2854 -0.0753
 4335SOL    HW124638   4.205   3.823   4.904  0.4113 -0.3985  0.6288
 4335SOL    HW224639   4.172   3.765   5.042 -1.2937  1.8730  1.9392
 4336SOL     OW24640   0.292   2.874   1.953  0.1294  0.2364 -0.2553
 4336SOL    HW124641   0.235   2.902   2.025 -0.6836 -0.5648 -0.5831
 4336SOL    HW224642   0.257   2.907   1.870  0.4031  1.6877  0.2216
 4337SOL     OW24643   3.428   3.710   3.121 -0.6123 -0.0502 -0.3110
 4337SOL    HW124644   3.507   3.676   3.164 -0.7972  0.1032  0.1471
 4337SOL    HW224645   3.455   3.696   3.030 -0.5354  1.6368 -0.5459
 4338SOL     OW24646   3.266   1.985   3.172 -0.0912  0.1385  0.7467
 4338SOL    HW124647   3.246   2.035   3.093  1.2051  1.6171  1.3531
 4338SOL    HW224648   3.180   1.948   3.193 -0.7585  1.1408 -0.2153
 4339SOL     OW24649   2.084   1.036   6.156 -0.1787 -0.4460  0.3612
 4339SOL    HW124650   2.039   1.056   6.074  1.0942  2.4933  0.3968
 4339SOL    HW224651   2.098   0.941   6.151  2.0058 -0.1140  0.0575
 4340SOL     OW24652   2.444   3.374   4.208  0.3786 -0.0994  0.1238
 4340SOL    HW124653   2.389   3.348   4.134  0.1212 -0.9457  0.6086
 4340SOL    HW224654   2.399   3.330   4.280 -0.4550  0.8145  0.1562
 4341SOL     OW24655   4.388   0.644   4.518 -0.3585 -0.4812 -0.2825
 4341SOL    HW124656   4.421   0.556   4.500  1.3392  0.2699 -0.9374
 4341SOL    HW224657   4.434   0.690   4.447 -1.4031 -0.9393 -1.2595
 4342SOL     OW24658   0.092   1.735   6.880 -0.3936  0.1600 -0.6683
 4342SOL    HW124659   0.131   1.658   6.838 -0.1578  0.7361 -1.4967
 4342SOL    HW224660   0.143   1.802   6.836 -0.6333 -0.4301 -1.8447
 4343SOL     OW24661   3.634   1.131   2.855 -0.2733  0.1886 -0.8444
 4343SOL    HW124662   3.591   1.196   2.910  0.3413 -0.5041  0.4633
 4343SOL    HW224663   3.610   1.166   2.769 -0.4198  0.3112 -0.7533
 4344SOL     OW24664   3.011   4.229  11.368 -0.2421  0.5074 -0.2072
 4344SOL    HW124665   3.010   4.160  11.435 -0.7241 -1.4103 -2.2091
 4344SOL    HW224666   2.929   4.220  11.320 -1.4704  2.6030  1.4837
 4345SOL     OW24667   0.431   4.254   0.347  0.3490 -0.4149 -0.1452
 4345SOL    HW124668   0.377   4.260   0.426 -1.5116  0.0162 -1.4531
 4345SOL    HW224669   0.488   4.182   0.373 -1.3560 -0.5794  3.1934
 4346SOL     OW24670   0.412   3.008  12.006  0.0755 -0.2361 -0.1960
 4346SOL    HW124671   0.460   2.925  12.007  0.2324 -0.1204  1.5724
 4346SOL    HW224672   0.405   3.030  12.099  3.8994 -0.0046  0.0253
 4347SOL     OW24673   3.402   0.649   2.522  0.2361  0.1447 -0.0200
 4347SOL    HW124674   3.400   0.683   2.432 -0.2834 -0.8604 -0.3830
 4347SOL    HW224675   3.357   0.714   2.576 -0.1800 -0.0104 -0.1799
 4348SOL     OW24676   2.247   2.418   1.930  0.2336  0.1076  0.6786
 4348SOL    HW124677   2.266   2.324   1.926  2.1788  0.5645 -0.9682
 4348SOL    HW224678   2.221   2.426   2.021  1.7211 -0.4990  1.1551
 4349SOL     OW24679   2.572   1.978  10.031 -0.3071 -0.5486  0.2422
 4349SOL    HW124680   2.585   1.889  10.064 -1.2245 -0.7397  0.0889
 4349SOL    HW224681   2.661   2.010  10.034 -0.5702 -0.0970  3.4607
 4350SOL     OW24682   2.403   1.686   4.205  0.5331  0.1042 -0.5055
 4350SOL    HW124683   2.367   1.706   4.291 -0.6161  2.0894 -1.4423
 4350SOL    HW224684   2.498   1.699   4.213  0.4546  0.4825 -0.1942
 4351SOL     OW24685   0.350   2.661  13.721 -0.0479 -0.3764  0.0973
 4351SOL    HW124686   0.372   2.670  13.814  2.5052 -1.4483 -0.4254
 4351SOL    HW224687   0.287   2.589  13.730  1.0172 -1.1301  1.5525
 4352SOL     OW24688   1.359   2.780   2.845 -0.4506  0.1135 -0.4736
 4352SOL    HW124689   1.389   2.793   2.935 -0.4545 -0.4094 -0.3920
 4352SOL    HW224690   1.352   2.684   2.842 -1.1245  0.1041  1.7872
 4353SOL     OW24691   1.703   2.462   3.835 -0.0461  0.7668  0.0755
 4353SOL    HW124692   1.780   2.426   3.879 -0.5340  0.0029  0.3178
 4353SOL    HW224693   1.719   2.424   3.749  2.0393  2.6324 -0.3512
 4354SOL     OW24694   3.426   3.391  11.550 -0.0532  0.5525  0.2444
 4354SOL    HW124695   3.427   3.366  11.642 -0.0566  0.6483  0.2696
 4354SOL    HW224696   3.335   3.372  11.524  0.8005 -1.2927 -1.4115
 4355SOL     OW24697   1.077   3.641   3.696 -0.0599  0.2508  0.4468
 4355SOL    HW124698   1.070   3.725   3.743  0.8199  0.1470  0.7743
 4355SOL    HW224699   1.078   3.579   3.768  1.1794  0.4038  0.5679
 4356SOL     OW24700   1.341   4.112  13.037  0.0686  0.0092 -0.0356
 4356SOL    HW124701   1.333   4.018  13.054 -1.1123 -0.2405 -1.9345
 4356SOL    HW224702   1.284   4.144  13.107  1.8110 -2.9855  2.7577
 4357SOL     OW24703   1.717   2.009   2.473  0.3637  0.1782 -0.0584
 4357SOL    HW124704   1.710   2.013   2.378 -0.1109 -1.4894 -0.0889
 4357SOL    HW224705   1.693   2.098   2.500 -1.0378 -0.3640  0.4738
 4358SOL     OW24706   1.113   3.315   7.096 -0.1016  0.5068 -0.2655
 4358SOL    HW124707   1.167   3.361   7.160 -0.6788  0.1068  0.5091
 4358SOL    HW224708   1.131   3.370   7.020  1.3920 -0.2014 -0.4217
 4359SOL     OW24709   2.388   1.992   3.422 -0.3098  0.8158  0.5449
 4359SOL    HW124710   2.403   2.028   3.509 -3.0729  0.0323  1.3079
 4359SOL    HW224711   2.406   1.899   3.435 -0.7228  0.3751 -1.9761
 4360SOL     OW24712   1.203   1.740  11.157 -0.0452 -0.3806 -0.1697
 4360SOL    HW124713   1.275   1.712  11.100 -0.7404 -1.8484 -0.3325
 4360SOL    HW224714   1.128   1.705  11.109 -1.1671 -1.8188  2.6485
 4361SOL     OW24715   4.504   4.435  14.217 -0.0389 -0.5505 -0.0785
 4361SOL    HW124716   4.531   4.494  14.288 -0.6644  2.8404 -2.6281
 4361SOL    HW224717   4.563   4.468  14.150  0.7408  1.4513  1.5904
 4362SOL     OW24718   4.714   4.571  10.208  0.4533  0.5342  0.3141
 4362SOL    HW124719   0.036   4.593  10.136 -1.3801  2.4052 -0.6115
 4362SOL    HW224720   4.696   4.658  10.244  1.8620  1.3214 -0.8832
 4363SOL     OW24721   0.594   0.967   0.690 -0.3727 -0.1140  0.1086
 4363SOL    HW124722   0.572   0.964   0.783 -2.1935  0.6585 -0.2884
 4363SOL    HW224723   0.559   1.056   0.680 -0.3289  0.2031  2.8351
 4364SOL     OW24724   1.502   4.643  15.609 -0.7085  0.0898 -0.7203
 4364SOL    HW124725   1.524   4.591  15.531  1.8096 -2.1024  1.4705
 4364SOL    HW224726   1.487   4.579  15.678 -1.9691 -0.8533 -1.8672
 4365SOL     OW24727   2.338   3.163   5.837 -0.5436  0.4953  0.2260
 4365SOL    HW124728   2.346   3.118   5.921 -0.6319 -0.1818 -0.1261
 4365SOL    HW224729   2.373   3.099   5.774 -1.4755  0.4482 -0.2330
 4366SOL     OW24730   3.329   2.860   5.468 -0.1203 -0.0059 -0.2056
 4366SOL    HW124731   3.327   2.766   5.454 -2.6670 -0.0773  0.6007
 4366SOL    HW224732   3.247   2.892   5.430  0.2773  1.5728  0.2429
 4367SOL     OW24733   4.142   0.382   3.863 -0.4906  0.3342 -0.0506
 4367SOL    HW124734   4.089   0.312   3.900  1.6818 -0.3586  1.7883
 4367SOL    HW224735   4.121   0.369   3.770 -1.6325  3.9178 -0.2856
 4368SOL     OW24736   4.003   4.133   3.305 -0.0057  0.1160  0.6311
 4368SOL    HW124737   3.959   4.095   3.380 -0.5056  0.5467  0.5592
 4368SOL    HW224738   4.093   4.106   3.322  0.0882 -0.4452 -0.7426
 4369SOL     OW24739   1.248   1.045   2.050 -0.5736  0.2227  0.2088
 4369SOL    HW124740   1.192   1.113   2.013 -0.7200 -0.7226 -1.3224
 4369SOL    HW224741   1.221   0.959   2.017 -1.1061  0.0723  1.0417
 4370SOL     OW24742   3.865   1.522  17.210 -0.4154  0.1038  0.1876
 4370SOL    HW124743   3.927   1.525  17.138 -1.2521  0.2290 -0.5293
 4370SOL    HW224744   3.894   1.593  17.267  0.0600 -1.2623  1.6627
 4371SOL     OW24745   4.437   0.503   8.103 -0.5266 -0.0775 -0.5806
 4371SOL    HW124746   4.478   0.525   8.186  0.2277 -0.0577 -0.9574
 4371SOL    HW224747   4.423   0.410   8.119 -0.2670 -0.2071 -1.0979
 4372SOL     OW24748   3.047   0.179  16.804 -0.3290  0.6962  0.5546
 4372SOL    HW124749   3.111   0.164  16.873 -2.6273  2.2477  3.0257
 4372SOL    HW224750   3.097   0.192  16.723 -0.5551  1.8988  0.5976
 4373SOL     OW24751   3.948   4.124   6.686  0.0264 -0.1707  0.4272
 4373SOL    HW124752   3.955   4.050   6.746 -2.5712 -1.1708 -0.5003
 4373SOL    HW224753   3.865   4.102   6.644 -0.4480 -0.0933  1.3256
 4374SOL     OW24754   3.228   2.895   1.846  0.9100  0.7218 -0.0419
 4374SOL    HW124755   3.146   2.940   1.868 -0.1946 -1.4523  0.2673
 4374SOL    HW224756   3.259   2.949   1.773  1.7651 -0.1341 -0.3061
 4375SOL     OW24757   2.951   0.628   7.331  0.1959 -0.5147 -0.4915
 4375SOL    HW124758   2.898   0.703   7.306  1.9015  0.2570 -1.7897
 4375SOL    HW224759   2.891   0.574   7.381  0.5455 -0.3995  0.0524
 4376SOL     OW24760   2.299   3.792   7.462 -0.1018 -0.3435 -0.6503
 4376SOL    HW124761   2.365   3.855   7.431 -0.8430  0.4207 -0.6774
 4376SOL    HW224762   2.321   3.796   7.555 -0.4182 -0.1962 -0.5826
 4377SOL     OW24763   3.875   4.431  14.328  0.4794 -0.0429 -0.5781
 4377SOL    HW124764   3.850   4.521  14.352  0.9586 -0.4816  1.5657
 4377SOL    HW224765   3.797   4.392  14.290  0.2834 -1.6365  1.5130
 4378SOL     OW24766   3.490   3.279   3.863 -0.0982 -0.7245  0.2832
 4378SOL    HW124767   3.426   3.220   3.823 -0.3444 -0.2464 -0.0298
 4378SOL    HW224768   3.558   3.215   3.845  0.2778  0.3459 -2.1924
 4379SOL     OW24769   0.092   2.630   6.905 -0.6061 -0.4801  0.3230
 4379SOL    HW124770   0.049   2.607   6.822 -0.5818  2.3894 -0.4763
 4379SOL    HW224771   0.010   2.647   6.952  0.1759  1.5226  0.9440
 4380SOL     OW24772   1.136   1.803   3.530  0.7498  0.4803  0.0198
 4380SOL    HW124773   1.097   1.754   3.602  1.3867  0.3245  0.2597
 4380SOL    HW224774   1.227   1.821   3.556  0.2317 -0.0649  2.1094
 4381SOL     OW24775   3.398   1.517   2.840  0.0434  0.0716 -0.1957
 4381SOL    HW124776   3.431   1.597   2.800 -0.3517  0.2954 -0.0831
 4381SOL    HW224777   3.471   1.490   2.895 -0.8664  0.8998  1.4289
 4382SOL     OW24778   0.717   0.783   6.489 -0.1380  0.3885 -0.0777
 4382SOL    HW124779   0.718   0.735   6.571 -0.3872 -0.6115 -0.6587
 4382SOL    HW224780   0.671   0.720   6.434  0.2924  0.1590 -0.1765
 4383SOL     OW24781   2.815   4.052  13.240 -0.0878 -0.5352 -0.1044
 4383SOL    HW124782   2.901   4.030  13.275  0.5824 -0.1930 -1.5550
 4383SOL    HW224783   2.800   3.979  13.180 -1.1537 -1.1081  0.8653
 4384SOL     OW24784   3.969   0.735   0.032 -0.1106  0.1537  0.1076
 4384SOL    HW124785   3.920   0.707  17.700  0.3781 -2.1214  0.6195
 4384SOL    HW224786   3.927   0.818   0.054 -0.4672 -0.0772  0.2871
 4385SOL     OW24787   3.508   4.566   6.403 -0.1363 -0.2756  0.7804
 4385SOL    HW124788   3.414   4.562   6.419 -0.0388 -0.3461  1.3212
 4385SOL    HW224789   3.542   4.618   6.475  2.9018  2.7057 -2.8047
 4386SOL     OW24790   0.700   0.583  11.777  0.5380  0.3267 -0.5035
 4386SOL    HW124791   0.731   0.620  11.859  0.3403 -0.5289 -0.0528
 4386SOL    HW224792   0.615   0.627  11.784  0.4777  0.1381 -0.0469
 4387SOL     OW24793   1.066   2.898   0.034  0.3716 -0.1099 -0.2501
 4387SOL    HW124794   1.139   2.926  17.723  0.8449  1.1028  0.9625
 4387SOL    HW224795   1.075   2.969   0.098  0.8084 -1.0059  0.6902
 4388SOL     OW24796   1.619   2.478   8.685  0.0238 -0.4256  0.4959
 4388SOL    HW124797   1.680   2.527   8.629  0.9706 -0.6831  1.2940
 4388SOL    HW224798   1.639   2.389   8.655 -1.4678  0.0097 -1.7874
 4389SOL     OW24799   2.293   1.879   7.708  0.0767  0.0924 -0.0694
 4389SOL    HW124800   2.325   1.805   7.759 -0.2501 -0.2122 -0.3054
 4389SOL    HW224801   2.318   1.952   7.764  0.3944  2.1683 -2.9064
 4390SOL     OW24802   2.873   2.232   1.088  0.0449  0.1795  0.2338
 4390SOL    HW124803   2.830   2.164   1.140 -0.7740 -2.8799 -4.3875
 4390SOL    HW224804   2.885   2.294   1.160 -0.1903  2.6358 -1.8330
 4391SOL     OW24805   1.232   0.332  11.931  0.0969 -0.0488  0.5653
 4391SOL    HW124806   1.149   0.350  11.886  0.5396 -0.0314 -0.2473
 4391SOL    HW224807   1.296   0.392  11.892  1.5073 -0.8768  1.5943
 4392SOL     OW24808   3.639   3.210   6.898 -0.1031  0.3389 -0.5296
 4392SOL    HW124809   3.734   3.199   6.896 -0.2824 -0.8614 -2.2527
 4392SOL    HW224810   3.617   3.121   6.870  1.2205  0.6969 -2.6467
 4393SOL     OW24811   2.523   0.041   4.947  0.5616  0.3322  0.0120
 4393SOL    HW124812   2.439   0.047   4.901  0.6978 -1.0228 -0.4038
 4393SOL    HW224813   2.524   0.123   4.996 -0.4844  0.3354  0.0283
 4394SOL     OW24814   0.474   2.041  16.633 -0.5218  0.0879 -0.1233
 4394SOL    HW124815   0.426   2.050  16.550 -0.7800  0.2196  0.0375
 4394SOL    HW224816   0.445   2.117  16.684 -1.8968 -0.8067  0.4179
 4395SOL     OW24817   1.413   4.002   8.298  0.0959  0.1307  0.0065
 4395SOL    HW124818   1.382   3.918   8.265  0.3172 -0.5118  1.4366
 4395SOL    HW224819   1.491   4.015   8.243  0.7641 -0.8099  0.7181
 4396SOL     OW24820   2.003   1.037   5.116  0.1695  0.5915  0.2052
 4396SOL    HW124821   1.946   0.967   5.148  1.9644 -0.9296  0.0437
 4396SOL    HW224822   1.966   1.044   5.027  2.4786 -0.0138 -0.7996
 4397SOL     OW24823   4.232   3.495   7.628  0.0946  0.3556  0.1553
 4397SOL    HW124824   4.246   3.498   7.723  0.0334 -1.0413  0.2080
 4397SOL    HW224825   4.214   3.588   7.612  4.2815  0.9397 -1.1762
 4398SOL     OW24826   4.230   0.698   8.364 -0.1113 -0.3051 -0.2298
 4398SOL    HW124827   4.315   0.743   8.363 -0.7468  0.7858 -4.6302
 4398SOL    HW224828   4.268   0.610   8.365  0.4099 -0.0729  1.3588
 4399SOL     OW24829   1.949   3.760   5.760  0.5185 -0.4041 -0.1022
 4399SOL    HW124830   1.899   3.678   5.755  1.2749 -0.9614  1.5739
 4399SOL    HW224831   1.876   3.819   5.779 -0.6916 -1.3067 -1.8899
 4400SOL     OW24832   3.789   3.639   7.873  0.1507  0.0398  0.3935
 4400SOL    HW124833   3.850   3.590   7.818 -1.0572 -1.0705  0.0425
 4400SOL    HW224834   3.836   3.662   7.954 -0.6646  1.7425  0.3940
 4401SOL     OW24835   3.180   3.599   4.421  0.5987  0.1393  0.1205
 4401SOL    HW124836   3.089   3.572   4.414  0.1287  2.1161 -1.6019
 4401SOL    HW224837   3.218   3.548   4.491 -1.6519 -0.7388  0.6980
 4402SOL     OW24838   2.315   0.458   5.186  0.5952 -0.4679 -0.2112
 4402SOL    HW124839   2.315   0.506   5.269 -1.1629 -0.7777 -0.0150
 4402SOL    HW224840   2.352   0.522   5.126  1.3664  0.1881  0.9698
 4403SOL     OW24841   2.314   0.301   3.828 -0.0350  0.6605 -0.0480
 4403SOL    HW124842   2.243   0.310   3.764 -1.5124 -0.3335  1.4271
 4403SOL    HW224843   2.271   0.256   3.901  2.8142 -0.5696  0.8624
 4404SOL     OW24844   1.539   3.712   1.035  0.8790 -0.4914  0.3128
 4404SOL    HW124845   1.571   3.644   0.975  1.8499  2.2892 -2.2809
 4404SOL    HW224846   1.525   3.790   0.982  0.5923  0.1421  1.3426
 4405SOL     OW24847   2.146   1.944   5.356 -0.1223  0.1134  0.3345
 4405SOL    HW124848   2.062   1.968   5.319  0.5910 -1.0706 -2.0596
 4405SOL    HW224849   2.132   1.850   5.346 -0.3721  0.2165 -0.2477
 4406SOL     OW24850   4.029   0.769   2.639  0.4318 -0.3769  0.1487
 4406SOL    HW124851   3.943   0.739   2.609  0.1941  1.5602 -1.0913
 4406SOL    HW224852   4.077   0.687   2.650  0.9925  0.2616  2.4891
 4407SOL     OW24853   1.916   4.432   5.208 -0.2440 -0.0630  0.0189
 4407SOL    HW124854   1.822   4.414   5.208  0.0324 -1.5269  0.9737
 4407SOL    HW224855   1.955   4.346   5.224  0.7281  0.5120  0.7389
 4408SOL     OW24856   2.715   4.574   3.630 -0.0478  0.6754 -0.6612
 4408SOL    HW124857   2.680   4.527   3.554 -0.7785  3.5927 -2.1673
 4408SOL    HW224858   2.790   4.622   3.595 -0.6444  2.0835 -0.0311
 4409SOL     OW24859   3.212   0.650  16.812  0.6458 -0.1177 -0.3053
 4409SOL    HW124860   3.240   0.591  16.742 -0.7432  1.0033 -1.7854
 4409SOL    HW224861   3.133   0.605  16.843 -0.3075  2.1027  0.4261
 4410SOL     OW24862   1.421   2.076   2.308 -0.2039  0.6055  0.5652
 4410SOL    HW124863   1.491   2.015   2.289 -1.8682 -0.2977 -2.6066
 4410SOL    HW224864   1.427   2.083   2.404  1.2563 -3.1781  0.7230
 4411SOL     OW24865   2.093   2.524  15.644 -0.0825 -0.1995 -0.2907
 4411SOL    HW124866   2.134   2.530  15.730  0.4219 -0.3299 -0.5202
 4411SOL    HW224867   2.082   2.429  15.637  1.8982 -0.4714  0.4535
 4412SOL     OW24868   2.906   0.197  13.455 -0.1492  0.3240  0.0244
 4412SOL    HW124869   2.847   0.139  13.406  0.2515  0.0989 -0.1902
 4412SOL    HW224870   2.931   0.267  13.395 -2.0026 -0.1743 -1.3547
 4413SOL     OW24871   4.378   0.001   2.079 -0.1429 -0.2423 -0.0151
 4413SOL    HW124872   4.295   0.043   2.054 -0.1845 -1.4681 -1.9092
 4413SOL    HW224873   4.400   4.698   1.995 -3.3645 -0.0443 -0.9460
 4414SOL     OW24874   3.063   1.225   4.888 -0.1498  0.0694 -0.0796
 4414SOL    HW124875   3.007   1.207   4.812  1.2742 -2.0962 -0.5935
 4414SOL    HW224876   3.051   1.138   4.926  0.6858  1.1234  2.5477
 4415SOL     OW24877   1.115   4.132  11.464 -0.3137 -0.5178 -0.2217
 4415SOL    HW124878   1.164   4.149  11.383  1.2279  1.8913  1.2122
 4415SOL    HW224879   1.179   4.071  11.499  0.7705  0.2991 -0.7797
 4416SOL     OW24880   2.467   0.703  11.895 -0.0429  0.2845  0.7560
 4416SOL    HW124881   2.537   0.657  11.942 -1.2338 -2.4422 -0.1436
 4416SOL    HW224882   2.510   0.694  11.810 -1.0777  0.7904  0.1723
 4417SOL     OW24883   3.143   0.846   6.215  0.7166 -0.3405  0.0832
 4417SOL    HW124884   3.121   0.755   6.195  0.3358  0.4089 -2.9587
 4417SOL    HW224885   3.237   0.830   6.210  0.8347  0.4043 -0.0266
 4418SOL     OW24886   2.670   0.121  11.276 -0.0044 -0.1383 -0.1457
 4418SOL    HW124887   2.636   0.205  11.245 -1.5970  0.4489  3.1347
 4418SOL    HW224888   2.595   0.061  11.280 -0.4212  0.3797 -0.1363
 4419SOL     OW24889   3.937   0.672   1.050 -0.0593 -0.4813  0.0993
 4419SOL    HW124890   4.018   0.659   1.100  0.7021 -4.2418 -2.0775
 4419SOL    HW224891   3.975   0.670   0.962 -1.3567  0.6253 -0.4799
 4420SOL     OW24892   2.357   2.106   1.137  0.3038  0.3656  0.3932
 4420SOL    HW124893   2.264   2.130   1.134 -0.0546 -0.9952  0.8385
 4420SOL    HW224894   2.391   2.193   1.116  2.1098 -0.7825 -1.3241
 4421SOL     OW24895   3.366   0.398  16.723 -0.0410 -0.2209  0.2267
 4421SOL    HW124896   3.385   0.379  16.815  0.4772  0.5122  0.2698
 4421SOL    HW224897   3.329   0.315  16.694 -0.1988  0.2542 -0.9251
 4422SOL     OW24898   1.857   1.079   1.411  0.0039  0.2605 -0.1023
 4422SOL    HW124899   1.826   1.040   1.329 -0.1188  2.5129 -1.1221
 4422SOL    HW224900   1.782   1.138   1.416 -1.6251 -1.8285  0.2252
 4423SOL     OW24901   4.282   4.544  10.740 -0.8574 -0.0929 -0.5354
 4423SOL    HW124902   4.364   4.580  10.773 -1.3621 -0.0914  0.6939
 4423SOL    HW224903   4.292   4.450  10.757 -0.6173 -0.2145 -1.3532
 4424SOL     OW24904   3.882   3.335   1.689 -0.5171 -0.7346 -0.3661
 4424SOL    HW124905   3.876   3.241   1.675 -1.1873 -0.5287 -1.4645
 4424SOL    HW224906   3.800   3.358   1.731  0.5127  0.9680  0.7198
 4425SOL     OW24907   0.364   3.210   7.832 -0.1103  0.0356 -0.1252
 4425SOL    HW124908   0.350   3.223   7.925  1.4217  2.6779 -0.2456
 4425SOL    HW224909   0.309   3.132   7.821  0.5548 -0.6554  1.4771
 4426SOL     OW24910   4.561   3.774   1.760  0.2774  0.0304  0.4507
 4426SOL    HW124911   4.604   3.833   1.699 -1.1929 -0.4773 -1.0824
 4426SOL    HW224912   4.633   3.713   1.779  1.7558  1.8096  0.6121
 4427SOL     OW24913   4.437   0.995   4.523  0.7568  0.1653 -0.2327
 4427SOL    HW124914   4.489   0.944   4.461  2.6179  0.5869  0.9958
 4427SOL    HW224915   4.373   1.046   4.473 -1.5648 -1.1585  1.4043
 4428SOL     OW24916   3.022   4.431   9.851 -0.2786 -0.1303  0.6538
 4428SOL    HW124917   3.006   4.480   9.770 -0.7047  0.9690  1.4092
 4428SOL    HW224918   3.058   4.498   9.908  1.5356  0.4077 -1.1088
 4429SOL     OW24919   0.152   4.600   2.818 -0.0545 -0.0912  0.5836
 4429SOL    HW124920   0.081   4.604   2.755 -0.0149  0.5106  0.5816
 4429SOL    HW224921   0.114   4.571   2.901 -0.1059  0.5265  0.7775
 4430SOL     OW24922   2.712   0.530  12.024 -0.2726  0.0069 -0.0527
 4430SOL    HW124923   2.670   0.506  12.106 -0.7551  0.3503 -0.1976
 4430SOL    HW224924   2.799   0.549  12.057 -0.3226  0.1135  0.0176
 4431SOL     OW24925   2.175   1.281   9.204  0.4806 -0.1745 -0.0596
 4431SOL    HW124926   2.203   1.223   9.275  0.3844  0.0008  0.1236
 4431SOL    HW224927   2.080   1.279   9.219  1.0081 -3.1825  2.8833
 4432SOL     OW24928   2.194   1.349  12.716 -0.6587  0.0011 -0.4333
 4432SOL    HW124929   2.265   1.407  12.743  0.8251 -1.9600 -0.2041
 4432SOL    HW224930   2.114   1.399  12.733  0.5887  1.5476  0.8986
 4433SOL     OW24931   0.528   2.276   8.924 -0.4588  0.0784  0.5455
 4433SOL    HW124932   0.450   2.256   8.974 -0.0933  1.8688  1.8390
 4433SOL    HW224933   0.596   2.263   8.990 -0.2741  0.0987  0.3600
 4434SOL     OW24934   2.915   2.603   2.750 -0.2617 -0.5448 -0.5092
 4434SOL    HW124935   2.972   2.677   2.773  1.3400 -1.8093 -0.3592
 4434SOL    HW224936   2.935   2.581   2.659  2.9553 -0.7579  0.2404
 4435SOL     OW24937   2.279   2.217   5.941 -0.1188  0.0321 -0.2495
 4435SOL    HW124938   2.275   2.124   5.965 -2.0791  0.5481  1.4449
 4435SOL    HW224939   2.206   2.256   5.987  1.9938  2.6571  0.8282
 4436SOL     OW24940   0.463   1.036   5.094  0.0412 -0.1523  0.2765
 4436SOL    HW124941   0.545   1.028   5.143 -0.0893  0.1012  0.5305
 4436SOL    HW224942   0.444   0.950   5.056 -0.9070 -1.0142  2.6882
 4437SOL     OW24943   1.064   1.433   5.237  0.0499 -0.6087  0.1199
 4437SOL    HW124944   1.001   1.366   5.210 -0.2527  0.6414 -2.2853
 4437SOL    HW224945   1.040   1.440   5.329 -1.6755 -2.7139 -0.1656
 4438SOL     OW24946   3.397   0.677   5.777  0.3896  0.3215  0.4497
 4438SOL    HW124947   3.393   0.602   5.837  1.6294  0.3304  0.5536
 4438SOL    HW224948   3.429   0.633   5.698  0.3505  2.3509 -0.6731
 4439SOL     OW24949   0.064   1.710   7.980  0.1385 -0.1543 -0.0035
 4439SOL    HW124950   0.056   1.662   8.062  1.4286 -0.3847 -0.0007
 4439SOL    HW224951   0.076   1.641   7.915 -0.7560  1.5942 -2.0141
 4440SOL     OW24952   1.953   0.868   0.537 -0.2960 -0.4388  0.2034
 4440SOL    HW124953   2.035   0.873   0.586  0.1358  0.7738 -0.6169
 4440SOL    HW224954   1.991   0.869   0.449  1.0724  0.4113  0.7918
 4441SOL     OW24955   0.024   0.365  13.332 -0.1639 -0.4204 -1.0970
 4441SOL    HW124956   0.003   0.331  13.419 -2.1287 -0.1929 -1.4874
 4441SOL    HW224957   4.686   0.425  13.338  1.6983  1.9469 -1.5944
 4442SOL     OW24958   3.319   2.019   4.609 -0.1130 -0.6179  0.1479
 4442SOL    HW124959   3.304   2.098   4.557  0.4064 -0.8557 -0.3697
 4442SOL    HW224960   3.246   1.963   4.585  0.2188 -0.8274 -0.3888
 4443SOL     OW24961   2.348   2.654  13.201 -0.4171 -0.1298 -0.0322
 4443SOL    HW124962   2.348   2.587  13.133 -0.8186 -1.3594  1.1848
 4443SOL    HW224963   2.329   2.605  13.281 -0.4709 -1.3835 -0.8140
 4444SOL     OW24964   1.569   3.448   1.544  0.4824 -0.6196  0.2859
 4444SOL    HW124965   1.589   3.524   1.598  2.4296 -1.7970  1.1839
 4444SOL    HW224966   1.477   3.430   1.562  0.3262 -0.1101  0.0015
 4445SOL     OW24967   1.147   3.105   8.776  0.0353  0.2923  0.6725
 4445SOL    HW124968   1.121   3.044   8.707  2.3447  1.1311 -0.9384
 4445SOL    HW224969   1.057   3.131   8.794  1.3472  3.5223  2.6487
 4446SOL     OW24970   1.316   0.941   7.965 -0.2474  0.1791 -0.0547
 4446SOL    HW124971   1.358   0.973   8.045 -1.6462  1.6292  0.0794
 4446SOL    HW224972   1.253   0.879   8.001  0.5315 -1.4943 -1.5829
 4447SOL     OW24973   1.626   1.956   3.616  0.6357  0.7971  0.0521
 4447SOL    HW124974   1.709   1.974   3.572 -0.1159  2.4848 -0.6632
 4447SOL    HW224975   1.652   1.933   3.705  0.9696  1.6287  0.1709
 4448SOL     OW24976   3.002   0.538  16.611  0.2609  0.0221  0.0290
 4448SOL    HW124977   3.086   0.495  16.591  2.1125  4.1097 -0.9516
 4448SOL    HW224978   2.982   0.496  16.694  1.3362 -0.3661  0.0926
 4449SOL     OW24979   3.850   1.397   3.275 -0.3295 -0.7778 -0.2298
 4449SOL    HW124980   3.760   1.398   3.309 -0.7176 -1.0728 -1.2448
 4449SOL    HW224981   3.895   1.439   3.347 -2.7297  1.6577 -0.1361
 4450SOL     OW24982   3.755   2.129   7.759 -0.0439  0.5722  0.0439
 4450SOL    HW124983   3.799   2.172   7.685  0.5383  0.1045  0.1200
 4450SOL    HW224984   3.804   2.047   7.760 -0.9152  0.0631 -0.1570
 4451SOL     OW24985   3.273   2.191   2.953 -0.1693 -0.1126  0.4539
 4451SOL    HW124986   3.346   2.162   2.898 -0.9634 -0.8121 -0.2328
 4451SOL    HW224987   3.294   2.284   2.954  2.2228 -0.6401 -0.1491
 4452SOL     OW24988   3.093   3.984   5.990 -0.1081 -0.1672 -0.4710
 4452SOL    HW124989   3.025   4.027   6.042  2.2306  1.2662  1.3958
 4452SOL    HW224990   3.039   3.912   5.959 -0.7465  0.7659 -1.5315
 4453SOL     OW24991   1.390   2.582   8.720 -0.8538 -0.2743  0.6241
 4453SOL    HW124992   1.465   2.523   8.712 -0.7973 -0.1302  0.0893
 4453SOL    HW224993   1.322   2.525   8.756 -0.5927 -0.9064  0.1218
 4454SOL     OW24994   3.856   4.392   6.285 -0.0413 -0.2657  0.0193
 4454SOL    HW124995   3.770   4.368   6.317  0.4573 -2.0970 -0.0275
 4454SOL    HW224996   3.863   4.329   6.213  1.1351 -1.8726  1.5538
 4455SOL     OW24997   2.766   2.063   5.950  0.5710 -0.4554  0.2444
 4455SOL    HW124998   2.807   1.985   5.987 -0.9112 -1.7368 -0.8506
 4455SOL    HW224999   2.826   2.132   5.979 -2.1051  2.3272 -0.8591
 4456SOL     OW25000   0.363   2.613  11.492 -0.0325 -0.4969 -0.2118
 4456SOL    HW125001   0.394   2.704  11.490 -0.8888 -0.2022 -0.0565
 4456SOL    HW225002   0.419   2.580  11.562  1.5026  3.8593  0.5770
 4457SOL     OW25003   2.979   1.785  10.630  0.3860  0.3277  0.2432
 4457SOL    HW125004   2.919   1.764  10.559  0.7051 -1.0384  0.3721
 4457SOL    HW225005   2.924   1.745  10.697 -1.3560  0.9211 -0.8526
 4458SOL     OW25006   1.227   4.424   4.361 -0.4400  0.3797 -0.3442
 4458SOL    HW125007   1.292   4.450   4.297 -0.7554  0.0819 -0.7822
 4458SOL    HW225008   1.288   4.400   4.431  0.2620  0.6853 -0.8603
 4459SOL     OW25009   0.191   0.935  10.057 -0.0833  0.3201 -0.4458
 4459SOL    HW125010   0.254   0.924  10.129  0.3717  0.6059 -0.8062
 4459SOL    HW225011   0.112   0.946  10.110  1.6984  1.4463  1.9948
 4460SOL     OW25012   1.634   1.122   4.700  0.4219  0.1203  0.1454
 4460SOL    HW125013   1.577   1.090   4.631  1.1228 -3.5449  1.2682
 4460SOL    HW225014   1.581   1.182   4.752  1.1301 -1.9450  3.2976
 4461SOL     OW25015   1.211   1.828   2.492  0.2950  0.0225 -0.2392
 4461SOL    HW125016   1.127   1.810   2.535 -0.5989  0.0840 -1.9236
 4461SOL    HW225017   1.206   1.781   2.408  2.7271 -0.1384 -0.2911
 4462SOL     OW25018   4.389   2.695   2.143  0.4610  0.6801 -0.5024
 4462SOL    HW125019   4.368   2.616   2.193  1.4726  0.7096 -0.0436
 4462SOL    HW225020   4.452   2.660   2.080 -0.4054 -0.1900 -0.8984
 4463SOL     OW25021   0.902   2.728   8.665 -0.7591  0.1385  0.5079
 4463SOL    HW125022   0.994   2.705   8.683 -0.5551  1.4342  1.1332
 4463SOL    HW225023   0.882   2.761   8.753 -1.2072  0.9572  0.1005
 4464SOL     OW25024   3.263   4.056  13.596  0.0805  0.1280 -0.0562
 4464SOL    HW125025   3.356   4.059  13.616 -0.7539  1.3617  3.5421
 4464SOL    HW225026   3.245   4.150  13.594 -0.5933 -0.0011 -0.2531
 4465SOL     OW25027   3.226   4.479   7.046 -0.3219 -0.0473 -0.7276
 4465SOL    HW125028   3.185   4.528   7.118  1.1921 -0.4101  0.3718
 4465SOL    HW225029   3.142   4.443   7.016 -0.6161  0.8079 -0.9420
 4466SOL     OW25030   1.581   0.485  15.836 -0.0622  0.4088  0.8028
 4466SOL    HW125031   1.672   0.467  15.811 -0.9074 -0.9124 -1.3487
 4466SOL    HW225032   1.535   0.478  15.752  0.3338  1.9284  0.4590
 4467SOL     OW25033   3.749   2.995   9.282 -0.3206 -0.4776  0.6144
 4467SOL    HW125034   3.811   3.002   9.209 -1.4725 -0.0848 -0.3360
 4467SOL    HW225035   3.815   3.022   9.346 -1.2838  3.9952 -0.2993
 4468SOL     OW25036   2.311   4.054   0.456 -0.4529  0.3795  0.2553
 4468SOL    HW125037   2.235   4.068   0.400 -0.5912  1.5952  0.7409
 4468SOL    HW225038   2.366   4.007   0.393 -0.2020  1.6211 -0.4628
 4469SOL     OW25039   2.341   3.499   1.954 -0.5472 -0.3375  0.1106
 4469SOL    HW125040   2.247   3.490   1.939 -0.5397  0.6338 -0.5297
 4469SOL    HW225041   2.349   3.595   1.955 -1.8495 -0.2137 -0.3776
 4470SOL     OW25042   1.003   3.984   9.943  0.0137 -0.2122 -0.9518
 4470SOL    HW125043   1.073   4.036   9.981 -0.6689  0.3182 -0.4117
 4470SOL    HW225044   0.925   4.022   9.984  0.8412  1.6560 -1.1637
 4471SOL     OW25045   2.728   0.291  15.609  0.2960 -0.4163 -0.1080
 4471SOL    HW125046   2.765   0.244  15.684  1.4667 -0.2650 -0.5984
 4471SOL    HW225047   2.638   0.261  15.619  0.1229 -0.1095 -0.7891
 4472SOL     OW25048   0.904   3.870   0.642  0.2787 -0.4840  0.2606
 4472SOL    HW125049   0.919   3.965   0.641  1.5743 -0.6566  2.3495
 4472SOL    HW225050   0.864   3.856   0.556 -1.7317  0.4800  1.0245
 4473SOL     OW25051   0.334   0.903   3.498  0.2258  0.2020  0.0251
 4473SOL    HW125052   0.279   0.977   3.473  0.9899 -0.2350 -2.9252
 4473SOL    HW225053   0.269   0.844   3.537 -0.4694 -0.5817 -2.2776
 4474SOL     OW25054   3.658   1.088  14.359 -0.5135 -0.3815  0.2089
 4474SOL    HW125055   3.710   1.135  14.294 -0.9746 -0.4430 -0.2019
 4474SOL    HW225056   3.725   1.034  14.402  1.7575  1.7849 -0.5913
 4475SOL     OW25057   2.051   0.983   3.806  0.2398 -0.1992  0.1377
 4475SOL    HW125058   2.121   1.003   3.868  0.6739 -0.1855 -0.3535
 4475SOL    HW225059   2.036   1.073   3.775  0.1433 -1.1864 -2.6556
 4476SOL     OW25060   0.829   3.435  15.754 -0.0187 -0.0528 -0.5851
 4476SOL    HW125061   0.919   3.464  15.765 -0.1761  0.7863 -1.5108
 4476SOL    HW225062   0.832   3.363  15.817  1.1360  0.0072 -0.5731
 4477SOL     OW25063   1.354   2.141   5.396 -0.2066 -0.7472  0.0698
 4477SOL    HW125064   1.425   2.204   5.396 -2.5629  1.9084  0.0019
 4477SOL    HW225065   1.350   2.126   5.302  3.1732  0.1482 -0.1892
 4478SOL     OW25066   3.508   0.156   5.294 -0.3541  0.2831  0.5777
 4478SOL    HW125067   3.587   0.172   5.242 -1.1661  1.8655 -0.1716
 4478SOL    HW225068   3.455   0.226   5.255  0.4410 -0.7935 -2.4568
 4479SOL     OW25069   3.045   3.783   3.839 -0.5690  0.3339 -0.3183
 4479SOL    HW125070   3.028   3.698   3.797  2.4373 -0.1267 -0.6049
 4479SOL    HW225071   3.058   3.761   3.932 -0.4569 -0.6074 -0.5572
 4480SOL     OW25072   1.054   4.614  12.712  0.6411 -0.2804  0.5575
 4480SOL    HW125073   1.092   4.629  12.625 -2.2113  0.5867 -0.5376
 4480SOL    HW225074   1.093   4.529  12.734 -1.3233 -1.4831 -0.6132
 4481SOL     OW25075   3.543   4.599  17.605  0.1251 -0.4959  0.0233
 4481SOL    HW125076   3.637   4.604  17.623 -0.2179  0.9697  1.4573
 4481SOL    HW225077   3.541   4.529  17.541 -0.2151 -1.6618  1.3101
 4482SOL     OW25078   3.017   1.492   4.965  0.1558 -0.3592  0.3834
 4482SOL    HW125079   3.055   1.411   4.931  0.7432  1.0948 -2.4073
 4482SOL    HW225080   3.001   1.462   5.055  0.6375 -0.2431  0.5082
 4483SOL     OW25081   1.479   3.582   4.218  0.0813 -0.0060  0.2791
 4483SOL    HW125082   1.435   3.595   4.134  0.4035 -0.2869  0.0676
 4483SOL    HW225083   1.527   3.664   4.224  0.6137 -0.3249  0.3967
 4484SOL     OW25084   1.305   4.283   7.979 -0.3018 -0.2573  0.4253
 4484SOL    HW125085   1.250   4.260   8.053 -1.6901  2.9220  0.3790
 4484SOL    HW225086   1.304   4.201   7.928 -0.7760 -0.3945  0.6577
 4485SOL     OW25087   4.502   2.244   6.337  0.1588  0.5053 -0.2839
 4485SOL    HW125088   4.419   2.246   6.291 -0.2558 -1.9473  0.3401
 4485SOL    HW225089   4.512   2.337   6.357  3.2190  0.8327 -3.3644
 4486SOL     OW25090   4.406   2.694   3.288 -0.0825 -0.2628  0.0662
 4486SOL    HW125091   4.357   2.646   3.222 -2.9159 -0.3166  2.1881
 4486SOL    HW225092   4.334   2.746   3.324  1.0003  3.1460 -2.6365
 4487SOL     OW25093   2.894   4.235  17.634  0.5457 -0.1524  0.1282
 4487SOL    HW125094   2.813   4.217  17.586  0.7524 -2.2026  0.5526
 4487SOL    HW225095   2.951   4.235  17.557 -0.9338  2.4760 -0.9659
 4488SOL     OW25096   2.700   0.466   0.033  0.0138  0.4863 -0.1195
 4488SOL    HW125097   2.677   0.468  17.686  1.6872 -1.5343 -0.5690
 4488SOL    HW225098   2.742   0.380   0.039 -1.1385 -0.2271 -2.4772
 4489SOL     OW25099   3.047   2.535   4.966  0.2577  0.1227 -0.0414
 4489SOL    HW125100   2.975   2.482   5.000 -0.3639  2.0591  1.7177
 4489SOL    HW225101   3.116   2.476   4.935 -0.4465 -0.1162 -1.1391
 4490SOL     OW25102   0.327   3.874   9.147 -0.3860  0.1047 -0.9222
 4490SOL    HW125103   0.271   3.904   9.219 -0.3940  0.5053 -1.0963
 4490SOL    HW225104   0.352   3.786   9.175  1.5854  0.4107 -1.7175
 4491SOL     OW25105   0.528   2.211   7.900  0.5090  0.0788  0.1422
 4491SOL    HW125106   0.570   2.216   7.986 -1.1272 -0.9679  1.0034
 4491SOL    HW225107   0.455   2.160   7.936  2.1512 -1.7809  0.8164
 4492SOL     OW25108   0.882   4.066   3.500 -0.0983 -0.0542 -0.4305
 4492SOL    HW125109   0.873   4.088   3.407  0.1791 -4.1306 -1.4059
 4492SOL    HW225110   0.953   4.002   3.496 -1.4380 -1.7026  2.1748
 4493SOL     OW25111   0.137   1.119  11.121 -0.0517  0.0219 -0.1423
 4493SOL    HW125112   0.057   1.117  11.174 -1.4400 -1.4910 -2.2868
 4493SOL    HW225113   0.198   1.060  11.164 -0.3095  0.2620  0.5597
 4494SOL     OW25114   4.136   1.318   0.813 -0.5998  0.1477 -0.0191
 4494SOL    HW125115   4.113   1.359   0.896 -0.9777 -0.0394 -0.0317
 4494SOL    HW225116   4.199   1.389   0.797 -1.6111  1.1591  0.5212
 4495SOL     OW25117   2.280   0.212   7.239  0.3058 -0.5176  0.6012
 4495SOL    HW125118   2.369   0.232   7.267 -0.3133  0.0028  2.2249
 4495SOL    HW225119   2.258   0.147   7.305 -3.3312  1.9265  1.8517
 4496SOL     OW25120   3.688   2.888   9.976  0.1911  0.2266  0.5401
 4496SOL    HW125121   3.783   2.876   9.969  0.3230  0.7989  1.2705
 4496SOL    HW225122   3.663   2.850   9.892  1.1929 -0.5949  0.6180
 4497SOL     OW25123   3.037   0.668   5.261 -0.1335  0.1385  0.6330
 4497SOL    HW125124   3.103   0.737   5.266 -1.2827  1.2918 -0.0106
 4497SOL    HW225125   3.053   0.622   5.178 -0.9166  1.6130 -0.3379
 4498SOL     OW25126   0.361   4.327   4.229 -0.1681  0.5170 -0.3331
 4498SOL    HW125127   0.451   4.304   4.252 -0.5983 -1.5132 -0.6977
 4498SOL    HW225128   0.323   4.344   4.315  0.7292  1.9391 -0.2192
 4499SOL     OW25129   3.142   1.081   3.891 -0.1841 -0.1246  0.6179
 4499SOL    HW125130   3.188   1.133   3.957  0.4755  1.1558 -0.8494
 4499SOL    HW225131   3.099   1.017   3.947  1.6986  0.0002  2.2128
 4500SOL     OW25132   0.974   1.352  12.499  0.2306 -0.3820  0.2947
 4500SOL    HW125133   1.042   1.361  12.433 -0.7730 -1.5131 -0.8771
 4500SOL    HW225134   1.015   1.379  12.581 -1.3295  2.1621  0.2397
 4501SOL     OW25135   1.441   1.177   3.924  0.0442 -0.2842 -0.0990
 4501SOL    HW125136   1.518   1.121   3.930  0.3623 -0.1099 -2.3085
 4501SOL    HW225137   1.404   1.139   3.844  1.0336 -0.5203 -0.4492
 4502SOL     OW25138   2.229   3.563  14.921  0.3301  0.6666 -0.4859
 4502SOL    HW125139   2.171   3.487  14.932  1.7417 -0.5538 -1.5861
 4502SOL    HW225140   2.309   3.524  14.956 -0.9796 -1.2381  0.4480
 4503SOL     OW25141   3.975   0.099   7.731  0.0385 -0.6520 -0.4959
 4503SOL    HW125142   3.994   0.183   7.688  1.5000 -1.1161 -0.7629
 4503SOL    HW225143   3.983   0.130   7.821  1.8584 -1.5644 -0.3303
 4504SOL     OW25144   2.887   1.958  14.835  0.2668 -0.0399  0.6008
 4504SOL    HW125145   2.915   1.870  14.859 -0.2099 -1.0454 -2.4933
 4504SOL    HW225146   2.800   1.944  14.798 -0.1300  0.8664  1.2017
 4505SOL     OW25147   4.356   0.920   3.523 -0.1281  0.3957 -0.0040
 4505SOL    HW125148   4.437   0.910   3.475  0.4039  3.1348  0.3376
 4505SOL    HW225149   4.345   1.012   3.548  3.0911  1.1327 -1.3175
 4506SOL     OW25150   3.218   3.897   1.850 -0.3878  0.0451 -0.3804
 4506SOL    HW125151   3.198   3.944   1.769 -0.0925 -1.6018 -1.4090
 4506SOL    HW225152   3.313   3.896   1.857 -0.4929 -1.7181  0.8400
 4507SOL     OW25153   3.447   2.418   4.092  0.2234 -0.2986  0.5256
 4507SOL    HW125154   3.352   2.425   4.088  0.0920 -2.9124 -1.2186
 4507SOL    HW225155   3.460   2.446   4.182 -0.2791 -1.8190  1.0622
 4508SOL     OW25156   0.558   4.736   2.202 -0.4718  0.4886  0.4451
 4508SOL    HW125157   0.584   0.075   2.255 -0.2088  0.7676 -0.0814
 4508SOL    HW225158   0.649   4.715   2.183 -1.0180 -3.1249  1.9006
 4509SOL     OW25159   2.193   2.611   8.524 -0.2624  0.1680 -0.3945
 4509SOL    HW125160   2.288   2.617   8.525 -0.2473 -0.0353 -1.1776
 4509SOL    HW225161   2.176   2.544   8.458  1.4223 -1.0685  0.4438
 4510SOL     OW25162   2.770   3.623   3.745  0.0206  0.8668 -0.1155
 4510SOL    HW125163   2.816   3.600   3.664 -1.5476 -1.8695 -0.2195
 4510SOL    HW225164   2.773   3.540   3.792 -0.4661  0.5990 -0.5611
 4511SOL     OW25165   4.293   0.969   5.921  0.2327  0.6679 -0.2399
 4511SOL    HW125166   4.384   0.960   5.950 -0.3656 -2.7062  0.6351
 4511SOL    HW225167   4.260   0.959   6.010  0.8975 -1.4783 -0.2195
 4512SOL     OW25168   0.718   0.955   1.503 -0.1270  0.5608 -0.5987
 4512SOL    HW125169   0.770   0.966   1.583 -0.8925 -1.9349  0.2251
 4512SOL    HW225170   0.788   0.988   1.446  0.8266 -1.8583 -0.8368
 4513SOL     OW25171   2.591   3.839   6.187  0.4351 -0.3519 -0.4527
 4513SOL    HW125172   2.534   3.907   6.222  1.0630 -1.2061  2.1933
 4513SOL    HW225173   2.561   3.771   6.248  0.3772  0.1118  0.0323
 4514SOL     OW25174   0.081   0.800   0.911  0.1400 -0.2852  0.2028
 4514SOL    HW125175   0.132   0.882   0.910 -0.6861  0.2141 -0.5518
 4514SOL    HW225176   0.095   0.775   0.820  1.1707  0.8124  0.0427
 4515SOL     OW25177   3.156   3.021   4.082  0.6632 -0.1882  0.0960
 4515SOL    HW125178   3.138   3.077   4.158  0.6859  0.8606 -0.6621
 4515SOL    HW225179   3.072   2.978   4.069 -0.4419  1.3942  1.9408
 4516SOL     OW25180   1.482   0.370   7.843 -0.7680 -0.7557 -0.4574
 4516SOL    HW125181   1.448   0.447   7.798 -0.6682 -0.6464 -0.3435
 4516SOL    HW225182   1.518   0.319   7.770  0.5696  0.0262 -0.3282
 4517SOL     OW25183   0.967   4.565   9.929  0.0935  0.2662  0.5687
 4517SOL    HW125184   0.874   4.550   9.944 -0.5070  0.7045 -2.6454
 4517SOL    HW225185   1.002   4.525  10.009 -0.2259  0.5172  0.8321
 4518SOL     OW25186   3.125   3.928  13.787 -0.1229 -0.0654  0.2235
 4518SOL    HW125187   3.184   3.979  13.732 -3.1640 -0.4724 -3.4025
 4518SOL    HW225188   3.157   3.839  13.776  0.6557 -0.1143  2.7754
 4519SOL     OW25189   0.563   3.891   3.723  0.1329 -0.1433  0.0876
 4519SOL    HW125190   0.624   3.866   3.792 -1.4951  0.1640  1.6242
 4519SOL    HW225191   0.479   3.863   3.760 -0.0174  0.7927  0.4523
 4520SOL     OW25192   2.907   0.914   7.249  0.0215 -0.3318  0.5073
 4520SOL    HW125193   3.001   0.910   7.233  0.1653  2.7597  0.5574
 4520SOL    HW225194   2.891   0.986   7.309 -1.6773  0.4762 -0.8835
 4521SOL     OW25195   2.204   3.276  17.184  0.6449  0.0434  0.3819
 4521SOL    HW125196   2.289   3.236  17.166 -0.2561 -2.0933  0.8678
 4521SOL    HW225197   2.165   3.208  17.240  2.0474 -0.4605  0.7281
 4522SOL     OW25198   0.317   1.467   2.319  0.2989 -0.1202 -0.1675
 4522SOL    HW125199   0.338   1.432   2.406 -1.5746  1.1249  0.7831
 4522SOL    HW225200   0.398   1.445   2.272  0.6275  1.6841 -0.4163
 4523SOL     OW25201   3.316   0.133   4.559  0.4410 -0.1144  0.2428
 4523SOL    HW125202   3.393   0.076   4.565 -0.2739 -0.9214  1.7088
 4523SOL    HW225203   3.313   0.137   4.463 -0.0601  2.1119  0.3530
 4524SOL     OW25204   0.114   0.303  14.406 -0.0457  0.3367 -0.2680
 4524SOL    HW125205   0.096   0.369  14.339 -0.1217 -2.0589 -2.5999
 4524SOL    HW225206   0.201   0.279  14.376  1.2546  0.8689  3.0653
 4525SOL     OW25207   1.965   2.202   5.793  0.0647 -0.2623  0.3803
 4525SOL    HW125208   1.914   2.123   5.775 -0.9629  0.5285 -0.1502
 4525SOL    HW225209   1.969   2.204   5.888 -3.0303 -1.9683  0.5499
 4526SOL     OW25210   0.351   1.393  10.438  0.4379 -0.0448  0.2262
 4526SOL    HW125211   0.435   1.361  10.406  1.6553  1.4750  1.9260
 4526SOL    HW225212   0.297   1.314  10.441  0.2218  0.1280  0.9352
 4527SOL     OW25213   4.063   2.267   8.240  0.6132 -0.1393  0.0361
 4527SOL    HW125214   4.028   2.178   8.241 -0.1144  0.1582  0.5725
 4527SOL    HW225215   4.125   2.273   8.167  1.6817 -0.2816  0.9319
 4528SOL     OW25216   0.746   3.215   6.280 -0.7469  0.1288 -0.0397
 4528SOL    HW125217   0.732   3.137   6.334  0.4349 -0.6127 -0.8265
 4528SOL    HW225218   0.816   3.183   6.223 -2.4557 -2.2315 -0.8549
 4529SOL     OW25219   0.152   1.507   6.722 -0.3187 -0.2367 -0.1237
 4529SOL    HW125220   0.196   1.525   6.639 -1.2241  2.2222 -0.0927
 4529SOL    HW225221   0.070   1.471   6.689 -0.2350 -0.1648 -0.4114
 4530SOL     OW25222   1.144   4.218  13.215 -0.6099 -0.3204  0.0532
 4530SOL    HW125223   1.063   4.183  13.252 -0.3402 -0.9340  0.0604
 4530SOL    HW225224   1.185   4.240  13.298 -0.4016 -2.1585  0.4418
 4531SOL     OW25225   3.317   1.699  15.322 -0.1435  0.1102  0.2617
 4531SOL    HW125226   3.260   1.765  15.282  0.3501  1.0485  1.0882
 4531SOL    HW225227   3.313   1.719  15.416 -0.3947  2.0237 -0.1513
 4532SOL     OW25228   2.111   1.712   5.677  0.7414 -0.0217  0.5726
 4532SOL    HW125229   2.048   1.771   5.719 -0.7455 -0.9444 -0.3178
 4532SOL    HW225230   2.193   1.760   5.678  1.1489 -0.7202  0.5353
 4533SOL     OW25231   1.026   3.861   3.871  0.3946  0.1320 -0.6545
 4533SOL    HW125232   1.039   3.877   3.965  1.4661  0.4336 -0.8533
 4533SOL    HW225233   1.115   3.881   3.841 -0.1225  1.9642 -0.9574
 4534SOL     OW25234   3.924   0.394   2.648 -0.0800 -0.8096  0.5297
 4534SOL    HW125235   4.009   0.429   2.674 -0.3473  0.5599 -0.4822
 4534SOL    HW225236   3.860   0.459   2.675  1.7123  0.9223  0.5728
 4535SOL     OW25237   0.244   0.415   7.913 -0.4278 -0.2426 -0.2293
 4535SOL    HW125238   0.288   0.493   7.881 -0.8337 -0.6326 -1.7291
 4535SOL    HW225239   0.308   0.349   7.885  2.0824  2.2561 -0.3168
 4536SOL     OW25240   3.968   2.001   8.167  0.3702  0.0598 -0.2361
 4536SOL    HW125241   3.891   2.055   8.147 -1.8899 -2.8685  0.4228
 4536SOL    HW225242   3.959   1.926   8.108  1.0461  1.2809 -1.8825
 4537SOL     OW25243   3.826   1.953  12.210  0.0456 -0.0101 -0.1868
 4537SOL    HW125244   3.889   1.954  12.283 -0.1725 -0.8073  0.0164
 4537SOL    HW225245   3.867   2.010  12.146  1.7805 -1.4011 -0.3292
 4538SOL     OW25246   4.644   0.202  13.888  0.3821  0.5537  0.0836
 4538SOL    HW125247   4.604   0.123  13.925  0.5806 -0.4765 -1.9120
 4538SOL    HW225248   0.000   0.184  13.899  0.4966  1.5967  0.8454
 4539SOL     OW25249   2.915   4.637   3.428 -0.4997 -0.6085  0.2177
 4539SOL    HW125250   2.931   4.588   3.347  1.7107  0.9497 -0.2933
 4539SOL    HW225251   2.989   4.616   3.484 -3.2913 -1.1866  3.6704
 4540SOL     OW25252   3.361   1.256  14.337 -0.2009 -0.6392 -0.0629
 4540SOL    HW125253   3.361   1.350  14.355  0.6772 -0.9354  1.4702
 4540SOL    HW225254   3.318   1.253  14.252  0.4855 -1.9839 -0.3693
 4541SOL     OW25255   0.883   1.145   3.886 -0.3818  0.1839 -0.0584
 4541SOL    HW125256   0.878   1.222   3.829 -1.8747 -0.0111 -0.1804
 4541SOL    HW225257   0.961   1.107   3.844 -0.1635 -0.0589  0.5628
 4542SOL     OW25258   0.181   0.271  11.251 -0.3426  0.0652  0.1195
 4542SOL    HW125259   0.248   0.318  11.300  1.4529 -0.5995 -1.7033
 4542SOL    HW225260   0.100   0.301  11.293 -0.8128 -1.5513  0.3683
 4543SOL     OW25261   3.991   3.782   3.887  0.0738  0.4175  0.4444
 4543SOL    HW125262   4.080   3.792   3.853 -0.0763  0.9226  0.1981
 4543SOL    HW225263   3.963   3.731   3.812 -0.7026  0.0363  0.9980
 4544SOL     OW25264   1.377   0.391  10.168 -0.4554  0.3461  0.3929
 4544SOL    HW125265   1.293   0.425  10.200 -0.4096  1.2590 -0.4667
 4544SOL    HW225266   1.428   0.398  10.248 -1.3147  1.3924  0.8499
 4545SOL     OW25267   2.876   1.429   9.188  0.8138  0.2270 -0.1130
 4545SOL    HW125268   2.885   1.348   9.239  1.2678  0.5009  0.2431
 4545SOL    HW225269   2.781   1.441   9.194  0.6163 -0.8612 -1.0246
 4546SOL     OW25270   2.615   3.975   4.406 -0.5562 -0.7739 -0.4939
 4546SOL    HW125271   2.606   3.886   4.439  1.7165 -1.4965 -1.8278
 4546SOL    HW225272   2.629   3.963   4.312  0.1674 -2.7589 -0.1303
 4547SOL     OW25273   1.648   1.533   0.649 -0.4308 -0.1456 -0.4319
 4547SOL    HW125274   1.580   1.501   0.590 -0.2509  0.3067 -0.8811
 4547SOL    HW225275   1.709   1.460   0.644  0.9618  0.8442  1.9955
 4548SOL     OW25276   3.031   2.717   7.367  0.1381 -0.0663  0.3818
 4548SOL    HW125277   2.957   2.758   7.322  0.0166  1.4041  1.8667
 4548SOL    HW225278   3.058   2.657   7.298 -1.4487  2.1520 -2.1973
 4549SOL     OW25279   3.947   0.245   8.991 -0.3214  0.3216  0.3002
 4549SOL    HW125280   3.962   0.259   9.084 -2.1228 -0.3111  0.6826
 4549SOL    HW225281   3.859   0.209   8.988  0.0467 -0.2110 -4.0759
 4550SOL     OW25282   1.914   3.890  17.635 -0.0471  0.4974 -0.1228
 4550SOL    HW125283   1.971   3.881  17.711 -1.2596  0.3791  0.7914
 4550SOL    HW225284   1.961   3.837  17.571 -1.5449 -2.1716  0.9834
 4551SOL     OW25285   2.418   3.065   4.576  0.8361 -0.2395  0.1588
 4551SOL    HW125286   2.489   3.118   4.542  0.2517  0.1924 -0.4066
 4551SOL    HW225287   2.462   3.014   4.644  0.4920 -1.1662 -0.3030
 4552SOL     OW25288   2.891   0.634  12.305 -0.8929  0.4227  0.7244
 4552SOL    HW125289   2.867   0.722  12.277 -1.5618 -0.5736 -1.7991
 4552SOL    HW225290   2.803   0.596  12.307 -0.7923  0.1046 -1.3251
 4553SOL     OW25291   1.341   4.421   0.411  0.3417  0.0784  0.1629
 4553SOL    HW125292   1.331   4.360   0.484 -1.4086 -0.2825 -0.3860
 4553SOL    HW225293   1.390   4.496   0.444 -3.8876  3.2776 -0.7934
 4554SOL     OW25294   3.801   2.563   4.573 -0.2186  0.0557  0.5383
 4554SOL    HW125295   3.818   2.619   4.498 -1.2725 -1.5478 -0.8776
 4554SOL    HW225296   3.734   2.620   4.610 -0.1465  0.4034  0.1367
 4555SOL     OW25297   2.353   3.665   5.001  0.0171 -0.2187  0.4114
 4555SOL    HW125298   2.321   3.619   5.078  0.8302 -1.7452 -0.1703
 4555SOL    HW225299   2.442   3.633   4.990 -0.1485 -0.7473  0.6484
 4556SOL     OW25300   1.449   0.252   4.826 -0.0612 -0.2894  0.0193
 4556SOL    HW125301   1.452   0.177   4.885  2.6945 -0.1536  0.0379
 4556SOL    HW225302   1.543   0.272   4.827 -0.7967  3.1583 -1.0057
 4557SOL     OW25303   3.307   0.658   9.212 -0.7879  0.4893  0.1305
 4557SOL    HW125304   3.348   0.676   9.127  1.7326 -2.2862  0.7347
 4557SOL    HW225305   3.375   0.598   9.244 -2.3661 -1.1371  0.4208
 4558SOL     OW25306   2.647   2.820  11.853  0.2771  0.0398 -0.6897
 4558SOL    HW125307   2.729   2.791  11.812 -0.0877 -0.2731 -1.2018
 4558SOL    HW225308   2.637   2.765  11.931  0.1754  0.2080 -0.5843
 4559SOL     OW25309   0.244   0.898   2.013  0.1143 -0.2030  0.0102
 4559SOL    HW125310   0.338   0.908   2.023  0.0758 -0.8949  1.0821
 4559SOL    HW225311   0.221   0.958   1.942 -0.9714 -0.7672 -0.1183
 4560SOL     OW25312   2.475   2.022  10.732 -0.1995 -0.2054 -0.0330
 4560SOL    HW125313   2.501   2.086  10.798 -1.4814 -0.0314  0.3155
 4560SOL    HW225314   2.531   1.947  10.755 -0.9254 -0.3177  1.3634
 4561SOL     OW25315   1.336   1.812   7.680 -0.2160 -0.1041 -0.5152
 4561SOL    HW125316   1.249   1.849   7.664 -0.6215 -0.2101  1.4328
 4561SOL    HW225317   1.317   1.722   7.707  0.5713 -0.0858  0.0886
 4562SOL     OW25318   2.528   1.738   3.460 -0.3964  0.1690  0.0899
 4562SOL    HW125319   2.442   1.700   3.477  0.0826 -0.8820  0.1571
 4562SOL    HW225320   2.584   1.707   3.532  0.9052 -0.0974 -1.0425
 4563SOL     OW25321   1.010   2.398  10.221  0.1682  0.2832  0.3817
 4563SOL    HW125322   0.938   2.335  10.220 -1.7542  2.4573  1.1975
 4563SOL    HW225323   1.027   2.398  10.315 -1.0844 -2.8344  0.5972
 4564SOL     OW25324   2.895   4.111   2.964 -0.1267 -0.4442 -0.4073
 4564SOL    HW125325   2.933   4.024   2.950 -2.0723 -1.9919  3.6560
 4564SOL    HW225326   2.803   4.094   2.946 -0.1419  0.6242 -1.2771
 4565SOL     OW25327   1.086   1.026   9.733 -0.4381  0.0248  0.4977
 4565SOL    HW125328   1.129   0.969   9.669  0.1627 -0.5397  1.4085
 4565SOL    HW225329   1.022   0.963   9.767 -3.6759  1.4147 -2.9716
 4566SOL     OW25330   2.796   2.051  10.932  0.1167  0.4030  0.2086
 4566SOL    HW125331   2.881   2.014  10.956  0.9662  1.2916 -1.4632
 4566SOL    HW225332   2.762   2.022  11.017 -1.6123  0.4488 -0.4759
 4567SOL     OW25333   3.681   4.104   5.802  0.0550  0.3759 -0.7642
 4567SOL    HW125334   3.715   4.076   5.717 -0.5675  0.6617 -1.1058
 4567SOL    HW225335   3.611   4.159   5.767  1.1448  1.2749 -1.5494
 4568SOL     OW25336   4.603   1.928   8.884  0.4126  0.0878 -0.5185
 4568SOL    HW125337   4.532   1.992   8.875  1.3357  1.2257  0.2449
 4568SOL    HW225338   4.611   1.908   8.791 -2.6025 -1.8738 -0.3731
 4569SOL     OW25339   2.427   1.437   9.848  0.1421  0.5454  0.2198
 4569SOL    HW125340   2.473   1.425   9.765 -1.3194  1.7573 -0.7491
 4569SOL    HW225341   2.376   1.356   9.852  1.2153 -0.1060  0.7967
 4570SOL     OW25342   4.464   0.109   0.549  0.6878 -0.2408  0.5225
 4570SOL    HW125343   4.548   0.109   0.595  0.9516 -1.6078  0.0310
 4570SOL    HW225344   4.501   0.111   0.461 -1.0438 -5.1912 -0.3165
 4571SOL     OW25345   0.808   0.916  13.241  0.0426 -0.5731  0.1823
 4571SOL    HW125346   0.816   0.871  13.325  1.2461 -0.9326 -0.1285
 4571SOL    HW225347   0.880   0.886  13.185 -1.1039  1.1735 -2.2563
 4572SOL     OW25348   3.096   0.597   9.048  0.2370  0.0901  0.1590
 4572SOL    HW125349   3.145   0.624   9.126 -0.0229 -0.6884  0.5893
 4572SOL    HW225350   3.019   0.555   9.086  0.7095 -1.3271 -0.4751
 4573SOL     OW25351   3.281   0.922   3.260  0.3114 -0.0169 -0.2008
 4573SOL    HW125352   3.237   0.878   3.187  0.7112 -2.5064  1.0500
 4573SOL    HW225353   3.296   1.010   3.224  0.8361 -0.6103 -1.4445
 4574SOL     OW25354   2.969   3.134   7.258 -0.4652 -0.3391  0.2780
 4574SOL    HW125355   2.994   3.195   7.327 -3.1397 -0.6325  1.4797
 4574SOL    HW225356   3.007   3.051   7.288 -1.3778 -0.4929  1.0067
 4575SOL     OW25357   0.401   0.108   9.051 -0.4869 -0.3615 -0.6855
 4575SOL    HW125358   0.404   0.192   9.097 -0.0375 -1.3310  1.0416
 4575SOL    HW225359   0.313   0.109   9.011  0.0053  1.0918 -1.7165
 4576SOL     OW25360   3.719   1.594   6.812  0.0156 -0.0187  0.7387
 4576SOL    HW125361   3.696   1.518   6.865 -0.8585 -0.7134 -0.6269
 4576SOL    HW225362   3.809   1.598   6.845  1.4272 -0.5311 -3.0414
 4577SOL     OW25363   1.379   3.575   0.703 -0.1782 -1.2685 -0.0739
 4577SOL    HW125364   1.416   3.601   0.619  0.9994 -1.8964  0.2409
 4577SOL    HW225365   1.322   3.651   0.711  0.8920 -0.4599 -0.1672
 4578SOL     OW25366   2.017   1.873  11.398  0.1765  0.8538  0.1073
 4578SOL    HW125367   1.923   1.860  11.413  0.0863  1.6232  0.1926
 4578SOL    HW225368   2.055   1.901  11.481 -0.2099 -1.6907  1.1364
 4579SOL     OW25369   0.305   1.462  17.166  0.0523 -0.3353 -0.4828
 4579SOL    HW125370   0.360   1.397  17.208  1.2165 -0.2171 -1.8128
 4579SOL    HW225371   0.342   1.470  17.078 -0.6095  0.3510 -0.7060
 4580SOL     OW25372   0.811   0.565  16.473 -0.0588  0.0144  0.1939
 4580SOL    HW125373   0.785   0.480  16.510  2.5248 -0.6150  0.5681
 4580SOL    HW225374   0.724   0.605  16.465 -0.6016 -1.8485 -3.0726
 4581SOL     OW25375   0.112   3.583   4.491 -0.0518 -0.0495 -0.2963
 4581SOL    HW125376   0.189   3.633   4.463 -1.7292  1.5690 -1.9697
 4581SOL    HW225377   0.135   3.562   4.582  1.0398 -0.9621 -0.7835
 4582SOL     OW25378   1.888   4.048   8.920 -0.1320 -0.1017 -0.1472
 4582SOL    HW125379   1.831   4.112   8.963 -0.4497 -0.7593  0.4023
 4582SOL    HW225380   1.933   4.017   8.998 -0.5273  2.1462  0.9864
 4583SOL     OW25381   1.330   4.076   9.197 -0.2409 -0.2266  0.2492
 4583SOL    HW125382   1.263   4.092   9.264 -0.0744 -0.4730  0.4772
 4583SOL    HW225383   1.395   4.024   9.244 -0.2588 -0.0028  0.5263
 4584SOL     OW25384   3.961   3.740   2.033  0.1210 -0.3509  0.5921
 4584SOL    HW125385   4.052   3.712   2.026 -0.2017 -1.2234 -0.2260
 4584SOL    HW225386   3.980   3.831   2.056 -0.7773  0.0186 -0.1153
 4585SOL     OW25387   3.119   0.786  10.337  0.2445 -0.1945  0.5547
 4585SOL    HW125388   3.139   0.778  10.244  3.0876  2.2478  0.9567
 4585SOL    HW225389   3.107   0.881  10.330 -2.4196 -0.5818 -0.0568
 4586SOL     OW25390   1.450   4.726   4.958  0.0007 -0.1321 -0.2267
 4586SOL    HW125391   1.422   4.645   4.917  1.2779 -0.0291 -1.3075
 4586SOL    HW225392   1.500   4.693   5.033 -0.9394  1.0038  0.9090
 4587SOL     OW25393   3.288   1.772  17.513 -0.0550  0.6374 -0.6048
 4587SOL    HW125394   3.375   1.801  17.487 -0.4198 -0.8433 -3.4973
 4587SOL    HW225395   3.257   1.725  17.436  0.1417 -0.8787  0.2435
 4588SOL     OW25396   1.643   1.528   1.383  0.6378 -0.2193  0.3031
 4588SOL    HW125397   1.728   1.497   1.352  0.2893 -0.7713 -0.0861
 4588SOL    HW225398   1.589   1.551   1.308 -0.2579 -2.5064  0.2474
 4589SOL     OW25399   2.918   2.199   0.824 -0.1134  0.0035  0.0481
 4589SOL    HW125400   2.885   2.228   0.909 -1.3528 -4.1391  0.9571
 4589SOL    HW225401   2.882   2.263   0.762 -0.5318 -2.2550 -2.0417
 4590SOL     OW25402   0.825   2.868   4.841 -0.6807  0.0412 -0.4491
 4590SOL    HW125403   0.738   2.853   4.877 -0.1117 -2.1453 -0.0131
 4590SOL    HW225404   0.874   2.857   4.922  0.6822 -0.6847 -1.3813
 4591SOL     OW25405   1.512   4.664   1.822 -0.5465  0.4392  0.1290
 4591SOL    HW125406   1.562   0.003   1.794  0.1761  0.1516  0.6449
 4591SOL    HW225407   1.432   4.681   1.773  0.3126  1.0113 -1.0718
 4592SOL     OW25408   1.055   1.622  12.985 -0.5554 -0.0656 -0.0783
 4592SOL    HW125409   0.995   1.624  13.060 -1.3576  0.3105 -0.7209
 4592SOL    HW225410   1.052   1.710  12.948  2.1513 -0.1045 -0.3845
 4593SOL     OW25411   1.384   3.141   5.293  0.4014  0.1491 -0.2558
 4593SOL    HW125412   1.369   3.235   5.297  0.9715  0.2266  0.1072
 4593SOL    HW225413   1.474   3.133   5.326 -0.4486  1.4714  2.3520
 4594SOL     OW25414   3.834   0.952   2.991  0.3196  0.2500  0.1455
 4594SOL    HW125415   3.768   0.990   2.934  0.5488 -2.2101 -1.7882
 4594SOL    HW225416   3.856   1.020   3.054  1.4999  1.9538 -2.1038
 4595SOL     OW25417   1.921   3.644   3.326  0.4551 -0.2856 -0.1627
 4595SOL    HW125418   1.904   3.726   3.280 -0.3961 -1.3595 -1.7610
 4595SOL    HW225419   2.014   3.636   3.346  0.0575  0.0304  1.8027
 4596SOL     OW25420   3.550   3.094   2.229  0.5258 -0.4649  0.2035
 4596SOL    HW125421   3.642   3.083   2.253  0.8970 -0.7720 -1.3668
 4596SOL    HW225422   3.525   3.002   2.233  0.2097 -0.4364 -1.2304
 4597SOL     OW25423   0.950   4.553   4.559  0.0130  0.5468  0.4328
 4597SOL    HW125424   0.888   4.515   4.622 -1.5124  2.1437 -0.0894
 4597SOL    HW225425   1.032   4.534   4.605  1.3583  2.1229 -1.3424
 4598SOL     OW25426   3.332   2.685   3.157 -0.0288 -0.1206  0.2413
 4598SOL    HW125427   3.312   2.655   3.246 -0.0841  0.9701  0.6021
 4598SOL    HW225428   3.246   2.713   3.126 -0.9614 -2.2853  0.8976
 4599SOL     OW25429   1.981   4.214  15.278  0.2662 -0.3907 -0.2274
 4599SOL    HW125430   2.044   4.236  15.210  1.2480 -0.1423  0.7566
 4599SOL    HW225431   1.992   4.125  15.311 -2.0912 -0.7885 -0.5100
 4600SOL     OW25432   2.933   4.060   6.601  0.2903  0.0796  0.1661
 4600SOL    HW125433   2.938   4.126   6.532  0.9407 -0.8996 -0.7218
 4600SOL    HW225434   2.884   4.088   6.678  1.6200 -0.2095  1.1059
 4601SOL     OW25435   2.987   1.623   4.021 -0.0120 -0.3158 -0.0117
 4601SOL    HW125436   2.965   1.584   4.105  0.5470 -0.1410  0.2113
 4601SOL    HW225437   2.953   1.559   3.958  1.0220 -2.7825  1.9774
 4602SOL     OW25438   4.049   0.067   9.660  0.7895  0.0007 -0.6703
 4602SOL    HW125439   4.048   0.102   9.749  1.0751 -1.0905 -0.2313
 4602SOL    HW225440   4.120   0.004   9.672  0.0892 -0.4134  1.2203
 4603SOL     OW25441   0.124   0.981   2.975  0.8445 -0.2592  0.3093
 4603SOL    HW125442   0.097   1.072   2.961  0.9271 -0.7297 -2.9404
 4603SOL    HW225443   0.045   0.941   3.010  0.8871 -0.8434 -0.2661
 4604SOL     OW25444   1.182   2.303   4.030 -0.2471  0.2612 -0.3185
 4604SOL    HW125445   1.120   2.376   4.028  0.1588  0.5972 -0.6958
 4604SOL    HW225446   1.187   2.287   4.125 -0.8454 -0.6604 -0.4448
 4605SOL     OW25447   4.036   3.586   1.757  0.0816 -0.3582 -0.1038
 4605SOL    HW125448   4.091   3.630   1.692 -1.6473  0.2092 -1.1620
 4605SOL    HW225449   4.024   3.494   1.736 -0.1580  0.3335 -2.8940
 4606SOL     OW25450   1.091   2.033   2.314  0.1984  0.0656 -0.2414
 4606SOL    HW125451   1.161   2.003   2.373 -0.4630  3.2409  2.1401
 4606SOL    HW225452   1.109   1.970   2.244 -1.3162 -0.9748  0.3032
 4607SOL     OW25453   2.277   4.109   2.917 -0.3848 -0.0548  0.1392
 4607SOL    HW125454   2.319   4.068   2.842 -0.9614  0.0479 -0.2446
 4607SOL    HW225455   2.347   4.166   2.949  1.3952 -2.5342  0.6476
 4608SOL     OW25456   0.663   4.448   7.264 -0.1590 -0.3084  0.4558
 4608SOL    HW125457   0.717   4.510   7.215  0.3608  1.0869  2.7736
 4608SOL    HW225458   0.632   4.394   7.192 -0.5531 -0.3298  0.6429
 4609SOL     OW25459   0.882   3.863   9.750  0.1689  0.0564  0.5361
 4609SOL    HW125460   0.844   3.787   9.793 -0.8575  0.2711  0.0111
 4609SOL    HW225461   0.926   3.903   9.825  0.0650  0.5419  0.3379
 4610SOL     OW25462   4.609   4.281   2.690  0.1573  0.2813 -0.0594
 4610SOL    HW125463   4.565   4.244   2.614  0.8811  0.4116 -0.5488
 4610SOL    HW225464   4.646   4.364   2.658 -0.9717  0.5600 -0.6088
 4611SOL     OW25465   1.926   4.506   1.840 -0.1868  0.2017 -0.4170
 4611SOL    HW125466   1.991   4.576   1.841  0.1209 -0.0953  0.3902
 4611SOL    HW225467   1.980   4.429   1.860 -1.7707 -1.0143 -0.7920
 4612SOL     OW25468   1.552   3.215  11.290 -0.1865 -0.3348  0.3502
 4612SOL    HW125469   1.486   3.153  11.321  0.5369 -0.6412  1.2890
 4612SOL    HW225470   1.593   3.160  11.224 -1.0004  0.4706 -0.8259
 4613SOL     OW25471   1.658   2.038   5.800 -0.8531  0.5732 -0.4291
 4613SOL    HW125472   1.625   2.084   5.877 -0.2600 -0.8625  0.6767
 4613SOL    HW225473   1.640   1.945   5.814  0.1143  0.2790 -1.1648
 4614SOL     OW25474   3.502   3.283   1.666 -0.4275  0.1679 -0.1399
 4614SOL    HW125475   3.534   3.318   1.582  0.3877 -2.6430 -1.0107
 4614SOL    HW225476   3.549   3.350   1.717  1.4320 -0.1392 -1.4215
 4615SOL     OW25477   0.915   0.063   2.809  0.1289 -0.5314 -0.2006
 4615SOL    HW125478   1.002   0.057   2.771 -0.3598 -0.9403 -1.2673
 4615SOL    HW225479   0.904   0.156   2.793 -1.0028 -0.4039  1.3543
 4616SOL     OW25480   0.188   0.269  10.378 -0.3086 -0.2833  0.3886
 4616SOL    HW125481   0.109   0.301  10.336 -0.5613  1.9862  2.5715
 4616SOL    HW225482   0.215   0.348  10.425 -0.5887 -0.7328  1.3258
 4617SOL     OW25483   1.159   2.477   9.022 -0.3605 -0.1390 -0.3037
 4617SOL    HW125484   1.233   2.416   9.020 -0.0550  0.2861 -2.1836
 4617SOL    HW225485   1.159   2.506   9.113 -0.5480 -1.7600  0.2175
 4618SOL     OW25486   0.533   3.582   7.956 -0.1175 -0.1051 -0.1113
 4618SOL    HW125487   0.474   3.621   8.022 -0.3572  0.2411 -0.5295
 4618SOL    HW225488   0.609   3.639   7.966  1.4737 -1.8169 -2.5791
 4619SOL     OW25489   2.904   1.071   5.690 -0.3950 -0.5092 -0.4283
 4619SOL    HW125490   2.887   1.081   5.783 -1.0212  2.4846 -0.8818
 4619SOL    HW225491   2.905   0.975   5.689 -1.2097 -0.5221  1.2183
 4620SOL     OW25492   1.800   3.098   0.890 -0.2511  0.0460 -0.1406
 4620SOL    HW125493   1.845   3.090   0.974 -1.8152 -0.0845  0.6727
 4620SOL    HW225494   1.875   3.101   0.830 -0.1304  2.5647  0.1342
 4621SOL     OW25495   0.191   1.788   5.244 -0.7236 -0.1838 -0.0226
 4621SOL    HW125496   0.251   1.810   5.316 -1.0975  0.0928  0.2014
 4621SOL    HW225497   0.167   1.875   5.213  0.3445  0.4225  0.8235
 4622SOL     OW25498   3.087   2.576  12.389  0.3547  0.2743  0.5949
 4622SOL    HW125499   3.151   2.638  12.422 -0.2377  0.3063  1.6894
 4622SOL    HW225500   3.141   2.502  12.362  1.2619  1.0810  0.2144
 4623SOL     OW25501   4.052   3.848   9.016  0.3499 -0.2067  0.4747
 4623SOL    HW125502   4.025   3.892   8.936 -1.2603 -2.0445 -0.0087
 4623SOL    HW225503   3.970   3.810   9.048 -0.7508  1.6793 -0.1253
 4624SOL     OW25504   3.626   2.527   7.195 -0.0238  0.2461 -0.0526
 4624SOL    HW125505   3.555   2.591   7.199 -0.1872  0.0520  0.2418
 4624SOL    HW225506   3.666   2.548   7.279 -0.1701 -0.2189  0.1390
 4625SOL     OW25507   3.400   3.666   7.037  0.1353  0.0195  0.4983
 4625SOL    HW125508   3.307   3.656   7.017  0.4331  1.8745 -1.8749
 4625SOL    HW225509   3.434   3.601   6.975 -0.4552  0.3268 -0.1518
 4626SOL     OW25510   4.649   0.934   6.295 -0.1869  0.3375 -0.0195
 4626SOL    HW125511   4.719   0.956   6.234  2.3578 -0.9784  2.4040
 4626SOL    HW225512   4.648   0.838   6.302 -1.7724  0.2914 -0.8133
 4627SOL     OW25513   2.262   2.574   5.661 -0.1102 -0.1390 -0.0008
 4627SOL    HW125514   2.224   2.640   5.718 -0.3343  0.6976 -1.1029
 4627SOL    HW225515   2.206   2.579   5.583  0.1256 -2.3268 -0.2974
 4628SOL     OW25516   1.584   3.734   2.375  0.1130  0.4202  0.0058
 4628SOL    HW125517   1.598   3.732   2.470  0.8448  0.7322 -0.0897
 4628SOL    HW225518   1.506   3.681   2.362  0.0649  0.4405  0.2062
 4629SOL     OW25519   1.363   3.605   3.984  0.3905 -0.5804  0.2150
 4629SOL    HW125520   1.280   3.574   3.948 -0.2905  1.8260 -0.2808
 4629SOL    HW225521   1.423   3.604   3.909  0.6247  0.6748  0.3839
 4630SOL     OW25522   2.286   0.823   6.045 -0.1829  0.3209 -0.3127
 4630SOL    HW125523   2.376   0.827   6.076 -0.7189  0.9413  1.1342
 4630SOL    HW225524   2.293   0.877   5.966 -0.4475  1.2410  0.2974
 4631SOL     OW25525   2.771   0.761  17.201  0.3048  0.0510  0.0735
 4631SOL    HW125526   2.702   0.699  17.224 -1.2306  1.2814 -1.2193
 4631SOL    HW225527   2.795   0.772  17.293 -0.3581  1.4681  0.0717
 4632SOL     OW25528   3.583   4.192   3.263  0.8220  0.1284  0.5340
 4632SOL    HW125529   3.559   4.264   3.321  0.0733 -1.2786  1.9831
 4632SOL    HW225530   3.542   4.227   3.184  0.3011 -1.0992  0.2543
 4633SOL     OW25531   3.410   2.256   2.588  0.2831 -0.3924  0.1220
 4633SOL    HW125532   3.393   2.216   2.674 -1.3890 -2.1168 -1.0149
 4633SOL    HW225533   3.392   2.186   2.525  2.1254 -1.2076  0.4845
 4634SOL     OW25534   0.944   2.619   2.264 -0.1888 -0.2104  0.5945
 4634SOL    HW125535   0.882   2.687   2.291 -0.6457  0.8098 -3.1464
 4634SOL    HW225536   0.884   2.546   2.254 -0.5484 -0.1048  1.9412
 4635SOL     OW25537   3.131   1.795   4.639 -0.1438  1.0311  0.7291
 4635SOL    HW125538   3.041   1.786   4.609  0.9543 -1.5594 -1.6748
 4635SOL    HW225539   3.122   1.789   4.735 -0.2641 -1.3836  0.5629
 4636SOL     OW25540   4.389   0.927   6.620  0.1808 -0.0790  0.3011
 4636SOL    HW125541   4.373   0.920   6.715  0.8574 -0.2679  0.4005
 4636SOL    HW225542   4.472   0.884   6.601 -0.1417 -0.3567 -0.4757
 4637SOL     OW25543   0.178   4.731   3.867 -0.6990  0.7191 -0.0274
 4637SOL    HW125544   0.179   4.656   3.927 -3.4940  2.2771  1.9217
 4637SOL    HW225545   0.255   0.046   3.893 -1.2149  0.8473  1.2519
 4638SOL     OW25546   0.210   3.628   2.766 -0.0068  0.0194  0.2069
 4638SOL    HW125547   0.171   3.549   2.730 -0.6381  0.4487 -0.0529
 4638SOL    HW225548   0.208   3.600   2.857  1.5060 -2.3182 -0.4824
 4639SOL     OW25549   0.931   2.264   1.484 -0.1089 -0.1887  0.3330
 4639SOL    HW125550   0.974   2.180   1.498 -0.5824 -0.4567  0.1966
 4639SOL    HW225551   0.961   2.314   1.560  0.0608  1.2626 -0.6694
 4640SOL     OW25552   2.682   1.757   7.385  0.3090 -0.9636 -0.3953
 4640SOL    HW125553   2.762   1.771   7.335  0.4418 -0.8909 -0.1632
 4640SOL    HW225554   2.703   1.702   7.460 -1.3151  1.8835  2.1680
 4641SOL     OW25555   4.710   4.021   7.515  0.8735 -0.2725 -0.2489
 4641SOL    HW125556   0.039   4.044   7.448  1.3008 -0.4366  0.1144
 4641SOL    HW225557   4.644   3.988   7.454  1.3789  0.4369 -1.2065
 4642SOL     OW25558   3.419   2.018   1.767 -0.1799 -0.3112 -0.3367
 4642SOL    HW125559   3.490   1.988   1.710 -0.9912  0.6157 -1.8413
 4642SOL    HW225560   3.391   1.940   1.815 -0.7939 -0.4048 -0.8544
 4643SOL     OW25561   0.384   1.245   1.563  0.3426  0.8545 -0.2668
 4643SOL    HW125562   0.392   1.333   1.600 -1.2149 -0.0581  2.2078
 4643SOL    HW225563   0.289   1.235   1.576  0.1845 -2.2143 -3.5938
 4644SOL     OW25564   3.363   3.945   7.700 -0.0109  0.3622  0.1436
 4644SOL    HW125565   3.438   3.944   7.641 -0.3065  0.8004 -0.2412
 4644SOL    HW225566   3.390   3.883   7.768 -2.8268  0.4132  1.3201
 4645SOL     OW25567   2.568   3.931   4.772 -0.7092  0.0026  0.2614
 4645SOL    HW125568   2.546   3.875   4.845  0.9111 -0.3385  0.4952
 4645SOL    HW225569   2.574   3.878   4.692 -2.2192 -1.1554  0.9202
 4646SOL     OW25570   1.634   2.398   4.346 -0.0440  0.7672 -0.1831
 4646SOL    HW125571   1.677   2.366   4.267 -1.6531 -2.6993  0.3701
 4646SOL    HW225572   1.712   2.423   4.395  0.0830 -0.1332  0.0713
 4647SOL     OW25573   2.903   3.557   4.366 -0.5805 -0.1264  0.1386
 4647SOL    HW125574   2.879   3.599   4.284 -0.1230 -0.7533 -0.3098
 4647SOL    HW225575   2.888   3.464   4.347  0.5558 -0.6310  1.7144
 4648SOL     OW25576   0.201   2.247   4.516 -0.3048  0.2336 -0.0506
 4648SOL    HW125577   0.179   2.294   4.436 -0.5566  0.1865 -0.0105
 4648SOL    HW225578   0.112   2.230   4.547  0.2166 -1.2154  0.6462
 4649SOL     OW25579   3.298   1.951   6.090 -0.4933 -0.1999  0.5302
 4649SOL    HW125580   3.314   1.858   6.073 -2.2155 -0.2767 -0.7627
 4649SOL    HW225581   3.345   1.967   6.171  2.9779  2.3216 -1.9926
 4650SOL     OW25582   0.105   2.162   5.766  0.3304 -0.1175 -0.1805
 4650SOL    HW125583   0.161   2.121   5.700 -0.2859  2.1456 -2.1038
 4650SOL    HW225584   0.045   2.088   5.779  0.1928 -0.3365 -2.1348
 4651SOL     OW25585   1.794   3.295  16.758 -0.0713 -0.3663  0.2130
 4651SOL    HW125586   1.886   3.282  16.736  0.1328  0.2180  0.7593
 4651SOL    HW225587   1.802   3.389  16.771 -2.2041  0.2090 -2.4788
 4652SOL     OW25588   4.510   0.413   6.067 -0.3510  0.5414  0.1881
 4652SOL    HW125589   4.542   0.326   6.091 -3.8501 -0.8621 -0.2000
 4652SOL    HW225590   4.417   0.393   6.063 -0.3542  0.5053  0.4144
 4653SOL     OW25591   1.001   0.646   9.926 -0.7311 -0.1779 -0.4535
 4653SOL    HW125592   1.004   0.559   9.964 -1.8258 -0.6173 -1.3614
 4653SOL    HW225593   0.981   0.616   9.837  0.6359 -1.3800 -0.3497
 4654SOL     OW25594   0.552   0.778   8.640 -0.2545 -0.1005 -0.1471
 4654SOL    HW125595   0.462   0.752   8.622 -0.3488 -0.1972  0.4576
 4654SOL    HW225596   0.525   0.817   8.724  3.9299  0.6713  0.8567
 4655SOL     OW25597   0.218   1.162   9.862 -0.4634 -0.4728 -0.3277
 4655SOL    HW125598   0.204   1.098   9.931  0.8206 -1.1410 -0.6828
 4655SOL    HW225599   0.183   1.117   9.784 -0.1355  1.1598 -1.4156
 4656SOL     OW25600   2.947   0.240  12.387  0.0935 -0.2603 -0.3513
 4656SOL    HW125601   2.978   0.323  12.424 -1.0517 -0.8479  1.9076
 4656SOL    HW225602   3.033   0.200  12.378 -0.5912 -1.5152 -1.2639
 4657SOL     OW25603   0.077   0.864   8.728 -0.1176  0.3278  0.3266
 4657SOL    HW125604   0.092   0.950   8.690 -1.5968 -0.1071 -1.2667
 4657SOL    HW225605   0.149   0.815   8.688  1.7846  1.8019  2.0053
 4658SOL     OW25606   4.674   3.230   8.253 -0.6114  0.5123 -0.2770
 4658SOL    HW125607   4.676   3.242   8.158  0.5187 -1.1481 -0.4668
 4658SOL    HW225608   4.590   3.189   8.269 -0.0465  0.0517  1.5178
 4659SOL     OW25609   0.194   4.114   6.450  0.1752  0.9777 -0.3023
 4659SOL    HW125610   0.100   4.095   6.452  0.5726 -1.0380 -0.8107
 4659SOL    HW225611   0.204   4.141   6.359 -0.9218 -0.2954 -0.8058
 4660SOL     OW25612   1.151   0.667  11.968 -0.3878 -0.2926 -0.3264
 4660SOL    HW125613   1.211   0.624  12.030 -0.4269 -1.3697 -1.0414
 4660SOL    HW225614   1.146   0.756  12.004 -0.4986 -0.3548 -0.1881
 4661SOL     OW25615   3.913   1.929   2.669  0.1802  0.2442 -0.9100
 4661SOL    HW125616   3.825   1.948   2.637 -1.5194 -2.9772  1.8714
 4661SOL    HW225617   3.903   1.848   2.719 -0.9578  2.7536  2.9845
 4662SOL     OW25618   3.705   1.736   9.322 -0.4784 -0.6560  0.4743
 4662SOL    HW125619   3.666   1.744   9.408 -1.4749 -0.8065  0.0400
 4662SOL    HW225620   3.631   1.746   9.262 -0.7155 -1.3703  0.6497
 4663SOL     OW25621   3.967   1.939   0.591 -0.1154  0.0562  0.0543
 4663SOL    HW125622   3.902   1.977   0.533  2.6795  3.1412 -1.1002
 4663SOL    HW225623   3.904   1.889   0.643 -1.3955  0.6977 -0.8846
 4664SOL     OW25624   2.626   2.773   8.208 -0.6496 -0.3096  0.2021
 4664SOL    HW125625   2.617   2.798   8.300  0.3325 -1.6324  0.6585
 4664SOL    HW225626   2.556   2.824   8.166  0.0681 -0.4594 -1.1333
 4665SOL     OW25627   1.861   4.410   5.627 -0.2992 -0.2844 -0.3924
 4665SOL    HW125628   1.795   4.357   5.584  0.1361 -1.0033 -0.1802
 4665SOL    HW225629   1.866   4.491   5.577  4.4187 -1.2431 -1.4380
 4666SOL     OW25630   2.583   1.077   2.725  0.9002  0.4649  0.0452
 4666SOL    HW125631   2.551   1.151   2.777  3.0158  0.2330  1.7300
 4666SOL    HW225632   2.583   1.113   2.637 -1.0152  0.9984  0.2823
 4667SOL     OW25633   2.086   0.391   4.215  0.7610 -1.1862 -0.4468
 4667SOL    HW125634   2.077   0.465   4.276 -1.9175 -1.9198  0.0379
 4667SOL    HW225635   2.109   0.318   4.273  1.3292 -2.6541 -2.5374
 4668SOL     OW25636   0.211   1.543   4.099 -0.2667 -0.2763  0.1144
 4668SOL    HW125637   0.160   1.503   4.169  0.0269 -1.2930 -0.2516
 4668SOL    HW225638   0.274   1.594   4.150  0.3839 -1.5755  0.6387
 4669SOL     OW25639   1.476   1.542   8.914  0.5097 -0.4001  0.0389
 4669SOL    HW125640   1.385   1.517   8.933 -0.4367  1.1814 -2.5309
 4669SOL    HW225641   1.509   1.557   9.003  0.7775  0.9731 -0.2968
 4670SOL     OW25642   3.079   0.980   9.513  0.4259  0.3509  0.3018
 4670SOL    HW125643   3.014   0.912   9.532  0.3455 -0.3789 -2.5620
 4670SOL    HW225644   3.156   0.927   9.496  0.8008  0.8698  0.3855
 4671SOL     OW25645   4.449   3.749   8.811  0.0051 -0.4743 -0.1007
 4671SOL    HW125646   4.389   3.716   8.878 -0.3096  0.6294  0.1669
 4671SOL    HW225647   4.518   3.684   8.820 -1.2168 -1.5540  1.5542
 4672SOL     OW25648   3.883   1.625   5.044  0.0762  0.3520 -0.0923
 4672SOL    HW125649   3.828   1.698   5.016 -0.1710 -0.2227 -1.0930
 4672SOL    HW225650   3.828   1.555   5.011  0.4967 -1.7310  3.6902
 4673SOL     OW25651   1.927   3.933  12.218 -0.6547 -0.3496  0.3739
 4673SOL    HW125652   1.904   3.943  12.125  0.3442  0.7697  0.2402
 4673SOL    HW225653   1.893   4.021  12.237  0.5657  0.2522 -0.1835
 4674SOL     OW25654   2.208   1.291  14.698  0.1009 -0.3449  0.5123
 4674SOL    HW125655   2.281   1.239  14.664  0.5799  1.3478 -1.0281
 4674SOL    HW225656   2.187   1.338  14.618  0.9676  0.1612  0.5763
 4675SOL     OW25657   1.323   3.091  11.397  0.0772 -0.8853  0.0792
 4675SOL    HW125658   1.345   2.999  11.381 -0.6648 -1.3300  1.5348
 4675SOL    HW225659   1.255   3.077  11.463 -1.1934 -0.7302 -1.1993
 4676SOL     OW25660   3.920   0.873   7.293 -0.0790 -0.1347 -0.2023
 4676SOL    HW125661   3.939   0.966   7.288  0.8202 -0.2723  0.6101
 4676SOL    HW225662   3.930   0.856   7.386  1.4604  0.2163 -0.2985
 4677SOL     OW25663   0.336   0.346  12.655  0.5173 -0.5500  0.1241
 4677SOL    HW125664   0.327   0.253  12.675  3.1996 -1.5222 -3.2065
 4677SOL    HW225665   0.402   0.343  12.586 -1.6799  1.5620 -2.0887
 4678SOL     OW25666   2.982   4.713  17.571  0.1837 -0.1536  0.7281
 4678SOL    HW125667   2.947   0.060  17.540  1.8500 -0.4035 -1.7368
 4678SOL    HW225668   2.907   4.653  17.567  1.1527 -1.2217 -1.2919
 4679SOL     OW25669   3.045   0.177   9.181 -0.1164  0.1477 -0.2844
 4679SOL    HW125670   3.137   0.203   9.180 -0.2307  0.5951  1.0685
 4679SOL    HW225671   3.036   0.108   9.116 -0.9266 -0.8008  0.8241
 4680SOL     OW25672   3.446   4.335   3.906 -0.0303  0.1414  0.3442
 4680SOL    HW125673   3.500   4.405   3.942 -1.5760  1.5977 -0.1671
 4680SOL    HW225674   3.490   4.329   3.821  2.5939 -0.9867  1.7936
 4681SOL     OW25675   3.894   4.132   9.981  0.6346 -0.4924 -0.2110
 4681SOL    HW125676   3.909   4.079   9.903  3.4630  1.5409 -1.0446
 4681SOL    HW225677   3.965   4.106  10.039  0.0568 -2.4753 -0.3973
 4682SOL     OW25678   3.943   2.661   2.574 -0.0111 -0.5415 -0.1216
 4682SOL    HW125679   3.884   2.626   2.641  0.3352 -1.6163 -0.3700
 4682SOL    HW225680   3.906   2.745   2.546  0.1280 -0.8984 -1.3795
 4683SOL     OW25681   3.879   0.386  12.274  0.4871  0.0722 -0.0635
 4683SOL    HW125682   3.894   0.292  12.286 -0.8977  0.1677  2.4352
 4683SOL    HW225683   3.954   0.401  12.217  0.4296  0.3555 -0.0644
 4684SOL     OW25684   0.801   4.537   1.280  0.0521  0.5066 -0.2701
 4684SOL    HW125685   0.800   4.472   1.351  0.4072 -0.6912 -1.3529
 4684SOL    HW225686   0.863   4.599   1.319  0.5482 -0.0394 -0.1833
 4685SOL     OW25687   4.159   4.722  11.730  0.6921  0.2871 -0.1110
 4685SOL    HW125688   4.218   4.649  11.709 -0.9762 -1.1312  0.1884
 4685SOL    HW225689   4.157   4.717  11.825 -3.4475 -1.9222 -0.3367
 4686SOL     OW25690   0.295   0.592   1.942  0.0786 -0.7798 -0.4557
 4686SOL    HW125691   0.233   0.547   1.999 -1.0445 -1.6559 -2.3557
 4686SOL    HW225692   0.274   0.683   1.961  2.0160  0.2467 -3.1837
 4687SOL     OW25693   0.646   2.613   1.871 -0.1147 -0.3181 -0.2735
 4687SOL    HW125694   0.701   2.542   1.904  2.7462  1.9219 -0.2546
 4687SOL    HW225695   0.709   2.645   1.807 -0.2061 -2.4198 -1.4173
 4688SOL     OW25696   0.520   3.965  11.131 -0.1178 -1.0919 -0.1093
 4688SOL    HW125697   0.588   4.011  11.181  1.2008  1.3398 -4.1100
 4688SOL    HW225698   0.493   4.042  11.081  1.6119 -1.3576 -1.4814
 4689SOL     OW25699   4.059   2.207   2.737  0.9216  0.0817 -0.3441
 4689SOL    HW125700   4.135   2.194   2.793  0.0359 -0.6421  0.6729
 4689SOL    HW225701   4.001   2.132   2.749  0.5158  0.1101 -2.1521
 4690SOL     OW25702   0.229   0.151   1.331  0.6771  0.1204 -0.8458
 4690SOL    HW125703   0.256   0.059   1.343  1.0106  0.1894 -1.0606
 4690SOL    HW225704   0.244   0.171   1.239  0.3246 -2.6256 -1.5156
 4691SOL     OW25705   2.171   4.229  17.008 -0.4266 -1.0268  0.4799
 4691SOL    HW125706   2.169   4.136  16.986  0.0183 -0.7491 -0.7268
 4691SOL    HW225707   2.258   4.225  17.048 -0.2918  1.4313  0.4402
 4692SOL     OW25708   3.325   2.483  14.844  1.4316  0.4886  0.0503
 4692SOL    HW125709   3.385   2.448  14.909  1.4677  0.3291 -0.0693
 4692SOL    HW225710   3.356   2.439  14.765 -0.1802  2.1057 -1.4934
 4693SOL     OW25711   3.201   3.387   6.345 -0.0507 -0.6019  0.0076
 4693SOL    HW125712   3.232   3.459   6.399  0.7769  0.5610 -2.0121
 4693SOL    HW225713   3.167   3.427   6.265  0.9654  0.0889 -0.0792
 4694SOL     OW25714   0.188   2.681   5.697  0.1828  0.4416 -0.4768
 4694SOL    HW125715   0.175   2.614   5.630  0.5896 -0.4516  0.3364
 4694SOL    HW225716   0.118   2.746   5.683  2.5529  3.0694 -0.1424
 4695SOL     OW25717   2.970   2.303  12.012  0.5679 -0.2110 -0.0906
 4695SOL    HW125718   2.947   2.388  12.051  0.5905 -1.1069  1.8209
 4695SOL    HW225719   3.039   2.272  12.069  1.4555  0.4010 -0.8337
 4696SOL     OW25720   3.821   3.847  17.013 -0.6207  0.6759 -0.5534
 4696SOL    HW125721   3.784   3.899  16.941 -0.9871 -0.8557 -1.4816
 4696SOL    HW225722   3.862   3.770  16.974 -0.3976 -0.9362  2.8997
 4697SOL     OW25723   4.042   2.341  16.424  0.0306 -0.1309  0.3019
 4697SOL    HW125724   4.049   2.435  16.442 -0.4347  0.0456 -0.4581
 4697SOL    HW225725   3.962   2.316  16.470  0.0110  0.7653  0.7553
 4698SOL     OW25726   2.653   3.967   7.766 -0.0342  0.0719  0.0303
 4698SOL    HW125727   2.648   4.010   7.851 -0.4399 -0.1041  0.0970
 4698SOL    HW225728   2.649   3.874   7.788  0.8368 -0.0125 -0.1470
 4699SOL     OW25729   4.564   0.152   6.170 -0.3656 -0.4594  0.1682
 4699SOL    HW125730   4.590   0.196   6.250  2.2508  0.4538 -1.1958
 4699SOL    HW225731   4.640   0.096   6.155 -0.4443 -0.9708  1.7001
 4700SOL     OW25732   4.379   2.264  13.808  0.6983  0.4117  0.3161
 4700SOL    HW125733   4.424   2.304  13.882  0.4712  0.4499  0.4349
 4700SOL    HW225734   4.323   2.340  13.792  0.2602  0.3359  1.5176
 4701SOL     OW25735   3.749   2.976  12.935  0.3582  0.8694 -0.0320
 4701SOL    HW125736   3.785   2.943  13.017 -0.1972  0.9290  0.2335
 4701SOL    HW225737   3.831   2.991  12.888  1.1675 -3.0803  0.1401
 4702SOL     OW25738   1.860   4.670   4.915  0.8773 -0.5399 -0.4747
 4702SOL    HW125739   1.834   4.588   4.873 -1.2321 -0.1722  0.1261
 4702SOL    HW225740   1.943   4.642   4.954  0.7201 -1.4730 -0.8113
 4703SOL     OW25741   4.454   2.266   3.887 -0.1812  0.4164 -0.7377
 4703SOL    HW125742   4.444   2.177   3.922  1.9316  1.6187  2.8135
 4703SOL    HW225743   4.517   2.309   3.944 -1.8666 -0.0392  1.4576
 4704SOL     OW25744   1.761   4.159   4.464  0.3667  0.3527  1.0442
 4704SOL    HW125745   1.766   4.254   4.463  0.2284  0.3554  0.5322
 4704SOL    HW225746   1.851   4.134   4.484  0.6270  1.1546  0.8717
 4705SOL     OW25747   2.003   3.951   9.156 -0.0211  0.3455 -0.6010
 4705SOL    HW125748   2.003   3.881   9.221 -0.0035  1.4652  0.6049
 4705SOL    HW225749   1.989   4.028   9.211 -1.3414 -0.6475  0.4600
 4706SOL     OW25750   2.651   3.898   5.836  0.4771  0.2650 -0.4704
 4706SOL    HW125751   2.673   3.910   5.928 -1.9573 -2.5305  0.4802
 4706SOL    HW225752   2.557   3.889   5.851 -0.1042  2.3878 -2.9110
 4707SOL     OW25753   4.397   1.821  11.492 -0.3126 -0.2678 -0.3942
 4707SOL    HW125754   4.323   1.769  11.460  1.3609 -1.5137 -2.2577
 4707SOL    HW225755   4.462   1.762  11.530 -2.2570 -0.7506  2.1094
 4708SOL     OW25756   1.790   0.880  12.529 -0.2969  0.1132  0.5215
 4708SOL    HW125757   1.790   0.786  12.549 -1.5997 -0.1108 -0.4903
 4708SOL    HW225758   1.775   0.898  12.437  1.6357 -0.7406  0.0273
 4709SOL     OW25759   1.263   1.675  14.734  0.1971  0.1479 -0.4464
 4709SOL    HW125760   1.181   1.719  14.757  0.9305  0.8497  0.8341
 4709SOL    HW225761   1.321   1.744  14.766 -1.1084  0.6771  0.7632
 4710SOL     OW25762   3.980   0.708   7.794  0.2603  0.0574  0.2391
 4710SOL    HW125763   3.944   0.725   7.881  0.4003 -0.6219  0.4267
 4710SOL    HW225764   3.921   0.745   7.728  1.8285  0.3505 -1.0130
 4711SOL     OW25765   2.656   2.546   5.347 -0.1684 -0.0048 -0.0445
 4711SOL    HW125766   2.702   2.581   5.423 -1.4399 -1.4277  1.3786
 4711SOL    HW225767   2.603   2.480   5.391  2.9220 -2.0345  0.6004
 4712SOL     OW25768   2.973   0.473  15.807  0.5054 -0.0039 -0.3833
 4712SOL    HW125769   2.943   0.478  15.898  2.0967  2.7837 -0.0256
 4712SOL    HW225770   2.900   0.525  15.773 -0.2544  0.2070  1.5233
 4713SOL     OW25771   1.697   4.648   8.173  0.2717 -0.0954  0.2251
 4713SOL    HW125772   1.662   4.566   8.138 -0.2756  0.1260  0.2568
 4713SOL    HW225773   1.624   4.708   8.158  1.8357  1.2496 -1.9318
 4714SOL     OW25774   2.895   4.099  15.867  0.0309  0.3358  0.3401
 4714SOL    HW125775   2.951   4.041  15.816 -1.5449 -1.5809  0.7742
 4714SOL    HW225776   2.940   4.182  15.883  0.1060  0.6545 -1.5448
 4715SOL     OW25777   1.235   1.857   0.999  0.2343 -0.0578  0.0755
 4715SOL    HW125778   1.159   1.820   0.954 -0.0976  0.4718  0.1950
 4715SOL    HW225779   1.293   1.872   0.924 -1.1314  0.9292 -0.7829
 4716SOL     OW25780   3.864   2.904   5.093 -0.1882 -0.3629  0.4196
 4716SOL    HW125781   3.824   2.927   5.009 -0.2190  0.4929  0.6616
 4716SOL    HW225782   3.804   2.939   5.159 -0.8268  0.6328 -0.6920
 4717SOL     OW25783   2.760   3.203   6.246 -0.1718  0.2449 -0.2557
 4717SOL    HW125784   2.825   3.197   6.175 -0.1270  4.6372 -0.5831
 4717SOL    HW225785   2.792   3.271   6.304 -0.9672  1.6740 -1.5082
 4718SOL     OW25786   1.224   2.056   6.314  0.3603  0.1710 -0.3080
 4718SOL    HW125787   1.293   2.119   6.296 -0.1653  0.8273 -0.0064
 4718SOL    HW225788   1.192   2.083   6.400  1.7324  1.3765 -0.1777
 4719SOL     OW25789   3.779   1.295   9.196 -0.7222 -0.0108 -0.2793
 4719SOL    HW125790   3.712   1.327   9.137 -0.2656  2.1525  0.3903
 4719SOL    HW225791   3.741   1.216   9.234 -0.5349 -0.5174 -1.1435
 4720SOL     OW25792   1.089   4.475   7.306  0.4795  0.1386  0.0370
 4720SOL    HW125793   1.043   4.558   7.319 -0.7832 -0.7338  1.1138
 4720SOL    HW225794   1.175   4.489   7.345  0.4278  0.1459  0.1482
 4721SOL     OW25795   2.214   2.108   3.930  0.0635  0.1128  0.0310
 4721SOL    HW125796   2.256   2.176   3.984 -0.7045 -0.5846  1.5063
 4721SOL    HW225797   2.172   2.168   3.868  1.4301  1.8523  0.7630
 4722SOL     OW25798   3.421   4.279  10.271 -0.5502  0.7365 -0.4658
 4722SOL    HW125799   3.362   4.354  10.263 -1.2931  0.1302 -0.6845
 4722SOL    HW225800   3.421   4.243  10.182 -1.4260 -3.3730  1.1737
 4723SOL     OW25801   1.529   0.781   2.694  0.9153  0.5545  0.0190
 4723SOL    HW125802   1.540   0.689   2.669 -0.0996  1.3588 -3.3708
 4723SOL    HW225803   1.597   0.829   2.647  1.2121 -1.5999 -1.7435
 4724SOL     OW25804   0.744   3.863   4.593 -0.1656  0.1402 -0.3166
 4724SOL    HW125805   0.696   3.947   4.593  0.1522  0.3159  0.3205
 4724SOL    HW225806   0.703   3.823   4.516 -0.7779 -1.8207  1.0358
 4725SOL     OW25807   4.097   2.868   3.877  0.6203 -0.1234  0.0166
 4725SOL    HW125808   4.123   2.829   3.793  1.9236  0.2827  0.2216
 4725SOL    HW225809   4.017   2.908   3.845 -0.2993 -0.6123  1.7462
 4726SOL     OW25810   1.537   4.075   5.856 -0.2085 -0.0965 -0.5272
 4726SOL    HW125811   1.450   4.114   5.848 -0.9253 -1.4571  0.7065
 4726SOL    HW225812   1.548   4.113   5.944  0.3049  1.4260 -1.2522
 4727SOL     OW25813   0.958   1.340   6.677 -0.3118 -0.0635  0.3933
 4727SOL    HW125814   0.905   1.282   6.731 -1.6972  1.2009  0.4000
 4727SOL    HW225815   1.037   1.286   6.683  0.9646  1.8492  1.0614
 4728SOL     OW25816   1.939   0.530   5.782 -0.6645  0.1425  0.2440
 4728SOL    HW125817   1.944   0.537   5.877 -1.6104  3.5293  0.0297
 4728SOL    HW225818   2.021   0.574   5.760  0.4623 -2.7977 -1.5261
 4729SOL     OW25819   2.684   2.540   0.236 -0.2119  0.1742  0.0026
 4729SOL    HW125820   2.724   2.558   0.321  1.4838  1.0878 -0.9711
 4729SOL    HW225821   2.603   2.499   0.265  0.0327 -0.8116 -0.6947
 4730SOL     OW25822   2.663   1.171   6.079  0.0587 -0.1257 -0.0492
 4730SOL    HW125823   2.599   1.099   6.079 -0.5423  0.4006  2.4992
 4730SOL    HW225824   2.660   1.188   5.985 -0.4682 -3.5529 -0.6567
 4731SOL     OW25825   3.842   1.111   6.651 -0.1667  0.1728  0.1204
 4731SOL    HW125826   3.790   1.042   6.693 -1.0136  0.5669 -0.2813
 4731SOL    HW225827   3.920   1.059   6.630 -1.4488 -0.9356 -1.8716
 4732SOL     OW25828   2.429   4.360   8.542 -0.3016  0.0622 -0.3141
 4732SOL    HW125829   2.421   4.360   8.446  1.9512 -2.8901 -0.4890
 4732SOL    HW225830   2.364   4.294   8.568  2.4436 -1.6909  2.0685
 4733SOL     OW25831   2.388   3.417   5.352 -0.1858 -0.0143  0.0803
 4733SOL    HW125832   2.446   3.492   5.365  0.9642 -0.3120 -3.3165
 4733SOL    HW225833   2.339   3.450   5.277  0.2336  1.8939  0.6349
 4734SOL     OW25834   3.156   3.743   8.435 -0.1050  0.1785  0.0063
 4734SOL    HW125835   3.069   3.775   8.411  0.4176  0.9620 -0.8714
 4734SOL    HW225836   3.136   3.649   8.440 -0.3378  0.1485 -1.3724
 4735SOL     OW25837   4.525   4.214   0.907  0.1740  0.0977  0.3846
 4735SOL    HW125838   4.537   4.254   0.821 -2.6359 -1.4101 -0.6803
 4735SOL    HW225839   4.434   4.185   0.901  0.4106 -1.0216  2.1538
 4736SOL     OW25840   2.787   1.554   8.027  0.0800  0.8316 -0.2584
 4736SOL    HW125841   2.823   1.541   8.114  1.5556  2.2586 -0.6683
 4736SOL    HW225842   2.709   1.498   8.024 -0.5837  1.7646 -0.3615
 4737SOL     OW25843   3.985   0.250   5.841  0.2497 -0.0402  0.5251
 4737SOL    HW125844   3.982   0.341   5.814  0.8367  0.0679  0.8215
 4737SOL    HW225845   4.070   0.217   5.811  0.3408  0.0974  0.6334
 4738SOL     OW25846   3.661   2.407  12.607  0.3264  0.5162  0.7201
 4738SOL    HW125847   3.691   2.466  12.538 -0.8068  3.0422  2.3654
 4738SOL    HW225848   3.688   2.463  12.680  2.7108  0.7373 -0.3450
 4739SOL     OW25849   3.160   4.481   9.530 -0.0335 -0.1338 -0.1608
 4739SOL    HW125850   3.254   4.475   9.548 -0.2967 -0.5042  1.0590
 4739SOL    HW225851   3.143   4.573   9.511  0.3222 -0.1409 -0.5110
 4740SOL     OW25852   1.049   1.242  14.361  0.4663 -0.3736 -0.5130
 4740SOL    HW125853   1.128   1.221  14.312  0.4512 -0.3760 -0.5367
 4740SOL    HW225854   0.986   1.242  14.289 -0.6864  0.5493  0.4920
 4741SOL     OW25855   0.310   1.270   2.787 -0.0905  0.0791 -0.0639
 4741SOL    HW125856   0.298   1.235   2.875  1.3061 -0.6497 -0.1688
 4741SOL    HW225857   0.350   1.197   2.739 -0.3348  0.6294 -1.1069
 4742SOL     OW25858   2.571   1.708   2.561  0.0909  0.2106  0.0641
 4742SOL    HW125859   2.493   1.729   2.509  1.0206 -0.8533 -1.7516
 4742SOL    HW225860   2.610   1.791   2.587  0.8136 -1.4220  4.2182
 4743SOL     OW25861   2.522   1.877  17.602  0.4261  0.0691 -0.2441
 4743SOL    HW125862   2.577   1.873  17.681 -1.1617 -1.9143  0.7647
 4743SOL    HW225863   2.454   1.814  17.626  1.8680 -1.8750 -1.2536
 4744SOL     OW25864   2.856   0.489   6.498 -0.3341 -0.1619 -0.0919
 4744SOL    HW125865   2.807   0.407   6.505  0.4321 -0.6976 -0.9688
 4744SOL    HW225866   2.823   0.519   6.413  0.4535 -0.7211 -0.6016
 4745SOL     OW25867   3.645   3.509   7.393  0.1087 -0.2305 -0.5047
 4745SOL    HW125868   3.586   3.485   7.322  1.1318 -0.7137 -1.1785
 4745SOL    HW225869   3.702   3.572   7.349  1.0191  0.0612  1.0802
 4746SOL     OW25870   3.241   0.885   7.012  0.1105  0.3344 -0.0054
 4746SOL    HW125871   3.304   0.956   7.000 -1.5108  2.0498  1.5863
 4746SOL    HW225872   3.168   0.919   6.959  0.2478 -0.3904 -0.6608
 4747SOL     OW25873   0.747   0.226   4.871 -0.8080  0.4789  0.0769
 4747SOL    HW125874   0.756   0.244   4.777  0.7509 -0.4110  0.0467
 4747SOL    HW225875   0.657   0.196   4.878 -0.4786 -0.9969 -1.8542
 4748SOL     OW25876   3.418   0.029  16.424  0.0367 -0.1698  0.0022
 4748SOL    HW125877   3.325   0.035  16.401 -0.4948 -0.8067  2.0455
 4748SOL    HW225878   3.418   0.060  16.514  0.3768  1.3789 -0.5201
 4749SOL     OW25879   4.170   1.940   7.888  0.4532 -0.7236  0.5027
 4749SOL    HW125880   4.168   1.930   7.793  0.5393 -1.7087  0.6081
 4749SOL    HW225881   4.108   2.009   7.910  1.4328  0.2396  0.2747
 4750SOL     OW25882   3.653   3.491   6.405 -0.0260 -0.1743 -0.3591
 4750SOL    HW125883   3.726   3.446   6.449 -0.5385  1.3819  2.0462
 4750SOL    HW225884   3.607   3.420   6.360  2.3457 -0.6670 -2.0311
 4751SOL     OW25885   2.731   3.949   0.669 -0.3553  0.3325  0.3496
 4751SOL    HW125886   2.821   3.979   0.679 -0.1776 -0.1245  0.1180
 4751SOL    HW225887   2.721   3.941   0.574 -0.9005 -0.1783  0.4501
 4752SOL     OW25888   1.823   3.796  15.125 -0.2730  0.4138  0.2305
 4752SOL    HW125889   1.756   3.779  15.192 -0.0705 -0.6555  0.1739
 4752SOL    HW225890   1.783   3.776  15.040 -0.3680  1.1969  0.0940
 4753SOL     OW25891   2.372   0.931   1.073 -0.1768 -0.0042  0.4899
 4753SOL    HW125892   2.416   0.898   0.994  0.6095 -0.1308  0.9815
 4753SOL    HW225893   2.315   1.000   1.039  0.0978 -1.0598 -2.1549
 4754SOL     OW25894   0.259   1.006   4.802  0.2254  0.2440  0.0803
 4754SOL    HW125895   0.187   0.986   4.861 -0.4285  1.6378 -0.2580
 4754SOL    HW225896   0.212   0.984   4.721  1.8031  0.7924 -0.9822
 4755SOL     OW25897   1.335   0.029   2.522 -0.0327 -0.1421  0.3783
 4755SOL    HW125898   1.400   0.088   2.560 -2.3506  1.4346  1.8869
 4755SOL    HW225899   1.395   4.726   2.459 -1.3380 -0.2152 -0.8212
 4756SOL     OW25900   0.433   4.174   7.328  0.2050  0.4323 -0.6551
 4756SOL    HW125901   0.519   4.163   7.288 -0.1158 -1.3952 -0.8592
 4756SOL    HW225902   0.385   4.094   7.308  0.1115  0.6459 -1.2840
 4757SOL     OW25903   2.425   4.219   3.967 -0.5188  0.1719  0.4866
 4757SOL    HW125904   2.467   4.280   4.027  0.3301 -0.4935  0.5748
 4757SOL    HW225905   2.430   4.271   3.887  2.1529 -0.0584  0.5024
 4758SOL     OW25906   2.297   3.369   6.353 -0.1738 -0.6238 -0.4411
 4758SOL    HW125907   2.210   3.332   6.338 -0.5979  0.6895 -1.2237
 4758SOL    HW225908   2.342   3.317   6.287 -1.3438 -0.6177 -1.2460
 4759SOL     OW25909   0.410   1.640  13.102  0.5967  0.6957 -0.1454
 4759SOL    HW125910   0.317   1.657  13.087  0.2101 -2.5519 -1.3741
 4759SOL    HW225911   0.402   1.550  13.131 -0.8360  0.3843 -1.5394
 4760SOL     OW25912   3.828   1.336  10.968  0.3436  0.0349 -0.0180
 4760SOL    HW125913   3.828   1.263  10.907 -1.8309  0.0740 -0.0626
 4760SOL    HW225914   3.733   1.350  10.978  0.3694  2.6140 -3.2359
 4761SOL     OW25915   1.134   2.548   9.682  0.1100  0.1486 -0.1138
 4761SOL    HW125916   1.199   2.479   9.666  0.3069  0.4850 -0.7995
 4761SOL    HW225917   1.183   2.612   9.735 -1.4117 -1.4760  3.2499
 4762SOL     OW25918   0.540   4.533   1.489 -0.0380 -0.3488 -0.0745
 4762SOL    HW125919   0.514   4.509   1.578 -0.6900  0.6055 -0.0205
 4762SOL    HW225920   0.627   4.493   1.497 -0.3454 -0.7646  1.3226
 4763SOL     OW25921   1.683   2.049   8.068  0.1595 -0.0915  0.2039
 4763SOL    HW125922   1.657   1.958   8.052 -1.6627  0.2245  1.3279
 4763SOL    HW225923   1.609   2.076   8.013 -0.2490  0.3963  0.9925
 4764SOL     OW25924   3.496   2.807   4.167 -0.4613  0.4662 -0.7576
 4764SOL    HW125925   3.424   2.748   4.143 -1.1121 -0.4500  3.3951
 4764SOL    HW225926   3.536   2.770   4.246  0.0711  1.5984 -0.4966
 4765SOL     OW25927   2.632   2.142   9.072 -0.0032  0.5206  0.2837
 4765SOL    HW125928   2.634   2.236   9.054 -4.5228 -0.1798 -4.0392
 4765SOL    HW225929   2.699   2.128   9.139 -0.4213 -0.8019  0.4366
 4766SOL     OW25930   1.193   1.147   1.402 -0.2254 -0.1446  0.1947
 4766SOL    HW125931   1.229   1.061   1.422 -0.7321 -1.4295 -4.2620
 4766SOL    HW225932   1.217   1.188   1.485 -1.2055  0.3847  0.2254
 4767SOL     OW25933   0.112   4.422   8.762  0.1834 -0.6420  0.1746
 4767SOL    HW125934   0.045   4.489   8.773  2.1528  0.9935  2.0530
 4767SOL    HW225935   0.188   4.472   8.732 -1.1329  1.9547  1.2527
 4768SOL     OW25936   0.353   3.900   1.594  0.1002  0.0358  0.1560
 4768SOL    HW125937   0.298   3.898   1.516  0.3834 -2.6935  0.0086
 4768SOL    HW225938   0.295   3.914   1.669 -2.0506  1.8709 -1.8490
 4769SOL     OW25939   3.629   3.769   7.705 -0.1237  0.4219 -0.3856
 4769SOL    HW125940   3.695   3.740   7.768 -0.7304 -0.2094 -0.0426
 4769SOL    HW225941   3.672   3.850   7.679 -1.5188  0.9474 -1.0920
 4770SOL     OW25942   0.018   4.012   5.366  0.3322  0.1465 -0.1627
 4770SOL    HW125943   0.047   4.069   5.437  1.3476 -0.2962 -0.2191
 4770SOL    HW225944   0.094   4.022   5.309 -0.8102  0.5561 -1.6266
 4771SOL     OW25945   0.848   4.406   8.392  0.1715  0.1097  0.2318
 4771SOL    HW125946   0.885   4.327   8.429  1.5791 -0.2384 -1.9585
 4771SOL    HW225947   0.754   4.397   8.411  0.1989 -0.3562  0.1429
 4772SOL     OW25948   1.419   3.540  12.640  0.0981 -0.1836 -0.2709
 4772SOL    HW125949   1.393   3.576  12.724  0.3209  2.4516 -1.3529
 4772SOL    HW225950   1.332   3.533  12.599 -0.7999 -0.3217  1.6661
 4773SOL     OW25951   0.151   1.534  14.924 -0.2638 -0.0896 -0.1432
 4773SOL    HW125952   0.136   1.440  14.909 -1.1347 -0.0597  0.5676
 4773SOL    HW225953   0.223   1.563  14.868  1.8567  1.1461  3.2233
 4774SOL     OW25954   0.796   1.995   8.623  1.0607 -0.2625  0.6428
 4774SOL    HW125955   0.711   1.975   8.662  0.3486  2.3853  0.4688
 4774SOL    HW225956   0.793   2.090   8.611 -2.3784 -0.4312  0.1709
 4775SOL     OW25957   0.324   4.533   1.338  0.5325  0.4839 -0.0400
 4775SOL    HW125958   0.386   4.555   1.408 -0.1257 -0.7311  0.9148
 4775SOL    HW225959   0.369   4.542   1.254  1.6532  0.8422  0.5980
 4776SOL     OW25960   1.994   0.957  10.756 -0.4465 -0.1769 -0.0363
 4776SOL    HW125961   2.079   0.968  10.714 -0.9848 -1.1939 -1.3958
 4776SOL    HW225962   2.030   0.933  10.842 -2.1219 -0.5211  0.5660
 4777SOL     OW25963   0.918   3.193   3.078 -0.2561  0.5517  0.2124
 4777SOL    HW125964   0.871   3.181   2.996 -3.1044  0.2432  1.8935
 4777SOL    HW225965   0.956   3.280   3.063  2.8062 -0.8715 -0.3204
 4778SOL     OW25966   1.593   1.262  10.561 -0.0894 -0.4217 -0.2267
 4778SOL    HW125967   1.527   1.307  10.614  1.3844 -0.2530  1.4442
 4778SOL    HW225968   1.579   1.171  10.587  0.5938 -1.1627 -2.4404
 4779SOL     OW25969   2.512   4.545   8.076  0.2289 -0.5390  0.2104
 4779SOL    HW125970   2.443   4.537   8.009  0.1334 -0.0085  0.2465
 4779SOL    HW225971   2.565   4.468   8.054 -0.1223 -0.0540 -2.3951
 4780SOL     OW25972   1.633   2.806   3.043 -0.1739 -0.2051 -0.2356
 4780SOL    HW125973   1.725   2.787   3.063 -0.1356  0.1412 -0.0786
 4780SOL    HW225974   1.592   2.784   3.126 -3.0520 -0.4751 -1.7371
 4781SOL     OW25975   0.375   4.335   3.826  0.0186 -0.0763  0.3271
 4781SOL    HW125976   0.421   4.343   3.743 -1.5963 -0.6478 -0.6314
 4781SOL    HW225977   0.458   4.342   3.874 -0.5284 -1.3762  1.4468
 4782SOL     OW25978   3.175   0.894   3.695  0.0853  0.4959 -0.1365
 4782SOL    HW125979   3.195   0.970   3.750  0.7054 -0.8084  1.4383
 4782SOL    HW225980   3.250   0.839   3.717 -0.1246 -0.6671 -2.3944
 4783SOL     OW25981   4.634   2.075   7.164  0.1933 -0.3580  0.2672
 4783SOL    HW125982   4.703   2.069   7.230 -0.6277 -1.8198  0.9981
 4783SOL    HW225983   4.630   1.984   7.133 -0.2550  0.0686 -0.9262
 4784SOL     OW25984   4.482   1.219  15.726  0.2493  0.1055 -0.1322
 4784SOL    HW125985   4.456   1.249  15.813 -1.2249  1.2419 -0.9611
 4784SOL    HW225986   4.555   1.280  15.715  0.7955 -0.5556 -0.1053
 4785SOL     OW25987   4.337   3.420   2.168 -0.0568  0.4856  0.6647
 4785SOL    HW125988   4.408   3.448   2.226  1.0553 -0.5150 -0.2314
 4785SOL    HW225989   4.289   3.356   2.220 -0.7631  1.7054  1.5181
 4786SOL     OW25990   0.682   3.802   7.987 -0.2044 -0.1175 -0.2430
 4786SOL    HW125991   0.773   3.832   7.983 -0.7768  1.5969 -0.2667
 4786SOL    HW225992   0.635   3.879   8.019 -0.6983 -0.3215 -0.4805
 4787SOL     OW25993   0.165   2.017   9.853 -0.5834  0.0222  0.0566
 4787SOL    HW125994   0.241   1.963   9.832  1.2423  2.2202  0.8594
 4787SOL    HW225995   0.216   2.098   9.857  0.8701 -0.8302 -1.3721
 4788SOL     OW25996   1.158   4.566  16.002  0.3851  0.2081  0.5698
 4788SOL    HW125997   1.140   4.633  15.936  1.2271 -0.9534 -0.8623
 4788SOL    HW225998   1.131   4.482  15.964  1.3252  1.7357 -3.5280
 4789SOL     OW25999   3.627   3.144   3.626  0.1940  0.4055  0.2939
 4789SOL    HW126000   3.691   3.207   3.593  0.1529 -1.5603 -3.5969
 4789SOL    HW226001   3.596   3.111   3.542 -0.9398  0.5927  0.6461
 4790SOL     OW26002   0.938   3.960   5.419 -0.5221  0.0799 -0.5404
 4790SOL    HW126003   0.957   3.875   5.460 -1.5327 -0.2275 -0.7229
 4790SOL    HW226004   0.856   3.947   5.372 -0.9010  0.6557 -0.0376
 4791SOL     OW26005   0.840   1.175  13.341 -0.1765  0.0589  0.1805
 4791SOL    HW126006   0.857   1.085  13.315  1.4991  0.1199  1.0209
 4791SOL    HW226007   0.855   1.222  13.259  1.6334  2.3477  1.8053
 4792SOL     OW26008   2.469   1.112   4.680 -0.2405  0.0284 -0.2368
 4792SOL    HW126009   2.525   1.064   4.620 -1.2173 -0.8798 -0.4111
 4792SOL    HW226010   2.522   1.184   4.715 -0.6418  0.8500 -1.3224
 4793SOL     OW26011   0.678   3.118   8.283 -0.3732  0.3377  0.0784
 4793SOL    HW126012   0.664   3.100   8.191 -1.8706  0.2232  0.3360
 4793SOL    HW226013   0.591   3.151   8.305 -0.0943  1.4822 -0.5611
 4794SOL     OW26014   0.622   3.638   4.680 -0.3827  0.5143 -0.3831
 4794SOL    HW126015   0.682   3.709   4.657  2.8958 -1.8438  0.9871
 4794SOL    HW226016   0.657   3.559   4.639  1.1118  0.7366  0.4944
 4795SOL     OW26017   1.552   4.592   4.325  0.4265  0.2407  0.3434
 4795SOL    HW126018   1.599   4.640   4.393 -0.7654 -0.8546  1.9526
 4795SOL    HW226019   1.606   4.620   4.252 -1.2082  1.7607 -0.2793
 4796SOL     OW26020   2.056   0.827   4.744 -0.3977  0.2093 -0.1181
 4796SOL    HW126021   2.020   0.884   4.677 -2.0790 -1.0320 -0.2552
 4796SOL    HW226022   2.119   0.890   4.781  0.2166 -1.5677  1.8480
 4797SOL     OW26023   0.563   3.711  15.778  1.0534  0.1884  0.4372
 4797SOL    HW126024   0.566   3.774  15.849 -0.8492 -1.5938  2.1135
 4797SOL    HW226025   0.645   3.735  15.736  1.9643 -0.9158  1.5772
 4798SOL     OW26026   1.291   2.787  16.068  0.2507  0.4619 -0.0531
 4798SOL    HW126027   1.270   2.828  15.984 -0.5760  1.3518  0.5908
 4798SOL    HW226028   1.342   2.714  16.033 -1.1650 -1.0452  1.0338
 4799SOL     OW26029   3.292   3.833   4.438 -0.1619  0.5724 -0.5429
 4799SOL    HW126030   3.331   3.849   4.352  0.6097 -1.5514 -0.5755
 4799SOL    HW226031   3.243   3.752   4.424  0.0002  0.5535 -1.0206
 4800SOL     OW26032   0.434   4.508   2.351 -0.0078  0.0362  0.2830
 4800SOL    HW126033   0.420   4.550   2.436 -1.5671 -1.0239  0.5451
 4800SOL    HW226034   0.478   4.576   2.300 -2.6566  0.1719 -1.8101
 4801SOL     OW26035   2.395   0.610   5.459  0.4826 -0.4518  0.2801
 4801SOL    HW126036   2.431   0.688   5.415  3.0904 -1.2968  0.9354
 4801SOL    HW226037   2.338   0.659   5.518 -0.2241  1.9122 -2.3629
 4802SOL     OW26038   4.578   1.042  16.072 -0.0401 -0.8792  0.7446
 4802SOL    HW126039   4.524   1.121  16.073  1.0585 -0.1218  0.2990
 4802SOL    HW226040   4.563   1.017  15.981  0.9620 -0.1632  0.3827
 4803SOL     OW26041   1.730   2.185   3.274 -0.1294 -0.0465  0.3631
 4803SOL    HW126042   1.759   2.137   3.196 -0.3725 -0.8063  0.7335
 4803SOL    HW226043   1.697   2.269   3.242  0.4118 -0.6335 -1.7382
 4804SOL     OW26044   4.369   3.080  12.485 -0.1369 -0.1611 -0.4989
 4804SOL    HW126045   4.368   3.122  12.398 -2.1276 -0.2107 -0.5036
 4804SOL    HW226046   4.373   2.990  12.453  0.7121 -0.0682 -0.6541
 4805SOL     OW26047   4.101   3.164   3.907 -0.5225 -0.3300 -0.0348
 4805SOL    HW126048   4.119   3.074   3.881  0.4379  0.0084 -0.5171
 4805SOL    HW226049   4.171   3.219   3.873  0.8322 -1.3936  1.0447
 4806SOL     OW26050   2.799   3.540   6.056 -0.2334 -0.2668 -0.3654
 4806SOL    HW126051   2.738   3.477   6.017 -0.6065 -0.2521  0.1957
 4806SOL    HW226052   2.746   3.607   6.098 -1.1996  0.1856 -2.3175
 4807SOL     OW26053   1.398   4.493   5.988 -0.3013 -0.2466 -0.1352
 4807SOL    HW126054   1.410   4.444   5.906  0.7913 -1.1668  0.5727
 4807SOL    HW226055   1.345   4.563   5.948 -1.6463 -2.0696 -1.5814
 4808SOL     OW26056   3.859   0.544   4.400 -0.1107 -0.0369 -0.2987
 4808SOL    HW126057   3.835   0.637   4.398 -0.5892 -0.2215 -3.0488
 4808SOL    HW226058   3.861   0.535   4.495 -1.9469 -1.3749 -0.3865
 4809SOL     OW26059   3.729   3.870   5.994 -0.0862  0.3052 -0.8667
 4809SOL    HW126060   3.768   3.795   5.950 -0.6675  1.2666 -3.0522
 4809SOL    HW226061   3.735   3.933   5.922 -1.1199  0.5443 -0.7509
 4810SOL     OW26062   2.456   3.039  12.053  0.0412  0.4784  0.2831
 4810SOL    HW126063   2.440   3.048  11.959 -2.9169  0.9586  0.8094
 4810SOL    HW226064   2.417   3.119  12.089  1.0063  1.5103 -0.9243
 4811SOL     OW26065   1.177   0.068   5.079  0.1517 -0.0248  0.3321
 4811SOL    HW126066   1.255   0.045   5.028 -0.1977  2.0483 -1.1453
 4811SOL    HW226067   1.111   0.045   5.014  0.9893  1.2676 -0.9738
 4812SOL     OW26068   3.445   1.926   3.623  0.4772  0.1375  0.2893
 4812SOL    HW126069   3.371   1.977   3.589  1.0500  1.0079  0.3431
 4812SOL    HW226070   3.499   1.907   3.547  1.9110 -0.0344  1.3503
 4813SOL     OW26071   1.176   0.098   7.966  0.3398 -0.4679 -0.3483
 4813SOL    HW126072   1.121   0.021   7.977 -1.1475  0.3884 -1.8494
 4813SOL    HW226073   1.231   0.084   8.043  0.9955 -2.9614 -1.2915
 4814SOL     OW26074   0.590   2.714   3.395 -0.1771  0.5469 -1.3307
 4814SOL    HW126075   0.495   2.710   3.386 -0.2808  4.0352 -2.1502
 4814SOL    HW226076   0.622   2.678   3.312  1.5960  1.8925 -1.2389
 4815SOL     OW26077   2.656   0.763  10.902  0.3203  0.3119  0.4877
 4815SOL    HW126078   2.713   0.712  10.960  2.3926 -0.6512 -2.4253
 4815SOL    HW226079   2.700   0.848  10.890 -0.0831  0.6550  1.3796
 4816SOL     OW26080   3.184   0.107   7.013  0.1354  0.2988  0.2454
 4816SOL    HW126081   3.270   0.150   7.021  0.5990 -0.7813  1.0016
 4816SOL    HW226082   3.178   0.044   7.085  2.3711  0.7287  0.8136
 4817SOL     OW26083   4.293   4.164   9.622  0.4021  0.1577  0.1375
 4817SOL    HW126084   4.299   4.239   9.682  0.5472 -0.1320  0.4854
 4817SOL    HW226085   4.232   4.194   9.554 -0.6675  0.0772  1.0605
 4818SOL     OW26086   4.001   2.140   6.566 -0.6854  0.5409 -0.6937
 4818SOL    HW126087   4.018   2.088   6.488  2.3085 -1.6598  1.4031
 4818SOL    HW226088   4.091   2.164   6.590 -0.9412  0.2319  0.6091
 4819SOL     OW26089   3.660   0.642   7.695  0.2981 -0.0537  0.5650
 4819SOL    HW126090   3.600   0.680   7.759  0.2541  0.9895 -0.1031
 4819SOL    HW226091   3.673   0.555   7.734  1.2869  0.2043  0.8061
 4820SOL     OW26092   4.159   4.721  12.322 -0.3629  0.7882 -0.5031
 4820SOL    HW126093   4.142   4.665  12.397 -0.2796  1.1138 -0.2431
 4820SOL    HW226094   4.215   0.053  12.357 -0.5426  0.3169  0.7122
 4821SOL     OW26095   1.909   1.365   6.139 -0.6774  0.2046  0.3263
 4821SOL    HW126096   1.870   1.440   6.094 -0.6579 -0.5919 -1.0051
 4821SOL    HW226097   1.933   1.306   6.068 -0.0151  1.2258 -0.2990
 4822SOL     OW26098   3.483   2.125  12.287  0.0572 -1.0644  0.1760
 4822SOL    HW126099   3.411   2.126  12.349 -0.2721  0.7365 -0.2353
 4822SOL    HW226100   3.555   2.175  12.325 -0.5663  0.1828 -0.2995
 4823SOL     OW26101   1.998   0.722   5.455  0.1887 -0.1216 -0.5632
 4823SOL    HW126102   1.991   0.763   5.541  0.7040 -0.3251 -0.4232
 4823SOL    HW226103   2.014   0.631   5.481  0.1475 -0.5159 -1.8883
 4824SOL     OW26104   1.950   0.700  15.735  0.3415 -0.3159  0.0261
 4824SOL    HW126105   1.969   0.769  15.799 -1.5448 -1.2801  1.6137
 4824SOL    HW226106   1.930   0.747  15.654 -0.0792  0.3305  0.5054
 4825SOL     OW26107   3.643   1.701   3.021  0.0113 -0.0901  0.0355
 4825SOL    HW126108   3.667   1.705   3.113 -1.2718  2.9896  0.2428
 4825SOL    HW226109   3.658   1.607   3.012  2.3156  0.5089 -2.5121
 4826SOL     OW26110   3.902   0.833  11.363  0.0909 -0.6580  0.5937
 4826SOL    HW126111   3.903   0.918  11.319  3.2910 -0.8639  0.2828
 4826SOL    HW226112   3.860   0.782  11.294  0.6468  2.6714 -2.2295
 4827SOL     OW26113   2.783   0.740   3.063  0.7414 -0.7145 -0.6351
 4827SOL    HW126114   2.732   0.754   2.983 -0.7132 -3.1815 -0.1250
 4827SOL    HW226115   2.730   0.785   3.130  2.4820 -0.3161  0.4607
 4828SOL     OW26116   4.357   1.261   5.739  0.0033 -0.3248  0.0607
 4828SOL    HW126117   4.353   1.250   5.644 -0.6966  1.1616 -0.0808
 4828SOL    HW226118   4.415   1.190   5.767  0.7333  0.2860  0.0731
 4829SOL     OW26119   3.112   1.558  15.515 -0.3064 -0.2304  0.7364
 4829SOL    HW126120   3.058   1.536  15.592 -1.1363 -0.5906  0.0501
 4829SOL    HW226121   3.068   1.638  15.487 -2.0151 -1.6873 -0.7578
 4830SOL     OW26122   3.487   1.719   2.632 -0.0771  0.1463  0.6072
 4830SOL    HW126123   3.404   1.763   2.648 -1.3868 -1.1043 -2.8416
 4830SOL    HW226124   3.544   1.794   2.615  0.3700 -0.2298  0.4659
 4831SOL     OW26125   1.584   2.928  17.414 -0.6778 -0.0627 -0.3783
 4831SOL    HW126126   1.491   2.953  17.417 -0.2216  1.4037  1.0413
 4831SOL    HW226127   1.606   2.916  17.506 -0.4303 -0.8582 -0.5434
 4832SOL     OW26128   2.526   0.200   3.540 -0.0975  0.2961  0.0888
 4832SOL    HW126129   2.472   0.135   3.584  0.0728  0.2383  0.2120
 4832SOL    HW226130   2.608   0.163   3.509  0.6035  1.4507  0.5407
 4833SOL     OW26131   2.194   2.196   0.468 -0.1674  0.1185 -1.0498
 4833SOL    HW126132   2.153   2.113   0.442  1.0977  0.4658 -4.1950
 4833SOL    HW226133   2.199   2.190   0.563 -0.6313  1.3285 -0.9463
 4834SOL     OW26134   0.137   2.307  11.139 -0.1845  0.2091 -0.1670
 4834SOL    HW126135   0.170   2.389  11.176 -1.0132  0.1967  0.6081
 4834SOL    HW226136   0.200   2.288  11.070 -0.0186  1.5176 -0.3873
 4835SOL     OW26137   0.605   0.131   4.373  0.8899 -0.3145 -0.1952
 4835SOL    HW126138   0.568   0.103   4.289  0.6314 -0.2680 -0.0967
 4835SOL    HW226139   0.677   0.069   4.384  2.4641  1.4849 -0.3345
 4836SOL     OW26140   2.093   1.278  12.956 -0.4324 -0.9791 -0.1836
 4836SOL    HW126141   2.027   1.210  12.942 -0.0398 -0.9980 -1.9457
 4836SOL    HW226142   2.134   1.286  12.869  3.6908  0.6138  1.9396
 4837SOL     OW26143   1.759   3.208  12.390  0.0792 -0.3600  0.1739
 4837SOL    HW126144   1.725   3.296  12.408 -0.5558  0.0310 -2.9546
 4837SOL    HW226145   1.826   3.204  12.458  0.5655  1.2964 -0.2338
 4838SOL     OW26146   0.788   0.364   8.322 -0.2373  0.1963 -0.2492
 4838SOL    HW126147   0.768   0.344   8.230  3.6733 -0.3895 -0.9735
 4838SOL    HW226148   0.799   0.459   8.317  2.0847 -0.1130 -0.6987
 4839SOL     OW26149   1.981   1.561   7.179 -0.0224  0.1904 -0.1786
 4839SOL    HW126150   2.014   1.495   7.240 -0.4813  0.4028  0.2999
 4839SOL    HW226151   2.058   1.606   7.144  0.5063  0.9461  1.9435
 4840SOL     OW26152   2.808   2.675   4.365 -0.6351 -0.5675 -0.1219
 4840SOL    HW126153   2.870   2.746   4.384 -0.5127 -1.0355  1.2357
 4840SOL    HW226154   2.747   2.689   4.438 -1.4705  0.5908 -1.0481
 4841SOL     OW26155   0.432   1.122   0.366  0.4809  0.0911  0.3294
 4841SOL    HW126156   0.414   1.197   0.309 -1.0658 -0.9491 -0.5193
 4841SOL    HW226157   0.521   1.142   0.396 -0.1416  1.1298  1.5319
 4842SOL     OW26158   2.700   2.002  17.202  0.1079 -0.6161  0.1146
 4842SOL    HW126159   2.771   2.061  17.228 -0.3553 -0.7351  1.6044
 4842SOL    HW226160   2.634   2.049  17.251  0.5025  2.2199 -2.0568
 4843SOL     OW26161   3.469   3.821  15.769  0.5432 -0.0097 -0.5904
 4843SOL    HW126162   3.468   3.734  15.808 -1.1049  0.3220  0.1147
 4843SOL    HW226163   3.391   3.814  15.715 -0.0540  0.4529  0.2222
 4844SOL     OW26164   4.627   3.136   4.994 -0.8504 -0.1002 -0.5113
 4844SOL    HW126165   4.651   3.222   5.030  1.1774 -1.2277  0.8121
 4844SOL    HW226166   4.706   3.113   4.945  1.1715 -0.6070  3.0063
 4845SOL     OW26167   3.923   3.755   3.246 -0.0384  0.1667  0.0635
 4845SOL    HW126168   3.969   3.738   3.164 -0.9389  0.4666 -0.5016
 4845SOL    HW226169   3.896   3.845   3.230 -0.2829  0.0791 -0.0129
 4846SOL     OW26170   0.136   0.875   7.952  0.4998  0.3444 -0.3794
 4846SOL    HW126171   0.080   0.951   7.936 -1.4409 -0.3628  2.9430
 4846SOL    HW226172   0.096   0.815   7.889 -0.7879 -0.1364  0.8901
 4847SOL     OW26173   1.224   0.005   6.103  0.4211  0.2961  0.3281
 4847SOL    HW126174   1.228   0.074   6.169 -0.0200  0.5497  0.0913
 4847SOL    HW226175   1.316   4.713   6.108 -0.2000 -1.1814  2.8547
 4848SOL     OW26176   1.910   4.293   6.527 -0.3116  0.4511 -0.1056
 4848SOL    HW126177   1.944   4.357   6.589 -0.4543 -1.1057  1.5664
 4848SOL    HW226178   1.818   4.320   6.531  0.2318  2.1187  1.1183
 4849SOL     OW26179   2.287   0.861  12.774 -0.0289  0.1438  0.0763
 4849SOL    HW126180   2.284   0.795  12.844  1.6468  0.7538  0.7094
 4849SOL    HW226181   2.199   0.896  12.792 -0.7709 -2.0413  0.7209
 4850SOL     OW26182   1.268   0.714   2.885 -0.0473 -0.0016 -0.3900
 4850SOL    HW126183   1.270   0.637   2.827 -1.4952 -0.0135 -0.4349
 4850SOL    HW226184   1.360   0.735   2.898 -0.4979  2.7392 -1.5444
 4851SOL     OW26185   2.703   1.267   3.238  0.6505  0.1374  0.1352
 4851SOL    HW126186   2.628   1.242   3.292  1.0787 -0.1611  0.5921
 4851SOL    HW226187   2.769   1.207   3.273  0.6087  0.8875  1.5516
 4852SOL     OW26188   1.343   2.045   6.637 -1.0235 -0.1957  0.0569
 4852SOL    HW126189   1.359   2.087   6.721 -0.9018 -0.3010  0.0853
 4852SOL    HW226190   1.280   2.108   6.602 -0.5650  0.6443  0.7488
 4853SOL     OW26191   4.734   1.587  15.156  1.2944 -1.0285 -0.4490
 4853SOL    HW126192   4.734   1.493  15.171 -2.2282 -0.9867 -0.0872
 4853SOL    HW226193   0.053   1.605  15.081  1.8556 -0.6382  0.0620
 4854SOL     OW26194   2.973   3.936   4.669  0.0635  0.1772 -0.0745
 4854SOL    HW126195   3.010   3.961   4.585 -0.4472 -1.0174 -0.6498
 4854SOL    HW226196   2.940   3.848   4.653 -0.4891  0.2472  0.6584
 4855SOL     OW26197   4.437   2.014   2.668  0.5887 -0.7393  0.1738
 4855SOL    HW126198   4.477   2.097   2.641 -0.7367 -0.6230 -1.4312
 4855SOL    HW226199   4.378   2.047   2.737  2.1168 -0.2582  1.2463
 4856SOL     OW26200   0.327   2.530   1.502 -0.0486  0.1768 -0.1016
 4856SOL    HW126201   0.339   2.586   1.580  1.9682  1.1691 -1.1193
 4856SOL    HW226202   0.392   2.573   1.447  0.2776  0.3821  0.4421
 4857SOL     OW26203   1.748   1.164  15.201  0.0846  0.4275  0.3812
 4857SOL    HW126204   1.804   1.191  15.128  0.8976 -1.6378  0.2460
 4857SOL    HW226205   1.668   1.144  15.152 -0.3117 -1.7554  1.9132
 4858SOL     OW26206   2.355   3.411  17.514  0.5351 -0.3401 -0.1650
 4858SOL    HW126207   2.383   3.325  17.484 -0.6808 -0.4223 -1.1068
 4858SOL    HW226208   2.283   3.420  17.451 -2.4849 -1.2155  3.1586
 4859SOL     OW26209   3.232   3.759  10.306 -0.2226  0.4626 -0.3778
 4859SOL    HW126210   3.298   3.697  10.274 -1.5193 -1.4092  0.6113
 4859SOL    HW226211   3.237   3.835  10.248  0.1468  0.3095 -0.5494
 4860SOL     OW26212   4.498   1.927   4.648 -0.2719 -0.9817  0.6245
 4860SOL    HW126213   4.433   1.933   4.718 -0.1318  1.1762  0.5621
 4860SOL    HW226214   4.567   1.889   4.703  1.5010  2.7084  1.0035
 4861SOL     OW26215   1.068   4.071  16.975  0.2772 -0.1910  0.0155
 4861SOL    HW126216   1.156   4.034  16.984  1.0961  1.7606 -0.0640
 4861SOL    HW226217   1.065   4.143  17.038  2.7101 -1.7996  2.0387
 4862SOL     OW26218   1.246   0.989   4.320  0.7823  0.1687 -0.0151
 4862SOL    HW126219   1.239   0.945   4.405 -1.3333 -1.4890 -1.0374
 4862SOL    HW226220   1.157   0.976   4.286  0.3565 -2.3198  1.9696
 4863SOL     OW26221   1.003   1.919   7.296  1.1016 -0.0088  0.6601
 4863SOL    HW126222   1.031   1.965   7.376 -1.7944  0.5372  1.3471
 4863SOL    HW226223   1.025   1.831   7.326 -0.4314 -0.7789 -0.4955
 4864SOL     OW26224   2.044   1.521   0.409 -0.2524  0.0793 -0.4306
 4864SOL    HW126225   2.107   1.592   0.399 -0.2073  0.0717 -0.1845
 4864SOL    HW226226   1.962   1.546   0.365 -1.5986 -1.0489  1.4102
 4865SOL     OW26227   3.394   1.661   3.490 -0.2305  0.0665  0.1032
 4865SOL    HW126228   3.408   1.736   3.433 -0.2801  0.5347  0.7135
 4865SOL    HW226229   3.417   1.695   3.577 -0.5567  0.4265  0.0461
 4866SOL     OW26230   3.102   1.269  16.117  0.0534 -0.2647 -0.0067
 4866SOL    HW126231   3.113   1.355  16.077 -2.4883 -0.3252 -0.8398
 4866SOL    HW226232   3.088   1.213  16.040  0.2376  2.9015 -2.3468
 4867SOL     OW26233   3.966   1.247   5.990  0.6774 -0.0696 -0.7994
 4867SOL    HW126234   3.879   1.287   5.980  0.9412  1.0140  1.1025
 4867SOL    HW226235   4.007   1.315   5.937  0.7182 -1.1500 -2.1380
 4868SOL     OW26236   0.203   2.517   3.592 -0.0788 -0.4585  0.4691
 4868SOL    HW126237   0.194   2.612   3.582 -0.0958 -0.3633  1.3423
 4868SOL    HW226238   0.142   2.476   3.532 -2.4327  0.8475  1.9704
 4869SOL     OW26239   1.952   2.711   7.097  0.6534  0.0759 -0.0627
 4869SOL    HW126240   2.015   2.729   7.027 -0.8526  1.0560 -1.1689
 4869SOL    HW226241   1.889   2.656   7.051  0.0023  0.9164 -0.1667
 4870SOL     OW26242   3.156   4.150  10.471 -0.2303 -0.7112  0.2655
 4870SOL    HW126243   3.093   4.214  10.503 -0.3884 -1.0092  0.5418
 4870SOL    HW226244   3.160   4.173  10.378  0.0286 -0.3130  0.3755
 4871SOL     OW26245   1.666   2.241   0.847  0.2112 -0.5918  0.2298
 4871SOL    HW126246   1.587   2.222   0.899  0.5366  1.0316  1.3445
 4871SOL    HW226247   1.720   2.166   0.870  1.6006  0.3329  0.0035
 4872SOL     OW26248   0.473   0.488  13.725  0.4215  0.0210 -0.0856
 4872SOL    HW126249   0.454   0.568  13.676  0.3981 -0.5578 -1.0428
 4872SOL    HW226250   0.533   0.443  13.665  0.9289  0.3508  0.1762
 4873SOL     OW26251   4.508   0.092   8.768 -0.0219  0.0481 -0.1677
 4873SOL    HW126252   4.550   0.118   8.686  2.2555 -0.6084  0.8227
 4873SOL    HW226253   4.443   0.027   8.740  0.9151 -0.2403 -1.6839
 4874SOL     OW26254   2.542   2.678  11.318 -0.2612 -0.2054  0.1325
 4874SOL    HW126255   2.614   2.615  11.330  0.4466  0.8397  1.3874
 4874SOL    HW226256   2.483   2.620  11.269  1.9297 -2.2214 -0.1380
 4875SOL     OW26257   3.054   2.306   4.097 -0.2331 -0.7037 -0.1358
 4875SOL    HW126258   3.112   2.369   4.139 -0.7197 -1.1603  1.2290
 4875SOL    HW226259   3.110   2.264   4.032 -0.9656 -1.4234 -0.3100
 4876SOL     OW26260   2.762   0.381   4.134  0.0186  0.0088 -1.0062
 4876SOL    HW126261   2.777   0.449   4.068  0.6528  0.7676 -0.0811
 4876SOL    HW226262   2.667   0.383   4.146 -0.1325 -1.6046 -1.9442
 4877SOL     OW26263   3.632   4.552  10.065  0.7501  0.3338  0.3768
 4877SOL    HW126264   3.652   4.475  10.012  0.8079  1.1770 -0.8201
 4877SOL    HW226265   3.589   4.612  10.004 -0.0398 -1.8220 -1.1979
 4878SOL     OW26266   2.633   3.941   6.929 -0.3401 -0.4014 -0.0522
 4878SOL    HW126267   2.549   3.902   6.905 -0.8938  1.6927 -1.6149
 4878SOL    HW226268   2.689   3.865   6.938  1.4613  0.8792 -0.3103
 4879SOL     OW26269   3.461   0.059   0.203  0.7495  0.4478  0.6019
 4879SOL    HW126270   3.418   0.116   0.267 -0.5806 -0.3317  0.3808
 4879SOL    HW226271   3.383   0.011   0.178  2.1125 -1.9443  0.9057
 4880SOL     OW26272   3.686   3.641   2.434  0.3321 -0.2985  0.1687
 4880SOL    HW126273   3.772   3.660   2.470  0.5890  0.8106 -1.0229
 4880SOL    HW226274   3.693   3.659   2.340 -2.9276 -1.1334 -0.2539
 4881SOL     OW26275   2.391   2.543  12.516 -0.1120  0.2256 -0.5778
 4881SOL    HW126276   2.297   2.541  12.535  0.1497  0.4455  0.7583
 4881SOL    HW226277   2.405   2.472  12.453 -1.3911  0.6558 -1.3247
 4882SOL     OW26278   3.644   3.500   1.782  0.6219  0.1691 -0.2676
 4882SOL    HW126279   3.588   3.520   1.856  1.4115 -0.9434  0.6367
 4882SOL    HW226280   3.682   3.586   1.764  0.5672 -0.1673 -2.0693
 4883SOL     OW26281   1.733   4.216  16.023 -0.2415  0.0502  0.1686
 4883SOL    HW126282   1.782   4.194  16.102 -2.6960 -0.0219  1.6884
 4883SOL    HW226283   1.794   4.165  15.970  0.0518  1.0817 -0.4802
 4884SOL     OW26284   3.842   4.412   6.628 -0.2447  0.1352 -0.0321
 4884SOL    HW126285   3.765   4.423   6.684  0.5456  1.0602  0.8736
 4884SOL    HW226286   3.891   4.352   6.685 -0.3903  1.0487  1.0413
 4885SOL     OW26287   3.898   1.692   2.828 -0.3481 -0.0114  0.5566
 4885SOL    HW126288   3.903   1.610   2.876  0.4042 -0.2705  0.0416
 4885SOL    HW226289   3.848   1.739   2.895 -1.6546 -0.8358  0.1538
 4886SOL     OW26290   4.572   3.273   4.116 -0.3521  0.5229 -0.7148
 4886SOL    HW126291   4.590   3.366   4.134  0.0007  0.2071  0.5576
 4886SOL    HW226292   4.660   3.240   4.097 -0.1270  1.4621 -1.3229
 4887SOL     OW26293   0.166   2.938   8.075 -0.4770 -0.1066 -0.3589
 4887SOL    HW126294   0.258   2.963   8.078 -0.7527  0.7257  0.9447
 4887SOL    HW226295   0.138   2.974   7.991  0.9230  0.6807 -0.4907
 4888SOL     OW26296   1.983   2.562   8.679 -0.8967  0.1632  0.0794
 4888SOL    HW126297   2.009   2.471   8.664  1.7338  0.4670  2.7445
 4888SOL    HW226298   2.059   2.602   8.636 -0.4517 -0.3840  0.3704
 4889SOL     OW26299   1.460   4.588   5.217  0.0701  0.5308  0.1488
 4889SOL    HW126300   1.380   4.543   5.188 -0.9849  1.2863  1.8821
 4889SOL    HW226301   1.522   4.517   5.233 -0.5365  0.1081  0.6240
 4890SOL     OW26302   4.439   1.307   3.053 -0.1523  0.3549 -0.8833
 4890SOL    HW126303   4.375   1.237   3.038  1.1536 -0.7912 -1.1810
 4890SOL    HW226304   4.522   1.258   3.055  0.1671  0.9901  2.3648
 4891SOL     OW26305   3.499   2.603   8.743  0.3863  0.1535 -0.2822
 4891SOL    HW126306   3.463   2.515   8.746 -1.2024  0.8549  1.1993
 4891SOL    HW226307   3.432   2.634   8.683  1.9812  1.5488 -1.3448
 4892SOL     OW26308   1.605   3.032   5.121  0.1321  0.9893 -0.3034
 4892SOL    HW126309   1.557   2.966   5.172  1.3623 -0.2129 -0.6930
 4892SOL    HW226310   1.559   3.110   5.152 -1.0033 -0.6018  2.0176
 4893SOL     OW26311   3.267   0.533  10.402  0.3806  0.1072 -0.1771
 4893SOL    HW126312   3.220   0.458  10.365  0.2329 -0.1334  0.5013
 4893SOL    HW226313   3.213   0.608  10.378  0.7280 -0.3398 -2.4208
 4894SOL     OW26314   3.051   3.248   2.930  0.7306 -0.1335  0.2284
 4894SOL    HW126315   3.007   3.219   3.010 -1.8208  0.9137 -0.7939
 4894SOL    HW226316   3.064   3.339   2.956 -2.4509  0.1508  0.8857
 4895SOL     OW26317   1.123   3.546  14.135 -0.6536 -0.4423 -0.2979
 4895SOL    HW126318   1.054   3.502  14.184  2.3320 -1.0254  3.3777
 4895SOL    HW226319   1.194   3.483  14.123  1.1292  1.5356 -0.1540
 4896SOL     OW26320   1.063   1.787   5.338  0.0182 -0.1452 -0.0783
 4896SOL    HW126321   1.150   1.813   5.367 -0.7583  0.0432  2.0608
 4896SOL    HW226322   1.025   1.783   5.426  0.4341 -0.0875  0.1034
 4897SOL     OW26323   3.167   4.439   2.216  0.5482 -0.4475 -0.1119
 4897SOL    HW126324   3.109   4.484   2.155 -0.2348 -1.7793 -0.3480
 4897SOL    HW226325   3.102   4.383   2.258  1.4826 -1.4580 -0.0119
 4898SOL     OW26326   0.898   2.563   6.802 -0.0970 -0.2439  0.0590
 4898SOL    HW126327   0.833   2.629   6.825  1.0653  0.2492  1.8966
 4898SOL    HW226328   0.846   2.526   6.731  1.0827 -1.6466 -0.0874
 4899SOL     OW26329   0.236   1.049   0.546 -0.4388 -0.0039  0.3409
 4899SOL    HW126330   0.312   1.079   0.496 -0.0476  1.1022  1.6110
 4899SOL    HW226331   0.169   1.085   0.487  0.2553 -0.3096 -0.6350
 4900SOL     OW26332   0.131   4.004  14.377  0.5085 -0.0133  0.1366
 4900SOL    HW126333   0.111   3.951  14.455 -2.4450 -0.0488 -0.6412
 4900SOL    HW226334   0.055   4.062  14.377  1.0949  0.7512  0.4775
 4901SOL     OW26335   0.355   1.302   7.857 -0.3488  0.1552  0.1891
 4901SOL    HW126336   0.318   1.242   7.922  0.2222 -0.5751 -0.1630
 4901SOL    HW226337   0.285   1.305   7.791  0.2279 -1.2350 -0.4798
 4902SOL     OW26338   2.701   0.304  11.577  1.0474  0.4891  0.6222
 4902SOL    HW126339   2.677   0.352  11.656  1.4081 -0.6946  1.4326
 4902SOL    HW226340   2.697   0.382  11.520 -0.7809  0.1865  0.3086
 4903SOL     OW26341   0.152   2.544   8.747  0.0266  0.2546  0.1263
 4903SOL    HW126342   0.219   2.610   8.731  0.1646  0.3446  1.0894
 4903SOL    HW226343   0.075   2.595   8.774 -0.5224 -0.0017 -0.9360
 4904SOL     OW26344   3.218   0.308  10.901  0.4659 -0.6785  0.2413
 4904SOL    HW126345   3.148   0.331  10.839  1.0796  1.7755  0.4705
 4904SOL    HW226346   3.193   0.216  10.915 -0.6397 -0.6992 -1.7883
 4905SOL     OW26347   1.424   1.373   4.623 -0.5248  0.2245  0.0424
 4905SOL    HW126348   1.379   1.386   4.539 -0.3697 -1.5358 -0.3135
 4905SOL    HW226349   1.518   1.378   4.607 -0.7818 -2.4044 -2.3553
 4906SOL     OW26350   2.167   0.349  12.629  0.5249 -0.4056 -0.8166
 4906SOL    HW126351   2.129   0.418  12.685  0.5179 -1.3787  0.3797
 4906SOL    HW226352   2.228   0.307  12.689 -0.1725  1.7797  1.4398
 4907SOL     OW26353   0.294   4.260   6.645 -0.3941 -0.0481  0.1282
 4907SOL    HW126354   0.247   4.207   6.580 -2.0954  3.1070 -1.1667
 4907SOL    HW226355   0.275   4.202   6.719 -1.3178  2.9615  2.2259
 4908SOL     OW26356   0.223   4.282   1.652 -0.2075  0.8114 -0.0657
 4908SOL    HW126357   0.164   4.231   1.707  0.1279  0.0668 -0.4019
 4908SOL    HW226358   0.305   4.238   1.671 -2.0188 -2.1274  0.8954
 4909SOL     OW26359   3.382   1.427   6.029 -0.2837  0.0285  0.4288
 4909SOL    HW126360   3.433   1.352   5.998  1.0233  1.6514 -1.3403
 4909SOL    HW226361   3.296   1.401   5.997  0.2740  2.8121 -3.3557
 4910SOL     OW26362   3.257   4.247   5.547  0.8609  0.4761  0.4997
 4910SOL    HW126363   3.179   4.288   5.510 -1.2319 -3.6670  0.2954
 4910SOL    HW226364   3.321   4.286   5.488 -0.7293  0.4606 -1.2314
 4911SOL     OW26365   3.556   4.511   6.960  0.1631 -0.3821 -0.1042
 4911SOL    HW126366   3.509   4.451   7.018  1.7088 -1.5356 -0.0279
 4911SOL    HW226367   3.635   4.525   7.013  0.3791 -3.0682  0.2931
 4912SOL     OW26368   0.290   1.736   7.445  0.2930 -0.0389 -0.2428
 4912SOL    HW126369   0.224   1.752   7.512  1.3890 -0.7815  1.0296
 4912SOL    HW226370   0.241   1.767   7.369 -0.0641 -1.1607 -0.4619
 4913SOL     OW26371   3.086   0.050  13.602  0.2743  0.1213  0.1397
 4913SOL    HW126372   3.166   0.074  13.556 -1.3612 -0.4133 -2.9874
 4913SOL    HW226373   3.021   0.109  13.564 -0.7194  0.0043  1.6399
 4914SOL     OW26374   1.707   2.597   6.471 -0.1667 -0.0582  0.3753
 4914SOL    HW126375   1.764   2.656   6.421 -2.5583  0.6466 -1.5392
 4914SOL    HW226376   1.749   2.513   6.453 -1.5713 -0.7169  0.2143
 4915SOL     OW26377   1.766   3.219   8.012 -0.2700 -0.2296  0.2435
 4915SOL    HW126378   1.789   3.130   7.986  0.0495 -0.0223 -0.1921
 4915SOL    HW226379   1.731   3.212   8.101 -1.0323  1.9223  0.1084
 4916SOL     OW26380   0.037   1.912  11.348 -0.1253  0.0911  0.3561
 4916SOL    HW126381   4.717   1.838  11.328 -1.4777  1.0333  0.6497
 4916SOL    HW226382   0.043   1.946  11.259 -0.1733 -2.3820 -0.5746
 4917SOL     OW26383   0.450   4.708   7.767 -1.1234 -0.0757  0.3242
 4917SOL    HW126384   0.504   4.631   7.782 -1.5650 -0.1319  1.5759
 4917SOL    HW226385   0.365   4.664   7.768 -1.7568  1.1411  0.8000
 4918SOL     OW26386   3.704   4.079   6.481 -0.0112 -0.2714  0.0559
 4918SOL    HW126387   3.644   4.128   6.426  0.8222  1.0300  0.3159
 4918SOL    HW226388   3.709   3.995   6.435 -0.6945  0.0475 -0.5959
 4919SOL     OW26389   1.542   2.992   4.844 -0.0485 -0.0273 -0.0075
 4919SOL    HW126390   1.570   3.081   4.865  0.7274 -0.6039  1.4001
 4919SOL    HW226391   1.523   2.961   4.933 -0.9214  0.0320 -0.1722
 4920SOL     OW26392   1.217   4.443   5.156 -0.2667 -0.2149  0.0805
 4920SOL    HW126393   1.219   4.357   5.198  0.0228  0.5758  1.6658
 4920SOL    HW226394   1.129   4.471   5.181  0.5252  2.9029 -0.6686
 4921SOL     OW26395   3.878   4.722  14.134 -0.0682  0.4694 -0.4519
 4921SOL    HW126396   3.832   4.717  14.217 -0.1096  0.1412 -0.4946
 4921SOL    HW226397   3.867   4.634  14.099  0.0783  0.1741  0.2476
 4922SOL     OW26398   1.140   3.217  10.170 -0.3047 -0.7033 -0.5370
 4922SOL    HW126399   1.210   3.234  10.232 -0.1342  0.4085 -1.0266
 4922SOL    HW226400   1.172   3.149  10.112  1.5715 -1.0025  0.8767
 4923SOL     OW26401   2.893   4.403   1.828  0.1683 -0.1994  0.3754
 4923SOL    HW126402   2.944   4.333   1.868  0.1241 -0.6498 -0.3719
 4923SOL    HW226403   2.948   4.436   1.757 -2.1803  2.2259 -0.3394
 4924SOL     OW26404   4.585   4.636   7.182  0.6953 -0.1644 -0.3094
 4924SOL    HW126405   4.534   4.710   7.148 -0.8305 -0.2271  1.8548
 4924SOL    HW226406   4.629   4.614   7.099 -0.3028  1.2968 -1.2376
 4925SOL     OW26407   2.452   1.033   7.774 -0.0721 -0.2438  0.3269
 4925SOL    HW126408   2.535   0.985   7.767  0.4825  1.0853 -2.2650
 4925SOL    HW226409   2.426   1.039   7.865 -1.1179  1.9561 -0.1078
 4926SOL     OW26410   4.178   4.240   4.023  0.3009 -0.4740  0.6325
 4926SOL    HW126411   4.215   4.159   3.989  0.1524 -1.2363  2.2778
 4926SOL    HW226412   4.096   4.242   3.974 -0.1052  1.3528  1.3867
 4927SOL     OW26413   3.991   4.450   2.539 -0.6569 -0.3138  0.3491
 4927SOL    HW126414   4.015   4.407   2.622  1.5291  1.1238  0.4717
 4927SOL    HW226415   3.966   4.535   2.575 -1.5783  0.0881 -1.2869
 4928SOL     OW26416   3.323   3.949  11.717 -0.0692  0.0403  0.4762
 4928SOL    HW126417   3.351   3.941  11.626 -0.3121 -2.7522  0.6657
 4928SOL    HW226418   3.398   3.991  11.759 -2.3518  2.6501  1.9365
 4929SOL     OW26419   2.837   3.862   3.406 -0.3048 -0.6395 -0.2957
 4929SOL    HW126420   2.854   3.780   3.453 -1.9252 -0.1239  1.1679
 4929SOL    HW226421   2.928   3.889   3.390 -0.6735  0.0629 -1.2145
 4930SOL     OW26422   2.847   2.324   6.793 -0.0282  0.1959  0.4606
 4930SOL    HW126423   2.781   2.269   6.835 -0.6029  0.7717  0.3153
 4930SOL    HW226424   2.815   2.340   6.704 -0.4283 -1.6971  0.2609
 4931SOL     OW26425   3.677   1.610  15.555  0.1935  0.3640 -0.5575
 4931SOL    HW126426   3.685   1.620  15.460 -0.4944  1.4694 -0.5092
 4931SOL    HW226427   3.581   1.618  15.549  0.3388  1.4075 -1.6434
 4932SOL     OW26428   4.466   2.036   7.704 -0.1755  0.4706 -0.1213
 4932SOL    HW126429   4.553   2.037   7.745  0.2407 -0.5071 -0.9912
 4932SOL    HW226430   4.400   2.011   7.769 -1.4174  2.1055 -0.7391
 4933SOL     OW26431   2.891   4.278   6.421  0.3227 -0.5855 -0.4451
 4933SOL    HW126432   2.895   4.372   6.440 -4.2494 -0.9898  2.4653
 4933SOL    HW226433   2.797   4.262   6.412  0.2493 -1.4997  2.0018
 4934SOL     OW26434   1.385   3.191  12.649  0.6051 -0.3471 -0.6065
 4934SOL    HW126435   1.386   3.277  12.607  0.1915  0.7957  1.7171
 4934SOL    HW226436   1.475   3.159  12.648  0.1843 -1.5536  0.1220
 4935SOL     OW26437   0.373   0.744  17.202  0.7748 -0.2095 -0.1445
 4935SOL    HW126438   0.282   0.723  17.179  1.1288 -0.0205 -1.7735
 4935SOL    HW226439   0.367   0.745  17.297 -1.5378 -1.9136 -0.2519
 4936SOL     OW26440   2.987   1.347   7.260 -0.1343  0.1088 -0.2629
 4936SOL    HW126441   2.956   1.385   7.177  0.4628  0.7934 -0.1746
 4936SOL    HW226442   3.066   1.303   7.228 -0.2389 -0.8529  0.8138
 4937SOL     OW26443   0.141   0.062   6.723 -0.2841  0.0564 -0.0948
 4937SOL    HW126444   0.115   4.708   6.712  1.9509 -0.6683  0.4865
 4937SOL    HW226445   0.232   0.062   6.692 -0.0791 -2.0443  0.5349
 4938SOL     OW26446   3.724   0.230   5.151  0.8377  0.3920  0.1002
 4938SOL    HW126447   3.804   0.281   5.152  0.4524  0.9964  0.0574
 4938SOL    HW226448   3.663   0.299   5.125 -0.5871  0.2995  3.1129
 4939SOL     OW26449   4.252   1.381   2.225 -0.2212 -0.1423  0.4429
 4939SOL    HW126450   4.223   1.301   2.270 -1.5998 -0.9431 -1.8894
 4939SOL    HW226451   4.222   1.440   2.294 -0.4269 -1.0101  1.0913
 4940SOL     OW26452   2.665   3.924   9.721  0.0427 -0.0448 -0.0838
 4940SOL    HW126453   2.717   3.991   9.676  0.1686  0.2236  0.4572
 4940SOL    HW226454   2.735   3.860   9.737 -2.3385 -2.0946  2.0868
 4941SOL     OW26455   1.770   3.472   5.193  0.2592  0.1203  0.0544
 4941SOL    HW126456   1.738   3.551   5.149  1.7206  1.3768  1.3118
 4941SOL    HW226457   1.695   3.454   5.250 -1.2738  2.6130 -1.1820
 4942SOL     OW26458   0.818   0.341   3.081 -0.3522 -0.3999  0.1079
 4942SOL    HW126459   0.889   0.341   3.145 -1.3747  0.7833  1.2439
 4942SOL    HW226460   0.802   0.435   3.071 -0.9758 -0.5897 -0.7453
 4943SOL     OW26461   1.274   1.662   2.003  0.1788 -0.4510 -0.1472
 4943SOL    HW126462   1.268   1.703   1.917 -1.9483  0.4449  0.4472
 4943SOL    HW226463   1.367   1.638   2.004 -0.3028 -2.3401 -0.0662
 4944SOL     OW26464   1.375   0.076   7.087  0.1176  0.2262  0.3115
 4944SOL    HW126465   1.383   0.066   7.181 -1.3033  0.4687  0.4575
 4944SOL    HW226466   1.385   0.168   7.062  1.8699  0.5658  2.3713
 4945SOL     OW26467   2.382   0.935   5.027 -0.0529  0.1757 -0.7021
 4945SOL    HW126468   2.454   0.913   4.967  0.0863 -3.1979  0.6880
 4945SOL    HW226469   2.349   0.846   5.040  0.1822 -0.1385 -2.2315
 4946SOL     OW26470   4.103   1.616   0.908  0.7621  0.3602 -0.2623
 4946SOL    HW126471   4.191   1.628   0.873  1.2557 -0.0004  0.8472
 4946SOL    HW226472   4.107   1.539   0.965 -0.4275 -0.4310 -1.2487
 4947SOL     OW26473   3.989   0.441   2.232 -0.6308 -0.5451  0.7210
 4947SOL    HW126474   4.058   0.435   2.298 -1.6552  0.2776  1.8667
 4947SOL    HW226475   3.976   0.347   2.223 -3.5273 -0.0860  0.1671
 4948SOL     OW26476   3.708   2.407   1.809 -0.1330 -0.1119 -0.1968
 4948SOL    HW126477   3.755   2.459   1.744 -1.4815 -1.6770 -2.4266
 4948SOL    HW226478   3.743   2.319   1.794  0.9133  0.3558 -0.4473
 4949SOL     OW26479   0.056   4.619   8.105  0.1934 -0.2694  0.2280
 4949SOL    HW126480   4.729   4.579   8.046  1.4309 -1.5913 -0.2136
 4949SOL    HW226481   0.134   4.564   8.101 -0.7140 -1.4999 -0.4177
 4950SOL     OW26482   1.811   4.604   2.158 -0.2783  0.1682 -1.1115
 4950SOL    HW126483   1.800   4.595   2.063 -1.3868  1.6758 -1.1285
 4950SOL    HW226484   1.720   4.612   2.187 -0.5550 -0.0904 -1.8982
 4951SOL     OW26485   1.886   3.852   8.522 -0.0535 -0.3962 -0.4543
 4951SOL    HW126486   1.902   3.927   8.464 -0.4357  1.2419  1.5759
 4951SOL    HW226487   1.811   3.811   8.479 -1.0743  0.0929  0.8655
 4952SOL     OW26488   0.121   0.726   6.157 -0.4120 -0.3334 -0.2596
 4952SOL    HW126489   0.034   0.688   6.152 -0.6468  0.1764 -0.0978
 4952SOL    HW226490   0.115   0.797   6.093 -2.2553  0.5942  0.9430
 4953SOL     OW26491   3.428   2.711   7.175  0.2788  0.3662  0.2296
 4953SOL    HW126492   3.407   2.798   7.142  1.1550 -0.1007 -1.5714
 4953SOL    HW226493   3.346   2.664   7.162 -0.1477  0.9065  1.0023
 4954SOL     OW26494   0.150   1.787   7.692  0.2390 -0.2520  0.1286
 4954SOL    HW126495   0.142   1.692   7.702 -0.2012  0.1165  3.1143
 4954SOL    HW226496   0.222   1.816   7.748 -1.0978 -0.3369  1.8605
 4955SOL     OW26497   4.076   4.712   4.708  0.0983 -0.4822 -0.6826
 4955SOL    HW126498   4.061   4.658   4.631 -0.6338 -2.2675  0.7266
 4955SOL    HW226499   4.007   0.039   4.690 -1.2590 -1.6378  0.3758
 4956SOL     OW26500   4.418   4.568   0.606  0.2003 -0.4673 -0.0102
 4956SOL    HW126501   4.434   4.651   0.562 -2.1267 -0.8389 -1.5594
 4956SOL    HW226502   4.408   4.609   0.692 -2.6286 -0.5924 -0.2930
 4957SOL     OW26503   3.778   0.523   9.267 -0.7747  0.1512 -0.0766
 4957SOL    HW126504   3.826   0.489   9.343  0.2048 -0.8914 -1.1643
 4957SOL    HW226505   3.832   0.598   9.241  1.2294 -1.5494 -0.8152
 4958SOL     OW26506   2.652   0.954   3.280  0.7797 -0.6479 -0.4826
 4958SOL    HW126507   2.742   0.985   3.288  0.8371 -1.3904  1.9989
 4958SOL    HW226508   2.629   0.935   3.371 -4.0147 -1.6045 -1.9022
 4959SOL     OW26509   2.669   2.220   2.599 -0.4520  0.1789 -0.4510
 4959SOL    HW126510   2.725   2.267   2.537 -0.0150  0.0693 -0.1375
 4959SOL    HW226511   2.592   2.276   2.591 -0.1029  0.8338  0.7532
 4960SOL     OW26512   0.186   1.305  10.177  0.2196  0.6979 -0.0326
 4960SOL    HW126513   0.232   1.389  10.172 -0.3256  1.1213  2.3606
 4960SOL    HW226514   0.099   1.314  10.139  0.7800 -0.8374 -1.7103
 4961SOL     OW26515   3.854   4.623   7.028 -0.7825  0.3369 -0.1761
 4961SOL    HW126516   3.948   4.608   7.021 -0.6297  1.1392  0.1549
 4961SOL    HW226517   3.851   4.599   7.121 -0.9285 -0.0606 -0.2837
 4962SOL     OW26518   3.277   1.372   4.568  0.1780  0.1779 -0.2693
 4962SOL    HW126519   3.308   1.332   4.487 -0.8322 -1.7290  0.2654
 4962SOL    HW226520   3.265   1.460   4.533  0.6148 -0.6017 -2.3913
 4963SOL     OW26521   0.148   1.500   3.520  0.1001 -0.1678  0.4250
 4963SOL    HW126522   0.123   1.592   3.504  1.6811  0.2104  0.1281
 4963SOL    HW226523   0.086   1.484   3.592  0.0553 -1.6648  0.0455
 4964SOL     OW26524   3.555   3.673   2.876  0.0188  0.3499  0.0792
 4964SOL    HW126525   3.602   3.751   2.849 -1.0709  0.9724 -0.0258
 4964SOL    HW226526   3.610   3.604   2.838 -1.0481 -1.3802  1.6520
 4965SOL     OW26527   1.087   1.099   7.859 -0.3792  0.0563 -0.1587
 4965SOL    HW126528   1.091   1.149   7.940  0.1362 -0.3822  0.0910
 4965SOL    HW226529   1.154   1.031   7.873  0.1464  0.8149  0.9694
 4966SOL     OW26530   0.874   2.034   5.434  0.0623  0.7801  0.5433
 4966SOL    HW126531   0.808   1.968   5.415 -0.7996  0.5495  4.3515
 4966SOL    HW226532   0.930   1.988   5.496 -1.0409  0.5001  1.3309
 4967SOL     OW26533   2.160   2.780  16.535  0.1990 -0.3433 -0.3993
 4967SOL    HW126534   2.084   2.736  16.573  1.0110 -1.3189  0.0778
 4967SOL    HW226535   2.113   2.806  16.456 -0.3540  2.8427  0.9714
 4968SOL     OW26536   1.441   4.090   4.772  0.5744 -0.1258  0.1438
 4968SOL    HW126537   1.529   4.054   4.761  0.9411  1.2165 -1.2097
 4968SOL    HW226538   1.408   4.073   4.684  0.6748 -0.2552  0.1323
 4969SOL     OW26539   3.053   2.291   3.548 -0.3767 -0.1044 -0.5042
 4969SOL    HW126540   3.012   2.336   3.475 -0.1062 -0.0717 -0.6333
 4969SOL    HW226541   2.985   2.242   3.595  2.5270 -1.6653  2.1499
 4970SOL     OW26542   2.006   3.690  14.800  0.6959 -0.1901 -0.0140
 4970SOL    HW126543   2.078   3.652  14.851  0.0823 -0.1099  0.9068
 4970SOL    HW226544   1.926   3.656  14.840 -0.2840  1.9807 -0.1124
 4971SOL     OW26545   4.598   2.866   3.270  0.2014  0.2517 -0.2281
 4971SOL    HW126546   4.533   2.796   3.277 -1.1666  1.7060  1.4093
 4971SOL    HW226547   4.657   2.822   3.208  0.2943  0.4519 -0.2844
 4972SOL     OW26548   3.689   0.781   9.820  0.6502 -0.1167 -0.2144
 4972SOL    HW126549   3.641   0.773   9.903  0.7389 -0.4618 -0.1987
 4972SOL    HW226550   3.743   0.858   9.838  1.1285 -0.1971 -1.2965
 4973SOL     OW26551   1.247   4.408   6.691  0.2108  0.1593  0.5008
 4973SOL    HW126552   1.264   4.381   6.601  1.6004 -0.5663  0.9905
 4973SOL    HW226553   1.203   4.327   6.717  0.7975 -0.5197 -0.6073
 4974SOL     OW26554   1.032   1.422   5.520  0.0597  0.7278 -0.3370
 4974SOL    HW126555   1.085   1.418   5.600 -0.9057  1.9534  0.3597
 4974SOL    HW226556   0.945   1.437   5.558  0.1099  0.9100 -0.2986
 4975SOL     OW26557   1.181   0.272   9.985  0.7562  0.3499  0.2298
 4975SOL    HW126558   1.246   0.272  10.056  1.6373  0.2251 -0.5783
 4975SOL    HW226559   1.198   0.182   9.959  3.1100  0.1806  2.2710
 4976SOL     OW26560   4.290   3.012  12.997 -0.3041  0.3032 -0.0589
 4976SOL    HW126561   4.279   3.031  12.904 -0.1166  1.2330  0.1063
 4976SOL    HW226562   4.307   3.098  13.036  4.0546 -0.5511 -0.0903
 4977SOL     OW26563   0.668   0.063   9.504  0.2599 -0.0562  0.2497
 4977SOL    HW126564   0.740   0.111   9.462  0.4515 -1.7226 -1.3369
 4977SOL    HW226565   0.691   0.064   9.597  0.9245 -2.4804  0.1301
 4978SOL     OW26566   3.679   3.710   8.425  0.1015 -0.0266  0.0918
 4978SOL    HW126567   3.592   3.673   8.439  0.2101 -0.0962  0.5727
 4978SOL    HW226568   3.682   3.785   8.485 -2.2022  1.4704 -1.6484
 4979SOL     OW26569   1.458   1.949  17.626 -0.3303  0.3193 -0.0670
 4979SOL    HW126570   1.418   1.883  17.569  0.0862  0.3107 -0.3492
 4979SOL    HW226571   1.482   1.902  17.706  1.8382 -0.7146 -1.3245
 4980SOL     OW26572   1.956   3.839   0.162 -0.2681  0.1464  0.0863
 4980SOL    HW126573   2.005   3.756   0.172 -1.8635 -0.9145 -0.9675
 4980SOL    HW226574   1.865   3.810   0.167  0.6520 -2.7318  0.5457
 4981SOL     OW26575   0.869   3.371  14.499  0.0182 -0.0394 -0.1904
 4981SOL    HW126576   0.897   3.279  14.495  3.9125  1.2916 -3.2445
 4981SOL    HW226577   0.801   3.360  14.565  0.3516 -0.6117  0.0492
 4982SOL     OW26578   4.613   1.158   9.727  0.2286  0.2756  0.6831
 4982SOL    HW126579   4.618   1.171   9.821  0.7551  0.7232  0.5935
 4982SOL    HW226580   4.554   1.232   9.707 -2.4383 -2.2505 -0.8003
 4983SOL     OW26581   0.555   2.876   3.919 -0.1149  0.1176 -0.2701
 4983SOL    HW126582   0.572   2.786   3.889 -0.9042 -0.0548 -0.1805
 4983SOL    HW226583   0.514   2.858   4.003  0.0264  0.0792 -0.2090
 4984SOL     OW26584   4.043   3.320  17.362 -0.5514 -0.2454  0.0847
 4984SOL    HW126585   3.954   3.354  17.375  0.1709  2.3415 -1.7322
 4984SOL    HW226586   4.092   3.391  17.320 -3.2814  0.3794 -2.0225
 4985SOL     OW26587   2.734   0.969   4.653  0.2866  0.3787 -0.0270
 4985SOL    HW126588   2.693   0.933   4.732 -0.3115  0.8175 -0.1411
 4985SOL    HW226589   2.717   0.898   4.592  1.1610 -0.3664  0.5999
 4986SOL     OW26590   1.313   1.375  16.571  0.4566 -0.0445 -0.6122
 4986SOL    HW126591   1.264   1.423  16.638 -2.1935 -2.0336 -1.1254
 4986SOL    HW226592   1.405   1.382  16.597  0.5275  0.3162 -0.9672
 4987SOL     OW26593   1.700   4.431   3.284  0.4767  0.3054 -0.1214
 4987SOL    HW126594   1.635   4.452   3.351 -0.8972  0.8037 -1.6077
 4987SOL    HW226595   1.699   4.336   3.275  0.1636  0.2228  0.7822
 4988SOL     OW26596   0.590   0.509   5.501 -0.6843  0.2070  0.0126
 4988SOL    HW126597   0.613   0.558   5.422 -0.5960 -0.7003 -0.5323
 4988SOL    HW226598   0.640   0.563   5.562  1.0940  0.2179 -1.4428
 4989SOL     OW26599   1.969   0.275   3.678  0.0189 -0.5388 -0.3417
 4989SOL    HW126600   1.982   0.280   3.773 -1.9663 -0.2804 -0.0972
 4989SOL    HW226601   1.916   0.353   3.664 -0.7253 -0.9411  0.2053
 4990SOL     OW26602   2.592   1.748  14.183 -0.4803  0.0001  0.1889
 4990SOL    HW126603   2.625   1.812  14.245 -0.6128  0.0602  0.1988
 4990SOL    HW226604   2.498   1.767  14.175 -0.3913  0.3218 -0.0642
 4991SOL     OW26605   3.675   2.071   7.430  0.3054 -0.6123 -0.5176
 4991SOL    HW126606   3.607   2.084   7.496  1.9672  0.3768  0.9929
 4991SOL    HW226607   3.655   2.137   7.364  2.9153  0.2420 -0.4545
 4992SOL     OW26608   4.615   4.553  17.204 -0.2909 -0.1974  0.3431
 4992SOL    HW126609   4.537   4.553  17.260  0.7616 -2.6751  1.7915
 4992SOL    HW226610   4.686   4.550  17.268 -0.6062 -0.0509  0.7071
 4993SOL     OW26611   1.285   0.050   3.186  0.4676 -0.2132 -0.2990
 4993SOL    HW126612   1.220   0.094   3.242  0.1216 -0.8159 -0.2194
 4993SOL    HW226613   1.352   0.118   3.187 -1.0934  1.3266  1.6192
 4994SOL     OW26614   0.881   3.295   8.343  0.2547 -0.6509  0.3233
 4994SOL    HW126615   0.835   3.359   8.288 -0.1210 -1.2534 -0.0533
 4994SOL    HW226616   0.817   3.227   8.363  0.6751  0.0644  4.0646
 4995SOL     OW26617   2.722   1.421   1.836  0.0253  0.0863 -0.0721
 4995SOL    HW126618   2.790   1.398   1.773 -1.2289  0.9624 -1.7722
 4995SOL    HW226619   2.684   1.338   1.863 -0.4160 -0.0313 -1.0787
 4996SOL     OW26620   1.500   2.597   7.060 -0.5851  0.0475 -0.4719
 4996SOL    HW126621   1.522   2.683   7.024 -1.0294  1.2228  2.0599
 4996SOL    HW226622   1.412   2.614   7.095  0.4283  2.0548  1.1545
 4997SOL     OW26623   0.788   0.669   2.033 -0.1900 -0.2833 -0.0244
 4997SOL    HW126624   0.722   0.619   2.082 -0.8180  1.6737  1.0856
 4997SOL    HW226625   0.870   0.628   2.061 -0.7376 -0.1161  1.8321
 4998SOL     OW26626   0.901   0.025   6.469 -0.2490  0.0342  0.0466
 4998SOL    HW126627   0.958   4.701   6.423  1.8346 -0.2089  2.9809
 4998SOL    HW226628   0.875   4.709   6.544 -3.3195 -0.1028 -1.1086
 4999SOL     OW26629   3.399   0.692   6.367 -0.0199  0.5682 -0.9811
 4999SOL    HW126630   3.406   0.712   6.274  0.0635  1.6442 -0.7452
 4999SOL    HW226631   3.489   0.665   6.389 -0.1814  0.3327 -0.6117
 5000SOL     OW26632   3.215   2.093  11.839  0.5248  0.0168  0.3277
 5000SOL    HW126633   3.310   2.089  11.827  0.6167 -1.1301  1.3923
 5000SOL    HW226634   3.184   2.013  11.796  1.5941  0.3984 -1.1600
 5001SOL     OW26635   2.122   4.030   7.971  0.0260 -0.7631  0.1765
 5001SOL    HW126636   2.112   4.124   7.956  0.5453 -0.5122  1.4512
 5001SOL    HW226637   2.146   4.004   7.882  0.1475  0.6701 -0.2197
 5002SOL     OW26638   2.964   1.438   6.998 -0.1753 -0.6249  0.1722
 5002SOL    HW126639   2.988   1.370   6.935  0.0943  2.9774 -3.5720
 5002SOL    HW226640   2.905   1.498   6.953 -0.5319 -0.3270  1.0334
 5003SOL     OW26641   2.093   4.477   3.234  0.4350  0.3725  0.7255
 5003SOL    HW126642   2.082   4.552   3.176 -2.1563  0.6049  1.5293
 5003SOL    HW226643   2.044   4.503   3.312 -0.2762  0.2196  0.3304
 5004SOL     OW26644   1.703   4.457   6.608  0.4926 -0.4557 -0.1825
 5004SOL    HW126645   1.648   4.505   6.547 -0.4088 -0.7191  0.4310
 5004SOL    HW226646   1.637   4.429   6.671 -1.5477  0.4239 -1.9434
 5005SOL     OW26647   2.111   0.087   8.006 -0.9747  0.4230 -0.1359
 5005SOL    HW126648   2.106   0.100   8.101  0.7265 -0.5493  0.0896
 5005SOL    HW226649   2.190   0.139   7.990 -0.4709 -0.1536  0.4859
 5006SOL     OW26650   0.045   3.815  11.746 -0.2382 -0.3266 -0.2257
 5006SOL    HW126651   4.730   3.756  11.692 -1.0710 -0.7587  1.0398
 5006SOL    HW226652   0.136   3.797  11.724  0.3716  1.4501  0.8411
 5007SOL     OW26653   2.111   0.269   6.571  0.4522 -0.4049  0.2387
 5007SOL    HW126654   2.055   0.231   6.639 -3.0393  2.0218 -1.3034
 5007SOL    HW226655   2.195   0.223   6.575 -0.9584 -3.1199 -0.9699
 5008SOL     OW26656   0.640   0.848   3.039  0.9439  0.7022  0.5617
 5008SOL    HW126657   0.636   0.922   2.978 -0.5703 -0.7702 -1.1019
 5008SOL    HW226658   0.553   0.857   3.077  0.1290  0.8159 -1.3275
 5009SOL     OW26659   2.514   2.209   1.478  0.4554  0.1488  0.3379
 5009SOL    HW126660   2.606   2.227   1.461  1.5428 -0.2106  5.7711
 5009SOL    HW226661   2.472   2.293   1.495  0.1899  0.0707  0.0868
 5010SOL     OW26662   0.035   1.622   0.349 -0.6086  0.6067  0.0913
 5010SOL    HW126663   4.687   1.622   0.306 -0.3139  1.4471 -0.4886
 5010SOL    HW226664   0.092   1.612   0.273  0.1029 -1.6318  0.9161
 5011SOL     OW26665   0.809   1.613   9.895  0.1951  0.2040  0.1724
 5011SOL    HW126666   0.850   1.607   9.809  0.9746  1.0392  0.4863
 5011SOL    HW226667   0.856   1.537   9.930  0.6839 -0.6357 -2.3319
 5012SOL     OW26668   3.991   3.389   1.990 -0.2453 -0.4872  0.7743
 5012SOL    HW126669   4.019   3.449   1.922 -0.1169 -0.9808  0.3931
 5012SOL    HW226670   4.049   3.312   1.988 -1.1167 -1.0725 -1.0997
 5013SOL     OW26671   1.260   0.837   3.377 -0.0782 -0.3743 -0.1147
 5013SOL    HW126672   1.283   0.929   3.393 -3.0891  0.6467 -1.6919
 5013SOL    HW226673   1.182   0.848   3.322 -0.1209 -0.1888 -0.0183
 5014SOL     OW26674   3.846   4.022   2.595 -0.0145  0.2376 -0.2075
 5014SOL    HW126675   3.884   4.104   2.627 -0.2560  0.6804 -1.0686
 5014SOL    HW226676   3.899   3.998   2.519  2.5156  0.8666  1.3626
 5015SOL     OW26677   3.458   3.211   5.015 -0.0683 -0.5160  0.0688
 5015SOL    HW126678   3.389   3.214   5.082 -0.7938  0.4839 -0.7337
 5015SOL    HW226679   3.506   3.290   5.042  1.7993 -1.3138 -0.8800
 5016SOL     OW26680   3.723   2.729   1.533  0.1762  0.7302  0.2006
 5016SOL    HW126681   3.778   2.780   1.592  1.2362 -0.1009 -0.0671
 5016SOL    HW226682   3.647   2.786   1.526  0.2117  0.8392  0.6981
 5017SOL     OW26683   0.704   3.195   1.256  0.0865  0.0959 -0.8239
 5017SOL    HW126684   0.699   3.100   1.270  2.6655 -0.0231 -0.7624
 5017SOL    HW226685   0.758   3.205   1.178  2.4102 -0.5035  0.7033
 5018SOL     OW26686   1.387   3.451   0.950 -0.3031  0.1735 -0.1855
 5018SOL    HW126687   1.473   3.409   0.954  0.7164  2.2011 -0.3005
 5018SOL    HW226688   1.409   3.538   0.916  2.1089 -0.4485 -0.1956
 5019SOL     OW26689   4.671   1.973   5.812 -0.5146 -0.1976 -0.0237
 5019SOL    HW126690   4.580   1.985   5.840 -0.3558 -0.0221  0.4193
 5019SOL    HW226691   4.673   1.878   5.824  0.2415 -0.6799 -4.1336
 5020SOL     OW26692   3.306   0.313   0.286 -0.0688  0.7663 -0.3630
 5020SOL    HW126693   3.373   0.366   0.330  0.1058 -0.4783  0.8698
 5020SOL    HW226694   3.292   0.370   0.210 -0.6572 -0.8203 -1.4283
 5021SOL     OW26695   2.235   3.017   0.837  0.8424 -1.0415  0.1043
 5021SOL    HW126696   2.277   3.040   0.754 -0.7928 -2.2249 -1.0383
 5021SOL    HW226697   2.143   3.007   0.816  0.4367  1.0185  0.8937
 5022SOL     OW26698   0.807   0.200   7.437 -0.4255  0.1556 -0.1622
 5022SOL    HW126699   0.837   0.218   7.526 -0.4081 -1.8120  0.2429
 5022SOL    HW226700   0.730   0.146   7.459  0.2134 -0.3372  0.8806
 5023SOL     OW26701   2.684   1.238   7.359 -0.7344 -0.0421  0.4911
 5023SOL    HW126702   2.635   1.233   7.441  1.8130  1.3325  2.0903
 5023SOL    HW226703   2.638   1.306   7.309 -1.4836  0.3302  1.6951
 5024SOL     OW26704   4.023   4.108   9.537 -0.5957  0.0219  0.4003
 5024SOL    HW126705   3.988   4.197   9.541 -2.9725 -0.9102  0.1169
 5024SOL    HW226706   3.939   4.067   9.518 -0.0555 -1.8624  2.0518
 5025SOL     OW26707   0.822   3.237  15.935  0.0196  0.4555 -0.4185
 5025SOL    HW126708   0.748   3.180  15.957 -0.9699  1.6775 -0.6268
 5025SOL    HW226709   0.845   3.288  16.013 -0.5706 -2.3443  1.5779
 5026SOL     OW26710   3.194   1.307  14.116 -0.0543  0.1865 -0.6570
 5026SOL    HW126711   3.162   1.218  14.104  0.2055  0.1007 -0.7201
 5026SOL    HW226712   3.160   1.332  14.201  1.4166  1.2931 -0.4084
 5027SOL     OW26713   3.183   4.374  12.296 -0.1017 -0.3011 -0.1311
 5027SOL    HW126714   3.114   4.435  12.321  1.0020  1.2020 -0.7786
 5027SOL    HW226715   3.130   4.300  12.266  1.4689 -1.3597 -0.2819
 5028SOL     OW26716   3.265   1.260   4.049 -0.2161  0.2825  0.5773
 5028SOL    HW126717   3.286   1.205   4.124 -1.0970 -1.0487 -0.1669
 5028SOL    HW226718   3.288   1.340   4.096  2.1681 -0.8091  1.2957
 5029SOL     OW26719   2.059   1.373   2.722 -0.1367  0.1154 -0.1199
 5029SOL    HW126720   2.119   1.442   2.694  0.4653 -0.7139 -0.8594
 5029SOL    HW226721   2.004   1.430   2.776  2.9592 -0.7723  3.9923
 5030SOL     OW26722   1.943   2.934   1.609 -0.5136  0.2413  0.3162
 5030SOL    HW126723   1.852   2.905   1.607 -0.0806 -1.3089  3.4741
 5030SOL    HW226724   1.959   2.962   1.519 -1.9593 -0.5667 -0.2016
 5031SOL     OW26725   0.004   3.560   3.197 -0.3460 -0.0022  0.1142
 5031SOL    HW126726   4.657   3.513   3.200 -0.4633  0.3439  2.3039
 5031SOL    HW226727   0.035   3.540   3.285 -3.6677  3.2134  2.0251
 5032SOL     OW26728   1.395   4.044   4.309  0.0427 -0.3720 -0.1802
 5032SOL    HW126729   1.486   4.071   4.299 -0.1330  0.0305 -0.7190
 5032SOL    HW226730   1.366   4.064   4.220  1.7390 -1.6393 -1.0117
 5033SOL     OW26731   4.334   0.073   4.709 -0.4732 -0.1913  0.4536
 5033SOL    HW126732   4.256   0.022   4.728  0.6213 -2.5281 -1.3510
 5033SOL    HW226733   4.359   0.103   4.796  1.7014 -1.4363  0.2511
 5034SOL     OW26734   4.295   1.938   8.986 -0.0113 -0.3909 -0.2412
 5034SOL    HW126735   4.207   1.974   8.999 -0.6627 -1.3911 -1.9562
 5034SOL    HW226736   4.327   1.949   9.076 -0.8689  0.9525 -0.0902
 5035SOL     OW26737   4.735   4.474   5.644 -0.4499 -0.2907 -0.7780
 5035SOL    HW126738   0.037   4.542   5.701 -1.3398 -0.2407 -0.2315
 5035SOL    HW226739   0.078   4.438   5.605  0.1600 -0.3861  0.5558
 5036SOL     OW26740   1.780   2.698  10.099  0.0353  0.3400 -0.8714
 5036SOL    HW126741   1.868   2.697  10.063  1.2123 -2.6042  2.1363
 5036SOL    HW226742   1.749   2.787  10.081 -2.0915 -0.3261 -0.4941
 5037SOL     OW26743   2.205   3.099   2.815 -0.2220  0.8645 -0.3124
 5037SOL    HW126744   2.215   3.061   2.729 -0.4562  1.0142 -0.4082
 5037SOL    HW226745   2.202   3.194   2.799  1.8430  0.9604 -0.0472
 5038SOL     OW26746   1.788   3.379   4.552 -0.4096  0.1693  0.2773
 5038SOL    HW126747   1.799   3.285   4.567  0.8306  0.7244  2.7951
 5038SOL    HW226748   1.724   3.387   4.481 -1.0181  0.5066  0.8612
 5039SOL     OW26749   1.727   0.794   6.093  0.2418 -0.4980  0.0961
 5039SOL    HW126750   1.803   0.742   6.068 -0.8187 -1.2633 -1.5610
 5039SOL    HW226751   1.665   0.721   6.089  1.5579 -1.7151  1.7304
 5040SOL     OW26752   0.525   1.125   3.172  0.1185  0.5555 -0.0806
 5040SOL    HW126753   0.585   1.152   3.241 -0.6099 -1.5877  1.3864
 5040SOL    HW226754   0.590   1.091   3.111 -0.9059  0.3019 -1.0389
 5041SOL     OW26755   4.229   4.005   8.482 -0.2844  0.2497  0.4847
 5041SOL    HW126756   4.228   3.913   8.510  2.5347  0.6896  2.0817
 5041SOL    HW226757   4.309   4.002   8.430 -1.8823  0.7850 -1.9615
 5042SOL     OW26758   4.707   0.275   3.315 -0.4225  0.0042  0.5231
 5042SOL    HW126759   0.040   0.208   3.312  0.5454  1.0683 -0.9560
 5042SOL    HW226760   4.735   0.335   3.246  2.8703 -0.4800  1.4362
 5043SOL     OW26761   4.254   3.558  11.526 -0.8960  0.0555 -0.3004
 5043SOL    HW126762   4.204   3.556  11.607 -0.0190  0.4781  0.2459
 5043SOL    HW226763   4.319   3.625  11.544 -2.4000  1.1797  0.9277
 5044SOL     OW26764   2.951   2.136  15.065 -0.4021 -0.1109  0.2818
 5044SOL    HW126765   2.870   2.124  15.115 -3.0209  2.3819 -3.3293
 5044SOL    HW226766   2.952   2.053  15.017  0.6701  0.6182 -0.9162
 5045SOL     OW26767   4.556   0.435   4.402 -0.1508  0.3812  0.0830
 5045SOL    HW126768   4.477   0.445   4.348 -0.1620  1.7261  0.3543
 5045SOL    HW226769   4.552   0.344   4.431 -2.0728  0.4690  0.1220
 5046SOL     OW26770   3.768   2.318   6.207  0.5305 -0.3271 -0.0410
 5046SOL    HW126771   3.736   2.238   6.165 -0.7911 -0.2618  0.8560
 5046SOL    HW226772   3.761   2.292   6.299  0.7943 -0.8104 -0.1547
 5047SOL     OW26773   3.655   2.666  15.371 -0.1998  0.2654  0.1367
 5047SOL    HW126774   3.656   2.654  15.466 -3.6502  1.8767  0.3973
 5047SOL    HW226775   3.661   2.760  15.358  3.0706 -0.1318 -1.2155
 5048SOL     OW26776   0.824   4.659   2.229 -0.3945 -0.0975 -0.4448
 5048SOL    HW126777   0.866   4.665   2.315 -0.5341  1.8922 -0.5365
 5048SOL    HW226778   0.868   4.732   2.186 -0.5826  0.5287  0.4247
 5049SOL     OW26779   2.418   0.255   6.074  0.4080  0.1435 -0.5416
 5049SOL    HW126780   2.421   0.295   6.161  1.0027  0.1455 -0.5589
 5049SOL    HW226781   2.410   0.329   6.015  3.2429  0.9908  0.1234
 5050SOL     OW26782   3.298   2.104   7.107  0.0487 -0.2276 -0.4627
 5050SOL    HW126783   3.309   2.017   7.071  4.0871 -0.3989  1.2439
 5050SOL    HW226784   3.330   2.092   7.196 -2.0622 -0.6554  0.2545
 5051SOL     OW26785   0.136   3.027   4.517 -0.0890  0.8824  0.1989
 5051SOL    HW126786   0.217   3.078   4.509 -0.8349  1.9739 -0.2353
 5051SOL    HW226787   0.093   3.071   4.444 -3.6480 -2.3600  0.3563
 5052SOL     OW26788   3.269   2.597  15.969  0.4356 -0.7229  0.0925
 5052SOL    HW126789   3.228   2.648  16.039 -0.6262 -0.0843 -1.0043
 5052SOL    HW226790   3.241   2.510  15.995 -0.7720 -0.0965  0.9059
 5053SOL     OW26791   4.029   3.076   3.288 -0.0213 -0.5102 -0.0288
 5053SOL    HW126792   4.002   3.168   3.293 -0.9101 -0.8178  0.7867
 5053SOL    HW226793   3.956   3.036   3.240  1.1489  0.4578 -2.6171
 5054SOL     OW26794   3.432   4.736   7.164  0.5149  0.0869  0.1767
 5054SOL    HW126795   3.465   0.047   7.088 -0.0093  1.6165  0.9163
 5054SOL    HW226796   3.453   4.648   7.132  1.1121  0.4944 -0.5599
 5055SOL     OW26797   2.691   0.872  12.491 -0.4005  0.3404 -0.2316
 5055SOL    HW126798   2.717   0.814  12.562  1.5728  0.5243 -0.7775
 5055SOL    HW226799   2.754   0.945  12.498  2.2995 -1.9743 -0.2157
 5056SOL     OW26800   3.808   1.255   0.913  0.2383  0.1856 -0.1614
 5056SOL    HW126801   3.748   1.282   0.844 -0.2936 -0.4384  0.0483
 5056SOL    HW226802   3.867   1.190   0.875  0.4082 -0.2569  0.8405
 5057SOL     OW26803   0.222   3.134   9.322 -0.2777 -0.4407  0.0017
 5057SOL    HW126804   0.239   3.040   9.328  1.7275 -0.1246 -0.7169
 5057SOL    HW226805   0.192   3.148   9.412 -0.3630 -0.8108  0.0296
 5058SOL     OW26806   4.145   3.437   4.679  0.9811  0.3488  0.1929
 5058SOL    HW126807   4.139   3.347   4.647 -0.2800  0.1453  0.9996
 5058SOL    HW226808   4.176   3.486   4.603  0.7802 -0.2610 -0.2802
 5059SOL     OW26809   3.746   3.412   8.145  0.2097 -0.5623 -0.5311
 5059SOL    HW126810   3.782   3.465   8.075 -0.0307 -3.8751 -3.1648
 5059SOL    HW226811   3.778   3.447   8.228 -3.2092 -1.6781  1.2665
 5060SOL     OW26812   1.480   1.528   4.824 -0.5521  0.7323  0.5160
 5060SOL    HW126813   1.451   1.588   4.755  2.0912 -0.4044 -1.6013
 5060SOL    HW226814   1.454   1.447   4.778  0.5195  1.0047 -0.5728
 5061SOL     OW26815   2.398   1.121  14.592 -0.2041 -0.0613  0.6293
 5061SOL    HW126816   2.421   1.167  14.511  1.1141 -0.4032  0.8100
 5061SOL    HW226817   2.394   1.032  14.559 -2.4374  1.4086 -3.0504
 5062SOL     OW26818   3.139   2.592   5.456 -0.0699 -0.7228 -0.3453
 5062SOL    HW126819   3.208   2.575   5.393  0.8476  2.9631 -0.3292
 5062SOL    HW226820   3.062   2.547   5.421 -0.5023 -0.4373  0.2319
 5063SOL     OW26821   4.649   3.450   8.512 -0.9402  0.3404 -0.1598
 5063SOL    HW126822   4.730   3.500   8.508 -0.7935  0.1679  0.7099
 5063SOL    HW226823   4.631   3.436   8.419  1.5714  0.3622 -0.6351
 5064SOL     OW26824   4.731   3.203   3.178 -0.0057  0.3772 -0.0216
 5064SOL    HW126825   4.696   3.260   3.245 -0.1387 -0.6981  0.8301
 5064SOL    HW226826   0.066   3.249   3.133 -0.8172  0.9457 -0.7259
 5065SOL     OW26827   1.659   1.790   2.633 -0.7789 -0.2636 -0.2943
 5065SOL    HW126828   1.733   1.731   2.621 -0.4265  0.4193 -1.4697
 5065SOL    HW226829   1.675   1.855   2.564 -0.2070 -0.2911 -0.1917
 5066SOL     OW26830   2.515   1.835   5.512  0.1397  0.7266 -0.3171
 5066SOL    HW126831   2.483   1.749   5.483 -1.6737  0.8838  1.2253
 5066SOL    HW226832   2.469   1.836   5.596  0.9308  1.5517  0.1020
 5067SOL     OW26833   4.011   1.389   4.451  0.0708  0.2471  0.3448
 5067SOL    HW126834   4.103   1.416   4.441  0.4185 -0.7048  0.9707
 5067SOL    HW226835   3.969   1.473   4.471 -0.6604  0.4443 -2.0428
 5068SOL     OW26836   0.408   2.639   1.738  0.0791  0.0805 -0.4130
 5068SOL    HW126837   0.378   2.638   1.829  0.0267 -1.1889 -0.4443
 5068SOL    HW226838   0.496   2.637   1.775 -0.0968  0.9944  0.0620
 5069SOL     OW26839   0.238   0.339   4.872 -0.3103  0.0340  0.1202
 5069SOL    HW126840   0.159   0.349   4.821  0.8884  1.4966 -1.4262
 5069SOL    HW226841   0.211   0.362   4.961  0.6198  1.0203  0.1460
 5070SOL     OW26842   0.629   2.212   5.523 -0.8714  0.1489 -0.1843
 5070SOL    HW126843   0.708   2.159   5.532 -0.6815  0.6446  1.1598
 5070SOL    HW226844   0.644   2.231   5.430  0.1062  0.7087  0.0808
 5071SOL     OW26845   0.627   0.474   7.465 -0.2582  0.3252 -0.1504
 5071SOL    HW126846   0.649   0.441   7.378 -0.9243 -1.2586  0.2929
 5071SOL    HW226847   0.567   0.543   7.437 -1.4736 -0.7541 -0.1870
 5072SOL     OW26848   2.445   2.810   5.530  0.1775 -0.3736  0.1883
 5072SOL    HW126849   2.521   2.754   5.540  1.2174  1.1086  0.6074
 5072SOL    HW226850   2.433   2.798   5.435 -0.8175 -0.0817  0.2777
 5073SOL     OW26851   4.256   1.395  14.658  0.5388  0.2498 -0.1519
 5073SOL    HW126852   4.264   1.471  14.600 -1.2409  0.6833  0.1643
 5073SOL    HW226853   4.240   1.326  14.594 -0.9749  0.9789 -0.5567
 5074SOL     OW26854   4.516   4.044  13.556 -0.4025 -0.2320 -0.2804
 5074SOL    HW126855   4.603   4.008  13.577  0.6271  2.3549 -0.0242
 5074SOL    HW226856   4.494   4.064  13.647  0.5729  1.3859 -0.4061
 5075SOL     OW26857   1.233   2.940   4.170 -0.5153 -0.0865 -0.3753
 5075SOL    HW126858   1.304   2.898   4.220 -1.3904  1.6883  2.3615
 5075SOL    HW226859   1.239   3.022   4.219  0.8727 -0.9567  0.9335
 5076SOL     OW26860   2.972   0.185   8.220  0.1151 -0.5602  0.1716
 5076SOL    HW126861   2.940   0.219   8.136 -1.0751 -0.1936  0.7833
 5076SOL    HW226862   3.050   0.240   8.229 -0.2102 -0.2766  1.2038
 5077SOL     OW26863   4.416   3.430   3.651  0.1969  0.0124  0.1774
 5077SOL    HW126864   4.398   3.394   3.564  0.4054  1.2153 -0.3686
 5077SOL    HW226865   4.350   3.499   3.654 -0.7176 -0.8938  0.9930
 5078SOL     OW26866   2.038   3.811   3.907 -0.0635 -0.3836  0.2302
 5078SOL    HW126867   1.970   3.748   3.883 -0.4482  0.3376 -0.5958
 5078SOL    HW226868   2.002   3.856   3.983 -2.1390 -0.7544 -0.5196
 5079SOL     OW26869   1.697   3.224  10.065  0.4953  0.0812 -0.7379
 5079SOL    HW126870   1.771   3.280  10.043 -0.0698  1.1449  0.0736
 5079SOL    HW226871   1.656   3.260  10.144  1.2631  1.0008 -0.7576
 5080SOL     OW26872   2.382   2.848  15.097 -0.5931 -0.4283 -0.4299
 5080SOL    HW126873   2.420   2.768  15.134 -0.7598 -0.0773  0.5011
 5080SOL    HW226874   2.464   2.888  15.069 -0.5405  1.2238  2.0162
 5081SOL     OW26875   4.547   1.605   6.541 -0.1808 -0.0171  0.5427
 5081SOL    HW126876   4.490   1.668   6.584  1.0115  0.3472  1.5699
 5081SOL    HW226877   4.614   1.672   6.527 -0.9384  0.3984 -1.0982
 5082SOL     OW26878   2.467   4.602   4.494  0.1372 -0.3057 -0.6733
 5082SOL    HW126879   2.425   4.538   4.437  1.8336 -1.5665 -0.5098
 5082SOL    HW226880   2.405   4.581   4.564 -0.3501 -0.0325 -1.0272
 5083SOL     OW26881   0.488   1.069   9.722  0.1180 -0.5418 -0.2809
 5083SOL    HW126882   0.481   1.025   9.806  2.6004  0.1298  0.2805
 5083SOL    HW226883   0.398   1.095   9.702  0.0724 -0.5128 -0.0358
 5084SOL     OW26884   1.625   1.796  17.336  0.0547 -0.0666  0.5750
 5084SOL    HW126885   1.561   1.817  17.404  0.0100 -1.2536  0.9034
 5084SOL    HW226886   1.705   1.837  17.369 -0.8122  0.6835  1.7438
 5085SOL     OW26887   4.732   4.723  15.178  0.3795  0.1048 -0.4225
 5085SOL    HW126888   4.717   4.674  15.097  1.4104  0.9774 -1.1313
 5085SOL    HW226889   4.663   0.053  15.175  1.1581  0.9866  1.7415
 5086SOL     OW26890   2.042   0.085  14.038 -0.3926  0.1811  0.3527
 5086SOL    HW126891   2.104   0.028  14.083  1.0012  2.0022  0.7532
 5086SOL    HW226892   1.966   0.076  14.096  0.4754 -0.5345  1.3829
 5087SOL     OW26893   3.227   3.630   1.947  0.3727  0.1930 -0.6339
 5087SOL    HW126894   3.264   3.583   1.872  1.6538  1.4944 -0.8151
 5087SOL    HW226895   3.218   3.719   1.911 -1.4307 -0.1610 -1.0662
 5088SOL     OW26896   0.046   4.702   7.402  0.0752  0.2752 -0.0968
 5088SOL    HW126897   4.727   4.712   7.325  1.3025 -2.5473 -1.3477
 5088SOL    HW226898   0.103   0.041   7.405  0.0326  0.2815  0.7178
 5089SOL     OW26899   4.469   3.159   8.838 -0.1377 -0.2970  0.3172
 5089SOL    HW126900   4.514   3.148   8.754 -1.6961  2.2439 -0.8643
 5089SOL    HW226901   4.536   3.125   8.896  0.1978 -1.0138 -0.4925
 5090SOL     OW26902   3.222   1.545   8.214 -0.3745 -0.1694  0.5009
 5090SOL    HW126903   3.286   1.484   8.179 -0.9643  0.7607 -2.2721
 5090SOL    HW226904   3.265   1.630   8.206 -2.3496  0.7967 -0.0145
 5091SOL     OW26905   2.186   0.790   7.423  0.2268 -0.4491  0.5738
 5091SOL    HW126906   2.151   0.828   7.503  0.8811  1.6145 -0.1111
 5091SOL    HW226907   2.135   0.841   7.360  1.3498 -0.7861 -0.6060
 5092SOL     OW26908   3.440   0.066   3.774 -0.2729  0.0034 -0.2417
 5092SOL    HW126909   3.373   0.065   3.843 -0.4458 -2.6916 -0.4684
 5092SOL    HW226910   3.411   0.005   3.707  1.0092 -0.8926  0.0215
 5093SOL     OW26911   1.972   2.976  16.891 -0.0972 -0.1283 -0.4832
 5093SOL    HW126912   2.059   2.939  16.905 -0.1447 -0.1093 -0.1483
 5093SOL    HW226913   1.958   3.026  16.972  0.7982  0.7677 -0.8813
 5094SOL     OW26914   0.154   1.932   9.253 -0.3561  0.1004 -0.3254
 5094SOL    HW126915   0.245   1.908   9.271  0.1441  0.5414 -2.2063
 5094SOL    HW226916   0.119   1.925   9.342 -0.1876  0.0265 -0.2657
 5095SOL     OW26917   2.990   3.912  14.481  0.6177 -0.1386  0.2040
 5095SOL    HW126918   3.067   3.875  14.524  1.1347  0.2574 -0.3696
 5095SOL    HW226919   3.023   3.997  14.453  2.4485 -0.4409  1.4241
 5096SOL     OW26920   3.920   0.917   1.848  0.3852  0.2871 -0.2197
 5096SOL    HW126921   3.826   0.937   1.849 -0.0368 -1.7430  0.4588
 5096SOL    HW226922   3.948   0.920   1.939 -0.5551  0.2682  0.0672
 5097SOL     OW26923   4.724   3.111  11.876 -0.4926 -0.3987 -0.2441
 5097SOL    HW126924   4.693   3.067  11.797  1.3329  1.4554 -1.9728
 5097SOL    HW226925   4.655   3.081  11.936  1.9227 -1.0133  2.1979
 5098SOL     OW26926   4.148   4.474   8.555  0.0549  0.3646  0.0275
 5098SOL    HW126927   4.198   4.406   8.600 -2.0765 -0.4742  1.1094
 5098SOL    HW226928   4.058   4.445   8.572 -0.3574  2.2340  1.1057
 5099SOL     OW26929   1.052   0.255   6.479  0.2478  0.4448  0.0400
 5099SOL    HW126930   0.985   0.186   6.483 -0.0930  0.7316 -0.5944
 5099SOL    HW226931   1.049   0.288   6.568 -0.2203  1.2279 -0.2679
 5100SOL     OW26932   2.735   1.181   7.096  0.1959  0.4507  0.1885
 5100SOL    HW126933   2.654   1.229   7.077  0.4807  0.9787  0.3020
 5100SOL    HW226934   2.756   1.205   7.186  1.5564 -1.0434  0.2729
 5101SOL     OW26935   2.608   0.559   3.902 -0.1229  0.0777 -0.2708
 5101SOL    HW126936   2.618   0.499   3.828  0.4394  0.1550 -0.2577
 5101SOL    HW226937   2.702   0.577   3.903 -0.1105  0.0322 -0.5126
 5102SOL     OW26938   3.269   0.133   8.594 -0.4946 -0.1811 -0.2327
 5102SOL    HW126939   3.235   0.063   8.651 -1.0576 -0.6176 -1.1154
 5102SOL    HW226940   3.318   0.098   8.520  1.4840  0.1817  0.8952
 5103SOL     OW26941   3.169   2.287   5.877 -0.0196 -0.2533 -0.3459
 5103SOL    HW126942   3.208   2.200   5.867 -0.0413  0.0266 -2.8787
 5103SOL    HW226943   3.240   2.341   5.842  0.2567  0.4049  1.2414
 5104SOL     OW26944   1.057   3.365   4.771  0.7234 -0.2233  0.1631
 5104SOL    HW126945   1.140   3.353   4.817 -0.7711  0.0583  2.9083
 5104SOL    HW226946   1.062   3.299   4.702 -1.5284  0.6174 -0.8099
 5105SOL     OW26947   0.226   0.973   6.376 -0.4063 -0.1089 -0.0800
 5105SOL    HW126948   0.271   0.894   6.404  0.0644 -0.5550 -2.1071
 5105SOL    HW226949   0.229   0.965   6.281  0.0389  1.2479 -0.1929
 5106SOL     OW26950   0.694   0.068  10.306  0.1170  0.0509  0.1859
 5106SOL    HW126951   0.655   0.156  10.308  1.9321  0.8609 -0.4774
 5106SOL    HW226952   0.700   0.066  10.211  0.3742 -1.7899  0.2451
 5107SOL     OW26953   0.490   1.240   8.301  0.3350  0.2767  0.3058
 5107SOL    HW126954   0.453   1.202   8.222  1.3138  0.9450 -0.4813
 5107SOL    HW226955   0.499   1.161   8.355 -0.8954 -0.2188 -0.2195
 5108SOL     OW26956   2.442   3.869   8.902 -0.3969  0.3847  0.2467
 5108SOL    HW126957   2.362   3.834   8.942 -2.6022  1.4784 -3.2145
 5108SOL    HW226958   2.496   3.881   8.981  2.2878  0.8975 -1.6599
 5109SOL     OW26959   0.133   0.830  16.385  0.1059 -0.4152  0.3181
 5109SOL    HW126960   0.214   0.873  16.361  0.0668  0.9292  2.6078
 5109SOL    HW226961   0.139   0.752  16.329 -0.5108 -0.3790  0.1983
 5110SOL     OW26962   4.255   2.586   5.544  0.5168  0.6487 -0.7035
 5110SOL    HW126963   4.345   2.618   5.550  0.2563  1.1433  0.7279
 5110SOL    HW226964   4.270   2.492   5.550  1.7876  0.8562 -0.6486
 5111SOL     OW26965   3.897   0.779   4.192 -0.0573 -0.0905  0.6393
 5111SOL    HW126966   3.977   0.817   4.228  0.2184 -1.5796  1.6177
 5111SOL    HW226967   3.842   0.792   4.269 -1.5932 -0.5471 -0.3886
 5112SOL     OW26968   3.739   2.363  14.411 -0.3205  0.1280  0.5872
 5112SOL    HW126969   3.705   2.322  14.332 -1.9855  1.0856  0.8031
 5112SOL    HW226970   3.828   2.328  14.406 -0.6950 -1.0522  1.9025
 5113SOL     OW26971   1.758   4.646   5.514  0.9372  0.2640  0.2443
 5113SOL    HW126972   1.747   4.705   5.589  0.9626  1.7482 -0.9121
 5113SOL    HW226973   1.682   4.672   5.462  0.5653 -0.7232  0.2896
 5114SOL     OW26974   0.806   2.910   1.576 -0.6232 -0.4989  0.3482
 5114SOL    HW126975   0.788   2.973   1.645 -2.8872  0.2093 -0.9132
 5114SOL    HW226976   0.897   2.888   1.597  0.4415  0.4593 -3.3055
 5115SOL     OW26977   3.301   1.460   8.711 -0.1704  0.2682 -0.0647
 5115SOL    HW126978   3.241   1.534   8.708 -1.1911 -0.4880  2.2627
 5115SOL    HW226979   3.391   1.491   8.699  0.0752 -1.6247 -3.3034
 5116SOL     OW26980   2.201   3.290   4.352  0.1174  0.1017 -0.4872
 5116SOL    HW126981   2.171   3.322   4.437  1.3455  1.1508 -0.4443
 5116SOL    HW226982   2.141   3.339   4.296 -0.5850 -0.4392 -0.2187
 5117SOL     OW26983   3.335   4.576   3.672  0.0847 -0.2067 -0.7162
 5117SOL    HW126984   3.296   4.533   3.748 -1.8672 -0.1698 -1.6829
 5117SOL    HW226985   3.401   4.519   3.633 -1.2655 -0.4191 -2.6912
 5118SOL     OW26986   1.384   2.164   2.628 -0.3195  0.2041  0.2812
 5118SOL    HW126987   1.382   2.101   2.700 -1.6552 -1.1158 -0.9188
 5118SOL    HW226988   1.426   2.244   2.659 -0.4339  0.2740  0.2543
 5119SOL     OW26989   0.921   3.219  13.951 -0.8693 -0.0433 -0.5683
 5119SOL    HW126990   0.876   3.242  13.869  1.8189  2.4291 -1.3425
 5119SOL    HW226991   0.848   3.236  14.010  0.0659  0.1426  0.5194
 5120SOL     OW26992   4.214   2.367  17.416 -0.0617 -0.4783  0.1605
 5120SOL    HW126993   4.243   2.320  17.495  0.2063  2.0939  1.5738
 5120SOL    HW226994   4.231   2.457  17.444 -3.4982  0.0944  0.3160
 5121SOL     OW26995   2.902   0.208   9.395 -0.4619 -0.9390 -0.0856
 5121SOL    HW126996   2.811   0.211   9.365 -0.4365  0.8937 -0.0336
 5121SOL    HW226997   2.958   0.199   9.318 -0.8739  0.2687 -0.5374
 5122SOL     OW26998   4.518   3.127   5.961 -0.0583  0.5411  0.5196
 5122SOL    HW126999   4.492   3.202   5.907 -1.7015 -0.9796 -0.8057
 5122SOL    HW227000   4.434   3.107   6.002  0.8323  1.5953  2.8596
 5123SOL     OW27001   3.125   3.310   4.995 -0.5410 -0.2812 -0.2103
 5123SOL    HW127002   3.161   3.398   5.008 -0.5974 -0.3940  0.7044
 5123SOL    HW227003   3.066   3.303   5.070 -1.7578  2.2209 -0.9268
 5124SOL     OW27004   2.238   1.482   7.038 -0.2210  0.3559  0.6614
 5124SOL    HW127005   2.282   1.471   7.122  2.8269  1.2600 -0.8415
 5124SOL    HW227006   2.173   1.411   7.042 -0.1165  0.1959 -0.7328
 5125SOL     OW27007   1.996   1.271   2.472  0.4186 -0.4257 -0.3429
 5125SOL    HW127008   1.999   1.284   2.567 -0.2450 -0.6471 -0.2948
 5125SOL    HW227009   2.087   1.263   2.443  0.3935  0.2709 -0.6112
 5126SOL     OW27010   0.927   4.380   6.077 -0.4812 -0.9595 -0.5383
 5126SOL    HW127011   0.900   4.306   6.131 -0.7379 -0.5765 -0.1332
 5126SOL    HW227012   0.874   4.362   5.999 -3.3750  2.9923  0.4540
 5127SOL     OW27013   2.887   1.677   2.147 -0.8797  0.0171 -0.1211
 5127SOL    HW127014   2.899   1.583   2.156  0.3461  0.2702  0.8854
 5127SOL    HW227015   2.961   1.710   2.198  1.6727 -3.3505 -1.6683
 5128SOL     OW27016   4.522   1.374   4.594 -0.1132 -0.1340 -0.2040
 5128SOL    HW127017   4.616   1.355   4.599 -0.5754 -2.5295 -0.6385
 5128SOL    HW227018   4.496   1.301   4.538  1.3508 -0.0064 -1.0361
 5129SOL     OW27019   2.448   3.104  11.753 -0.2475  1.0026  0.2699
 5129SOL    HW127020   2.378   3.160  11.719 -0.7820  1.1726  1.6616
 5129SOL    HW227021   2.519   3.168  11.763 -1.3631  1.9805  1.8697
 5130SOL     OW27022   0.617   0.593   6.695 -0.1153 -0.1251 -0.1545
 5130SOL    HW127023   0.557   0.572   6.766  0.5883  1.7170  0.9835
 5130SOL    HW227024   0.687   0.532   6.718  0.4797 -0.3719 -2.5754
 5131SOL     OW27025   0.696   3.944   5.337  0.1377 -0.7454  0.1873
 5131SOL    HW127026   0.630   3.962   5.404  1.0977 -1.8442  1.4246
 5131SOL    HW227027   0.666   3.860   5.303 -0.1621  0.7144 -3.1690
 5132SOL     OW27028   2.030   2.871  12.034 -0.2709  0.6375  0.6935
 5132SOL    HW127029   2.057   2.934  12.101  1.8893  1.1771 -0.6819
 5132SOL    HW227030   1.938   2.893  12.018 -0.5136 -2.5135 -2.1667
 5133SOL     OW27031   0.981   1.917   0.912  0.1959  0.4040 -0.0659
 5133SOL    HW127032   0.917   1.926   0.841 -0.0062  0.0223  0.0694
 5133SOL    HW227033   0.991   2.006   0.944 -2.6907  1.3049 -1.7098
 5134SOL     OW27034   3.471   1.103   8.034  0.0996  0.5567 -0.0282
 5134SOL    HW127035   3.402   1.164   8.059  0.5516  0.9365  0.2849
 5134SOL    HW227036   3.433   1.055   7.960 -1.3844  0.4657  0.7935
 5135SOL     OW27037   2.201   3.635  12.496  0.1535  0.7040  0.3610
 5135SOL    HW127038   2.152   3.707  12.457 -1.3891  0.9989  2.8509
 5135SOL    HW227039   2.152   3.603  12.572 -0.2511 -2.5495 -1.2920
 5136SOL     OW27040   2.778   4.037   2.375 -0.3230 -0.1236  0.4352
 5136SOL    HW127041   2.800   4.120   2.417  1.6902 -1.3023  1.7155
 5136SOL    HW227042   2.692   4.059   2.339  0.1055  2.1295  0.7905
 5137SOL     OW27043   4.585   3.455   6.052  1.1678  0.5155 -0.1523
 5137SOL    HW127044   4.645   3.450   5.978  0.7843 -1.9288 -0.2733
 5137SOL    HW227045   4.627   3.410   6.125 -1.8211 -3.3686 -0.8451
 5138SOL     OW27046   4.696   4.636   5.931  0.0975  0.2698 -0.1051
 5138SOL    HW127047   4.683   4.693   5.856 -2.2548  1.3442  1.0990
 5138SOL    HW227048   0.002   4.679   6.005  0.9014  0.4023 -0.6514
 5139SOL     OW27049   1.752   2.568   3.407 -0.0417 -0.1186 -0.5855
 5139SOL    HW127050   1.770   2.642   3.464 -0.4180  0.8470 -1.7206
 5139SOL    HW227051   1.658   2.581   3.391 -0.0025  0.3192 -0.4454
 5140SOL     OW27052   3.229   3.883  17.043 -0.0056 -0.0656  0.4274
 5140SOL    HW127053   3.150   3.867  17.095  0.5176 -1.4385  0.7912
 5140SOL    HW227054   3.192   3.876  16.955  1.2012  0.7124 -0.1377
 5141SOL     OW27055   4.500   4.374   4.811 -0.1641  0.0116  0.6256
 5141SOL    HW127056   4.484   4.292   4.858 -1.0885 -0.2044 -0.0487
 5141SOL    HW227057   4.436   4.369   4.739 -0.2740  1.0223  0.6416
 5142SOL     OW27058   0.170   0.145  13.918  0.2606  0.4679  0.5068
 5142SOL    HW127059   0.247   0.162  13.864 -0.1073  0.6058  0.0297
 5142SOL    HW227060   0.211   0.107  13.996  3.5200 -0.7213 -1.7920
 5143SOL     OW27061   3.047   1.614   9.292 -0.3572  0.1524  0.3553
 5143SOL    HW127062   2.985   1.549   9.261 -0.9104  0.1388  1.4976
 5143SOL    HW227063   3.007   1.692   9.253  0.3858  0.6190  0.5058
 5144SOL     OW27064   2.192   4.475   2.927 -0.5550 -0.2944 -0.6901
 5144SOL    HW127065   2.287   4.475   2.940 -0.5759  0.4880 -0.5021
 5144SOL    HW227066   2.154   4.524   3.001  0.8935  0.4356 -0.4176
 5145SOL     OW27067   1.363   3.681  10.478 -0.8143  0.1035  0.5595
 5145SOL    HW127068   1.297   3.660  10.544  0.0592 -0.3403  1.2951
 5145SOL    HW227069   1.304   3.695  10.403  0.2124 -1.6604 -0.5599
 5146SOL     OW27070   3.557   4.221   2.780 -0.2257 -0.6622  0.0804
 5146SOL    HW127071   3.618   4.266   2.721  1.4292 -3.3155 -0.2019
 5146SOL    HW227072   3.534   4.146   2.726 -1.4862 -1.4875  1.7711
 5147SOL     OW27073   4.141   0.562   7.489  0.2936 -0.6505  0.1972
 5147SOL    HW127074   4.067   0.541   7.545  0.6497 -0.1025  0.8667
 5147SOL    HW227075   4.180   0.639   7.530  2.4203 -1.6183 -0.0393
 5148SOL     OW27076   1.442   0.405   6.655  0.3726 -0.3210  0.4386
 5148SOL    HW127077   1.503   0.476   6.630  1.3814 -1.5295 -0.5143
 5148SOL    HW227078   1.373   0.455   6.700  0.6048  0.8791 -0.5350
 5149SOL     OW27079   4.220   3.676   9.245  0.1988 -0.2213  0.0967
 5149SOL    HW127080   4.224   3.598   9.189  0.8028 -0.8920  1.0600
 5149SOL    HW227081   4.196   3.747   9.185 -4.1142 -1.8252 -0.0297
 5150SOL     OW27082   1.472   0.429   0.488 -0.0187 -0.2029  0.3976
 5150SOL    HW127083   1.447   0.366   0.421  1.0770 -0.9728  0.7179
 5150SOL    HW227084   1.566   0.414   0.489  0.1252  0.7889  1.0604
 5151SOL     OW27085   3.764   2.672   3.103  0.0920 -0.4756 -0.7753
 5151SOL    HW127086   3.680   2.640   3.137  0.2363  0.2800  0.3036
 5151SOL    HW227087   3.731   2.717   3.026 -0.3221  2.2554  0.9861
 5152SOL     OW27088   2.709   3.341  17.259  0.5731  0.0322  0.0454
 5152SOL    HW127089   2.770   3.334  17.185  0.2267  1.4005 -0.3715
 5152SOL    HW227090   2.781   3.323  17.320 -0.5058  1.2853  1.6628
 5153SOL     OW27091   2.324   4.096   5.298 -0.4538  0.1286 -0.5875
 5153SOL    HW127092   2.369   4.147   5.231  0.9859  0.7980  0.9104
 5153SOL    HW227093   2.391   4.082   5.365  0.0037 -0.5394 -1.1788
 5154SOL     OW27094   1.239   3.009  17.370  0.2950  0.5297 -0.0225
 5154SOL    HW127095   1.183   2.966  17.305  0.0830 -2.2848  2.0488
 5154SOL    HW227096   1.240   3.096  17.331 -0.2919  0.1912 -0.7862
 5155SOL     OW27097   4.045   3.742   6.567  0.0772 -0.3468  0.0660
 5155SOL    HW127098   3.966   3.749   6.514 -0.1009 -0.4336  0.3188
 5155SOL    HW227099   4.083   3.830   6.565 -1.8915  0.4821 -1.2770
 5156SOL     OW27100   2.245   1.171   5.039  0.7167 -0.0073 -0.2955
 5156SOL    HW127101   2.328   1.125   5.054 -1.4371 -3.0946  2.1150
 5156SOL    HW227102   2.189   1.111   5.089  1.8006  1.2983  2.4847
 5157SOL     OW27103   2.242   1.842   8.446 -0.1607 -0.0063  0.7453
 5157SOL    HW127104   2.151   1.867   8.464 -0.2744  0.6759 -0.7753
 5157SOL    HW227105   2.258   1.859   8.353  0.1353  2.4376  1.2688
 5158SOL     OW27106   0.626   3.489   2.930 -0.4465  0.1930  0.2326
 5158SOL    HW127107   0.638   3.510   2.837  1.5812  1.4518  0.7754
 5158SOL    HW227108   0.659   3.571   2.966 -0.8320  0.5653 -0.2709
 5159SOL     OW27109   2.691   0.385   8.831 -0.2553  0.5001  0.5289
 5159SOL    HW127110   2.613   0.431   8.801 -0.5041 -0.7090 -0.6748
 5159SOL    HW227111   2.752   0.457   8.815 -2.9418  2.4814 -0.8901
 5160SOL     OW27112   1.763   0.978   3.221  0.7280 -0.6329  0.3893
 5160SOL    HW127113   1.836   0.926   3.188  1.6488  0.4890  0.6272
 5160SOL    HW227114   1.821   1.041   3.265 -0.8411  0.8861  0.2665
 5161SOL     OW27115   2.671   4.712   6.880 -0.1964  0.3525 -0.0461
 5161SOL    HW127116   2.640   0.044   6.940 -1.3107  1.4338 -1.8401
 5161SOL    HW227117   2.764   4.719   6.901 -0.1051  0.2424 -0.4051
 5162SOL     OW27118   2.356   2.245   4.589  0.1082  0.1828  0.9503
 5162SOL    HW127119   2.353   2.303   4.665 -1.4911  1.8008 -0.3371
 5162SOL    HW227120   2.417   2.294   4.534 -0.2351 -1.0333 -0.5037
 5163SOL     OW27121   2.096   0.200  15.036 -0.5518  0.5271 -0.6998
 5163SOL    HW127122   2.016   0.150  15.019  0.4057 -1.6941  1.3629
 5163SOL    HW227123   2.073   0.229  15.124  1.5710 -0.1704  0.0828
 5164SOL     OW27124   1.780   3.575   8.194 -0.1304  0.1574 -0.2835
 5164SOL    HW127125   1.771   3.557   8.100 -0.6571 -0.7939 -0.0431
 5164SOL    HW227126   1.875   3.564   8.197 -0.1175  0.1443 -0.8131
 5165SOL     OW27127   2.089   2.197   7.307 -0.0317 -0.3269  0.4659
 5165SOL    HW127128   2.173   2.151   7.296  0.9982  1.3478  1.2746
 5165SOL    HW227129   2.116   2.271   7.362 -0.2259 -0.7661  1.1361
 5166SOL     OW27130   4.542   3.865   7.098  0.3626 -0.3653 -0.7869
 5166SOL    HW127131   4.540   3.838   7.189  0.9820  0.9059 -0.3946
 5166SOL    HW227132   4.462   3.917   7.085  0.0771 -0.6209 -0.0341
 5167SOL     OW27133   0.535   0.639   9.313  0.7523 -0.2438  0.1357
 5167SOL    HW127134   0.623   0.603   9.309  0.5583 -0.7262  0.2672
 5167SOL    HW227135   0.543   0.716   9.370 -0.9510  1.7907 -2.3670
 5168SOL     OW27136   2.388   0.906   9.254 -0.3799 -0.2902 -0.0610
 5168SOL    HW127137   2.311   0.913   9.310 -2.0294 -4.3715 -1.8861
 5168SOL    HW227138   2.463   0.893   9.313  0.0452  0.6158 -0.3987
 5169SOL     OW27139   2.474   2.939   8.061 -0.2310  0.0954 -0.0266
 5169SOL    HW127140   2.475   2.886   7.981 -0.3218 -0.5561  0.3978
 5169SOL    HW227141   2.443   3.026   8.038 -2.1917 -0.8272 -0.8814
 5170SOL     OW27142   1.609   1.464   2.742 -0.0591 -0.0953  0.1621
 5170SOL    HW127143   1.539   1.437   2.801  0.6416 -2.4781 -0.1220
 5170SOL    HW227144   1.552   1.507   2.678  1.4512 -0.1471 -1.2294
 5171SOL     OW27145   3.802   0.669  15.966 -0.8099 -0.0884  0.1712
 5171SOL    HW127146   3.882   0.712  15.937  0.4330 -2.3416  0.2265
 5171SOL    HW227147   3.749   0.673  15.887 -0.6296 -1.2033 -0.0120
 5172SOL     OW27148   0.586   4.438   5.289 -0.3471 -0.0572  0.0383
 5172SOL    HW127149   0.627   4.356   5.262  0.9579  0.4517  0.4451
 5172SOL    HW227150   0.496   4.427   5.259 -0.3628  0.4140 -0.0871
 5173SOL     OW27151   2.950   1.579   8.258  0.1038  0.1157  0.4121
 5173SOL    HW127152   2.962   1.646   8.325 -1.5896 -0.8000  1.6263
 5173SOL    HW227153   3.040   1.549   8.242 -0.4334 -0.6798 -1.1603
 5174SOL     OW27154   1.884   0.558  14.192 -0.1855 -0.0330 -0.0897
 5174SOL    HW127155   1.823   0.516  14.131 -0.6379  1.6985 -0.8370
 5174SOL    HW227156   1.896   0.647  14.157  1.5593 -0.5726 -0.8856
 5175SOL     OW27157   2.997   0.160   1.891  0.0866  0.0326  0.1525
 5175SOL    HW127158   2.948   0.135   1.969  2.1637  1.3908  1.8743
 5175SOL    HW227159   2.921   0.170   1.833  0.1306  1.5119  0.3473
 5176SOL     OW27160   2.603   4.139   0.805  0.3401 -0.3465  0.3310
 5176SOL    HW127161   2.645   4.066   0.759  2.0659  0.7775  0.1594
 5176SOL    HW227162   2.546   4.165   0.733 -0.1269 -1.8070  0.1765
 5177SOL     OW27163   3.127   3.959   5.684 -0.7665 -0.5959 -0.1141
 5177SOL    HW127164   3.078   4.040   5.678 -1.8450 -1.2050  0.6293
 5177SOL    HW227165   3.074   3.908   5.745 -1.1145  0.7381  0.6825
 5178SOL     OW27166   0.879   0.866   9.838 -0.0351 -0.5517 -0.0975
 5178SOL    HW127167   0.927   0.804   9.892  1.8487  0.5435 -0.5343
 5178SOL    HW227168   0.794   0.859   9.881  0.5020 -0.3239  0.9824
 5179SOL     OW27169   4.243   2.116   6.740  0.6690  0.4493  0.6011
 5179SOL    HW127170   4.219   2.208   6.728  0.4795  0.2304 -0.6876
 5179SOL    HW227171   4.321   2.123   6.795  0.3329 -0.9855  1.2831
 5180SOL     OW27172   0.074   0.660   2.979 -0.1711  0.2751  0.6545
 5180SOL    HW127173   0.156   0.702   2.953 -1.1716  1.9197  0.1480
 5180SOL    HW227174   0.018   0.684   2.905 -0.1470 -1.4704  0.0772
 5181SOL     OW27175   2.262   1.627  12.395 -0.7162  0.2615 -0.3706
 5181SOL    HW127176   2.229   1.683  12.466  2.4347  1.8712 -0.1992
 5181SOL    HW227177   2.352   1.654  12.378 -1.2659  2.0009 -0.5614
 5182SOL     OW27178   2.214   4.619  16.735 -0.3656 -0.1615  0.2561
 5182SOL    HW127179   2.245   4.708  16.716 -2.1145  0.2025 -1.0352
 5182SOL    HW227180   2.135   4.616  16.680 -0.4883 -0.7859  0.4742
 5183SOL     OW27181   0.704   1.192   9.548 -0.1698  0.8827  0.3513
 5183SOL    HW127182   0.645   1.179   9.622  0.2813 -0.4731  0.4927
 5183SOL    HW227183   0.654   1.146   9.480 -1.1719  3.5286 -0.6622
 5184SOL     OW27184   3.633   0.712   9.469 -0.2825  0.0046  0.3019
 5184SOL    HW127185   3.687   0.681   9.542 -0.1509  0.2408  0.3037
 5184SOL    HW227186   3.628   0.806   9.484 -2.1655 -0.0977  0.3154
 5185SOL     OW27187   3.208   4.606   1.789  0.6874 -0.4831 -0.1078
 5185SOL    HW127188   3.235   4.538   1.727  0.3231 -1.0552  0.3686
 5185SOL    HW227189   3.116   4.625   1.774  0.8928  0.0529 -0.6904
 5186SOL     OW27190   4.074   0.771   9.527  0.6206  0.1113  0.2521
 5186SOL    HW127191   4.139   0.727   9.472  0.6944  0.9957 -0.3620
 5186SOL    HW227192   4.121   0.809   9.601 -1.0090  0.6652  1.0001
 5187SOL     OW27193   0.557   1.754   2.129 -0.1596  0.3177 -0.5890
 5187SOL    HW127194   0.588   1.843   2.113 -1.3639  0.8216 -0.1155
 5187SOL    HW227195   0.484   1.764   2.190  0.4587 -2.4854  0.6094
 5188SOL     OW27196   2.406   0.003   6.327  0.1473 -0.3107 -0.3721
 5188SOL    HW127197   2.365   0.006   6.240 -1.3585  2.1610  0.4283
 5188SOL    HW227198   2.390   4.649   6.354  0.2653 -0.5980 -1.2629
 5189SOL     OW27199   0.032   3.732   5.062 -0.0814 -0.0505  0.4170
 5189SOL    HW127200   0.108   3.773   5.022 -0.8196  2.2810  1.3957
 5189SOL    HW227201   4.717   3.705   4.986 -0.5666 -0.1287  0.7706
 5190SOL     OW27202   2.608   2.847  15.984 -0.1077  0.1182 -0.0200
 5190SOL    HW127203   2.598   2.883  16.072  0.1981 -0.1034  0.1051
 5190SOL    HW227204   2.690   2.883  15.951  0.8260 -1.8851  0.1130
 5191SOL     OW27205   1.232   0.938  15.023  0.4199  0.1945  0.0161
 5191SOL    HW127206   1.166   0.916  15.088  0.3327  1.0059  0.2030
 5191SOL    HW227207   1.311   0.911  15.069  1.6829  2.9830 -0.5474
 5192SOL     OW27208   2.867   2.676   3.697 -0.6965 -0.1453 -0.3311
 5192SOL    HW127209   2.837   2.757   3.655  0.2413 -0.3914 -1.4814
 5192SOL    HW227210   2.794   2.654   3.754 -0.8617  2.1481  0.3399
 5193SOL     OW27211   4.670   2.967   3.015  0.3480  0.1437 -0.2347
 5193SOL    HW127212   4.580   2.957   2.984  0.0461  2.4072 -0.0265
 5193SOL    HW227213   4.666   3.016   3.097  0.2066  1.5571 -1.0869
 5194SOL     OW27214   1.996   3.260   2.281 -0.2388  1.0361 -0.7138
 5194SOL    HW127215   1.959   3.344   2.310  2.7843  2.2033 -0.2413
 5194SOL    HW227216   1.941   3.234   2.207 -0.2770  1.5557 -0.8691
 5195SOL     OW27217   2.692   2.259  12.673  0.3646  0.7195 -0.2697
 5195SOL    HW127218   2.607   2.227  12.704  1.8570 -0.4898  2.5750
 5195SOL    HW227219   2.691   2.346  12.712 -0.3324 -0.1846  1.7036
 5196SOL     OW27220   3.565   3.252  10.875 -0.1392  0.5468  0.8978
 5196SOL    HW127221   3.658   3.252  10.897 -0.6581 -1.3046  3.1535
 5196SOL    HW227222   3.522   3.185  10.929  0.4478  1.5035  2.5835
 5197SOL     OW27223   2.730   3.160   3.786  0.1284 -0.5460  0.4704
 5197SOL    HW127224   2.780   3.111   3.721 -1.0593 -0.2415 -0.6493
 5197SOL    HW227225   2.644   3.172   3.746  1.8375  0.0679 -2.9918
 5198SOL     OW27226   2.557   0.670  10.644 -0.5712  0.7998 -0.3055
 5198SOL    HW127227   2.597   0.705  10.724  0.4459  2.1113 -1.3782
 5198SOL    HW227228   2.611   0.724  10.585  3.3751  0.3355  2.8472
 5199SOL     OW27229   1.668   3.572   3.164  0.0101 -0.1191 -0.3600
 5199SOL    HW127230   1.650   3.562   3.258  0.2313  0.4563 -0.2566
 5199SOL    HW227231   1.617   3.649   3.140 -0.4853 -0.2391  0.3008
 5200SOL     OW27232   4.632   3.011   6.524  0.0577 -0.2523  0.4691
 5200SOL    HW127233   4.706   2.955   6.503 -0.0465  0.1224 -0.8977
 5200SOL    HW227234   4.571   2.947   6.561 -0.6487  0.6511  0.8835
 5201SOL     OW27235   4.208   1.729   5.598 -0.1999  0.2877 -0.2504
 5201SOL    HW127236   4.260   1.649   5.598 -0.1338  0.3319  0.3703
 5201SOL    HW227237   4.244   1.776   5.522 -0.4025  1.5808  0.4563
 5202SOL     OW27238   2.879   1.446   3.322  0.4678 -1.0498  0.1817
 5202SOL    HW127239   2.912   1.400   3.399 -1.0865 -0.1433  1.3707
 5202SOL    HW227240   2.804   1.392   3.299  0.2161 -0.2028 -0.9724
 5203SOL     OW27241   4.185   4.417   5.094 -0.0761  0.1495  0.2055
 5203SOL    HW127242   4.245   4.347   5.067 -0.5617 -0.5466  0.9261
 5203SOL    HW227243   4.111   4.360   5.117  0.0091 -0.6409 -1.4734
 5204SOL     OW27244   2.406   0.992   2.342  0.1880  0.2853 -0.6272
 5204SOL    HW127245   2.447   1.068   2.384 -1.1630  0.4087  0.4929
 5204SOL    HW227246   2.441   0.924   2.399 -0.0017  0.7134  0.0022
 5205SOL     OW27247   2.702   4.591   4.858 -0.6366  0.2081  0.2751
 5205SOL    HW127248   2.651   4.658   4.904 -0.4357  0.1326  0.6075
 5205SOL    HW227249   2.643   4.521   4.831  1.3976 -1.4991  0.2872
 5206SOL     OW27250   0.504   3.618   4.932  0.0593 -0.1545  0.2788
 5206SOL    HW127251   0.578   3.583   4.983 -0.1824 -0.8118  0.1745
 5206SOL    HW227252   0.546   3.632   4.847 -1.6654  0.0273 -0.5391
 5207SOL     OW27253   3.232   3.109   2.748 -0.5577 -0.1900  0.2586
 5207SOL    HW127254   3.166   3.124   2.680  0.1022  5.2863  0.8590
 5207SOL    HW227255   3.191   3.137   2.829  2.3710  1.4904  1.1672
 5208SOL     OW27256   3.677   4.364   3.454  0.3174 -0.4019  0.3158
 5208SOL    HW127257   3.699   4.457   3.463 -0.3358 -0.3867  1.9518
 5208SOL    HW227258   3.757   4.329   3.416 -0.6763 -0.6543 -1.5152
 5209SOL     OW27259   2.223   1.699   5.021  0.0501  0.1254 -0.0742
 5209SOL    HW127260   2.168   1.747   5.083 -1.0196 -0.8647 -0.2531
 5209SOL    HW227261   2.189   1.610   5.022 -0.0132  0.1604  2.4669
 5210SOL     OW27262   1.886   0.666   4.568  0.8533 -0.2395 -0.4251
 5210SOL    HW127263   1.886   0.723   4.644 -1.3593  0.9661 -1.3396
 5210SOL    HW227264   1.936   0.715   4.502 -1.4141  2.6556  0.0465
 5211SOL     OW27265   1.586   2.592   2.881  0.0391 -0.7590 -0.0696
 5211SOL    HW127266   1.599   2.681   2.913  0.2951 -0.4899 -0.9005
 5211SOL    HW227267   1.673   2.554   2.896 -0.1381  0.0621  2.8812
 5212SOL     OW27268   3.613   0.965   7.237 -0.6432  0.1024 -0.2417
 5212SOL    HW127269   3.582   1.044   7.281 -0.5570 -0.4876  0.8797
 5212SOL    HW227270   3.537   0.910   7.255 -0.9988  1.1790  1.5930
 5213SOL     OW27271   2.466   2.149  12.073  0.1040  0.3712  0.3213
 5213SOL    HW127272   2.423   2.066  12.053 -0.4518  1.0408 -1.2568
 5213SOL    HW227273   2.551   2.125  12.109  0.4859  2.0610  0.5567
 5214SOL     OW27274   0.165   1.078   6.723 -0.2676 -0.1984  0.4575
 5214SOL    HW127275   0.205   1.067   6.809  0.6312  2.1366  0.3426
 5214SOL    HW227276   0.077   1.107   6.747 -0.6294 -0.8471 -0.0823
 5215SOL     OW27277   1.353   4.497   7.376  0.3803  0.2153 -0.0164
 5215SOL    HW127278   1.370   4.510   7.469  2.5555 -0.6690 -0.3068
 5215SOL    HW227279   1.382   4.412   7.345 -1.3152 -0.8357  1.2242
 5216SOL     OW27280   1.209   2.525   1.556 -0.3980  0.1255  0.0992
 5216SOL    HW127281   1.147   2.461   1.591 -0.3026  0.0285  0.0946
 5216SOL    HW227282   1.246   2.482   1.479 -1.1810  0.3340 -0.3936
 5217SOL     OW27283   4.658   3.365   6.778  0.2465  0.0090 -0.4689
 5217SOL    HW127284   4.685   3.402   6.694  0.8878  0.5436 -0.0277
 5217SOL    HW227285   4.734   3.311   6.799 -0.7489 -1.4996 -0.7255
 5218SOL     OW27286   2.562   2.057   7.173 -0.3994  0.0811  0.3262
 5218SOL    HW127287   2.641   2.060   7.119  0.2206 -0.6536  1.1649
 5218SOL    HW227288   2.545   2.146   7.203 -0.4921  0.2825 -0.3405
 5219SOL     OW27289   3.167   1.468  15.926 -0.1197 -0.1810 -0.4513
 5219SOL    HW127290   3.225   1.448  15.852 -2.0968  0.7145 -2.2188
 5219SOL    HW227291   3.089   1.502  15.882 -0.3148  0.5164  0.4388
 5220SOL     OW27292   0.362   3.197   1.218  0.0350  0.2698 -0.2407
 5220SOL    HW127293   0.270   3.172   1.211 -0.4803  1.5692  1.8510
 5220SOL    HW227294   0.393   3.137   1.286  2.0530  0.8191 -0.6803
 5221SOL     OW27295   3.064   1.456   8.999 -0.4346 -0.0729  0.2051
 5221SOL    HW127296   3.058   1.541   8.956 -0.5217 -1.3805 -2.3408
 5221SOL    HW227297   3.009   1.462   9.077 -1.0989  2.7182 -0.4795
 5222SOL     OW27298   4.162   1.950   6.078  0.4226  0.1296 -0.4347
 5222SOL    HW127299   4.171   2.033   6.030  0.0303  0.8976  0.8139
 5222SOL    HW227300   4.245   1.910   6.051  0.2762  0.3313 -1.1906
 5223SOL     OW27301   2.242   3.863  14.515  0.1623  0.5670 -0.1992
 5223SOL    HW127302   2.325   3.853  14.561  1.2300 -0.4638 -2.3369
 5223SOL    HW227303   2.263   3.943  14.468 -1.5989  0.4953 -1.0916
 5224SOL     OW27304   1.353   0.820  16.031 -0.0846 -0.2274  0.1454
 5224SOL    HW127305   1.368   0.914  16.045  0.1855  0.0642 -2.1659
 5224SOL    HW227306   1.285   0.799  16.095 -0.2146 -0.1179  0.0428
 5225SOL     OW27307   4.258   2.032   2.870 -0.2546 -0.4938  0.4109
 5225SOL    HW127308   4.259   1.937   2.881 -1.7818 -0.5002  0.4472
 5225SOL    HW227309   4.325   2.061   2.933 -0.1635 -1.0062  0.5480
 5226SOL     OW27310   3.130   0.979  11.066 -0.7888 -0.3404 -0.2684
 5226SOL    HW127311   3.107   0.962  10.974  1.3987 -0.0373 -0.8599
 5226SOL    HW227312   3.174   0.898  11.090  0.9375  0.3096 -1.2328
 5227SOL     OW27313   0.108   3.325   5.893  0.1826  0.5470 -0.3100
 5227SOL    HW127314   0.059   3.371   5.825  1.6658  0.8348 -1.1753
 5227SOL    HW227315   0.132   3.395   5.954 -1.6540  0.4116  0.5849
 5228SOL     OW27316   0.262   3.188   3.404 -0.5106 -0.0015 -0.1712
 5228SOL    HW127317   0.342   3.166   3.452  1.2453 -2.2170 -4.1158
 5228SOL    HW227318   0.211   3.239   3.467  0.5520  0.0839  0.6303
 5229SOL     OW27319   3.874   4.652  10.013  0.6209 -0.2971  0.2288
 5229SOL    HW127320   3.850   4.642   9.921  2.7821  0.4339 -0.4027
 5229SOL    HW227321   3.804   4.604  10.058  0.7325 -1.5283 -0.8955
 5230SOL     OW27322   4.246   4.586   2.525  0.8810 -0.1490  0.5623
 5230SOL    HW127323   4.169   4.530   2.534 -0.0665  1.0062 -0.3842
 5230SOL    HW227324   4.284   4.552   2.444 -0.9128  2.5958 -1.4451
 5231SOL     OW27325   3.054   4.382   8.628  0.4139  0.5809  0.1872
 5231SOL    HW127326   3.051   4.318   8.557  1.4242  1.1889 -0.3981
 5231SOL    HW227327   3.130   4.427   8.591  0.8348 -0.6902 -0.5089
 5232SOL     OW27328   1.146   1.130  17.292 -0.5596 -0.1314  0.8058
 5232SOL    HW127329   1.188   1.060  17.241 -3.1342 -2.2157  1.5789
 5232SOL    HW227330   1.071   1.165  17.244 -0.2262  0.5428  0.7730
 5233SOL     OW27331   0.966   4.603   2.468 -0.1467 -0.3802  0.0271
 5233SOL    HW127332   0.941   4.525   2.517 -0.2591 -1.5524 -1.9059
 5233SOL    HW227333   1.056   4.579   2.448 -0.0463  0.9666 -1.2071
 5234SOL     OW27334   2.076   2.501  13.488 -0.3476  0.4776  0.5557
 5234SOL    HW127335   2.138   2.445  13.443 -3.1252 -3.2945  1.4351
 5234SOL    HW227336   2.024   2.438  13.537  0.7764  0.5085  1.8092
 5235SOL     OW27337   0.340   2.259   7.386  0.0993 -0.3434  0.1072
 5235SOL    HW127338   0.344   2.342   7.434 -0.1465  0.0596 -0.5674
 5235SOL    HW227339   0.406   2.210   7.435 -0.9665 -1.6751  0.2131
 5236SOL     OW27340   2.888   2.001   8.758  0.3601 -0.2279 -0.1655
 5236SOL    HW127341   2.959   1.996   8.694 -1.5325  0.4863 -2.3283
 5236SOL    HW227342   2.929   2.048   8.830 -0.2249 -0.2324  0.1649
 5237SOL     OW27343   3.485   2.392   1.949 -0.5711  0.0157  0.7221
 5237SOL    HW127344   3.420   2.363   1.886  0.2951  0.1862 -0.2496
 5237SOL    HW227345   3.565   2.387   1.896 -1.9401  1.1605 -1.4232
 5238SOL     OW27346   3.473   0.883   5.063  0.0587 -0.2723  0.7351
 5238SOL    HW127347   3.473   0.955   4.999  0.6966  0.7806  1.9060
 5238SOL    HW227348   3.550   0.889   5.120  1.1581 -2.2100 -0.5632
 5239SOL     OW27349   1.514   1.948   7.077  0.0075 -0.5321  0.4027
 5239SOL    HW127350   1.482   1.994   6.999  0.2117 -2.1094 -0.6044
 5239SOL    HW227351   1.463   1.869   7.095 -2.5551  0.8145 -0.8182
 5240SOL     OW27352   1.748   1.447  17.109 -0.1170  0.4009 -0.2236
 5240SOL    HW127353   1.705   1.389  17.046  1.8639 -0.3287 -0.8731
 5240SOL    HW227354   1.799   1.507  17.054  0.8939 -0.7268 -0.5052
 5241SOL     OW27355   2.345   3.512   2.558  0.0698  0.1451  0.4495
 5241SOL    HW127356   2.270   3.562   2.525 -1.5211 -2.2004  0.5259
 5241SOL    HW227357   2.355   3.464   2.476 -1.0485 -0.4945  0.6929
 5242SOL     OW27358   3.737   0.432   8.183 -0.1196 -0.6517  0.0514
 5242SOL    HW127359   3.699   0.400   8.265  1.4950 -4.4183 -0.7129
 5242SOL    HW227360   3.820   0.472   8.209  0.3289 -1.8251  0.4034
 5243SOL     OW27361   0.945   3.124   7.475 -0.4381  0.4052  0.5172
 5243SOL    HW127362   0.937   3.044   7.528 -1.1779 -0.2600 -0.5934
 5243SOL    HW227363   0.917   3.196   7.531 -2.4322 -0.6340  0.8466
 5244SOL     OW27364   0.067   0.107   6.989  0.1584 -0.8577 -0.2910
 5244SOL    HW127365   0.087   0.086   6.898  0.2369  0.7490 -0.6419
 5244SOL    HW227366   0.083   0.020   7.026 -1.7927 -1.5012 -0.9307
 5245SOL     OW27367   2.777   1.719  12.738 -0.2316 -0.1438 -0.3297
 5245SOL    HW127368   2.821   1.728  12.823  0.6356  0.3911 -0.8256
 5245SOL    HW227369   2.747   1.810  12.732 -0.5440 -0.2269 -0.0061
 5246SOL     OW27370   1.862   2.099   3.507  0.3127  1.1609 -0.2529
 5246SOL    HW127371   1.957   2.096   3.502  0.2582  1.6308 -1.5861
 5246SOL    HW227372   1.841   2.129   3.418 -0.7948  1.0222 -0.0481
 5247SOL     OW27373   0.645   1.894   7.408 -0.0509 -0.3508  0.0934
 5247SOL    HW127374   0.662   1.805   7.378  1.3217 -0.7369  2.0573
 5247SOL    HW227375   0.652   1.932   7.320  1.9467 -0.6853  0.1251
 5248SOL     OW27376   0.181   4.053   4.322  0.1381 -0.5913 -0.2988
 5248SOL    HW127377   0.125   4.130   4.325  2.6429  1.2351 -0.7299
 5248SOL    HW227378   0.212   4.050   4.412 -1.4766  0.9525  0.2937
 5249SOL     OW27379   1.177   2.263   2.451  0.6012  0.1113 -0.1804
 5249SOL    HW127380   1.147   2.175   2.425  0.4258 -0.7623  2.9679
 5249SOL    HW227381   1.252   2.232   2.502  0.5610 -0.3413 -0.3952
 5250SOL     OW27382   2.600   0.477  14.616  0.1359 -0.2780  0.2884
 5250SOL    HW127383   2.536   0.430  14.670  1.9594 -0.6620  2.1190
 5250SOL    HW227384   2.612   0.409  14.550 -0.1336 -1.6711  1.6565
 5251SOL     OW27385   3.650   0.960   5.913  0.2287  0.3803  0.0460
 5251SOL    HW127386   3.658   0.919   5.999 -0.4806 -0.4992 -0.3058
 5251SOL    HW227387   3.743   0.959   5.893 -0.1568 -0.5081 -1.7143
 5252SOL     OW27388   2.516   1.128  14.844 -0.1562  0.3917  0.7657
 5252SOL    HW127389   2.605   1.158  14.829  0.2149 -0.7866  0.6352
 5252SOL    HW227390   2.464   1.144  14.765 -0.3444 -1.4260  0.5037
 5253SOL     OW27391   0.050   1.244  14.839 -0.2352  0.2283  0.4046
 5253SOL    HW127392   0.143   1.263  14.834  0.0651 -1.5532 -0.7936
 5253SOL    HW227393   0.051   1.155  14.803 -1.7332  0.3315  0.1077
 5254SOL     OW27394   2.477   2.363  17.104 -0.3013  0.6059 -0.3986
 5254SOL    HW127395   2.392   2.407  17.094  0.1604  1.5419 -0.2100
 5254SOL    HW227396   2.531   2.442  17.107  0.7003 -0.0737 -0.7456
 5255SOL     OW27397   1.181   2.820   3.718 -0.2221  0.3570  0.6178
 5255SOL    HW127398   1.236   2.748   3.749 -1.7861  0.1943  2.9923
 5255SOL    HW227399   1.185   2.880   3.792  0.2506 -0.1567  1.0093
 5256SOL     OW27400   4.531   2.206  17.413 -0.2867 -0.5312  0.0318
 5256SOL    HW127401   4.545   2.247  17.498  1.1073  1.6538 -1.2599
 5256SOL    HW227402   4.520   2.289  17.367 -1.9750  0.2541  1.8703
 5257SOL     OW27403   0.490   4.084   6.512 -0.1046  0.1470  0.6079
 5257SOL    HW127404   0.408   4.128   6.492  0.2757  0.0919 -1.1032
 5257SOL    HW227405   0.514   4.063   6.421 -1.6189  0.1457  0.2051
 5258SOL     OW27406   1.253   2.510   1.227  0.3477  0.2395  0.0073
 5258SOL    HW127407   1.188   2.518   1.157  0.2586 -0.4302  0.0106
 5258SOL    HW227408   1.295   2.596   1.221 -0.4464  0.6546  0.4617
 5259SOL     OW27409   4.055   3.358   3.541 -0.2757  0.2570  0.2631
 5259SOL    HW127410   4.060   3.337   3.448 -0.9540  1.5245 -0.0661
 5259SOL    HW227411   4.048   3.454   3.539 -1.2365  0.2173  1.3716
 5260SOL     OW27412   1.923   1.447   4.420 -0.2572 -0.1407  0.2763
 5260SOL    HW127413   1.982   1.522   4.406 -0.0107  0.1633  3.0979
 5260SOL    HW227414   1.985   1.377   4.401  0.5560  0.4179  0.9195
 5261SOL     OW27415   3.479   1.614   1.825  0.2689  0.5255 -0.2463
 5261SOL    HW127416   3.563   1.616   1.871 -0.0714  0.8926  0.3594
 5261SOL    HW227417   3.425   1.593   1.901  0.0410  0.8259 -0.3273
 5262SOL     OW27418   2.476   4.479   2.366 -0.5903  0.3824  0.3689
 5262SOL    HW127419   2.413   4.489   2.294 -1.8534  0.0055  1.4261
 5262SOL    HW227420   2.544   4.423   2.329 -0.6016  0.6900 -0.1223
 5263SOL     OW27421   2.118   2.478   2.165  0.6780  0.3259 -0.9184
 5263SOL    HW127422   2.096   2.409   2.227 -0.6366  0.7123 -0.9534
 5263SOL    HW227423   2.156   2.545   2.221  1.3648 -1.7101  1.0490
 5264SOL     OW27424   1.777   3.357   6.863  0.1770 -0.1542 -0.0185
 5264SOL    HW127425   1.832   3.286   6.829 -0.5057 -0.4016 -0.6068
 5264SOL    HW227426   1.695   3.331   6.822 -0.0610 -1.5204  1.3352
 5265SOL     OW27427   3.649   2.738   4.762 -0.0824 -0.0835 -0.2620
 5265SOL    HW127428   3.619   2.823   4.795 -0.6564 -0.0213 -0.9762
 5265SOL    HW227429   3.588   2.677   4.803 -0.6387 -0.6752 -1.9769
 5266SOL     OW27430   4.497   1.511  14.384 -0.1623  0.5341 -0.1186
 5266SOL    HW127431   4.508   1.464  14.467  3.0112  1.3494 -0.0705
 5266SOL    HW227432   4.422   1.568  14.395 -1.8795 -1.4789 -1.4526
 5267SOL     OW27433   4.221   2.585   3.119 -0.1105 -0.4885  0.5600
 5267SOL    HW127434   4.201   2.662   3.065  1.8247 -0.9945 -0.8391
 5267SOL    HW227435   4.136   2.541   3.112 -1.5891  2.5464 -0.7474
 5268SOL     OW27436   3.118   3.251   1.658  0.7778 -0.1976  0.0296
 5268SOL    HW127437   3.049   3.194   1.625  0.1781  0.6958 -0.2235
 5268SOL    HW227438   3.061   3.301   1.716  2.4961 -1.6769  3.0264
 5269SOL     OW27439   2.312   3.821   3.061 -0.1163 -0.3607  0.2043
 5269SOL    HW127440   2.321   3.732   3.096 -0.6798 -0.9986 -1.2283
 5269SOL    HW227441   2.386   3.832   3.001 -0.0562 -0.2206  0.3062
 5270SOL     OW27442   4.008   4.729   4.131 -0.3856  0.1107 -0.4096
 5270SOL    HW127443   4.076   4.684   4.081 -1.1423 -0.7408 -0.6676
 5270SOL    HW227444   4.038   0.011   4.220  1.2923  0.3554 -1.0263
 5271SOL     OW27445   4.502   4.059   8.389 -0.4161  0.0260  0.0350
 5271SOL    HW127446   4.567   4.075   8.320 -2.6357  3.6680 -1.1826
 5271SOL    HW227447   4.540   3.987   8.439  0.0950  0.2225 -0.0699
 5272SOL     OW27448   0.687   2.855   6.764 -0.1082  0.3452 -0.4611
 5272SOL    HW127449   0.646   2.808   6.692 -0.7071 -0.7597  0.6022
 5272SOL    HW227450   0.672   2.794   6.836 -1.5937  2.5496  1.1043
 5273SOL     OW27451   3.536   2.728   5.041  0.6431 -0.3758 -0.2508
 5273SOL    HW127452   3.541   2.823   5.042 -1.0295 -0.2919  0.2949
 5273SOL    HW227453   3.554   2.694   5.129  1.7158  2.2772  0.5529
 5274SOL     OW27454   0.891   4.683   6.134 -0.3025  0.4615 -0.2564
 5274SOL    HW127455   0.953   4.643   6.195 -1.4650 -0.4308  0.3391
 5274SOL    HW227456   0.811   4.633   6.150  0.6357  0.2262  3.6905
 5275SOL     OW27457   4.659   3.352   3.393 -0.0482  0.2420 -0.2420
 5275SOL    HW127458   4.676   3.356   3.487 -1.0018 -1.4416 -0.0054
 5275SOL    HW227459   4.565   3.340   3.405  0.1823 -0.7641  0.6239
 5276SOL     OW27460   1.128   1.430   3.875 -0.3113  0.1408  0.2068
 5276SOL    HW127461   1.081   1.349   3.856 -2.1262  1.3888 -0.7252
 5276SOL    HW227462   1.211   1.416   3.830 -0.4318 -2.6749  0.8676
 5277SOL     OW27463   0.787   0.305   4.616 -0.4035 -0.5976  0.8768
 5277SOL    HW127464   0.747   0.360   4.548 -0.7362 -1.5401  0.3114
 5277SOL    HW227465   0.880   0.323   4.602 -0.7915  1.9483  1.5113
 5278SOL     OW27466   3.354   3.246   0.067  0.3678  0.2616 -0.0087
 5278SOL    HW127467   3.283   3.230   0.129  0.7323  1.1995  0.6464
 5278SOL    HW227468   3.428   3.228   0.126  0.2828 -0.8999 -0.2471
 5279SOL     OW27469   0.723   0.594   5.259  0.0898  0.3881 -0.1361
 5279SOL    HW127470   0.746   0.516   5.209  1.0112  0.4050  0.2727
 5279SOL    HW227471   0.791   0.656   5.232  1.1921 -0.6185  0.3244
 5280SOL     OW27472   2.658   3.237   3.290  0.1636 -0.2829 -0.2544
 5280SOL    HW127473   2.690   3.207   3.204 -0.0264 -2.7718  0.5308
 5280SOL    HW227474   2.588   3.175   3.310  0.3189 -1.5777 -3.5585
 5281SOL     OW27475   2.929   1.148   4.679 -0.4867  0.2348 -0.2121
 5281SOL    HW127476   2.875   1.072   4.656  1.4553 -1.1938 -0.0540
 5281SOL    HW227477   3.010   1.109   4.646  0.1505  2.3601 -1.1594
 5282SOL     OW27478   2.275   1.274   2.434  0.5729 -0.4611  0.3245
 5282SOL    HW127479   2.299   1.318   2.515 -1.6115  0.3615  0.5275
 5282SOL    HW227480   2.363   1.248   2.406  1.0838  0.5377  0.9785
 5283SOL     OW27481   3.319   3.584  17.194  0.3691 -0.4298 -0.0410
 5283SOL    HW127482   3.248   3.578  17.129  0.8088  2.9459 -0.8273
 5283SOL    HW227483   3.351   3.673  17.180  3.6406 -1.6401 -0.2082
 5284SOL     OW27484   4.520   4.127  16.873  0.1318  0.7849  0.3232
 5284SOL    HW127485   4.474   4.206  16.903 -1.1696 -0.4828  1.7058
 5284SOL    HW227486   4.517   4.078  16.955 -2.6440 -1.1318 -0.8846
 5285SOL     OW27487   2.100   1.676   2.932  0.0723  0.2417 -0.9366
 5285SOL    HW127488   2.035   1.606   2.924 -1.9936  2.4057 -2.8339
 5285SOL    HW227489   2.179   1.627   2.956 -0.1706  0.3615  0.1226
 5286SOL     OW27490   1.836   1.310  11.050 -0.1919  0.1244 -0.2103
 5286SOL    HW127491   1.812   1.391  11.006  1.9155  2.3431  2.7689
 5286SOL    HW227492   1.762   1.264  11.011 -1.1738  1.0175  0.6124
 5287SOL     OW27493   2.929   3.508   5.799 -0.6317  0.8245 -0.0880
 5287SOL    HW127494   2.860   3.502   5.864  0.8620 -4.0157  1.0395
 5287SOL    HW227495   2.882   3.536   5.721 -0.1421  0.2530 -0.5915
 5288SOL     OW27496   1.493   1.280   3.538 -0.4508 -0.3501  0.2905
 5288SOL    HW127497   1.480   1.231   3.458  0.8208 -0.7105  0.3079
 5288SOL    HW227498   1.506   1.367   3.500 -0.4453 -0.4187  0.1401
 5289SOL     OW27499   2.946   3.785   5.838 -0.0292 -0.0866 -0.5912
 5289SOL    HW127500   2.943   3.689   5.828  1.0369  0.0020 -1.6977
 5289SOL    HW227501   2.862   3.815   5.804 -0.1885  0.4153  0.2517
 5290SOL     OW27502   2.009   0.239   5.613  0.3112  0.1392 -0.2650
 5290SOL    HW127503   2.025   0.293   5.691 -1.7721  1.0462 -0.4672
 5290SOL    HW227504   2.100   0.226   5.587  0.3043  0.0173 -0.2280
 5291SOL     OW27505   3.468   4.021   3.782  0.1334  0.1706 -0.4529
 5291SOL    HW127506   3.535   4.078   3.744  1.5900  0.6068  2.7566
 5291SOL    HW227507   3.417   4.079   3.838  1.3711 -1.4500  2.4225
 5292SOL     OW27508   0.712   1.292  12.855  0.2457  0.0890  0.0507
 5292SOL    HW127509   0.757   1.226  12.801  0.2821  0.4713 -0.3853
 5292SOL    HW227510   0.782   1.357  12.858  0.6587 -0.2385 -2.1996
 5293SOL     OW27511   1.348   2.382   1.960 -0.0536 -0.3114 -0.3135
 5293SOL    HW127512   1.271   2.440   1.962  1.3119  1.4613  0.6358
 5293SOL    HW227513   1.369   2.376   2.053 -1.7564 -0.7450  0.0420
 5294SOL     OW27514   2.800   2.083   9.922  0.2315 -0.2180  0.2041
 5294SOL    HW127515   2.785   2.177   9.921  0.8025 -0.1513 -3.3893
 5294SOL    HW227516   2.792   2.063   9.828 -3.4914 -1.5496  0.7976
 5295SOL     OW27517   2.659   3.256   5.751  0.2718 -0.6076  0.1378
 5295SOL    HW127518   2.624   3.294   5.831  0.6049  2.8516 -1.3224
 5295SOL    HW227519   2.603   3.179   5.742  2.6218 -2.2810 -0.3248
 5296SOL     OW27520   1.295   2.133  14.934 -0.1391  0.5868  0.1315
 5296SOL    HW127521   1.341   2.190  14.996 -0.6553 -0.0536  1.1041
 5296SOL    HW227522   1.300   2.182  14.852  1.4191 -0.3155 -0.3095
 5297SOL     OW27523   1.519   0.004   5.413 -0.1979 -0.0265 -0.4415
 5297SOL    HW127524   1.447   0.055   5.450 -1.1241  0.4384 -2.8914
 5297SOL    HW227525   1.474   4.679   5.356  0.8040 -1.4158  0.2779
 5298SOL     OW27526   1.054   4.569   4.225 -0.4029 -0.2448 -0.2051
 5298SOL    HW127527   1.113   4.509   4.268 -0.8432 -2.0149 -2.0644
 5298SOL    HW227528   1.066   4.535   4.136  0.2454 -0.0972 -0.1717
 5299SOL     OW27529   0.380   2.146   6.689 -0.0527 -0.5633 -0.4575
 5299SOL    HW127530   0.457   2.156   6.745 -0.6542  2.1893 -0.1423
 5299SOL    HW227531   0.306   2.198   6.721 -0.1458 -1.0265  0.0858
 5300SOL     OW27532   0.800   0.654   4.096  0.0047  0.5948  0.4467
 5300SOL    HW127533   0.751   0.677   4.017  0.6878 -0.2930 -0.2430
 5300SOL    HW227534   0.729   0.646   4.159  0.1678 -0.5446  0.4781
 5301SOL     OW27535   0.766   0.687   1.324  0.5755  0.2762 -0.2857
 5301SOL    HW127536   0.793   0.669   1.414 -1.1580  2.5416  0.6739
 5301SOL    HW227537   0.848   0.723   1.291  1.1694 -2.1110 -1.4627
 5302SOL     OW27538   3.106   0.809  10.037 -0.8869 -0.3133  0.2789
 5302SOL    HW127539   3.064   0.839   9.956 -0.4592 -0.9801 -0.1922
 5302SOL    HW227540   3.116   0.892  10.083 -1.3326 -0.4310  0.5827
 5303SOL     OW27541   4.224   0.084   3.903  0.3316  0.3606 -0.0237
 5303SOL    HW127542   4.283   0.143   3.855  0.5869  0.3620  0.2917
 5303SOL    HW227543   4.209   0.017   3.837  0.9559  0.7264 -0.5400
 5304SOL     OW27544   2.784   0.903   8.033  0.3566 -0.4683 -0.3354
 5304SOL    HW127545   2.826   0.818   8.031  2.6019  0.6302  0.0794
 5304SOL    HW227546   2.860   0.955   8.060 -0.9096  0.8438  0.7418
 5305SOL     OW27547   0.941   1.608   4.782  0.0972  0.2323 -0.3314
 5305SOL    HW127548   0.991   1.561   4.716  0.7084 -0.0795  0.3471
 5305SOL    HW227549   1.014   1.669   4.798 -1.0315  0.3041  4.5716
 5306SOL     OW27550   3.569   4.208   4.408 -0.7586 -0.7533 -0.2964
 5306SOL    HW127551   3.589   4.114   4.413  0.4442 -0.3631  2.4046
 5306SOL    HW227552   3.591   4.227   4.317  0.6956 -1.1072 -0.0212
 5307SOL     OW27553   4.453   3.617  13.591 -0.8349 -0.1945 -0.1116
 5307SOL    HW127554   4.377   3.618  13.648 -1.3992  1.6033 -0.9109
 5307SOL    HW227555   4.506   3.690  13.623 -0.9771  0.3541 -1.1264
 5308SOL     OW27556   1.611   0.942   5.368 -0.2918 -0.0533  0.4503
 5308SOL    HW127557   1.557   0.864   5.382 -1.1983  0.2291 -1.5076
 5308SOL    HW227558   1.584   0.996   5.443  0.6960 -0.6912  1.2709
 5309SOL     OW27559   3.255   3.537   3.717 -0.7044  0.2953  0.2182
 5309SOL    HW127560   3.248   3.449   3.682 -1.0927  0.9234 -1.2821
 5309SOL    HW227561   3.192   3.539   3.790 -0.9817 -0.3148 -0.0054
 5310SOL     OW27562   2.182   3.956  16.999  0.3472 -0.6145  0.3784
 5310SOL    HW127563   2.243   3.912  17.059  0.0244 -2.5036 -0.6973
 5310SOL    HW227564   2.136   3.885  16.955  0.1562  1.7829 -3.2909
 5311SOL     OW27565   1.577   3.296  13.528  0.1484 -0.4191 -0.9164
 5311SOL    HW127566   1.612   3.222  13.480 -0.0837 -1.3881  0.4023
 5311SOL    HW227567   1.502   3.264  13.579 -0.1460  1.9445  0.1410
 5312SOL     OW27568   1.892   1.423  17.711  0.1427  0.6058 -0.0906
 5312SOL    HW127569   1.897   1.421  17.616 -0.5510  2.3704 -0.1767
 5312SOL    HW227570   1.974   1.379  17.731  0.2617 -0.0327 -2.0589
 5313SOL     OW27571   0.891   1.858   6.278  0.0604  0.5676 -0.1677
 5313SOL    HW127572   0.848   1.940   6.252  0.5133  0.3233 -1.7253
 5313SOL    HW227573   0.863   1.849   6.369 -0.4741 -1.2820 -0.5301
 5314SOL     OW27574   0.156   3.938   3.165 -0.2037  0.1338  0.3553
 5314SOL    HW127575   0.228   4.001   3.164 -1.4167  1.5304  1.0541
 5314SOL    HW227576   0.089   4.001   3.142  0.4031  0.0185 -1.7407
 5315SOL     OW27577   3.966   1.961  14.168  0.2856 -0.0942 -0.0724
 5315SOL    HW127578   4.029   2.031  14.151 -0.1636  0.2844 -0.1718
 5315SOL    HW227579   3.963   1.919  14.082  2.8537  1.2447 -0.8153
 5316SOL     OW27580   1.745   2.272   2.284  0.1574  0.5702 -0.1803
 5316SOL    HW127581   1.663   2.319   2.270  0.0142  0.0777 -0.9962
 5316SOL    HW227582   1.809   2.291   2.215 -0.8346  0.5453 -1.1098
 5317SOL     OW27583   1.084   0.014  11.355 -0.2507  0.7083 -0.1547
 5317SOL    HW127584   1.048   0.091  11.400 -0.8799  0.1830  0.2277
 5317SOL    HW227585   1.055   0.027  11.264  0.1947  3.1152  0.0330
 5318SOL     OW27586   2.378   1.641   7.827  0.0553  0.1304 -0.3613
 5318SOL    HW127587   2.345   1.655   7.916  0.2395 -1.6544 -0.0073
 5318SOL    HW227588   2.334   1.557   7.816  2.1501 -0.9318 -0.7313
 5319SOL     OW27589   3.390   1.117   6.970 -0.4078 -0.3864  0.3021
 5319SOL    HW127590   3.370   1.151   6.883 -0.3778 -2.9144 -0.6990
 5319SOL    HW227591   3.483   1.139   6.981  0.0579 -2.3492  0.2449
 5320SOL     OW27592   4.343   1.723  13.936 -0.3448  0.2592 -0.0317
 5320SOL    HW127593   4.427   1.703  13.975 -0.1104 -0.9121 -1.1285
 5320SOL    HW227594   4.289   1.728  14.015 -0.0112  0.3293  0.1916
 5321SOL     OW27595   1.119   0.290   7.415  0.1943 -0.3491 -0.0422
 5321SOL    HW127596   1.121   0.316   7.507  2.1793  0.2584 -0.2692
 5321SOL    HW227597   1.047   0.348   7.391  1.3454  0.8462 -0.5689
 5322SOL     OW27598   1.080   0.916   2.886 -0.0039  0.4412 -0.1969
 5322SOL    HW127599   1.152   0.867   2.846 -0.2450 -0.1911  0.1400
 5322SOL    HW227600   1.025   0.943   2.812 -0.7861 -1.8248 -0.4385
 5323SOL     OW27601   4.447   0.707   4.065 -0.0525  0.4444  0.3147
 5323SOL    HW127602   4.410   0.621   4.042 -0.9535  0.9733 -0.1869
 5323SOL    HW227603   4.445   0.704   4.161  0.1263 -1.4183  0.2617
 5324SOL     OW27604   1.493   2.341   0.148 -0.4483  0.0891  0.1298
 5324SOL    HW127605   1.432   2.383   0.088  0.1691 -0.3954 -0.8481
 5324SOL    HW227606   1.547   2.298   0.081 -0.1760 -2.8166  2.1987
 5325SOL     OW27607   1.506   4.644  17.330 -0.0796  0.6927  0.2058
 5325SOL    HW127608   1.552   4.643  17.247  1.0769  1.0247  0.8408
 5325SOL    HW227609   1.419   4.625  17.295 -1.3155  3.0513  1.8863
 5326SOL     OW27610   3.602   0.567   4.169 -0.4153  0.1841 -0.2597
 5326SOL    HW127611   3.581   0.541   4.080  1.4776 -1.4089 -0.2183
 5326SOL    HW227612   3.677   0.514   4.192 -0.8018  0.0102  0.6064
 5327SOL     OW27613   0.744   0.725   7.721 -0.5615  0.3079 -0.2941
 5327SOL    HW127614   0.785   0.799   7.766  0.2438  0.5073 -1.3633
 5327SOL    HW227615   0.656   0.741   7.754 -0.6288 -1.1679  0.2602
 5328SOL     OW27616   3.984   2.096   3.195  0.0312  0.2787 -0.0645
 5328SOL    HW127617   4.031   2.062   3.271  2.3326 -0.2535 -1.7221
 5328SOL    HW227618   4.051   2.155   3.161 -0.0550  1.3090  1.5275
 5329SOL     OW27619   1.816   2.336   6.523 -0.2539  0.1199 -0.2776
 5329SOL    HW127620   1.733   2.293   6.542  0.0200 -0.2782  0.0388
 5329SOL    HW227621   1.862   2.310   6.603  1.5930  0.0339 -1.3661
 5330SOL     OW27622   3.236   4.096  16.097  0.5454  0.5086 -0.3778
 5330SOL    HW127623   3.271   4.074  16.010  1.2332 -0.8026  0.2450
 5330SOL    HW227624   3.165   4.154  16.069  0.9997  0.7883 -0.9686
 5331SOL     OW27625   4.369   4.061   1.722 -0.0209  0.2802  0.1030
 5331SOL    HW127626   4.414   3.978   1.710 -2.0196 -1.2796  3.4135
 5331SOL    HW227627   4.280   4.028   1.716 -0.0840  0.4162  0.2952
 5332SOL     OW27628   4.238   1.382   3.906 -0.3954 -0.6838  0.2180
 5332SOL    HW127629   4.246   1.302   3.958  1.2639 -0.4359  0.3387
 5332SOL    HW227630   4.234   1.447   3.976 -1.4763 -1.0224  0.4686
 5333SOL     OW27631   1.120   3.374   2.405  0.5590  0.0053 -0.4155
 5333SOL    HW127632   1.082   3.305   2.460  1.6546 -1.3175 -1.2919
 5333SOL    HW227633   1.080   3.453   2.439 -0.7024 -1.5734  1.7705
 5334SOL     OW27634   3.654   1.154  12.451 -0.0748  0.2048  0.2180
 5334SOL    HW127635   3.709   1.160  12.374 -2.7949  0.3503 -1.7226
 5334SOL    HW227636   3.614   1.241  12.446  2.1588  1.1185 -1.6884
 5335SOL     OW27637   4.491   3.237   2.379 -0.3981  0.0939  0.1849
 5335SOL    HW127638   4.578   3.200   2.394 -0.7399 -0.0875  1.7852
 5335SOL    HW227639   4.470   3.292   2.454 -0.0847  0.6633 -0.1502
 5336SOL     OW27640   0.942   0.521   9.659 -0.1195 -0.2821  0.3052
 5336SOL    HW127641   0.983   0.442   9.694 -0.8872 -0.6959  0.2776
 5336SOL    HW227642   1.018   0.548   9.607 -0.7464 -1.1206 -1.0417
 5337SOL     OW27643   0.873   2.432   9.700 -0.5944 -0.5352 -0.4101
 5337SOL    HW127644   0.952   2.481   9.677  0.1370 -1.9716 -0.9464
 5337SOL    HW227645   0.901   2.414   9.790 -1.7093  0.1562  0.0777
 5338SOL     OW27646   0.762   1.555   5.673 -0.0536  0.4140  0.7455
 5338SOL    HW127647   0.736   1.471   5.635 -0.5299  2.1025 -2.7242
 5338SOL    HW227648   0.770   1.533   5.765  1.7366  0.8333  0.6785
 5339SOL     OW27649   2.992   3.005  13.694 -0.5509 -0.2716 -1.1379
 5339SOL    HW127650   2.968   3.096  13.675 -3.2340 -0.8847 -0.6853
 5339SOL    HW227651   2.940   2.958  13.628 -1.0707 -0.0042 -0.9240
 5340SOL     OW27652   0.903   4.290   7.443 -0.0355 -0.1265  0.2001
 5340SOL    HW127653   0.970   4.322   7.383  1.3769 -1.2173  1.1952
 5340SOL    HW227654   0.946   4.303   7.527 -0.3651  2.3469 -0.0011
 5341SOL     OW27655   3.652   1.876   7.069 -0.1392  0.4399  0.2406
 5341SOL    HW127656   3.743   1.866   7.040 -0.6562 -0.0176 -1.2461
 5341SOL    HW227657   3.661   1.849   7.160 -0.2950 -1.5694 -0.3318
 5342SOL     OW27658   1.722   2.794   3.564  0.2019  0.0859 -0.1200
 5342SOL    HW127659   1.627   2.786   3.573  0.5660 -1.3212  2.2112
 5342SOL    HW227660   1.746   2.764   3.651 -3.6395  0.4434  1.0730
 5343SOL     OW27661   0.422   0.224   6.068 -0.4208 -0.0669  0.3956
 5343SOL    HW127662   0.343   0.232   6.122 -0.8790 -0.0210 -0.2808
 5343SOL    HW227663   0.455   0.138   6.093 -1.5317 -1.2385 -2.1778
 5344SOL     OW27664   1.054   0.916   9.275 -0.3213  0.4523 -0.0846
 5344SOL    HW127665   1.057   0.835   9.327  0.1037  0.6392  0.1928
 5344SOL    HW227666   1.003   0.973   9.333 -1.4534 -0.1128 -0.5301
 5345SOL     OW27667   2.170   2.744  10.324  0.1769 -0.2791  0.6217
 5345SOL    HW127668   2.182   2.655  10.293 -1.7194 -0.1213 -0.5312
 5345SOL    HW227669   2.103   2.781  10.267  1.0373 -1.5266 -1.2239
 5346SOL     OW27670   4.730   3.715   5.901  0.4165  0.1539  0.0754
 5346SOL    HW127671   4.667   3.716   5.829 -0.3096  0.6719  0.7231
 5346SOL    HW227672   4.665   3.722   5.971 -3.1319  1.7377 -3.3799
 5347SOL     OW27673   4.164   4.551   9.548 -0.2694 -0.2230  1.0776
 5347SOL    HW127674   4.078   4.519   9.519 -0.4140  0.4991  0.6898
 5347SOL    HW227675   4.163   4.518   9.637  1.1862 -0.8126  0.8741
 5348SOL     OW27676   1.973   1.214   5.926  0.1258  0.2430  0.3617
 5348SOL    HW127677   2.039   1.258   5.872 -1.6781  0.4937 -1.6673
 5348SOL    HW227678   1.917   1.192   5.851  1.8158  0.6800 -1.0487
 5349SOL     OW27679   1.507   0.171  10.060 -0.3061  0.0008  0.0240
 5349SOL    HW127680   1.525   0.217   9.978  1.6222 -0.0626  0.3960
 5349SOL    HW227681   1.453   0.235  10.106  1.9146  2.0319 -0.1853
 5350SOL     OW27682   2.472   1.528   9.533  0.3285  0.3721  0.5660
 5350SOL    HW127683   2.543   1.464   9.534  0.9747  1.0791  0.2694
 5350SOL    HW227684   2.447   1.535   9.440 -0.5182  0.1728  0.7770
 5351SOL     OW27685   2.485   2.783  12.467  0.4546 -0.2038  0.2486
 5351SOL    HW127686   2.553   2.781  12.400 -0.6932 -2.6011 -0.8633
 5351SOL    HW227687   2.468   2.690  12.486  1.1676 -0.3147  0.3483
 5352SOL     OW27688   3.110   1.216   5.354 -0.6664 -0.3194 -0.3120
 5352SOL    HW127689   3.152   1.158   5.417 -0.1574 -0.5086 -0.8229
 5352SOL    HW227690   3.140   1.170   5.275  0.7090 -0.7566  0.4711
 5353SOL     OW27691   3.218   0.021  15.711 -0.1390 -0.4001 -0.0822
 5353SOL    HW127692   3.149   0.087  15.710 -0.8196 -1.1083 -0.2038
 5353SOL    HW227693   3.198   4.698  15.639  0.4540 -0.8008  0.0894
 5354SOL     OW27694   3.660   3.256   7.737 -0.2840 -0.4069 -0.4160
 5354SOL    HW127695   3.652   3.162   7.753 -3.5153 -0.0605  0.0193
 5354SOL    HW227696   3.655   3.256   7.641 -0.3090 -1.1307 -0.4156
 5355SOL     OW27697   1.881   2.323   9.052 -0.3573  0.1276 -0.0160
 5355SOL    HW127698   1.852   2.406   9.014 -2.9923 -0.4430  0.7717
 5355SOL    HW227699   1.977   2.331   9.045 -0.0516 -2.0665  1.3775
 5356SOL     OW27700   1.818   1.912   6.034 -0.1345 -0.0621 -0.0249
 5356SOL    HW127701   1.761   1.988   6.042 -1.8666 -1.1990 -1.5419
 5356SOL    HW227702   1.756   1.851   6.074 -0.0237 -1.0764 -1.3998
 5357SOL     OW27703   2.565   4.451   2.615  0.2747  0.1523  1.0687
 5357SOL    HW127704   2.631   4.519   2.598  0.1847 -0.3265 -1.1168
 5357SOL    HW227705   2.517   4.458   2.533 -1.1189 -0.6689  1.8243
 5358SOL     OW27706   4.618   2.328   7.678  0.1298 -0.3460 -0.0232
 5358SOL    HW127707   4.632   2.367   7.591  1.9949 -0.5472  0.1856
 5358SOL    HW227708   4.694   2.272   7.666  1.2283  1.4539 -1.5957
 5359SOL     OW27709   3.077   2.212   5.081 -0.0460 -0.0931 -0.4458
 5359SOL    HW127710   3.045   2.172   5.000 -1.1425 -0.1595  0.0182
 5359SOL    HW227711   3.001   2.221   5.138  0.7933 -0.2436  0.7033
 5360SOL     OW27712   1.356   2.236   5.141 -0.8031  0.2155  0.2809
 5360SOL    HW127713   1.441   2.244   5.184  0.5537 -0.2043 -2.3240
 5360SOL    HW227714   1.379   2.273   5.055  0.3019 -2.0908 -0.4225
 5361SOL     OW27715   2.167   1.156   8.443 -0.3589  0.4409 -0.1067
 5361SOL    HW127716   2.072   1.167   8.451 -0.4772 -0.7032  0.0765
 5361SOL    HW227717   2.185   1.152   8.537 -0.7844  1.5009  0.0106
 5362SOL     OW27718   3.232   3.553   8.655 -0.0933 -0.1424 -0.0637
 5362SOL    HW127719   3.195   3.472   8.618 -1.5146  0.4330  0.0978
 5362SOL    HW227720   3.258   3.525   8.743 -2.3753  0.6287  0.8410
 5363SOL     OW27721   1.546   4.574   9.327  0.2163  0.1062 -0.1516
 5363SOL    HW127722   1.603   4.632   9.276 -0.3520 -0.3451 -1.3024
 5363SOL    HW227723   1.532   4.492   9.280  0.6589  0.4409 -0.8609
 5364SOL     OW27724   4.625   3.917   3.617  0.4082 -0.1143 -0.1550
 5364SOL    HW127725   4.537   3.888   3.640 -0.0640  0.5582 -1.0930
 5364SOL    HW227726   4.613   3.949   3.527  2.7019  0.3962 -0.3061
 5365SOL     OW27727   3.794   0.097   8.349  0.3122  0.4905  0.7416
 5365SOL    HW127728   3.878   0.103   8.395  0.1408 -0.1519  1.1505
 5365SOL    HW227729   3.811   0.018   8.298 -2.3050 -0.0872  0.7607
 5366SOL     OW27730   3.488   1.619   4.692  0.0448 -0.1902 -0.2097
 5366SOL    HW127731   3.437   1.576   4.623  1.2385 -2.1636  0.1276
 5366SOL    HW227732   3.540   1.677   4.637  2.4638 -1.1846  1.0077
 5367SOL     OW27733   2.901   0.661   2.456 -0.6914 -0.5345 -0.1461
 5367SOL    HW127734   2.845   0.602   2.507  0.0594 -1.4337 -0.3591
 5367SOL    HW227735   2.988   0.647   2.494 -0.2476 -0.3266 -1.0957
 5368SOL     OW27736   1.038   0.013   0.677  0.2525  0.0511  0.3583
 5368SOL    HW127737   0.949   0.021   0.711  0.0840 -1.0064  0.1641
 5368SOL    HW227738   1.068   0.103   0.692 -0.3300  0.4737 -1.0931
 5369SOL     OW27739   1.399   4.414   1.506 -0.2023  0.1117  0.2860
 5369SOL    HW127740   1.330   4.354   1.479 -1.1654  0.9211  0.9205
 5369SOL    HW227741   1.364   4.462   1.581 -0.3455  0.1936  0.1653
 5370SOL     OW27742   3.347   0.501   5.983 -0.4169 -0.3793  0.2621
 5370SOL    HW127743   3.393   0.417   5.983  1.1680  0.4856  1.0167
 5370SOL    HW227744   3.260   0.470   5.957 -0.3456 -0.0430 -0.3691
 5371SOL     OW27745   3.930   4.066   8.315 -0.8842 -0.6681  0.0205
 5371SOL    HW127746   3.947   4.082   8.408 -0.0935 -1.7173  0.0446
 5371SOL    HW227747   3.988   3.994   8.294  1.5676  0.5763  2.4167
 5372SOL     OW27748   3.929   1.502   8.628 -0.6515 -0.2203  0.1206
 5372SOL    HW127749   3.942   1.499   8.723 -0.3949 -0.1610  0.0872
 5372SOL    HW227750   3.864   1.570   8.611 -0.7575  0.2110  2.1332
 5373SOL     OW27751   4.269   3.089  12.739 -0.5014 -0.1417  0.0439
 5373SOL    HW127752   4.216   3.023  12.695 -0.9504 -0.4644  1.0788
 5373SOL    HW227753   4.315   3.123  12.662 -0.6973 -3.0077 -1.3615
 5374SOL     OW27754   4.694   2.289   6.976 -0.5268  0.0770 -0.3722
 5374SOL    HW127755   4.663   2.242   7.054 -0.2130  0.8494  0.2181
 5374SOL    HW227756   4.661   2.374   7.003 -0.9930  0.5984 -2.6035
 5375SOL     OW27757   3.514   2.892   3.542  0.1646 -0.2262 -0.8314
 5375SOL    HW127758   3.420   2.904   3.534  0.0615  0.5937  1.5857
 5375SOL    HW227759   3.516   2.800   3.518 -2.9098 -0.0041 -1.9712
 5376SOL     OW27760   4.684   4.571  14.978 -0.3299 -0.2619  0.1333
 5376SOL    HW127761   4.589   4.582  14.972 -0.2055  0.2608 -0.8347
 5376SOL    HW227762   4.687   4.476  14.994 -0.3276 -0.1909  0.5560
 5377SOL     OW27763   1.088   2.059   9.291 -0.2431  0.3427  0.4150
 5377SOL    HW127764   1.030   2.014   9.353  3.7034 -3.3386  1.4561
 5377SOL    HW227765   1.098   2.140   9.341  1.6760  0.4686 -0.1922
 5378SOL     OW27766   1.353   2.355   6.479 -0.7726 -0.1293 -0.0714
 5378SOL    HW127767   1.434   2.344   6.528 -0.9566  1.3469  0.5607
 5378SOL    HW227768   1.301   2.391   6.551 -0.5157 -2.7149  1.3982
 5379SOL     OW27769   2.266   3.490  12.232  0.2014  0.5126 -0.4392
 5379SOL    HW127770   2.268   3.543  12.312  2.0978 -0.5153  0.2063
 5379SOL    HW227771   2.179   3.487  12.194  0.3166 -1.1307 -0.5903
 5380SOL     OW27772   3.655   3.035   4.945 -0.4610  0.5966  0.1153
 5380SOL    HW127773   3.658   3.073   4.857  0.3710  4.7091  1.9209
 5380SOL    HW227774   3.579   3.081   4.982 -0.1543  1.4815 -0.3496
 5381SOL     OW27775   4.328   0.388   1.216  0.0488  0.2625 -0.4528
 5381SOL    HW127776   4.279   0.336   1.153  1.5897  0.1491 -1.5328
 5381SOL    HW227777   4.369   0.316   1.264  0.0172 -0.0329 -0.8763
 5382SOL     OW27778   1.272   1.125   1.663  0.5556 -0.4200  0.6316
 5382SOL    HW127779   1.234   1.163   1.742  1.0216  0.4235  0.4483
 5382SOL    HW227780   1.364   1.119   1.690  0.8685  1.2919 -0.1081
 5383SOL     OW27781   3.522   3.079   4.366  0.6049 -0.2564 -0.3402
 5383SOL    HW127782   3.460   3.127   4.312  1.1939 -2.0863 -2.6588
 5383SOL    HW227783   3.605   3.115   4.335 -0.4778  0.8466 -1.9284
 5384SOL     OW27784   0.493   1.142   4.762  0.1300 -0.2211  0.7164
 5384SOL    HW127785   0.422   1.078   4.774 -0.4656  0.0534 -1.3315
 5384SOL    HW227786   0.484   1.147   4.667  1.0089  0.9909  0.6972
 5385SOL     OW27787   3.728   2.378   8.233 -0.4043 -0.4772 -0.5514
 5385SOL    HW127788   3.772   2.359   8.150  0.8362  0.4050 -0.0896
 5385SOL    HW227789   3.752   2.470   8.238 -1.3096 -0.3278  1.1907
 5386SOL     OW27790   2.894   1.216   8.748 -0.5411 -0.1492  0.7848
 5386SOL    HW127791   2.885   1.245   8.657 -2.9098  0.8201  1.3080
 5386SOL    HW227792   2.984   1.243   8.764  0.0157 -1.7968  0.3491
 5387SOL     OW27793   2.405   0.463  15.049 -0.1751 -0.6253  0.4277
 5387SOL    HW127794   2.440   0.374  15.042  0.4620 -0.5121  1.9542
 5387SOL    HW227795   2.324   0.453  15.001  0.6920 -0.9247 -0.9618
 5388SOL     OW27796   1.296   3.120   4.642 -0.1617 -0.4442 -0.5441
 5388SOL    HW127797   1.303   3.151   4.732 -2.1013 -1.4654 -0.0353
 5388SOL    HW227798   1.202   3.109   4.629  0.0087 -2.9915  0.2749
 5389SOL     OW27799   3.592   4.674   9.601 -0.0471  0.4910  0.3353
 5389SOL    HW127800   3.677   4.670   9.558 -1.0677 -0.7847 -1.5770
 5389SOL    HW227801   3.543   4.725   9.536  0.8191 -0.4036 -1.0060
 5390SOL     OW27802   3.502   2.466   4.876 -0.4696 -0.4713  0.1446
 5390SOL    HW127803   3.540   2.496   4.959 -1.6684  1.2550  0.0763
 5390SOL    HW227804   3.443   2.399   4.912 -0.7795 -0.1691  0.1936
 5391SOL     OW27805   4.287   2.182   2.251  0.2579 -0.1189  0.0260
 5391SOL    HW127806   4.237   2.134   2.316 -0.4437 -0.0552 -0.4727
 5391SOL    HW227807   4.355   2.119   2.228  1.0345  1.4042 -1.9788
 5392SOL     OW27808   2.373   1.644  16.220  0.1274 -0.1754 -0.6456
 5392SOL    HW127809   2.296   1.598  16.187 -1.7772  0.9393  2.1779
 5392SOL    HW227810   2.329   1.694  16.289  1.9514  0.8393 -0.2019
 5393SOL     OW27811   3.000   1.066  11.333  0.1894  0.0732 -0.8337
 5393SOL    HW127812   2.919   1.050  11.283  0.0173  0.1256 -0.5708
 5393SOL    HW227813   3.068   1.029  11.277  1.1932  1.9318 -0.8383
 5394SOL     OW27814   4.020   1.706   6.464  0.3027 -0.0429  0.3431
 5394SOL    HW127815   3.974   1.717   6.382 -0.5005  0.8957  0.9151
 5394SOL    HW227816   3.951   1.750   6.514  0.0369  0.5578 -0.5517
 5395SOL     OW27817   2.086   1.654   4.089 -0.0053 -0.2330  0.2045
 5395SOL    HW127818   2.000   1.668   4.129 -0.4817 -1.1052 -0.5145
 5395SOL    HW227819   2.130   1.739   4.091 -1.6860  0.6195  1.4305
 5396SOL     OW27820   2.094   1.417   0.872  0.4241 -0.0843  0.1829
 5396SOL    HW127821   2.131   1.338   0.912  1.5516  1.1936  1.6442
 5396SOL    HW227822   2.068   1.381   0.787  1.4754  0.2955 -0.2988
 5397SOL     OW27823   1.764   1.760   1.239  0.0738  0.8970  0.0041
 5397SOL    HW127824   1.792   1.686   1.187  1.2029  1.4026 -0.1000
 5397SOL    HW227825   1.723   1.718   1.315 -1.2091  0.5669 -0.8705
 5398SOL     OW27826   2.200   4.135   2.307  0.6974  0.8597 -0.3188
 5398SOL    HW127827   2.158   4.214   2.273 -0.7661 -0.2352 -1.0622
 5398SOL    HW227828   2.139   4.064   2.289 -0.2089  1.4822  0.3623
 5399SOL     OW27829   2.023   2.401   2.577 -0.8501 -0.1634  0.1478
 5399SOL    HW127830   2.014   2.322   2.523 -2.7863 -0.0577  0.3247
 5399SOL    HW227831   1.957   2.453   2.531 -1.7562  0.1469  1.8347
 5400SOL     OW27832   4.054   1.873  13.911 -0.4256  0.0123  0.0161
 5400SOL    HW127833   3.999   1.900  13.837 -0.6380 -1.6251 -0.4197
 5400SOL    HW227834   4.138   1.913  13.886  0.8606 -3.2073 -0.8246
 5401SOL     OW27835   3.036   1.396  16.950 -0.3997  0.7242  0.2275
 5401SOL    HW127836   3.079   1.323  16.906 -0.7434  0.7300 -0.1148
 5401SOL    HW227837   2.994   1.365  17.030 -0.1947  0.2324  0.1446
 5402SOL     OW27838   3.628   3.990   7.297 -0.1438  0.7142 -0.1084
 5402SOL    HW127839   3.640   4.055   7.228  1.5988  0.8391  0.3196
 5402SOL    HW227840   3.544   3.945   7.281  0.9379 -0.8846 -1.3720
 5403SOL     OW27841   1.456   3.645   5.109  0.1128 -0.1929  0.3438
 5403SOL    HW127842   1.439   3.664   5.201 -1.7008  0.6086 -0.1587
 5403SOL    HW227843   1.524   3.707   5.082 -1.6059  1.9754  1.0148
 5404SOL     OW27844   2.270   4.589  12.357 -0.6783 -0.2156 -0.3568
 5404SOL    HW127845   2.196   4.627  12.310 -1.4237  0.6688  1.5204
 5404SOL    HW227846   2.223   4.524  12.409 -1.0316  0.8437  0.6314
 5405SOL     OW27847   4.174   0.513   4.651 -0.5290 -0.2124 -0.2921
 5405SOL    HW127848   4.236   0.467   4.707 -1.3710 -0.8689  0.0979
 5405SOL    HW227849   4.224   0.548   4.577  1.8714 -0.4436  1.2432
 5406SOL     OW27850   2.008   4.066   4.520  0.4355  0.6047  0.1208
 5406SOL    HW127851   2.072   4.044   4.588  0.5927  0.8261  0.0428
 5406SOL    HW227852   2.068   4.117   4.467  0.6501  0.0365 -0.1857
 5407SOL     OW27853   3.706   2.467   7.457 -0.0476 -0.6670 -0.6521
 5407SOL    HW127854   3.696   2.493   7.548  0.0233 -1.7293 -0.3422
 5407SOL    HW227855   3.755   2.386   7.474 -1.5866 -1.2471  0.9333
 5408SOL     OW27856   1.541   4.326  13.016  0.3608  0.3647  0.3341
 5408SOL    HW127857   1.479   4.390  13.052 -0.2273 -0.2163  0.3631
 5408SOL    HW227858   1.492   4.244  13.030  0.6541 -0.4128 -3.1262
 5409SOL     OW27859   2.344   0.620   7.251  0.2505 -0.0468  0.0383
 5409SOL    HW127860   2.283   0.567   7.200 -1.6411  3.3530 -1.1773
 5409SOL    HW227861   2.283   0.672   7.303  1.9893  2.2902 -0.2724
 5410SOL     OW27862   1.181   2.449   6.660  0.4728 -0.1838  0.8019
 5410SOL    HW127863   1.125   2.416   6.730  1.6655  1.8043  2.6750
 5410SOL    HW227864   1.249   2.488   6.714  1.2916 -1.2698  0.5520
 5411SOL     OW27865   0.636   1.038   8.047 -0.2918 -0.2480 -0.1688
 5411SOL    HW127866   0.639   1.113   7.987  1.1666 -0.5662 -0.4819
 5411SOL    HW227867   0.541   1.025   8.053 -0.1449 -0.8698  0.6399
 5412SOL     OW27868   4.026   3.003  11.033  0.7588 -0.2609 -0.7157
 5412SOL    HW127869   3.945   3.018  10.985 -0.0139  0.2761  0.7710
 5412SOL    HW227870   4.051   3.084  11.077 -1.0990 -1.0989  1.8132
 5413SOL     OW27871   2.043   1.642   5.969  0.4376 -0.4346  0.9041
 5413SOL    HW127872   1.950   1.624   5.984  0.5436 -0.9225  0.9876
 5413SOL    HW227873   2.070   1.703   6.037  1.0456 -0.6569  0.8607
 5414SOL     OW27874   2.607   1.200   5.817  0.1138  0.0284 -0.2899
 5414SOL    HW127875   2.606   1.169   5.727 -0.7183  2.4591 -1.1133
 5414SOL    HW227876   2.574   1.290   5.810 -0.7606 -0.3124 -0.5196
 5415SOL     OW27877   3.384   4.584  10.603  0.3797 -0.8551  0.1000
 5415SOL    HW127878   3.314   4.613  10.545 -0.0786 -2.9196 -0.3819
 5415SOL    HW227879   3.374   4.489  10.598 -1.2362 -0.7801  1.7932
 5416SOL     OW27880   2.653   3.955   4.127 -0.0821  0.7598 -0.0245
 5416SOL    HW127881   2.701   3.924   4.050  0.1613  1.1386 -0.0254
 5416SOL    HW227882   2.681   4.047   4.132 -1.5217  1.1241  1.2727
 5417SOL     OW27883   2.535   3.473   8.808  0.0275 -0.1095  0.2103
 5417SOL    HW127884   2.566   3.562   8.797  0.7091 -0.3122  0.4763
 5417SOL    HW227885   2.463   3.491   8.868  0.2347  0.8291  0.1650
 5418SOL     OW27886   2.890   3.828  15.976 -0.3182 -0.2564  0.3319
 5418SOL    HW127887   2.967   3.855  15.926 -1.0641 -0.7420 -1.0650
 5418SOL    HW227888   2.868   3.917  16.004  3.8747  0.3518  1.6073
 5419SOL     OW27889   2.931   4.713   4.954 -0.2019  0.0376  0.2814
 5419SOL    HW127890   2.865   4.653   4.920  0.7130 -1.0979  0.4927
 5419SOL    HW227891   3.004   4.652   4.972 -0.3555  0.0675  0.9992
 5420SOL     OW27892   4.423   0.521   6.628  0.5059 -0.0335 -0.1548
 5420SOL    HW127893   4.508   0.548   6.593  0.6996 -3.6138 -2.4161
 5420SOL    HW227894   4.425   0.546   6.720 -2.1062  2.0276 -0.6477
 5421SOL     OW27895   3.402   1.502  11.971  0.2624 -0.7360  0.3747
 5421SOL    HW127896   3.456   1.432  12.007  0.8900 -0.7395 -0.5564
 5421SOL    HW227897   3.346   1.542  12.038  0.3892  0.9023 -0.4909
 5422SOL     OW27898   3.888   1.864   1.390 -0.7047 -0.5827  0.0286
 5422SOL    HW127899   3.853   1.923   1.457 -1.5310  0.8391 -1.6525
 5422SOL    HW227900   3.819   1.798   1.381 -0.3864 -1.3200  2.9177
 5423SOL     OW27901   4.515   0.457   7.056  0.0191 -0.0970 -0.2898
 5423SOL    HW127902   4.519   0.384   6.995 -0.5825 -1.1876  0.9661
 5423SOL    HW227903   4.565   0.413   7.125  0.5419 -0.9622 -1.2243
 5424SOL     OW27904   0.040   3.817   7.237  0.1468  0.3454 -0.0809
 5424SOL    HW127905   4.709   3.847   7.176  0.2993 -1.4618 -1.1585
 5424SOL    HW227906   0.028   3.725   7.213  0.2779  1.2522 -3.6577
 5425SOL     OW27907   1.877   4.662   4.342  0.0380 -0.2697 -0.3909
 5425SOL    HW127908   1.849   4.728   4.278  0.3613 -2.6115 -2.9935
 5425SOL    HW227909   1.816   4.677   4.413  0.1427  1.9965 -0.7785
 5426SOL     OW27910   0.593   2.120   0.987 -0.3735  0.7935 -0.6871
 5426SOL    HW127911   0.584   2.025   0.998 -0.2510  0.8176 -0.3760
 5426SOL    HW227912   0.527   2.142   0.922 -0.5083  0.2889 -0.7219
 5427SOL     OW27913   1.428   0.000   2.096  0.0733 -0.4945  0.2535
 5427SOL    HW127914   1.485   0.073   2.118  0.5591 -0.7188 -0.2687
 5427SOL    HW227915   1.461   4.713   2.009  0.2225  1.6525 -0.2805
 5428SOL     OW27916   4.060   4.340   7.376  0.4582  0.2110 -0.2972
 5428SOL    HW127917   3.995   4.357   7.444  1.9241  0.5711  1.0049
 5428SOL    HW227918   4.123   4.409   7.396 -0.7763  1.1724  0.2303
 5429SOL     OW27919   2.599   3.517   3.355 -0.7598  0.9033  0.1105
 5429SOL    HW127920   2.616   3.431   3.319 -0.1350  0.6679  0.9743
 5429SOL    HW227921   2.622   3.567   3.277  1.5559 -1.0778 -0.4590
 5430SOL     OW27922   2.717   0.762   6.732 -0.0012  0.2347  0.1530
 5430SOL    HW127923   2.639   0.707   6.724  0.6464 -0.8197  0.9123
 5430SOL    HW227924   2.783   0.693   6.735  0.4827  0.6298 -1.8906
 5431SOL     OW27925   2.995   0.769   2.057 -0.3140 -0.0048 -0.0859
 5431SOL    HW127926   3.054   0.705   2.017  1.5196  0.7652  1.4250
 5431SOL    HW227927   2.957   0.718   2.129  0.4337  1.4668  1.3430
 5432SOL     OW27928   1.357   1.510   7.152  0.0581 -0.2341  0.3873
 5432SOL    HW127929   1.373   1.476   7.064 -2.4428 -2.7924  0.9199
 5432SOL    HW227930   1.445   1.527   7.186  0.6044  0.6261 -1.4545
 5433SOL     OW27931   3.521   2.034   7.863  0.4917  0.5378 -0.2070
 5433SOL    HW127932   3.589   1.987   7.910  1.2470  1.0544 -0.7967
 5433SOL    HW227933   3.589   2.091   7.826  1.8032  0.4431  2.0589
 5434SOL     OW27934   1.061   0.851   2.569  0.4622  0.4537 -0.6194
 5434SOL    HW127935   1.051   0.935   2.523 -0.0563  1.0542  0.6148
 5434SOL    HW227936   1.150   0.865   2.603  0.0256 -1.1952  1.1671
 5435SOL     OW27937   4.693   2.155   9.692  0.3961 -0.3304 -0.2357
 5435SOL    HW127938   0.040   2.147   9.738  0.5115  0.4709 -0.3080
 5435SOL    HW227939   4.702   2.236   9.642 -1.9170 -0.1839 -0.3993
 5436SOL     OW27940   2.724   0.816  13.349 -0.4802 -0.0621  0.1672
 5436SOL    HW127941   2.765   0.858  13.274 -0.4660  0.2191  0.3303
 5436SOL    HW227942   2.640   0.863  13.347  0.2594  1.2024 -0.8970
 5437SOL     OW27943   2.874   1.083   3.303 -0.3416 -0.6138 -0.1577
 5437SOL    HW127944   2.935   1.140   3.256 -2.8502  1.2399 -1.1466
 5437SOL    HW227945   2.930   1.016   3.342  0.2304  0.4782  0.9352
 5438SOL     OW27946   0.349   4.120   3.150 -0.7762  0.2010 -0.1033
 5438SOL    HW127947   0.363   4.151   3.060  0.4592  1.3167  0.4729
 5438SOL    HW227948   0.435   4.143   3.186 -1.5075 -0.7054  2.2324
 5439SOL     OW27949   4.563   4.378   1.928  0.5328 -0.3314  0.0225
 5439SOL    HW127950   4.606   4.384   1.843  0.1843 -0.2436 -0.1455
 5439SOL    HW227951   4.510   4.456   1.911  1.3258  0.3120  0.4716
 5440SOL     OW27952   4.654   2.278   8.586  0.0037  0.9501 -0.5115
 5440SOL    HW127953   4.703   2.196   8.574 -1.8386 -0.0920 -0.8517
 5440SOL    HW227954   4.646   2.302   8.494 -0.1642  1.6749 -0.3049
 5441SOL     OW27955   3.007   2.786   7.026  0.1609 -0.1339 -0.0280
 5441SOL    HW127956   3.019   2.701   6.985 -1.4369 -0.6934  0.6698
 5441SOL    HW227957   3.092   2.830   7.031  0.9237 -1.6316  0.1683
 5442SOL     OW27958   0.529   2.629  17.678 -0.2255  0.0156 -0.7805
 5442SOL    HW127959   0.582   2.602   0.008 -0.3035 -0.8955 -1.0489
 5442SOL    HW227960   0.470   2.682  17.730 -0.9203 -1.2976 -0.2127
 5443SOL     OW27961   3.029   2.717   0.668 -0.0467 -0.2243 -0.2608
 5443SOL    HW127962   2.976   2.679   0.598 -0.6720 -1.6153  0.9498
 5443SOL    HW227963   3.004   2.676   0.751  3.3091  1.8927  1.8190
 5444SOL     OW27964   0.811   1.470   5.925  0.0066  0.3653 -0.1541
 5444SOL    HW127965   0.902   1.451   5.948 -0.5587 -2.6681 -0.4674
 5444SOL    HW227966   0.774   1.409   5.988  1.3338 -0.5458 -0.2451
 5445SOL     OW27967   4.591   0.515   4.926  0.3885  0.0442 -0.0792
 5445SOL    HW127968   4.602   0.576   4.998  1.3834  1.8693 -1.7887
 5445SOL    HW227969   4.634   0.562   4.855  0.6730 -0.4480 -0.2323
 5446SOL     OW27970   2.787   1.272  16.511 -0.3216  0.1124  0.4350
 5446SOL    HW127971   2.845   1.286  16.436 -1.4882 -0.4652 -0.5649
 5446SOL    HW227972   2.840   1.206  16.557 -0.5268  0.2327  0.8352
 5447SOL     OW27973   2.664   1.217   7.984  0.0671 -0.1311 -0.0615
 5447SOL    HW127974   2.594   1.153   7.988 -0.4723  0.5216  0.8540
 5447SOL    HW227975   2.625   1.298   8.017  1.7499  0.0011  1.6410
 5448SOL     OW27976   0.456   3.788  14.219 -0.0193  0.3636  0.0052
 5448SOL    HW127977   0.537   3.788  14.168 -0.0315 -1.3286 -0.0017
 5448SOL    HW227978   0.474   3.791  14.313 -0.5937 -0.1973  0.1393
 5449SOL     OW27979   3.903   3.416   7.722  0.4176 -0.6744 -0.1868
 5449SOL    HW127980   3.987   3.397   7.764  0.3613 -0.1049  0.1780
 5449SOL    HW227981   3.875   3.324   7.715  0.3552 -0.6701 -0.0094
 5450SOL     OW27982   2.290   0.172   5.154  0.2995 -0.0906 -0.1578
 5450SOL    HW127983   2.232   0.128   5.216  2.9446 -1.7403  1.1535
 5450SOL    HW227984   2.265   0.260   5.182 -1.4715 -1.0532  1.2844
 5451SOL     OW27985   1.906   1.479   9.723 -0.1197 -0.4302  0.2252
 5451SOL    HW127986   1.828   1.425   9.716 -1.8958  2.3198 -1.1546
 5451SOL    HW227987   1.957   1.464   9.644  2.3489 -1.6535  2.0441
 5452SOL     OW27988   2.934   1.344  11.360 -0.5490 -0.0419  0.6894
 5452SOL    HW127989   2.934   1.435  11.392 -0.4709  0.3370 -0.3837
 5452SOL    HW227990   2.961   1.303  11.442  1.0170  1.1505  0.7558
 5453SOL     OW27991   0.518   0.203   8.334  0.5072  0.0268  0.1396
 5453SOL    HW127992   0.594   0.146   8.347  0.5251 -0.0653 -0.3645
 5453SOL    HW227993   0.516   0.206   8.238 -2.6805  0.4399  0.2442
 5454SOL     OW27994   3.235   0.833   6.535 -0.0926  0.0382 -0.0675
 5454SOL    HW127995   3.281   0.789   6.464  3.0439  3.3774 -0.1418
 5454SOL    HW227996   3.298   0.890   6.579 -1.0568  0.1259  1.1801
 5455SOL     OW27997   0.819   2.039   2.338  0.4082  0.0890  0.8670
 5455SOL    HW127998   0.806   2.120   2.388 -1.3325 -0.2656  1.0045
 5455SOL    HW227999   0.914   2.030   2.334  0.4759  1.1280  0.0420
 5456SOL     OW28000   3.755   1.543   6.548  0.0877 -0.4312  0.3419
 5456SOL    HW128001   3.752   1.556   6.643  3.2869 -2.0656  0.6835
 5456SOL    HW228002   3.743   1.635   6.524 -3.2489 -0.8986  0.2177
 5457SOL     OW28003   1.820   1.366  10.438  0.2448  0.2712 -0.5397
 5457SOL    HW128004   1.733   1.346  10.473  1.0668 -3.0573 -0.4102
 5457SOL    HW228005   1.868   1.320  10.507  0.1426 -1.8022 -1.8436
 5458SOL     OW28006   3.695   3.901   2.803  0.0219  0.1999  0.2995
 5458SOL    HW128007   3.732   3.953   2.874  0.0419 -0.6612  0.9279
 5458SOL    HW228008   3.753   3.930   2.732 -0.9515  2.0836  0.2717
 5459SOL     OW28009   1.446   1.722   4.633  0.2490  0.5377  0.3929
 5459SOL    HW128010   1.465   1.816   4.624  0.3685  0.4039 -0.7768
 5459SOL    HW228011   1.475   1.691   4.547 -1.2222 -1.8436  0.7839
 5460SOL     OW28012   3.060   2.055  13.894  0.0195 -0.3874 -0.6423
 5460SOL    HW128013   3.148   2.021  13.883 -0.4227 -1.6214 -0.3890
 5460SOL    HW228014   3.069   2.120  13.964  0.9176  1.0595 -2.1120
 5461SOL     OW28015   0.895   2.290   5.373  0.6199 -0.1046 -0.2422
 5461SOL    HW128016   0.896   2.198   5.396  1.7353 -1.0101 -3.8558
 5461SOL    HW228017   0.919   2.338   5.452 -1.5512  0.6608 -0.0333
 5462SOL     OW28018   4.209   2.383   7.190 -0.1870  0.4062  0.2898
 5462SOL    HW128019   4.278   2.433   7.233  1.5509  0.2388 -2.3210
 5462SOL    HW228020   4.256   2.300   7.176  2.0086  1.7970 -0.5271
 5463SOL     OW28021   0.437   1.649  13.856  0.2827 -0.1302  0.1715
 5463SOL    HW128022   0.421   1.714  13.925  0.0307 -0.8300  0.7729
 5463SOL    HW228023   0.354   1.603  13.862 -0.4398  0.4856 -5.2017
 5464SOL     OW28024   2.059   0.938   0.287  0.3545 -0.4312  0.0698
 5464SOL    HW128025   2.051   1.031   0.266  0.4487 -0.7256 -1.2548
 5464SOL    HW228026   2.153   0.922   0.277  0.8019  3.0445 -1.1317
 5465SOL     OW28027   3.264   4.320   4.180 -0.5743  0.3767 -0.2417
 5465SOL    HW128028   3.234   4.237   4.143  2.0645 -0.0347 -1.4321
 5465SOL    HW228029   3.182   4.370   4.180  0.1617  1.5559 -1.0037
 5466SOL     OW28030   3.842   3.733   9.129 -0.0544 -0.7995  0.5356
 5466SOL    HW128031   3.849   3.660   9.190 -1.7174 -1.5543 -0.1865
 5466SOL    HW228032   3.748   3.724   9.116 -0.4280  1.2209  1.7640
 5467SOL     OW28033   3.607   2.522   6.743 -0.0132 -0.3183  0.0377
 5467SOL    HW128034   3.638   2.521   6.834  1.0408  3.1726 -0.3008
 5467SOL    HW228035   3.522   2.477   6.747  0.6946 -1.8359 -2.0420
 5468SOL     OW28036   4.481   2.998   2.535 -0.5699  0.1085 -0.0720
 5468SOL    HW128037   4.488   2.989   2.440 -2.9681  0.4364 -0.2628
 5468SOL    HW228038   4.572   2.973   2.551 -0.7554 -0.8888 -0.6039
 5469SOL     OW28039   2.094   3.051   3.503 -0.0361 -0.1447  0.5498
 5469SOL    HW128040   2.169   3.108   3.516  0.0972 -0.3995  0.9186
 5469SOL    HW228041   2.134   2.974   3.463  0.9809  1.2689 -1.1064
 5470SOL     OW28042   1.851   3.472   6.211  0.3288  0.5372  0.2787
 5470SOL    HW128043   1.877   3.434   6.295 -0.0138  0.8176  0.5101
 5470SOL    HW228044   1.891   3.558   6.224 -1.0782  0.9658  1.7795
 5471SOL     OW28045   3.396   1.514   7.488  0.2134 -0.0554  0.1797
 5471SOL    HW128046   3.364   1.513   7.578 -1.0147 -2.3853 -0.2750
 5471SOL    HW228047   3.401   1.608   7.477 -1.0198  0.2259  2.0800
 5472SOL     OW28048   3.408   0.967   5.712 -0.3386  0.0847  0.5383
 5472SOL    HW128049   3.403   0.873   5.726 -3.7507  0.0787 -0.7166
 5472SOL    HW228050   3.503   0.977   5.707 -0.5577  1.5655 -0.7565
 5473SOL     OW28051   1.072   2.836   6.461  0.0906  0.1531 -0.0657
 5473SOL    HW128052   1.061   2.841   6.366  0.8337  1.2449 -0.1094
 5473SOL    HW228053   1.036   2.750   6.480  0.3653  0.4846  1.9867
 5474SOL     OW28054   3.821   3.447   3.063 -0.0643  0.1145 -0.2008
 5474SOL    HW128055   3.789   3.458   2.974  0.1696 -1.9793 -0.5263
 5474SOL    HW228056   3.769   3.516   3.106  0.7443  2.0049 -2.2648
 5475SOL     OW28057   2.614   4.476   6.541 -0.2472 -0.1347 -0.0102
 5475SOL    HW128058   2.535   4.491   6.593 -0.5320 -0.8977 -0.2081
 5475SOL    HW228059   2.685   4.464   6.604  0.1098 -1.1110 -0.5855
 5476SOL     OW28060   0.407   2.941  13.870 -0.1625 -0.7412  0.1850
 5476SOL    HW128061   0.490   2.900  13.845 -2.1316 -1.4187 -5.2733
 5476SOL    HW228062   0.353   2.922  13.793  1.3053 -2.2584 -0.4713
 5477SOL     OW28063   1.062   4.396  16.837 -0.4913  0.2835 -0.7332
 5477SOL    HW128064   1.064   4.322  16.897  0.1873 -0.3794 -1.5639
 5477SOL    HW228065   1.140   4.447  16.860 -1.7861  3.1862 -2.7835
 5478SOL     OW28066   1.566   1.637   8.329 -0.2357 -0.4733 -0.6971
 5478SOL    HW128067   1.613   1.707   8.285  1.8566 -0.9424  0.7905
 5478SOL    HW228068   1.522   1.689   8.396  2.1507 -0.0950  0.5598
 5479SOL     OW28069   0.030   1.726   3.202  0.0110 -0.5937  0.1212
 5479SOL    HW128070   0.099   1.670   3.165 -0.6783 -1.4632  0.1368
 5479SOL    HW228071   4.724   1.763   3.125  2.0276  2.4893  0.4997
 5480SOL     OW28072   0.218   2.579  10.113  0.4595 -0.3812  0.0429
 5480SOL    HW128073   0.195   2.637  10.186 -0.4719  0.0992 -0.6396
 5480SOL    HW228074   0.229   2.500  10.166  0.1724 -1.2513 -1.1999
 5481SOL     OW28075   0.873   3.177  16.554 -0.0201  0.1217 -0.2130
 5481SOL    HW128076   0.906   3.244  16.613  0.7887  0.1392 -0.6861
 5481SOL    HW228077   0.949   3.170  16.496  0.1477 -1.1693  0.1621
 5482SOL     OW28078   2.649   3.987   8.079  0.0600  0.8726 -0.2311
 5482SOL    HW128079   2.611   3.900   8.064 -1.4516  1.1847  1.8380
 5482SOL    HW228080   2.570   4.040   8.083  0.4372  1.2875  1.6507
 5483SOL     OW28081   0.961   0.431   3.877  0.8579 -0.6327  0.0134
 5483SOL    HW128082   0.909   0.507   3.852 -0.5070 -1.1750  1.2480
 5483SOL    HW228083   0.899   0.390   3.937  1.8110 -1.6269  0.3295
 5484SOL     OW28084   2.510   0.800   0.868 -0.0366  0.2739  0.0334
 5484SOL    HW128085   2.597   0.840   0.869 -0.1583  0.4828  2.7434
 5484SOL    HW228086   2.510   0.757   0.783  0.5394 -1.7783  1.0767
 5485SOL     OW28087   4.502   2.449  17.267  0.8868 -0.6321  0.3673
 5485SOL    HW128088   4.428   2.499  17.234  0.0153 -1.0007  1.7594
 5485SOL    HW228089   4.548   2.522  17.308  1.6255 -1.0702  0.3148
 5486SOL     OW28090   2.920   3.569   8.527  0.5171 -0.0546  0.0938
 5486SOL    HW128091   2.904   3.579   8.621  3.5111  2.0831  0.3554
 5486SOL    HW228092   2.981   3.495   8.526  0.7532  0.1240  2.4136
 5487SOL     OW28093   1.399   4.381   2.946  0.4362  0.6792  0.2136
 5487SOL    HW128094   1.325   4.408   2.892  0.5338  1.8381  0.6449
 5487SOL    HW228095   1.426   4.469   2.972 -0.3946  0.8290  0.5568
 5488SOL     OW28096   3.153   1.686  17.297  0.2844 -0.4231 -0.4600
 5488SOL    HW128097   3.132   1.747  17.226 -0.9083 -1.2555 -0.8125
 5488SOL    HW228098   3.071   1.638  17.289  0.3620 -0.6798  0.2816
 5489SOL     OW28099   1.660   3.918   7.441  0.4655 -0.3191 -0.2152
 5489SOL    HW128100   1.643   3.827   7.466  1.7898 -0.2638  0.8819
 5489SOL    HW228101   1.615   3.959   7.514 -0.0646  0.7993 -1.1643
 5490SOL     OW28102   1.068   1.595   8.923  0.1957  0.1387  0.2159
 5490SOL    HW128103   0.996   1.619   8.981 -0.4642  0.7000 -0.8371
 5490SOL    HW228104   1.132   1.664   8.937  1.1526 -0.9219  1.0539
 5491SOL     OW28105   3.696   0.442  10.996 -0.2757 -0.1318 -0.3183
 5491SOL    HW128106   3.601   0.449  11.001 -0.2723  1.1389 -1.8897
 5491SOL    HW228107   3.706   0.445  10.901 -1.9987 -2.8519 -0.5875
 5492SOL     OW28108   2.720   2.255  17.024  0.4881 -0.3877  0.0600
 5492SOL    HW128109   2.648   2.250  17.086 -0.5841  2.7250 -0.8863
 5492SOL    HW228110   2.725   2.350  17.010 -0.0032 -0.0516  2.2232
 5493SOL     OW28111   1.428   4.482  16.144 -0.1132 -0.0345 -0.1447
 5493SOL    HW128112   1.347   4.521  16.112 -0.9409 -0.5638  1.2829
 5493SOL    HW228113   1.484   4.557  16.165 -0.8744  0.2790  0.7144
 5494SOL     OW28114   3.100   4.440   0.678 -0.4634  0.0287 -0.2958
 5494SOL    HW128115   3.092   4.519   0.625  0.1541 -0.2199 -0.7520
 5494SOL    HW228116   3.021   4.446   0.732  0.8265  0.6299  1.5546
 5495SOL     OW28117   3.483   2.643   9.866  0.3962  0.4236 -0.6086
 5495SOL    HW128118   3.390   2.644   9.843  0.1203 -3.6984  0.3327
 5495SOL    HW228119   3.492   2.677   9.955  1.3020  1.7258 -1.1940
 5496SOL     OW28120   1.473   2.057   3.354  0.4927  0.3090 -0.1102
 5496SOL    HW128121   1.552   2.111   3.359  0.0492  0.8982  0.5641
 5496SOL    HW228122   1.505   1.985   3.299 -0.4234 -0.8170  0.8183
 5497SOL     OW28123   1.712   0.102   6.797  0.2069 -0.1124  0.7273
 5497SOL    HW128124   1.622   0.135   6.797  0.3777  0.3700 -0.9360
 5497SOL    HW228125   1.746   0.156   6.868 -0.1781  0.7534  0.2488
 5498SOL     OW28126   0.506   0.906   2.054 -0.6894  0.2349 -0.4874
 5498SOL    HW128127   0.580   0.965   2.067 -1.6420  0.9836  1.4716
 5498SOL    HW228128   0.512   0.846   2.128 -1.8641  0.8497  0.1028
 5499SOL     OW28129   0.896   4.109   3.788 -0.6248  0.4773  0.4898
 5499SOL    HW128130   0.868   4.114   3.696  1.0338  1.8075  0.0532
 5499SOL    HW228131   0.956   4.034   3.780 -0.2764  0.8089 -0.0019
 5500SOL     OW28132   4.174   0.753   8.633 -0.7733 -0.3088  0.1401
 5500SOL    HW128133   4.100   0.814   8.624 -1.3013 -0.9729  0.0113
 5500SOL    HW228134   4.185   0.722   8.543 -0.3305 -0.5874  0.2923
 5501SOL     OW28135   1.335   0.547   7.723  0.6632  0.1450  0.2478
 5501SOL    HW128136   1.358   0.574   7.634 -2.8791 -2.7526 -1.5425
 5501SOL    HW228137   1.241   0.561   7.738  0.7675  0.4959  0.6008
 5502SOL     OW28138   4.486   1.081  11.902 -0.0007  0.3185 -0.6695
 5502SOL    HW128139   4.526   1.039  11.825 -1.5075  1.0185 -1.8461
 5502SOL    HW228140   4.546   1.049  11.969  1.6354 -0.8626 -2.6944
 5503SOL     OW28141   3.889   4.387   8.618  0.2634 -0.0814 -0.3669
 5503SOL    HW128142   3.862   4.385   8.710 -0.2683 -0.9731 -0.5481
 5503SOL    HW228143   3.811   4.363   8.569 -0.3138 -0.9446  0.9829
 5504SOL     OW28144   1.476   0.432   8.872 -0.0748  0.3756  0.5745
 5504SOL    HW128145   1.557   0.395   8.837 -0.5824 -0.5141  0.3540
 5504SOL    HW228146   1.420   0.356   8.882 -0.9954  1.1435  1.2772
 5505SOL     OW28147   0.359   4.074  14.533 -0.0311 -0.4749  0.2331
 5505SOL    HW128148   0.282   4.075  14.477 -0.0428  1.9918  0.2701
 5505SOL    HW228149   0.414   4.006  14.493 -0.4093 -1.8242  2.0181
 5506SOL     OW28150   0.820   1.911   1.846 -0.1253 -0.2500 -0.3432
 5506SOL    HW128151   0.764   1.954   1.911 -0.3928 -0.6951 -0.2798
 5506SOL    HW228152   0.758   1.842   1.824  0.0640 -1.2292  2.1598
 5507SOL     OW28153   3.329   0.953  12.345  0.1700  0.2094  0.2077
 5507SOL    HW128154   3.332   0.877  12.403  1.7267 -0.8479 -1.2529
 5507SOL    HW228155   3.296   1.027  12.396  1.3360  2.9348 -2.9385
 5508SOL     OW28156   3.759   3.140   2.964 -0.2677 -0.2663  1.1072
 5508SOL    HW128157   3.795   3.158   2.877 -2.8742  1.6579  0.4179
 5508SOL    HW228158   3.746   3.231   2.990 -3.0321  0.5866 -3.1310
 5509SOL     OW28159   4.212   2.598   4.766 -0.4491  0.0502  0.4075
 5509SOL    HW128160   4.216   2.679   4.817  0.4609 -0.0299  0.4532
 5509SOL    HW228161   4.211   2.528   4.832  1.6214  0.6018  1.0203
 5510SOL     OW28162   3.167   0.138   5.831 -0.6126  0.2864 -0.4790
 5510SOL    HW128163   3.202   0.060   5.787 -1.4955  0.3205 -1.2500
 5510SOL    HW228164   3.096   0.099   5.882 -0.5064 -1.5911 -1.7449
 5511SOL     OW28165   2.567   4.395   4.135 -0.0379  0.2316  0.0720
 5511SOL    HW128166   2.648   4.412   4.183 -1.6212 -2.0920  3.5907
 5511SOL    HW228167   2.557   4.478   4.088  0.0410 -0.4018 -1.0674
 5512SOL     OW28168   2.977   1.882   3.169  0.1639 -0.0723 -0.1189
 5512SOL    HW128169   2.969   1.927   3.085  0.3645  0.6278  0.2301
 5512SOL    HW228170   2.906   1.818   3.165  0.2542 -0.2375  0.9599
 5513SOL     OW28171   0.915   3.936  15.180 -0.6831  0.2541 -0.0428
 5513SOL    HW128172   0.884   3.898  15.262 -1.3925  0.7772 -0.0764
 5513SOL    HW228173   0.929   4.023  15.219  0.5727  0.0049  0.0809
 5514SOL     OW28174   3.306   2.062   5.841  0.3937 -0.3654 -0.0387
 5514SOL    HW128175   3.350   2.010   5.774  1.7754  0.2585  0.3882
 5514SOL    HW228176   3.305   2.011   5.922 -2.5818  2.4227  1.6716
 5515SOL     OW28177   4.176   1.651   4.038 -0.5428  0.1965 -0.3073
 5515SOL    HW128178   4.134   1.697   3.965  0.6844 -0.2573 -1.3175
 5515SOL    HW228179   4.108   1.649   4.105  1.3712  0.9079  1.6681
 5516SOL     OW28180   2.303   0.808   5.609 -0.0668  0.1460  0.2561
 5516SOL    HW128181   2.382   0.811   5.662  0.3316  1.5915 -0.4063
 5516SOL    HW228182   2.246   0.873   5.650  1.7867  1.5859  0.5316
 5517SOL     OW28183   4.549   2.842   2.285  0.5620  0.1575 -0.1733
 5517SOL    HW128184   4.472   2.803   2.244 -0.9826  3.9927 -0.8414
 5517SOL    HW228185   4.603   2.867   2.211  1.1270  2.0385  0.8815
 5518SOL     OW28186   1.832   1.933   7.098 -0.2082 -0.5021 -0.0116
 5518SOL    HW128187   1.757   1.990   7.080 -0.7578 -0.6439  1.8990
 5518SOL    HW228188   1.793   1.884   7.170 -1.4993 -0.1691 -0.4909
 5519SOL     OW28189   3.159   0.575   6.192  0.0686 -0.2086 -0.3471
 5519SOL    HW128190   3.200   0.518   6.257 -0.5996  0.6349  0.8114
 5519SOL    HW228191   3.231   0.577   6.129 -1.5341  2.4647 -2.0985
 5520SOL     OW28192   0.541   2.679   5.915 -0.2133 -0.2491  0.3932
 5520SOL    HW128193   0.497   2.622   5.853 -2.0477 -0.9202  2.3044
 5520SOL    HW228194   0.596   2.612   5.957  0.5261  0.4642  0.5453
 5521SOL     OW28195   0.129   3.390   4.245 -0.0462  0.1610 -0.5173
 5521SOL    HW128196   0.131   3.473   4.293  4.2065  0.1188 -0.6389
 5521SOL    HW228197   0.168   3.403   4.158  1.3049  0.7291  0.1726
 5522SOL     OW28198   2.400   0.639   2.176 -0.3739 -0.6894 -0.5554
 5522SOL    HW128199   2.306   0.652   2.185 -0.4715  0.1044 -2.8516
 5522SOL    HW228200   2.433   0.710   2.122  0.8550 -0.3718  0.5896
 5523SOL     OW28201   4.202   4.007   9.259  0.4617 -0.0353  0.2411
 5523SOL    HW128202   4.165   3.984   9.174  0.8323 -1.3865  0.4510
 5523SOL    HW228203   4.129   4.054   9.301  0.2087  0.6976 -1.0310
 5524SOL     OW28204   0.978   3.158   0.703  0.3897  0.1453  0.2161
 5524SOL    HW128205   0.982   3.242   0.750 -0.4240  0.7929 -0.8603
 5524SOL    HW228206   1.056   3.114   0.736 -0.5885 -2.1804 -0.6311
 5525SOL     OW28207   0.575   1.334   6.611 -1.0761  0.2103  0.1424
 5525SOL    HW128208   0.501   1.286   6.574 -0.1506 -0.8683 -0.2975
 5525SOL    HW228209   0.604   1.280   6.684  0.6420 -1.1251 -1.5197
 5526SOL     OW28210   4.200   4.211   2.979  0.5624  0.4592  0.2429
 5526SOL    HW128211   4.278   4.171   2.940  1.1868  2.2815 -0.3743
 5526SOL    HW228212   4.241   4.236   3.062 -0.0163  1.0142  0.3587
 5527SOL     OW28213   4.334   2.481  16.707  0.0572  0.7749 -0.5159
 5527SOL    HW128214   4.309   2.458  16.797 -0.2952  0.3565 -0.7186
 5527SOL    HW228215   4.337   2.395  16.664  3.0879  0.9790 -0.7376
 5528SOL     OW28216   0.434   3.647   9.269  0.0517  0.5208 -0.4648
 5528SOL    HW128217   0.492   3.680   9.338 -0.0259 -2.5226  1.0703
 5528SOL    HW228218   0.491   3.594   9.213  0.4184 -1.1521  1.4567
 5529SOL     OW28219   4.478   4.078   0.421  0.5035  0.1101  0.5054
 5529SOL    HW128220   4.407   4.019   0.396  1.6287 -1.0430  0.0299
 5529SOL    HW228221   4.436   4.157   0.386 -0.9425 -0.4811  0.8907
 5530SOL     OW28222   2.437   1.060   8.059  0.3062 -0.1263 -0.5089
 5530SOL    HW128223   2.432   0.969   8.086  0.7735  0.0374  0.1174
 5530SOL    HW228224   2.369   1.112   8.102 -0.6353 -1.4145 -0.4325
 5531SOL     OW28225   1.534   0.487   5.343  0.6008  0.3816  0.3018
 5531SOL    HW128226   1.624   0.493   5.313 -0.1816 -0.9577 -2.2494
 5531SOL    HW228227   1.513   0.405   5.298  1.7767 -0.0636  0.5585
 5532SOL     OW28228   1.654   1.357   2.051  0.4894 -0.0198 -0.0609
 5532SOL    HW128229   1.744   1.373   2.080  1.2133 -0.5439 -2.0321
 5532SOL    HW228230   1.602   1.314   2.119 -0.9335  0.3917 -0.9072
 5533SOL     OW28231   3.680   3.538   4.048  0.3376  0.4195 -0.0347
 5533SOL    HW128232   3.611   3.563   3.986 -0.3316  0.7774  0.8522
 5533SOL    HW228233   3.636   3.522   4.131 -2.6127  0.6560 -1.5482
 5534SOL     OW28234   3.115   4.242  10.189 -0.5973  0.3080 -0.4085
 5534SOL    HW128235   3.030   4.253  10.147 -0.1453  1.9164 -0.8875
 5534SOL    HW228236   3.165   4.323  10.179  0.1910 -0.2455 -0.9303
 5535SOL     OW28237   3.169   2.324   6.863 -0.2664  0.1742  0.1099
 5535SOL    HW128238   3.127   2.278   6.936 -0.9861  0.2955 -0.2248
 5535SOL    HW228239   3.116   2.298   6.787  1.9116  2.9078 -2.3707
 5536SOL     OW28240   0.794   0.602   5.966  0.3707 -0.1070 -0.0858
 5536SOL    HW128241   0.754   0.661   6.031  0.2935  0.7049 -0.8620
 5536SOL    HW228242   0.885   0.617   5.991 -0.0679  0.5531  1.1110
 5537SOL     OW28243   1.995   3.403   6.536  0.0228 -0.0833 -0.3265
 5537SOL    HW128244   2.072   3.417   6.591  0.5653 -0.6984 -0.9382
 5537SOL    HW228245   2.025   3.354   6.460  2.0232  1.0310 -0.2755
 5538SOL     OW28246   0.220   1.276  12.168 -0.4270  0.1484 -0.6003
 5538SOL    HW128247   0.269   1.233  12.238  2.2970 -0.8394 -3.1475
 5538SOL    HW228248   0.260   1.235  12.092  0.3455  2.8697 -1.6856
 5539SOL     OW28249   2.194   0.623   4.093 -0.5055  0.2676 -0.2052
 5539SOL    HW128250   2.164   0.532   4.100  3.7070 -1.2555 -2.0842
 5539SOL    HW228251   2.112   0.667   4.070 -0.5400 -0.6402 -1.8251
 5540SOL     OW28252   0.422   2.035   1.259 -0.0161  0.0492 -0.3092
 5540SOL    HW128253   0.473   1.977   1.201 -1.7500 -0.6953 -1.0701
 5540SOL    HW228254   0.403   1.988   1.340  0.0378 -0.9069 -0.8456
 5541SOL     OW28255   3.048   3.588  10.620 -0.1780  0.1290  0.6292
 5541SOL    HW128256   3.000   3.632  10.550  1.0715  0.7082  0.1403
 5541SOL    HW228257   3.091   3.663  10.659  0.8553 -0.6913  1.0644
 5542SOL     OW28258   2.119   2.895   2.041  0.2931 -1.0980  0.3353
 5542SOL    HW128259   2.163   2.838   1.977  0.8379 -0.0206 -0.2519
 5542SOL    HW228260   2.106   2.977   1.994 -0.6786 -0.2327  2.1401
 5543SOL     OW28261   0.858   4.096   8.389 -0.0540  0.6422 -0.6445
 5543SOL    HW128262   0.929   4.051   8.434 -1.2946  0.5633  1.2703
 5543SOL    HW228263   0.895   4.082   8.302 -0.2464 -2.0509 -0.3032
 5544SOL     OW28264   2.924   1.297   1.703 -0.5089 -0.3471  0.4447
 5544SOL    HW128265   2.975   1.278   1.624 -0.6005 -2.2010  0.8291
 5544SOL    HW228266   2.971   1.266   1.781 -1.2905 -0.1929  0.9708
 5545SOL     OW28267   4.239   1.664  10.060 -0.3337 -0.1699 -0.3331
 5545SOL    HW128268   4.274   1.750  10.038  1.1947 -0.8461 -0.5320
 5545SOL    HW228269   4.143   1.669  10.059 -0.4585 -3.8609 -4.4642
 5546SOL     OW28270   1.129   4.713   7.568 -0.1969  0.6458 -0.3486
 5546SOL    HW128271   1.203   0.035   7.553 -0.1399  0.9602  1.2284
 5546SOL    HW228272   1.174   4.638   7.606  0.2475  0.8987 -0.3827
 5547SOL     OW28273   2.310   1.485   6.731 -0.1502  0.4101 -0.5645
 5547SOL    HW128274   2.289   1.496   6.823 -0.0812  0.9072 -0.6100
 5547SOL    HW228275   2.238   1.439   6.687 -1.7821  0.0658  2.5116
 5548SOL     OW28276   3.583   0.190   2.638 -0.4662 -0.0487 -0.0744
 5548SOL    HW128277   3.570   0.283   2.620  0.8038 -0.2636 -2.1227
 5548SOL    HW228278   3.631   0.157   2.562 -0.2769  0.0338  0.0071
 5549SOL     OW28279   2.327   1.886   0.537 -0.2677  0.0260  0.2453
 5549SOL    HW128280   2.378   1.943   0.595 -0.7618  0.5359  0.1816
 5549SOL    HW228281   2.251   1.864   0.590  0.3303 -0.5347  0.8530
 5550SOL     OW28282   4.495   2.800  13.271 -0.2405 -0.2376 -0.1254
 5550SOL    HW128283   4.536   2.879  13.306 -0.6678  1.4392 -3.3297
 5550SOL    HW228284   4.570   2.742  13.260 -0.9879 -1.2695  0.2226
 5551SOL     OW28285   2.800   4.440   3.939 -0.6478 -0.5723  0.3051
 5551SOL    HW128286   2.772   4.349   3.939  0.1795 -0.8294  1.4865
 5551SOL    HW228287   2.740   4.478   3.875 -0.1766  0.8935  0.7290
 5552SOL     OW28288   1.185   2.422   5.213  0.3755  0.5967  0.3933
 5552SOL    HW128289   1.263   2.372   5.188 -1.1989 -0.0350 -3.2492
 5552SOL    HW228290   1.162   2.382   5.297 -0.9519  0.5736  0.0075
 5553SOL     OW28291   1.929   0.291   7.656  0.1688 -1.2428 -0.0256
 5553SOL    HW128292   2.005   0.349   7.666 -3.1897  2.9997  0.5992
 5553SOL    HW228293   1.942   0.232   7.730  0.4203 -1.7259 -0.4534
 5554SOL     OW28294   1.166   0.880   4.557 -0.1437  0.2470 -0.3290
 5554SOL    HW128295   1.143   0.953   4.614  2.6910  0.9531 -0.0645
 5554SOL    HW228296   1.088   0.829   4.579  0.2747 -1.6625 -3.3073
 5555SOL     OW28297   2.056   4.658  12.211  0.4555 -0.1742  0.1241
 5555SOL    HW128298   1.962   4.678  12.211  0.5092  0.1189  1.6286
 5555SOL    HW228299   2.071   4.622  12.124  1.0125 -0.1918  0.2268
 5556SOL     OW28300   1.596   2.250   1.400 -0.2849 -0.4020 -0.1711
 5556SOL    HW128301   1.631   2.166   1.371  0.0795 -0.8576  1.5741
 5556SOL    HW228302   1.520   2.245   1.342  0.1190  2.3691 -0.9238
 5557SOL     OW28303   3.218   4.270   6.244 -0.0589  0.1943 -0.6753
 5557SOL    HW128304   3.260   4.215   6.310 -0.4395 -0.6077 -1.1047
 5557SOL    HW228305   3.287   4.272   6.178  0.5617  3.5077  0.0805
 5558SOL     OW28306   0.927   0.406   6.257  0.0251 -0.0139 -0.6989
 5558SOL    HW128307   0.987   0.388   6.330  2.8890 -1.7634 -3.4661
 5558SOL    HW228308   0.946   0.336   6.194 -2.1022 -1.0479 -0.1832
 5559SOL     OW28309   0.762   0.450   9.056 -0.2193 -0.2847 -0.4687
 5559SOL    HW128310   0.807   0.533   9.073  1.4251 -1.1536 -0.5877
 5559SOL    HW228311   0.781   0.426   8.965 -0.1000 -2.2859  0.0869
 5560SOL     OW28312   0.713   2.930   5.362 -0.0090  0.0773  0.7068
 5560SOL    HW128313   0.683   2.858   5.417  0.7358 -1.7909 -1.3594
 5560SOL    HW228314   0.719   2.879   5.282 -0.9132  0.5382  0.3396
 5561SOL     OW28315   0.166   0.514   9.529 -0.0403 -0.3020 -0.3920
 5561SOL    HW128316   0.256   0.514   9.562  0.0551  0.9860 -0.6618
 5561SOL    HW228317   0.163   0.424   9.496  0.2431 -0.2260 -0.6296
 5562SOL     OW28318   3.257   1.237   2.615 -0.5028  0.1978 -0.5810
 5562SOL    HW128319   3.197   1.164   2.628  1.5431 -1.5705 -1.1841
 5562SOL    HW228320   3.216   1.315   2.652  0.1074  1.2249 -2.0548
 5563SOL     OW28321   1.681   2.016   4.683  0.3852  0.0443 -0.0304
 5563SOL    HW128322   1.635   2.096   4.659 -1.0598 -1.0942 -1.0616
 5563SOL    HW228323   1.685   2.002   4.778  0.3403 -0.3599 -0.0874
 5564SOL     OW28324   1.840   1.970  14.332 -0.4365 -0.2731  0.5135
 5564SOL    HW128325   1.753   1.932  14.318 -0.7142  0.2065  0.9372
 5564SOL    HW228326   1.849   1.989  14.425  2.4949 -2.1780  0.6074
 5565SOL     OW28327   2.864   1.886   8.060  0.6121  0.5528 -0.4215
 5565SOL    HW128328   2.927   1.879   8.133  0.1459 -4.2101 -0.4746
 5565SOL    HW228329   2.788   1.907   8.113  1.0658  1.6832 -0.2332
 5566SOL     OW28330   3.106   0.391  16.338 -0.3095 -0.9782  0.7825
 5566SOL    HW128331   3.123   0.438  16.256 -0.7054 -1.5405  0.3794
 5566SOL    HW228332   3.095   0.305  16.297 -1.2496  0.1029 -1.2637
 5567SOL     OW28333   1.688   1.302   8.605  0.5165  0.4673  0.1473
 5567SOL    HW128334   1.647   1.387   8.586 -0.5856 -0.5226 -1.8900
 5567SOL    HW228335   1.610   1.272   8.653  0.0049  1.4082 -0.0769
 5568SOL     OW28336   2.709   2.987   6.417 -0.1889  0.1275 -0.0444
 5568SOL    HW128337   2.770   2.918   6.390  0.7986  0.4434  1.3771
 5568SOL    HW228338   2.727   3.046   6.344 -1.3788  3.1652  2.0995
 5569SOL     OW28339   3.224   4.527  15.044 -0.2463 -0.5385  0.0774
 5569SOL    HW128340   3.301   4.472  15.030  1.0806  1.1575  0.7461
 5569SOL    HW228341   3.194   4.535  14.953 -2.2430  0.1016  0.7862
 5570SOL     OW28342   1.581   0.936   3.935  0.2051 -0.3915 -0.4944
 5570SOL    HW128343   1.490   0.907   3.930  0.3736 -0.6364 -2.3325
 5570SOL    HW228344   1.613   0.865   3.991 -1.6358  0.8787  2.1486
 5571SOL     OW28345   4.491   2.607  14.405 -0.4186 -0.2943  0.1921
 5571SOL    HW128346   4.532   2.596  14.320 -1.2185 -1.5633 -0.0249
 5571SOL    HW228347   4.516   2.691  14.443 -1.3191 -0.3204  0.8519
 5572SOL     OW28348   4.248   0.609   9.412  0.0660  0.0795  0.6231
 5572SOL    HW128349   4.269   0.528   9.459 -3.0153 -0.9980  0.1568
 5572SOL    HW228350   4.327   0.661   9.399  0.3255 -0.4270  0.1753
 5573SOL     OW28351   4.737   3.185   3.773  0.1576 -0.2634 -0.4696
 5573SOL    HW128352   4.659   3.129   3.782 -0.2496  0.2946 -0.4981
 5573SOL    HW228353   0.069   3.133   3.732 -0.2113 -1.2773  0.1893
 5574SOL     OW28354   4.375   3.317   5.798 -0.1572  0.2533  0.7018
 5574SOL    HW128355   4.372   3.383   5.729  2.4545 -0.3655 -0.0205
 5574SOL    HW228356   4.285   3.329   5.829 -1.2745 -1.9985 -1.7021
 5575SOL     OW28357   4.666   0.413  17.069  0.6189 -0.2707  0.0734
 5575SOL    HW128358   4.706   0.385  17.151  1.8084 -0.6510 -0.6463
 5575SOL    HW228359   4.583   0.365  17.065  2.3082 -3.1545 -0.3693
 5576SOL     OW28360   1.853   3.221   2.912 -0.5641 -0.6796  1.0203
 5576SOL    HW128361   1.862   3.308   2.952  1.7763 -0.7140  0.5816
 5576SOL    HW228362   1.891   3.234   2.825 -1.0228  0.4772  0.9827
 5577SOL     OW28363   2.851   0.508   9.165  0.1669  0.2640  0.4723
 5577SOL    HW128364   2.813   0.492   9.251 -1.4805 -0.3196 -0.3601
 5577SOL    HW228365   2.770   0.520   9.115 -0.8787  0.4238  2.2112
 5578SOL     OW28366   3.901   2.261   2.281 -0.3597 -0.4261  0.2094
 5578SOL    HW128367   3.817   2.304   2.264 -0.6995 -1.1840 -0.0479
 5578SOL    HW228368   3.916   2.289   2.371 -2.6227  4.0761 -0.8107
 5579SOL     OW28369   1.771   1.092   0.492  0.7505 -0.0334  0.2561
 5579SOL    HW128370   1.754   1.133   0.407  0.7056 -0.1910  0.1911
 5579SOL    HW228371   1.835   1.022   0.488 -0.1095 -0.6901 -1.7970
 5580SOL     OW28372   4.173   2.854   8.108 -0.0105 -0.0545 -0.3019
 5580SOL    HW128373   4.133   2.773   8.138  0.6178 -1.6673 -3.8797
 5580SOL    HW228374   4.263   2.847   8.141 -0.0628  0.7044  0.0155
 5581SOL     OW28375   0.504   2.880   7.984  0.4192 -0.1216 -0.1169
 5581SOL    HW128376   0.549   2.961   7.963  1.2994 -0.6944 -0.4743
 5581SOL    HW228377   0.544   2.827   7.915 -0.0663  0.4653 -0.8467
 5582SOL     OW28378   0.213   3.956   4.950 -0.2612 -0.2057 -0.1962
 5582SOL    HW128379   0.234   3.983   5.039  1.2702 -0.2620 -0.5241
 5582SOL    HW228380   0.138   4.014   4.937 -1.0768 -1.2847 -0.3333
 5583SOL     OW28381   1.861   4.495   7.174  0.6010  0.0829  0.3386
 5583SOL    HW128382   1.823   4.560   7.114  0.0147 -2.2157 -1.7959
 5583SOL    HW228383   1.836   4.413   7.131  1.0632  0.2633 -0.2697
 5584SOL     OW28384   0.697   3.521  14.036 -0.1966  0.5299  0.2978
 5584SOL    HW128385   0.737   3.503  14.121 -0.2042 -1.3999 -0.0945
 5584SOL    HW228386   0.690   3.428  14.012  0.6348  1.0530 -2.0350
 5585SOL     OW28387   4.374   2.984   9.293 -0.5949  0.6781 -0.1694
 5585SOL    HW128388   4.318   2.939   9.230  0.2611  0.6471 -0.9062
 5585SOL    HW228389   4.349   2.968   9.384 -0.6227 -1.5935 -0.5754
 5586SOL     OW28390   3.442   0.849  15.923  0.4466  0.6420  0.8881
 5586SOL    HW128391   3.387   0.777  15.955 -0.4989 -0.1335 -2.5119
 5586SOL    HW228392   3.501   0.800  15.866  1.3407 -1.2764  3.4251
 5587SOL     OW28393   3.581   1.869  12.234 -0.1155  0.3491  0.4246
 5587SOL    HW128394   3.669   1.901  12.214 -1.0025  3.0071  0.6977
 5587SOL    HW228395   3.540   1.952  12.259  0.9482  0.9820  0.1088
 5588SOL     OW28396   0.233   4.348   4.490 -0.0587  0.0822  0.1317
 5588SOL    HW128397   0.318   4.349   4.535 -0.1487  0.6279  0.2955
 5588SOL    HW228398   0.172   4.365   4.561 -2.8844 -1.3126 -1.9848
 5589SOL     OW28399   3.395   1.861   7.033  0.2940  0.4327 -0.2313
 5589SOL    HW128400   3.484   1.886   7.058 -0.0976  1.2226  0.3661
 5589SOL    HW228401   3.380   1.777   7.077  3.3188 -0.0471 -0.1124
 5590SOL     OW28402   1.120   4.680   2.108 -0.1604  0.7347 -0.3522
 5590SOL    HW128403   1.213   4.672   2.089 -0.7037 -1.5328 -1.9459
 5590SOL    HW228404   1.116   4.714   2.197 -1.1158 -1.0362  0.2812
 5591SOL     OW28405   0.353   2.360  11.866 -0.2465  0.0857 -0.2895
 5591SOL    HW128406   0.275   2.379  11.814 -0.7109 -0.9225  0.0299
 5591SOL    HW228407   0.336   2.398  11.952 -0.7959 -1.6781  0.3875
 5592SOL     OW28408   0.807   0.039  12.712  0.0027  0.3323 -0.1887
 5592SOL    HW128409   0.763   4.693  12.731  1.3710 -0.2990  0.2593
 5592SOL    HW228410   0.888   0.010  12.753 -1.0368 -0.2759  1.4154
 5593SOL     OW28411   4.239   4.255   1.558 -0.7614 -0.1595  0.2280
 5593SOL    HW128412   4.294   4.270   1.481 -1.4792  0.7451 -0.1168
 5593SOL    HW228413   4.299   4.220   1.622 -1.1389  1.1421  1.2990
 5594SOL     OW28414   4.181   2.194   5.964  0.6669  0.0251  0.5605
 5594SOL    HW128415   4.270   2.173   5.933  0.0869 -2.7293  0.6921
 5594SOL    HW228416   4.188   2.250   6.040  2.7189  1.9022 -1.0067
 5595SOL     OW28417   0.200   0.204   1.874 -0.6916  0.3434 -0.3833
 5595SOL    HW128418   0.176   0.129   1.820  0.6132 -1.5791  1.6853
 5595SOL    HW228419   0.237   0.254   1.801  0.3236  0.0412 -0.0734
 5596SOL     OW28420   3.116   2.603   3.642  0.5148  0.0975 -0.1282
 5596SOL    HW128421   3.119   2.516   3.602  0.7504 -0.6026  1.4410
 5596SOL    HW228422   3.023   2.625   3.648  0.3747 -0.3437 -0.6843
 5597SOL     OW28423   0.713   4.074   9.226  0.5670 -0.1354 -0.9336
 5597SOL    HW128424   0.794   4.118   9.199  0.2868  0.2787 -1.1035
 5597SOL    HW228425   0.707   4.000   9.166  2.0311 -0.8265 -0.2005
 5598SOL     OW28426   2.974   1.504   2.899  0.1378  0.5847 -0.0674
 5598SOL    HW128427   2.926   1.544   2.972 -0.0625  1.1121 -0.4924
 5598SOL    HW228428   2.984   1.410   2.914  0.9719  0.7305  0.3022
 5599SOL     OW28429   2.635   2.701   4.579  0.0499  0.4407 -0.9861
 5599SOL    HW128430   2.663   2.782   4.621 -0.2224  1.1042 -2.1040
 5599SOL    HW228431   2.548   2.686   4.618 -0.1915  1.3060 -1.1950
 5600SOL     OW28432   2.704   2.007   8.237 -0.1768  0.5281 -0.3519
 5600SOL    HW128433   2.630   2.068   8.235 -1.6629 -1.2406  0.9097
 5600SOL    HW228434   2.709   1.984   8.329  0.6338 -0.7219 -0.7032
 5601SOL     OW28435   4.412   4.501  17.365 -0.6256 -0.3225 -0.1563
 5601SOL    HW128436   4.334   4.547  17.398 -0.9882 -0.4050 -0.8872
 5601SOL    HW228437   4.397   4.412  17.397 -0.2933 -0.2682  0.1378
 5602SOL     OW28438   4.619   1.519   9.278 -0.4473  0.1936  0.2173
 5602SOL    HW128439   4.582   1.578   9.213 -1.5382 -1.1871 -0.4318
 5602SOL    HW228440   4.702   1.493   9.238 -0.2722  1.0105  0.0656
 5603SOL     OW28441   2.357   3.521   7.863 -0.2316 -0.1278 -0.0437
 5603SOL    HW128442   2.295   3.468   7.913 -0.0240 -0.7757 -0.4732
 5603SOL    HW228443   2.365   3.476   7.779 -2.8088 -1.1778  0.2712
 5604SOL     OW28444   4.240   4.499   4.024 -0.8829 -0.2639  0.0561
 5604SOL    HW128445   4.204   4.530   3.942  0.0426  0.4226 -0.0886
 5604SOL    HW228446   4.234   4.404   4.034  1.4475 -0.4316 -0.0460
 5605SOL     OW28447   0.695   4.681   5.342 -0.0674 -0.1639 -0.1806
 5605SOL    HW128448   0.663   4.594   5.320 -2.2002  0.8483 -1.0974
 5605SOL    HW228449   0.727   4.714   5.258 -0.2160 -2.6414 -1.2188
 5606SOL     OW28450   3.652   2.725  13.204  0.0502  0.7641 -0.0368
 5606SOL    HW128451   3.570   2.765  13.177 -0.6254  0.7161  1.9109
 5606SOL    HW228452   3.679   2.675  13.127  0.7704 -1.8424  1.9024
 5607SOL     OW28453   3.593   4.325   6.321  0.2606 -0.7389  0.3940
 5607SOL    HW128454   3.543   4.400   6.354 -0.6740 -0.4969 -1.5455
 5607SOL    HW228455   3.544   4.308   6.241  1.0900 -2.0893  0.1735
 5608SOL     OW28456   2.490   2.589   8.584  0.3716 -0.9693 -0.4073
 5608SOL    HW128457   2.483   2.592   8.679  1.0952  0.8326 -0.4058
 5608SOL    HW228458   2.573   2.635   8.567  0.4900 -1.3132 -0.7535
 5609SOL     OW28459   3.440   1.012   4.192 -0.4122 -0.7029  0.1577
 5609SOL    HW128460   3.535   1.018   4.202 -0.2336 -2.0984 -0.7533
 5609SOL    HW228461   3.441   0.984   4.101 -0.6483  0.0029 -0.0602
 5610SOL     OW28462   2.932   3.669   0.453 -0.2871 -0.2241  0.2697
 5610SOL    HW128463   2.957   3.754   0.488 -1.8340  0.2706  0.1620
 5610SOL    HW228464   2.926   3.616   0.532  0.9165  1.6270  1.6051
 5611SOL     OW28465   3.568   3.756   9.269  0.2687  0.2650 -0.4930
 5611SOL    HW128466   3.513   3.746   9.346  0.3750  0.9709 -0.3261
 5611SOL    HW228467   3.509   3.788   9.201  0.5113  1.5468 -0.0922
 5612SOL     OW28468   4.286   1.071   5.217 -0.1550  0.3413 -0.4030
 5612SOL    HW128469   4.306   1.165   5.221  0.4214  0.3023 -2.3608
 5612SOL    HW228470   4.320   1.054   5.129  0.1794 -1.8487  0.1591
 5613SOL     OW28471   1.980   2.431   3.276 -0.0538  0.1816  0.0139
 5613SOL    HW128472   1.895   2.463   3.306 -0.5577 -0.7793 -0.3757
 5613SOL    HW228473   2.002   2.487   3.202  3.8215 -0.7999  0.4149
 5614SOL     OW28474   3.185   3.465  16.558  0.3462  0.3858  0.2171
 5614SOL    HW128475   3.226   3.379  16.562 -1.3629 -0.3965  1.1818
 5614SOL    HW228476   3.096   3.445  16.529  0.1426 -1.9221  2.4170
 5615SOL     OW28477   3.702   4.631   4.835 -0.3230  0.2426  0.1001
 5615SOL    HW128478   3.749   4.550   4.812 -3.0516 -1.3790  0.2035
 5615SOL    HW228479   3.771   4.666   4.892 -0.2574 -2.3675  1.6201
 5616SOL     OW28480   1.133   4.034   7.072  0.3200  0.4496  0.2267
 5616SOL    HW128481   1.136   4.000   7.161 -1.9976  0.5955  0.3609
 5616SOL    HW228482   1.150   3.959   7.016 -1.6297 -0.0996  0.3574
 5617SOL     OW28483   3.197   1.107   6.394  0.4092 -0.0589 -0.4797
 5617SOL    HW128484   3.259   1.058   6.448  0.7582  1.4665  0.5061
 5617SOL    HW228485   3.193   1.070   6.306  0.1674 -0.1348 -0.4369
 5618SOL     OW28486   2.198   2.714   2.303  0.9116  0.2297 -0.1932
 5618SOL    HW128487   2.173   2.799   2.267  2.2461  0.4683 -0.5534
 5618SOL    HW228488   2.136   2.710   2.376  2.0302  1.4339  0.8495
 5619SOL     OW28489   2.027   1.228  14.298 -0.2290  1.0392 -0.0685
 5619SOL    HW128490   2.120   1.206  14.297 -0.9166 -1.7999 -1.6129
 5619SOL    HW228491   2.030   1.304  14.355 -1.5720  0.9167  0.1825
 5620SOL     OW28492   0.667   1.770  10.619 -0.6156 -0.3109 -0.0740
 5620SOL    HW128493   0.585   1.764  10.666  0.2886  0.6229  1.6085
 5620SOL    HW228494   0.663   1.691  10.565 -1.2141 -1.2626  1.3571
 5621SOL     OW28495   0.718   0.895  10.165 -0.1110  0.2791  0.1507
 5621SOL    HW128496   0.690   0.829  10.103 -2.4568  0.7325  0.7073
 5621SOL    HW228497   0.732   0.841  10.243 -0.2217 -0.1020 -0.0981
 5622SOL     OW28498   3.385   2.561   9.181  0.0499 -0.0876 -0.3684
 5622SOL    HW128499   3.315   2.586   9.120 -0.9719  1.4056  1.3952
 5622SOL    HW228500   3.453   2.621   9.149 -1.0362 -0.0313 -2.6278
 5623SOL     OW28501   2.901   4.131   0.897  0.0112 -0.3243 -0.1858
 5623SOL    HW128502   2.993   4.111   0.914  0.4031  0.7418 -1.0224
 5623SOL    HW228503   2.861   4.064   0.954 -1.5285 -1.1577 -2.2446
 5624SOL     OW28504   1.445   1.425   7.795 -0.2295  0.1605  0.4146
 5624SOL    HW128505   1.384   1.362   7.834 -0.6439  1.1234  1.3204
 5624SOL    HW228506   1.403   1.432   7.709  0.0334  3.2891  0.5613
 5625SOL     OW28507   2.799   4.053   4.840 -0.2203  0.2706  0.0634
 5625SOL    HW128508   2.869   4.027   4.780  0.8536  1.8593  0.6090
 5625SOL    HW228509   2.723   4.004   4.810 -0.1438  1.8809 -2.8050
 5626SOL     OW28510   3.604   1.778   7.723  0.3140 -0.0517  0.2843
 5626SOL    HW128511   3.524   1.725   7.722  0.8790 -0.9609  2.3070
 5626SOL    HW228512   3.600   1.802   7.816  2.9698  0.3192  0.2971
 5627SOL     OW28513   1.985   3.088   3.140 -0.0434 -0.7840  0.4885
 5627SOL    HW128514   1.937   3.086   3.057  0.6099 -0.4765  0.1055
 5627SOL    HW228515   1.953   3.172   3.173  3.9049  1.6771 -1.8916
 5628SOL     OW28516   0.751   0.328   8.011 -0.3363 -0.2315 -0.1681
 5628SOL    HW128517   0.656   0.319   8.006 -0.4853  1.0452  0.4810
 5628SOL    HW228518   0.771   0.241   7.975  1.2875  0.4348 -0.8838
 5629SOL     OW28519   0.978   1.016  10.178 -0.4617  0.2554  0.1195
 5629SOL    HW128520   1.023   0.931  10.185 -2.3920 -0.8364 -0.8231
 5629SOL    HW228521   0.896   0.979  10.145  0.1795 -0.7239 -0.3846
 5630SOL     OW28522   2.101   3.372   3.469  0.0734  0.2855  0.0481
 5630SOL    HW128523   2.169   3.404   3.409 -1.7295  1.2367 -1.4773
 5630SOL    HW228524   2.032   3.352   3.407 -1.5807  1.1052  1.6217
 5631SOL     OW28525   1.085   0.581   7.538 -0.2252  0.1704 -0.1951
 5631SOL    HW128526   1.172   0.616   7.517  0.5588 -0.6886  1.5647
 5631SOL    HW228527   1.081   0.595   7.633  1.5437  0.5343 -0.1715
 5632SOL     OW28528   1.286   3.259   7.607 -0.2852 -0.0978  0.1859
 5632SOL    HW128529   1.361   3.209   7.639 -0.0454  0.7936  1.0464
 5632SOL    HW228530   1.328   3.340   7.576 -1.3554  0.0807 -0.7907
 5633SOL     OW28531   2.148   0.400   4.913 -0.1533 -0.1163 -0.0077
 5633SOL    HW128532   2.054   0.380   4.923 -0.4133  0.7915 -0.6524
 5633SOL    HW228533   2.150   0.493   4.935  2.7514  0.1283 -1.2961
 5634SOL     OW28534   4.012   2.938   2.365  0.4904  0.6199 -0.0350
 5634SOL    HW128535   3.942   2.879   2.338  0.9038  0.1157 -0.0025
 5634SOL    HW228536   4.079   2.942   2.297  1.4563  1.2747  0.9502
 5635SOL     OW28537   4.178   2.878   7.784  0.2379  0.2937  0.1797
 5635SOL    HW128538   4.155   2.846   7.697  1.3091  1.3388 -0.4957
 5635SOL    HW228539   4.178   2.796   7.833 -3.6102  1.0763  1.4459
 5636SOL     OW28540   3.949   2.816   6.767  0.1071 -0.8617 -0.0846
 5636SOL    HW128541   3.889   2.772   6.707  1.8472 -1.8106 -1.1654
 5636SOL    HW228542   4.025   2.845   6.715 -0.9128 -1.4345 -1.9137
 5637SOL     OW28543   2.981   0.256   7.131  0.4689  0.3907 -1.0857
 5637SOL    HW128544   3.057   0.212   7.093 -0.3026 -1.0019 -1.0048
 5637SOL    HW228545   2.928   0.182   7.161  0.5838  0.3720 -0.9260
 5638SOL     OW28546   1.108   4.550   9.212  0.4244  0.3354 -0.1115
 5638SOL    HW128547   1.051   4.491   9.164  0.4610  0.9847 -0.9510
 5638SOL    HW228548   1.041   4.598   9.262  0.2596 -1.0768  1.0246
 5639SOL     OW28549   3.898   3.000   7.509  0.3188  0.4713  0.1965
 5639SOL    HW128550   3.929   3.078   7.463 -0.1426 -0.1423 -1.1573
 5639SOL    HW228551   3.851   2.949   7.444 -0.7143  1.9451 -0.2045
 5640SOL     OW28552   1.434   1.792   3.518  0.2166  0.4891 -0.3141
 5640SOL    HW128553   1.423   1.852   3.444 -1.2031  0.0807 -0.4332
 5640SOL    HW228554   1.480   1.846   3.583 -0.2772  1.3444 -0.6714
 5641SOL     OW28555   0.446   3.223   8.378 -0.8680 -0.3247  0.3831
 5641SOL    HW128556   0.399   3.151   8.419 -0.1075 -1.6329 -1.0522
 5641SOL    HW228557   0.389   3.300   8.376  0.9176  1.0323  0.8280
 5642SOL     OW28558   2.087   0.499  15.526  0.2843 -0.3710 -0.1017
 5642SOL    HW128559   2.081   0.484  15.432  1.9898  0.3970 -0.3211
 5642SOL    HW228560   2.040   0.582  15.534  0.7212 -0.1400  0.0761
 5643SOL     OW28561   1.981   1.710  12.292 -0.2552  0.1875 -0.3816
 5643SOL    HW128562   2.055   1.771  12.299 -1.3435  1.7107 -2.2355
 5643SOL    HW228563   1.915   1.767  12.254  2.2068  2.9274 -0.6206
 5644SOL     OW28564   0.627   0.760   1.834 -0.4750 -0.1000 -0.8433
 5644SOL    HW128565   0.593   0.838   1.878  3.4701  1.5357 -0.6784
 5644SOL    HW228566   0.685   0.728   1.903  0.2032  2.2421 -0.3107
 5645SOL     OW28567   3.871   3.684  16.294  0.2854  0.5858 -0.9333
 5645SOL    HW128568   3.898   3.647  16.378  0.3935  0.1343 -1.1681
 5645SOL    HW228569   3.781   3.660  16.270  0.4130  0.4442 -1.2789
 5646SOL     OW28570   3.574   1.691   8.333 -0.3214 -0.4161 -0.4712
 5646SOL    HW128571   3.661   1.710   8.297 -0.2924 -0.3003 -0.3410
 5646SOL    HW228572   3.588   1.603   8.369  2.5003  0.3327  0.2453
 5647SOL     OW28573   2.015   3.724   9.289  0.0581 -0.1654 -0.5899
 5647SOL    HW128574   1.989   3.691   9.203 -1.2421  1.0854 -0.6740
 5647SOL    HW228575   2.101   3.682   9.290 -0.4362 -1.1555 -0.6241
 5648SOL     OW28576   0.917   3.212   6.901 -0.3364 -0.2014  0.8101
 5648SOL    HW128577   0.933   3.238   6.992 -0.5642 -1.7848  1.2948
 5648SOL    HW228578   0.970   3.134   6.885  0.2681  0.2016  0.8319
 5649SOL     OW28579   4.702   1.314   5.013  0.0187  0.2627 -0.7284
 5649SOL    HW128580   0.004   1.281   4.932 -1.4940 -1.6974 -0.6492
 5649SOL    HW228581   0.035   1.323   5.078  1.3315 -1.0256 -1.9582
 5650SOL     OW28582   3.945   2.269   8.884  0.5215  0.0261  0.0706
 5650SOL    HW128583   3.965   2.178   8.908  0.6455  0.0424  0.0240
 5650SOL    HW228584   3.853   2.256   8.858  0.2975  2.2218 -0.2203
 5651SOL     OW28585   1.388   0.164   7.358  0.1206 -0.2968 -0.5320
 5651SOL    HW128586   1.300   0.200   7.369 -0.4898 -2.4179  1.4614
 5651SOL    HW228587   1.439   0.244   7.350  0.2788 -0.3541 -0.0479
 5652SOL     OW28588   3.643   4.326   8.509  0.7597 -0.1696 -0.6291
 5652SOL    HW128589   3.553   4.341   8.535  0.6253 -1.5086 -0.3456
 5652SOL    HW228590   3.630   4.249   8.454 -0.7217 -0.6414  0.4013
 5653SOL     OW28591   0.610   4.232   4.275 -0.0622 -0.0615  0.1089
 5653SOL    HW128592   0.614   4.147   4.233  0.3047 -0.7322  1.4978
 5653SOL    HW228593   0.700   4.264   4.284  0.2473 -0.6047 -1.1135
 5654SOL     OW28594   1.061   3.549   5.720  0.1251  0.2272 -0.1744
 5654SOL    HW128595   0.981   3.497   5.720  1.4362 -1.7536  0.1413
 5654SOL    HW228596   1.120   3.503   5.779  3.3919  2.0640 -2.0297
 5655SOL     OW28597   3.878   1.372   3.967  0.1581 -0.1886 -0.4472
 5655SOL    HW128598   3.888   1.289   3.920  0.2647  0.5857 -1.7906
 5655SOL    HW228599   3.960   1.412   3.938  0.1656 -1.7119 -2.5322
 5656SOL     OW28600   0.877   2.591  16.954  0.5132  0.4411  0.6370
 5656SOL    HW128601   0.848   2.667  17.005 -0.9953  0.0310  0.3753
 5656SOL    HW228602   0.822   2.600  16.876  0.2329  1.6878  0.9751
 5657SOL     OW28603   0.041   2.584   5.485  0.4400 -0.2826 -0.3609
 5657SOL    HW128604   0.023   2.666   5.439 -0.6998 -0.5103 -0.3269
 5657SOL    HW228605   4.700   2.571   5.540 -0.5016  1.6940 -1.2207
 5658SOL     OW28606   2.215   1.896   4.119 -0.5423 -0.1723  0.4475
 5658SOL    HW128607   2.229   1.963   4.052 -0.8093  2.6361  3.1748
 5658SOL    HW228608   2.298   1.856   4.145 -0.5558  0.2524  1.1605
 5659SOL     OW28609   3.186   1.206   7.957 -0.4552 -0.1864 -0.0955
 5659SOL    HW128610   3.155   1.243   8.040 -0.5560 -0.1450 -0.1516
 5659SOL    HW228611   3.119   1.139   7.948  1.5909 -2.1982 -0.1612
 5660SOL     OW28612   3.630   3.516   0.459 -0.6215 -0.2780 -0.3449
 5660SOL    HW128613   3.580   3.598   0.456 -0.5731 -0.2075  0.8729
 5660SOL    HW228614   3.663   3.510   0.548  0.5212  1.6171 -0.6409
 5661SOL     OW28615   1.108   1.229   1.884  0.2957 -0.0263  0.6894
 5661SOL    HW128616   1.086   1.299   1.821  0.0604  2.4869  3.5523
 5661SOL    HW228617   1.063   1.257   1.964  0.3804 -0.6050  0.9386
 5662SOL     OW28618   2.994   2.063   2.488 -0.9171 -0.5273  0.3628
 5662SOL    HW128619   2.975   2.094   2.577 -0.9182 -1.2735  0.6248
 5662SOL    HW228620   2.918   2.094   2.440  0.7448  1.0692 -1.2025
 5663SOL     OW28621   0.131   0.854   8.317  0.6097  0.4512  0.2741
 5663SOL    HW128622   0.061   0.919   8.309 -1.4022 -1.8124 -0.4838
 5663SOL    HW228623   0.081   0.775   8.295 -1.0659  1.5485  0.1354
 5664SOL     OW28624   0.029   3.450   2.578  0.1223  0.1073  0.1713
 5664SOL    HW128625   0.025   3.373   2.634  2.8732 -1.7264 -2.2193
 5664SOL    HW228626   4.671   3.462   2.567  0.1200  1.2998  1.4394
 5665SOL     OW28627   0.007   4.160   4.978  0.1510  0.8228 -0.2266
 5665SOL    HW128628   4.648   4.158   4.976  0.1455  0.8798 -0.0068
 5665SOL    HW228629   0.023   4.235   5.035  0.3554  0.2141  0.5192
 5666SOL     OW28630   2.307   0.442   9.041  0.1066  0.5647  0.0530
 5666SOL    HW128631   2.238   0.419   9.103  0.7195 -0.1730  0.4669
 5666SOL    HW228632   2.255   0.464   8.964 -1.0321  1.2814  1.0390
 5667SOL     OW28633   3.228   1.269  12.290 -0.1256  0.2998 -0.0466
 5667SOL    HW128634   3.237   1.247  12.197 -0.5983 -2.5724  0.5916
 5667SOL    HW228635   3.320   1.278  12.314 -0.3715 -0.0266  1.0186
 5668SOL     OW28636   4.124   4.665  17.723 -0.1678  0.3701  0.0125
 5668SOL    HW128637   4.090   0.003  17.674 -0.1628  3.0725  4.1791
 5668SOL    HW228638   4.046   4.656   0.033 -1.1995 -0.5234 -1.5909
 5669SOL     OW28639   2.141   0.070  15.653 -0.4153 -0.2232  0.7787
 5669SOL    HW128640   2.188   0.118  15.585 -2.3198  0.7345  0.1534
 5669SOL    HW228641   2.052   0.071  15.619 -0.8748 -0.9016  1.9487
 5670SOL     OW28642   3.926   2.303   5.385  0.1833 -0.3015 -0.0233
 5670SOL    HW128643   3.910   2.225   5.438 -1.2021  0.8134  1.1904
 5670SOL    HW228644   3.855   2.298   5.321  1.5315  0.3372 -1.5709
 5671SOL     OW28645   3.593   2.690   2.387 -0.3736 -0.6269 -0.1155
 5671SOL    HW128646   3.550   2.640   2.317 -0.1743 -0.1141 -0.6016
 5671SOL    HW228647   3.609   2.619   2.450  1.3982 -1.3950 -1.4154
 5672SOL     OW28648   2.643   1.821   3.224  0.2488 -0.1069  0.3281
 5672SOL    HW128649   2.594   1.802   3.144  0.5309 -1.5830  0.4972
 5672SOL    HW228650   2.598   1.780   3.298  0.1973  0.4136  0.5822
 5673SOL     OW28651   1.934   4.000   6.502  0.0556 -0.2666 -0.2559
 5673SOL    HW128652   1.839   4.002   6.488 -0.2942 -0.1748  2.0892
 5673SOL    HW228653   1.953   4.091   6.526 -0.0544 -0.3476  0.1544
 5674SOL     OW28654   2.088   2.837   7.391 -0.1197  0.1657  0.0373
 5674SOL    HW128655   2.133   2.879   7.317  0.8558 -2.7026 -1.0186
 5674SOL    HW228656   2.000   2.823   7.356 -0.0553 -0.5090  0.1296
 5675SOL     OW28657   2.595   2.600  17.291 -0.7701 -0.1551  0.2053
 5675SOL    HW128658   2.651   2.523  17.281  2.2241  1.7636  2.0963
 5675SOL    HW228659   2.580   2.586  17.384  1.1554  0.0481  0.5456
 5676SOL     OW28660   4.123   1.148   2.651 -0.0200 -0.3192  0.0750
 5676SOL    HW128661   4.137   1.242   2.652  2.6758 -0.7198 -0.9152
 5676SOL    HW228662   4.030   1.156   2.628  0.3835  1.6840 -0.7833
 5677SOL     OW28663   4.636   3.793   6.530 -0.2216 -0.1403 -0.3459
 5677SOL    HW128664   4.633   3.697   6.531 -0.4632 -0.1451 -1.4601
 5677SOL    HW228665   4.695   3.799   6.606  1.6294  1.7273 -1.9420
 5678SOL     OW28666   3.464   3.435   6.598 -0.1686  0.0372 -0.3357
 5678SOL    HW128667   3.452   3.341   6.599  1.3391 -0.1776 -1.3214
 5678SOL    HW228668   3.522   3.449   6.522  0.2348  1.5198  0.2426
 5679SOL     OW28669   1.249   2.344   0.568  0.0274 -0.2746  0.7153
 5679SOL    HW128670   1.314   2.323   0.501  0.2027 -2.1094  1.4566
 5679SOL    HW228671   1.235   2.253   0.597 -1.6457 -0.6316 -1.2541
 5680SOL     OW28672   0.978   0.539   2.149 -0.0881  0.4299  0.3785
 5680SOL    HW128673   1.039   0.466   2.161 -0.9887 -0.1862  1.2178
 5680SOL    HW228674   0.965   0.558   2.242 -0.4404  3.2163 -0.2363
 5681SOL     OW28675   2.612   2.131   4.832 -0.0609 -0.3248 -0.3818
 5681SOL    HW128676   2.534   2.085   4.864  0.2368 -1.9223 -1.9844
 5681SOL    HW228677   2.651   2.177   4.906  0.5043 -1.3404 -0.0491
 5682SOL     OW28678   0.176   3.976   1.384  0.2318  0.0619  0.0621
 5682SOL    HW128679   0.131   3.945   1.306  0.6616 -2.5425  0.8549
 5682SOL    HW228680   0.104   4.025   1.424 -0.5539 -0.4006 -0.7974
 5683SOL     OW28681   0.680   0.252   3.532  0.0160 -0.8459  0.0722
 5683SOL    HW128682   0.594   0.242   3.491  0.5675 -1.5641 -0.8964
 5683SOL    HW228683   0.685   0.346   3.513  0.4069 -1.0565 -0.8296
 5684SOL     OW28684   2.399   0.653  14.737 -0.2843 -0.4422 -0.4446
 5684SOL    HW128685   2.425   0.561  14.728 -0.1755 -0.4999  0.4459
 5684SOL    HW228686   2.304   0.646  14.730 -0.4636 -0.0387  1.5252
 5685SOL     OW28687   3.503   1.960   3.033 -0.0984 -0.0560 -0.5973
 5685SOL    HW128688   3.545   1.875   3.040  1.4000  0.6036 -1.5730
 5685SOL    HW228689   3.413   1.929   3.021  0.2287 -1.4670  0.5659
 5686SOL     OW28690   2.634   3.318  12.514  0.1733  0.1690  0.2992
 5686SOL    HW128691   2.635   3.282  12.603  1.8033 -1.6708 -0.4700
 5686SOL    HW228692   2.677   3.402  12.532 -0.9432  0.0774  3.4123
 5687SOL     OW28693   2.477   1.222  16.505 -0.5645 -0.1127  0.0565
 5687SOL    HW128694   2.455   1.310  16.476 -0.5347 -0.7026 -1.7760
 5687SOL    HW228695   2.571   1.238  16.509 -0.7520  1.0605 -0.4570
 5688SOL     OW28696   3.058   3.858   4.203  0.0443  0.5916  0.3064
 5688SOL    HW128697   3.068   3.765   4.222 -0.1948  0.0030 -2.3813
 5688SOL    HW228698   3.034   3.894   4.288  0.5654  2.0649 -0.1761
 5689SOL     OW28699   3.843   2.213   8.016 -0.0934 -0.2349  0.2648
 5689SOL    HW128700   3.935   2.221   7.990 -0.7024  1.0647 -1.4692
 5689SOL    HW228701   3.794   2.197   7.936 -1.5116 -0.2762  1.1408
 5690SOL     OW28702   2.114   0.766   6.247  0.0169  0.0821 -0.7364
 5690SOL    HW128703   2.178   0.774   6.176 -0.2301  0.2420 -0.9414
 5690SOL    HW228704   2.116   0.670   6.246 -2.4538  0.0130  0.2065
 5691SOL     OW28705   3.202   1.263   8.473  0.1245  0.2559  0.2488
 5691SOL    HW128706   3.240   1.311   8.547 -0.4905  0.0055  0.7179
 5691SOL    HW228707   3.111   1.290   8.480 -0.0664 -0.2356 -0.4539
 5692SOL     OW28708   3.446   3.366  17.301 -0.3963  0.4169  0.1580
 5692SOL    HW128709   3.403   3.365  17.387 -0.7181  2.4819  0.0174
 5692SOL    HW228710   3.419   3.456  17.282  0.9321  0.6976 -0.3780
 5693SOL     OW28711   4.192   2.330   7.554  0.0024 -0.1803  0.3423
 5693SOL    HW128712   4.237   2.381   7.486  1.5359 -0.3313  1.2390
 5693SOL    HW228713   4.210   2.380   7.633 -3.5245 -1.0444  1.6981
 5694SOL     OW28714   2.487   0.521  12.566  0.3772 -0.4806 -0.0301
 5694SOL    HW128715   2.428   0.457  12.525 -0.1457 -0.1857  0.2556
 5694SOL    HW228716   2.452   0.602  12.528 -0.3158 -0.1340  1.3489
 5695SOL     OW28717   1.005   3.737  11.107  0.2820  0.0784 -0.3198
 5695SOL    HW128718   0.998   3.734  11.012 -2.2008 -0.8999 -0.1250
 5695SOL    HW228719   0.914   3.723  11.135  0.9753 -1.9804  0.8708
 5696SOL     OW28720   2.317   3.316   3.951 -0.8135 -0.2823  0.2813
 5696SOL    HW128721   2.228   3.294   3.924 -0.5143 -1.8459  0.5341
 5696SOL    HW228722   2.334   3.387   3.890 -0.1631  0.5004  1.3710
 5697SOL     OW28723   0.347   0.293   2.209 -0.9484  0.3493  0.0703
 5697SOL    HW128724   0.306   0.379   2.208 -1.8508 -0.1407 -4.1546
 5697SOL    HW228725   0.375   0.295   2.118  2.4684 -0.6713  1.1144
 5698SOL     OW28726   2.551   4.532   2.871  0.4854 -0.0392  0.2374
 5698SOL    HW128727   2.631   4.583   2.855  1.4283 -0.9377  2.0036
 5698SOL    HW228728   2.552   4.480   2.791 -1.7178 -1.3269  1.0632
 5699SOL     OW28729   2.849   0.298   4.409 -0.2468  0.5577 -0.0204
 5699SOL    HW128730   2.849   0.292   4.313  0.2351 -1.5984  0.1135
 5699SOL    HW228731   2.754   0.302   4.418 -0.3591  0.5030 -1.2397
 5700SOL     OW28732   3.182   1.978   1.538 -0.2040  0.7672  0.2598
 5700SOL    HW128733   3.264   1.936   1.511 -0.8185  1.0422 -2.0264
 5700SOL    HW228734   3.115   1.913   1.517  2.5352 -1.6949 -0.8766
 5701SOL     OW28735   1.706   1.379   5.261  0.2134 -0.1699  0.2727
 5701SOL    HW128736   1.674   1.425   5.183  0.5145  0.1140  0.3188
 5701SOL    HW228737   1.772   1.440   5.294  0.0630 -0.0538  0.3657
 5702SOL     OW28738   4.150   2.165  14.105 -0.7098 -0.3252 -0.2961
 5702SOL    HW128739   4.236   2.128  14.087 -0.2436 -0.0954  1.4522
 5702SOL    HW228740   4.160   2.244  14.051  1.2446 -0.4788 -0.1650
 5703SOL     OW28741   1.187   0.075  12.902  0.4099 -0.0849  0.2700
 5703SOL    HW128742   1.273   0.040  12.879  0.2172 -1.3470  1.4782
 5703SOL    HW228743   1.144   0.012  12.845 -0.9910  2.2587 -1.2691
 5704SOL     OW28744   2.051   4.399   1.046  0.0827  0.3609 -1.0979
 5704SOL    HW128745   2.037   4.311   1.080 -1.7623  0.2646 -2.0741
 5704SOL    HW228746   2.105   4.383   0.969  0.4784 -2.4097 -0.2343
 5705SOL     OW28747   4.242   1.734   3.416  0.0691 -0.4944 -0.4336
 5705SOL    HW128748   4.337   1.744   3.408  0.1305 -0.0917  0.8787
 5705SOL    HW228749   4.226   1.661   3.355 -0.9756  0.2376 -1.0374
 5706SOL     OW28750   4.422   4.486   6.702 -0.3836 -0.1657  0.5369
 5706SOL    HW128751   4.515   4.491   6.720 -0.1150  1.2467 -1.1953
 5706SOL    HW228752   4.400   4.563   6.650  0.2535 -0.4840 -0.1942
 5707SOL     OW28753   4.347   1.148   2.024  0.0228 -0.1288  0.1420
 5707SOL    HW128754   4.273   1.184   1.975  0.7512  0.7567 -0.3149
 5707SOL    HW228755   4.344   1.205   2.100 -0.6707  1.4563 -1.0672
 5708SOL     OW28756   2.310   2.961   3.755  0.0635 -0.0667  0.2795
 5708SOL    HW128757   2.338   2.987   3.843 -0.9461  0.5474  0.4203
 5708SOL    HW228758   2.359   3.024   3.702 -1.3437 -0.9822 -2.0999
 5709SOL     OW28759   2.827   0.554   4.638  0.2630 -0.2811 -0.5465
 5709SOL    HW128760   2.737   0.529   4.661  1.0039 -1.1711  1.3885
 5709SOL    HW228761   2.810   0.599   4.555 -2.0747 -0.0810  0.0276
 5710SOL     OW28762   3.006   4.190   2.665 -0.1569  0.0714  0.4917
 5710SOL    HW128763   2.931   4.135   2.690  0.6462 -1.9137 -1.5187
 5710SOL    HW228764   3.074   4.127   2.688 -2.2296 -1.5087  2.2573
 5711SOL     OW28765   4.636   2.462   7.205  0.7379  0.5314  0.1277
 5711SOL    HW128766   4.671   2.393   7.262  1.6701  1.4959  0.7051
 5711SOL    HW228767   4.554   2.488   7.247  1.2790 -0.0619  1.5482
 5712SOL     OW28768   3.645   2.541   8.955 -0.6561  0.4275 -0.1597
 5712SOL    HW128769   3.598   2.588   8.886  2.1177  1.7966 -1.1302
 5712SOL    HW228770   3.695   2.619   8.981 -0.2103 -0.4858  1.7099
 5713SOL     OW28771   1.176   4.731   2.751  0.5044 -0.5288 -0.2517
 5713SOL    HW128772   1.229   0.027   2.679 -0.9439 -1.1357 -1.5779
 5713SOL    HW228773   1.201   4.639   2.754  0.2844 -0.6163 -1.3756
 5714SOL     OW28774   3.428   0.087  17.625  0.2149  0.3232 -0.0873
 5714SOL    HW128775   3.370   0.101  17.551 -1.6288 -1.4253  1.0521
 5714SOL    HW228776   3.468   0.001  17.617  1.4864  0.6831  2.2796
 5715SOL     OW28777   1.054   1.564   7.063 -0.8850  0.1290  0.2831
 5715SOL    HW128778   1.028   1.590   6.975  0.9001  0.0424 -0.2844
 5715SOL    HW228779   1.107   1.485   7.050  0.2360  0.7450  1.0270
 5716SOL     OW28780   0.850   0.380  10.363 -0.5795 -0.5441  0.3552
 5716SOL    HW128781   0.810   0.446  10.420 -0.2448  2.2663 -2.6801
 5716SOL    HW228782   0.770   0.350  10.320 -0.8410 -0.1101  0.5446
 5717SOL     OW28783   3.621   1.759   5.302 -0.2251 -0.2956 -0.0927
 5717SOL    HW128784   3.575   1.685   5.262 -1.0021 -1.6636  3.2782
 5717SOL    HW228785   3.568   1.830   5.267 -2.2143 -2.0264 -0.5974
 5718SOL     OW28786   4.343   0.988   6.213 -0.4287  0.3166 -0.6685
 5718SOL    HW128787   4.320   1.075   6.246  0.1169  0.5968 -1.0277
 5718SOL    HW228788   4.437   0.980   6.229 -0.3232 -0.1000 -1.5120
 5719SOL     OW28789   3.088   3.808  12.405 -0.0456  0.2521 -0.0115
 5719SOL    HW128790   3.128   3.799  12.491 -0.9927  1.3731  0.5514
 5719SOL    HW228791   3.060   3.717  12.402 -3.4213  1.2710  0.8970
 5720SOL     OW28792   4.003   1.421   3.531 -0.4074 -0.0452 -0.0940
 5720SOL    HW128793   4.095   1.439   3.550 -0.3524 -0.6156  0.1672
 5720SOL    HW228794   3.990   1.330   3.560  0.9900  0.1983  1.2363
 5721SOL     OW28795   1.635   3.580  16.851  0.1894 -0.1929  0.1550
 5721SOL    HW128796   1.554   3.567  16.900 -0.2409  3.0687  0.3320
 5721SOL    HW228797   1.676   3.655  16.895  0.5502  0.1261 -0.7190
 5722SOL     OW28798   1.533   1.514  11.536  0.0025 -0.4190 -0.2470
 5722SOL    HW128799   1.489   1.434  11.506  1.0778 -0.3909 -1.9294
 5722SOL    HW228800   1.579   1.539  11.455  1.0192 -2.1829 -0.2113
 5723SOL     OW28801   2.551   2.583   7.200 -0.3443 -0.4092  0.6362
 5723SOL    HW128802   2.462   2.607   7.222 -0.2954  0.9850 -0.6496
 5723SOL    HW228803   2.578   2.557   7.288  0.6986 -2.1909 -0.2086
 5724SOL     OW28804   3.955   0.717   4.637 -0.7182 -0.3521  0.4215
 5724SOL    HW128805   4.016   0.644   4.645  0.8386  0.9083 -0.0941
 5724SOL    HW228806   3.887   0.706   4.704  0.3947 -2.4246  1.2022
 5725SOL     OW28807   2.401   4.186   8.007 -0.6235  0.1759  0.3820
 5725SOL    HW128808   2.372   4.171   7.917 -0.1567  1.1313  0.0725
 5725SOL    HW228809   2.481   4.236   7.996 -0.2328  0.2865  3.7202
 5726SOL     OW28810   0.473   0.370   9.180  0.5871  0.0244  0.0180
 5726SOL    HW128811   0.490   0.386   9.087  3.0718 -1.1107  0.2850
 5726SOL    HW228812   0.491   0.459   9.211 -1.3379  0.1896  0.6952
 5727SOL     OW28813   4.548   3.271   6.360  0.8538  0.1484 -0.5647
 5727SOL    HW128814   4.453   3.263   6.354  0.8284 -0.5398  0.7274
 5727SOL    HW228815   4.555   3.213   6.437  0.2157  1.4728  0.4846
 5728SOL     OW28816   3.376   4.089   5.955 -0.0405  0.6947  0.4016
 5728SOL    HW128817   3.287   4.057   5.939 -0.0368  1.1498 -0.4950
 5728SOL    HW228818   3.398   4.135   5.875 -1.6334  0.5697 -0.1163
 5729SOL     OW28819   4.453   0.848   8.346  0.1260  1.0534  0.1640
 5729SOL    HW128820   4.521   0.840   8.279 -0.8949 -3.5165 -0.3599
 5729SOL    HW228821   4.502   0.821   8.423 -0.3066 -1.7176 -0.5239
 5730SOL     OW28822   1.063   2.099   6.538  0.2507 -0.5634 -0.3431
 5730SOL    HW128823   1.022   2.152   6.606  0.8733 -0.6428  0.0942
 5730SOL    HW228824   1.030   2.010   6.545  0.6199 -0.5173  2.0605
 5731SOL     OW28825   1.931   1.899   4.648  0.3611  0.0402 -0.0895
 5731SOL    HW128826   1.844   1.940   4.648  0.2105 -0.2465  2.1578
 5731SOL    HW228827   1.979   1.976   4.616 -2.3565  1.2220 -1.3476
 5732SOL     OW28828   3.311   0.406   4.601  0.0649  0.0514 -0.2576
 5732SOL    HW128829   3.330   0.430   4.511  1.2562 -0.2819 -0.0916
 5732SOL    HW228830   3.309   0.311   4.590 -0.0188 -0.0371  0.4869
 5733SOL     OW28831   3.652   0.873   6.184  0.3570  0.1083 -0.0857
 5733SOL    HW128832   3.701   0.815   6.242 -0.0139  0.0947  0.2175
 5733SOL    HW228833   3.663   0.956   6.231 -2.5186 -0.0538  0.8841
 5734SOL     OW28834   1.283   0.900   4.935  0.0864  0.2668 -0.3791
 5734SOL    HW128835   1.302   0.860   4.850 -1.3160 -2.7227  0.7405
 5734SOL    HW228836   1.330   0.984   4.934  2.6826 -1.1878  1.6445
 5735SOL     OW28837   2.630   4.210   4.527  0.3711 -0.3404 -0.1521
 5735SOL    HW128838   2.722   4.227   4.548 -0.1560  1.4729  0.7569
 5735SOL    HW228839   2.631   4.123   4.488 -2.4919 -1.0134  1.2763
 5736SOL     OW28840   3.028   1.451   5.226  0.0864 -0.0807  0.2154
 5736SOL    HW128841   3.093   1.510   5.264 -0.7303  1.4871 -0.7913
 5736SOL    HW228842   3.048   1.371   5.274  0.0088 -0.2511 -0.0396
 5737SOL     OW28843   2.775   4.653   6.080 -0.2361  0.4267 -0.2654
 5737SOL    HW128844   2.861   4.613   6.091  1.4962  4.0843 -0.2299
 5737SOL    HW228845   2.787   0.004   6.042  2.7005  0.9489  1.8635
 5738SOL     OW28846   3.755   0.872   6.751  0.1661 -0.9845  0.2642
 5738SOL    HW128847   3.793   0.859   6.838  1.4878  0.5553 -0.0796
 5738SOL    HW228848   3.662   0.871   6.774  0.7146 -1.8785  2.4039
 5739SOL     OW28849   4.471   3.908   2.396 -0.3409 -0.2239 -0.3395
 5739SOL    HW128850   4.516   3.965   2.333  0.6790  0.5939  1.1345
 5739SOL    HW228851   4.389   3.884   2.352 -0.1704 -2.0287  0.3555
 5740SOL     OW28852   0.147   0.980   9.671  0.1752 -0.5018  0.3885
 5740SOL    HW128853   0.116   0.947   9.587 -0.9835  1.1182  0.1738
 5740SOL    HW228854   0.157   0.894   9.710 -1.2963 -0.4003  0.9811
 5741SOL     OW28855   4.501   4.026  13.830  0.0962 -0.6127 -0.2602
 5741SOL    HW128856   4.413   4.001  13.859  0.1861 -0.9281 -0.2615
 5741SOL    HW228857   4.541   4.072  13.904 -3.1773 -1.4850  2.0536
 5742SOL     OW28858   3.189   2.321   2.207  0.2494 -0.1884  0.0581
 5742SOL    HW128859   3.117   2.277   2.163  1.3043 -1.3003 -0.5378
 5742SOL    HW228860   3.131   2.384   2.251  0.5706  0.5378 -0.5515
 5743SOL     OW28861   3.285   4.571   6.758 -0.4176 -0.1577 -0.7007
 5743SOL    HW128862   3.270   4.561   6.852  1.1467 -1.6388 -0.6206
 5743SOL    HW228863   3.377   4.598   6.759 -0.2635 -0.7445  0.0743
 5744SOL     OW28864   2.301   1.127   2.960 -0.1432  0.5938 -0.0908
 5744SOL    HW128865   2.373   1.068   2.983  1.0351  1.7949 -0.7238
 5744SOL    HW228866   2.301   1.167   3.047 -0.6333 -0.8383  0.5635
 5745SOL     OW28867   0.357   4.493   7.378 -0.0220 -0.0423  0.3616
 5745SOL    HW128868   0.393   4.407   7.399  2.4487  1.1732  1.0741
 5745SOL    HW228869   0.430   4.531   7.330 -0.3510  1.3764  0.9816
 5746SOL     OW28870   0.896   0.292  14.344  0.2893  0.3271 -0.3228
 5746SOL    HW128871   0.939   0.361  14.295 -1.1795  1.8145  0.4810
 5746SOL    HW228872   0.923   0.305  14.435  1.0713 -1.8974 -0.2395
 5747SOL     OW28873   3.297   2.969   4.986  0.1898 -0.0588  0.3031
 5747SOL    HW128874   3.293   2.897   4.923  1.4388  0.1972 -0.0752
 5747SOL    HW228875   3.367   3.024   4.951  0.5830 -0.1632  0.9253
 5748SOL     OW28876   1.520   2.200   3.658 -0.0027  0.0934 -0.7511
 5748SOL    HW128877   1.514   2.157   3.743 -0.4859 -0.4101 -1.0402
 5748SOL    HW228878   1.542   2.127   3.601 -1.0864 -0.6316 -0.2396
 5749SOL     OW28879   1.299   2.773   1.577  0.6225 -0.0775  0.1422
 5749SOL    HW128880   1.263   2.685   1.582  1.0878 -0.2899 -0.2299
 5749SOL    HW228881   1.372   2.756   1.517 -0.6350  1.3802 -1.8019
 5750SOL     OW28882   1.032   0.022  16.703  0.1600  0.3385  0.2551
 5750SOL    HW128883   1.057   0.071  16.625 -3.8284  0.7404 -0.7340
 5750SOL    HW228884   1.063   4.672  16.676 -2.5575 -1.1020  1.7646
 5751SOL     OW28885   2.787   0.623   5.367  0.4722 -0.3487 -0.3398
 5751SOL    HW128886   2.868   0.650   5.323  0.4313 -0.9972 -0.8152
 5751SOL    HW228887   2.749   0.703   5.405 -1.0707 -1.2738  0.0709
 5752SOL     OW28888   1.402   0.335   3.895  0.1701  0.4413 -0.0283
 5752SOL    HW128889   1.474   0.363   3.951  0.3744 -0.1651  0.0120
 5752SOL    HW228890   1.348   0.282   3.954  1.4619  2.2838  2.7745
 5753SOL     OW28891   2.989   1.930   3.436 -0.5202  0.1664  0.0051
 5753SOL    HW128892   2.897   1.943   3.458 -0.1285  1.8417  0.7168
 5753SOL    HW228893   2.993   1.926   3.341  1.7352 -0.2131  0.1217
 5754SOL     OW28894   3.442   1.968  16.843 -0.5018 -0.3264 -1.1681
 5754SOL    HW128895   3.473   1.950  16.754  1.7257  1.0049 -0.6627
 5754SOL    HW228896   3.511   2.025  16.879 -0.1513 -1.6927  0.3343
 5755SOL     OW28897   3.765   2.688   8.657 -0.2492  0.0428 -0.2068
 5755SOL    HW128898   3.670   2.690   8.649 -0.4277  1.9640  2.5835
 5755SOL    HW228899   3.769   2.711   8.749  0.9791  1.4491 -0.6172
 5756SOL     OW28900   3.409   1.811   8.644  0.3164  0.4229 -0.7954
 5756SOL    HW128901   3.457   1.729   8.631  0.3182  0.2031  0.6142
 5756SOL    HW228902   3.422   1.851   8.558  2.1200 -1.1703 -1.2683
 5757SOL     OW28903   4.712   4.588   2.635 -0.1191 -0.3267 -0.4360
 5757SOL    HW128904   4.617   4.574   2.642 -0.2109  1.4647  1.8209
 5757SOL    HW228905   4.725   4.533   2.557  1.9422  0.1798 -0.4352
 5758SOL     OW28906   0.728   2.783  15.227 -0.3632  0.4080  0.5268
 5758SOL    HW128907   0.675   2.803  15.150  0.4989  2.0043  0.3338
 5758SOL    HW228908   0.753   2.875  15.240 -0.3779  0.9204 -3.1966
 5759SOL     OW28909   0.385   4.617  13.148 -0.7043 -0.0777  0.0988
 5759SOL    HW128910   0.437   4.537  13.138 -0.1780  0.5459 -2.1674
 5759SOL    HW228911   0.372   4.655  13.061  1.2202 -1.5000 -0.7963
 5760SOL     OW28912   4.065   4.257   9.001 -0.1637 -0.1135 -0.2517
 5760SOL    HW128913   4.139   4.208   8.964  0.4714  0.1635  0.6396
 5760SOL    HW228914   4.097   4.347   8.999 -1.2279  0.2680  0.1565
 5761SOL     OW28915   1.088   3.938   2.516 -0.0570  0.0876  0.0083
 5761SOL    HW128916   1.009   3.991   2.509 -0.4393 -0.1768  2.3054
 5761SOL    HW228917   1.159   4.001   2.522  2.0335 -2.1152 -1.4465
 5762SOL     OW28918   0.792   3.800  10.699 -0.4508 -0.0042 -0.0519
 5762SOL    HW128919   0.762   3.720  10.743  0.1242 -0.6131 -0.7870
 5762SOL    HW228920   0.769   3.864  10.768  1.1681  0.4757  0.0447
 5763SOL     OW28921   2.922   4.130   5.067 -0.4405  0.1316  0.1107
 5763SOL    HW128922   2.902   4.087   4.983  0.7473  0.6887 -0.4595
 5763SOL    HW228923   2.954   4.050   5.110 -0.1345  0.8440  1.1934
 5764SOL     OW28924   4.236   1.819  12.569  0.6898  0.6082  0.3112
 5764SOL    HW128925   4.254   1.731  12.601 -1.1567 -0.5338 -1.8174
 5764SOL    HW228926   4.318   1.847  12.528  0.4785  2.0598  0.8657
 5765SOL     OW28927   3.166   0.246  16.568  1.3179  0.3655 -0.8180
 5765SOL    HW128928   3.159   0.160  16.525  0.7602 -0.2537  0.5207
 5765SOL    HW228929   3.139   0.294  16.489 -2.5816 -0.6799 -0.1504
 5766SOL     OW28930   4.658   3.002   6.161  0.6325  0.1833  0.1231
 5766SOL    HW128931   4.615   3.030   6.080  0.6709  0.7080  0.2844
 5766SOL    HW228932   4.581   3.018   6.215  1.9479  2.2302  1.4130
 5767SOL     OW28933   2.491   1.286   3.420  0.0920  0.2795  0.1032
 5767SOL    HW128934   2.509   1.338   3.498  1.3839  0.0014 -0.0103
 5767SOL    HW228935   2.431   1.226   3.466 -0.1641  0.0841 -0.4897
 5768SOL     OW28936   4.526   1.722   7.930  0.2810 -0.1579 -0.0244
 5768SOL    HW128937   4.619   1.714   7.908  0.6066 -0.0699  1.3279
 5768SOL    HW228938   4.519   1.777   8.008  0.2566 -1.5372  0.9530
 5769SOL     OW28939   1.408   1.647  11.730  0.2643 -0.2518  0.2913
 5769SOL    HW128940   1.442   1.613  11.647 -1.6400 -1.4128 -0.0171
 5769SOL    HW228941   1.349   1.572  11.743 -3.2832  2.5891  0.7578
 5770SOL     OW28942   3.641   3.472  14.229 -0.1645 -0.3328 -0.1725
 5770SOL    HW128943   3.625   3.402  14.166 -1.1310  1.8716 -2.4016
 5770SOL    HW228944   3.729   3.466  14.265  0.0157 -1.0609 -0.7632
 5771SOL     OW28945   4.572   0.087   1.725 -0.4217  0.2306 -0.4038
 5771SOL    HW128946   4.513   0.125   1.660 -0.9397 -0.6093 -0.4170
 5771SOL    HW228947   4.653   0.130   1.697 -0.1201  0.3465  0.6440
 5772SOL     OW28948   4.693   4.684   3.100  0.3387  0.6186  0.3848
 5772SOL    HW128949   4.657   4.636   3.025  0.3621  1.5630 -0.2260
 5772SOL    HW228950   0.012   4.616   3.137  0.2790  0.6548  0.5405
 5773SOL     OW28951   1.335   0.177   8.893  0.7065  0.4339 -0.1370
 5773SOL    HW128952   1.325   0.145   8.803  3.4349  0.3721 -0.4283
 5773SOL    HW228953   1.257   0.139   8.933  0.9094  1.2421  1.0198
 5774SOL     OW28954   1.430   0.225  15.915  0.7132  0.1099 -0.0553
 5774SOL    HW128955   1.484   0.303  15.906  1.2124  0.0629  2.3432
 5774SOL    HW228956   1.408   0.200  15.825  2.0760  0.3285 -0.4378
 5775SOL     OW28957   1.465   0.379   9.852 -0.3261  0.2272 -0.2347
 5775SOL    HW128958   1.480   0.418   9.766 -0.1596  1.3093  0.2842
 5775SOL    HW228959   1.393   0.434   9.881  1.1525  0.2780  3.3791
 5776SOL     OW28960   4.316   0.893   1.921  0.3685  0.6893  0.2993
 5776SOL    HW128961   4.249   0.906   1.854 -0.2601 -0.4739  0.7053
 5776SOL    HW228962   4.323   0.978   1.965 -0.4971  0.3143  1.1515
 5777SOL     OW28963   0.518   2.746  13.503 -0.1270  0.2330 -0.2260
 5777SOL    HW128964   0.573   2.745  13.582 -1.1191 -4.1407  0.3762
 5777SOL    HW228965   0.469   2.665  13.510  1.3389 -0.4758  2.0324
 5778SOL     OW28966   2.068   3.542   5.452  0.0660  0.1896 -0.0687
 5778SOL    HW128967   1.975   3.565   5.450  0.3386  1.0935 -2.5922
 5778SOL    HW228968   2.073   3.466   5.510 -0.8386  0.5287  0.4540
 5779SOL     OW28969   3.518   0.804  12.566 -0.0798  0.1599  0.2257
 5779SOL    HW128970   3.593   0.760  12.606 -1.5539 -0.3468  2.3943
 5779SOL    HW228971   3.453   0.805  12.636  0.5597 -1.3877  0.8476
 5780SOL     OW28972   2.699   3.804   5.071 -0.2475 -0.7347 -0.1605
 5780SOL    HW128973   2.648   3.875   5.110 -1.6217 -2.4373  1.2148
 5780SOL    HW228974   2.784   3.847   5.068 -0.3284 -0.4687  1.2460
 5781SOL     OW28975   2.100   2.405   4.131 -0.3021  0.7362 -0.1943
 5781SOL    HW128976   2.172   2.355   4.091 -0.5626  2.1725 -2.4077
 5781SOL    HW228977   2.110   2.368   4.219 -0.7470  1.4102  0.1339
 5782SOL     OW28978   3.819   3.765   4.866 -0.1782 -0.3433  0.0792
 5782SOL    HW128979   3.912   3.786   4.865 -0.1914 -0.3107 -0.5419
 5782SOL    HW228980   3.818   3.674   4.838 -2.1159 -0.5704  0.9057
 5783SOL     OW28981   3.045   4.594   7.632  0.0301  0.1632  0.5734
 5783SOL    HW128982   3.107   4.593   7.559 -3.0378 -0.4809 -2.0078
 5783SOL    HW228983   3.089   4.540   7.698 -0.7109  0.6849  1.5067
 5784SOL     OW28984   0.190   0.871   3.232  0.4420  0.4334 -0.0578
 5784SOL    HW128985   0.207   0.916   3.150 -0.8664 -3.3231 -2.3721
 5784SOL    HW228986   0.160   0.948   3.281 -0.7317  0.1678 -0.3817
 5785SOL     OW28987   1.611   0.870   5.063  0.2891 -0.2307 -0.0448
 5785SOL    HW128988   1.587   0.963   5.067 -2.2880 -0.8097 -1.9828
 5785SOL    HW228989   1.681   0.867   5.128 -0.2827 -0.5494  0.5564
 5786SOL     OW28990   1.824   1.878  17.493  0.0849  0.2235  0.1888
 5786SOL    HW128991   1.839   1.947  17.558  4.8615 -1.2905  0.6248
 5786SOL    HW228992   1.866   1.805  17.539  1.2650 -0.4859 -2.0250
 5787SOL     OW28993   0.204   2.744   4.662  0.1974  0.4880  0.1675
 5787SOL    HW128994   0.121   2.759   4.706  0.4340  1.2333  0.3549
 5787SOL    HW228995   0.214   2.827   4.616  1.6109 -0.6437 -1.5629
 5788SOL     OW28996   3.175   0.949   2.189 -0.1439 -0.0222  0.3468
 5788SOL    HW128997   3.125   1.019   2.230  0.6498  0.7799 -0.0734
 5788SOL    HW228998   3.123   0.915   2.116  1.0789  0.0101 -0.5338
 5789SOL     OW28999   2.034   3.375   7.519  0.4112  0.2744 -0.1232
 5789SOL    HW129000   2.070   3.307   7.576 -1.2224 -0.4889  0.0070
 5789SOL    HW229001   2.112   3.421   7.488  0.2467  1.6079  1.4377
 5790SOL     OW29002   1.260   0.630   1.685  0.1091 -0.2208 -0.0898
 5790SOL    HW129003   1.313   0.564   1.731  0.0966 -0.9475 -1.1121
 5790SOL    HW229004   1.190   0.581   1.643  1.4525 -3.9015  1.9467
 5791SOL     OW29005   0.508   4.559   8.840 -0.4279  0.0416  0.2772
 5791SOL    HW129006   0.541   4.601   8.919  0.4885 -0.5206  0.1893
 5791SOL    HW229007   0.535   4.470   8.858 -0.3835  0.1461  0.7305
 5792SOL     OW29008   2.983   2.042   4.899 -0.4347  0.0154  0.2409
 5792SOL    HW129009   2.954   2.064   4.810  1.0907  0.4318 -0.1496
 5792SOL    HW229010   2.995   1.947   4.897 -0.7068 -0.0185  0.2789
 5793SOL     OW29011   0.576   4.273   1.694 -0.5820  0.1379 -0.6496
 5793SOL    HW129012   0.640   4.286   1.764  0.1039 -0.9154 -1.0647
 5793SOL    HW229013   0.521   4.351   1.694  0.2704  0.7544  1.5258
 5794SOL     OW29014   2.031   2.778  10.087 -0.3522  0.4136 -0.2074
 5794SOL    HW129015   2.115   2.783  10.040 -0.4606 -1.0097 -0.5267
 5794SOL    HW229016   2.012   2.871  10.100 -2.1919 -0.1575  1.1429
 5795SOL     OW29017   4.135   1.698   3.676  0.0949 -0.2028  0.0849
 5795SOL    HW129018   4.111   1.609   3.652 -0.0598 -0.0226 -0.4206
 5795SOL    HW229019   4.135   1.747   3.594  2.5987  0.2166  0.3542
 5796SOL     OW29020   1.920   0.493   7.189 -0.4220 -0.0233 -0.2025
 5796SOL    HW129021   1.873   0.468   7.269  2.0631 -1.9099  0.6808
 5796SOL    HW229022   1.922   0.588   7.200 -1.1812 -0.1920  1.5259
 5797SOL     OW29023   4.408   2.597   9.080 -0.3877  0.6049 -0.1434
 5797SOL    HW129024   4.440   2.518   9.036 -1.8007 -0.4268  0.6915
 5797SOL    HW229025   4.314   2.592   9.064 -0.2807 -2.7467  0.3243
 5798SOL     OW29026   1.228   4.615  14.062 -0.4808  0.3855  0.5549
 5798SOL    HW129027   1.200   4.641  13.974 -0.2285 -0.4469  0.2262
 5798SOL    HW229028   1.148   4.623  14.113 -0.1286 -0.9190  1.3068
 5799SOL     OW29029   2.096   0.548  12.341  0.1048  0.3679  0.4568
 5799SOL    HW129030   2.114   0.642  12.346 -3.9989  1.2469 -0.8223
 5799SOL    HW229031   2.184   0.523  12.314 -0.7282 -3.1783  1.1402
 5800SOL     OW29032   4.676   0.364  10.277 -0.1493 -0.0808  0.0149
 5800SOL    HW129033   4.597   0.389  10.229 -0.3441 -0.6050  0.0677
 5800SOL    HW229034   4.666   0.429  10.347  1.0704 -0.7798  0.8421
 5801SOL     OW29035   3.302   1.899  10.388  0.2405  0.4046  0.0902
 5801SOL    HW129036   3.242   1.872  10.319  1.0462  1.0081 -0.8353
 5801SOL    HW229037   3.246   1.953  10.445 -3.2194 -1.4064 -1.6136
 5802SOL     OW29038   0.093   3.141   1.108  0.3155  0.1136 -0.1090
 5802SOL    HW129039   0.064   3.226   1.074 -1.5201 -0.0120  1.1926
 5802SOL    HW229040   0.118   3.096   1.027 -0.4124  0.4335 -0.5139
 5803SOL     OW29041   1.106   0.292   3.000  0.2646  0.2689 -0.5798
 5803SOL    HW129042   1.092   0.275   3.094  1.0781  0.8257 -0.3659
 5803SOL    HW229043   1.017   0.311   2.970 -0.8155 -0.8471  1.9064
 5804SOL     OW29044   3.582   1.400   3.070 -0.1632  0.2803 -0.0977
 5804SOL    HW129045   3.623   1.429   3.151 -1.7045 -0.1705  0.8256
 5804SOL    HW229046   3.493   1.373   3.093 -0.1751  1.7165  1.5074
 5805SOL     OW29047   1.857   2.937  16.664 -0.2500 -0.0837 -1.0907
 5805SOL    HW129048   1.916   2.954  16.737 -0.5660 -0.8621 -0.6561
 5805SOL    HW229049   1.889   2.993  16.593 -1.2702  1.2366 -0.5080
 5806SOL     OW29050   0.622   4.241   7.937  0.4791 -0.0065 -0.0436
 5806SOL    HW129051   0.600   4.173   8.001  3.1577 -1.2023 -0.3965
 5806SOL    HW229052   0.610   4.314   7.998  0.7002 -0.6377  0.7600
 5807SOL     OW29053   4.135   2.095   9.492  0.3698 -0.0354 -0.4092
 5807SOL    HW129054   4.226   2.084   9.519  0.5009  1.2015 -0.3486
 5807SOL    HW229055   4.115   2.187   9.508 -3.0724 -0.6058 -1.4054
 5808SOL     OW29056   4.254   0.440  11.551 -0.1659 -0.4786 -0.0771
 5808SOL    HW129057   4.167   0.477  11.565 -0.4302 -1.7318  1.6151
 5808SOL    HW229058   4.236   0.347  11.565 -0.0503 -0.2596  1.5542
 5809SOL     OW29059   0.492   1.655   7.624 -0.2936  0.3068  0.1307
 5809SOL    HW129060   0.564   1.653   7.561 -0.0145 -0.9155  0.4903
 5809SOL    HW229061   0.416   1.662   7.566 -1.4426 -0.8985  1.4766
 5810SOL     OW29062   3.271   4.017   6.695  0.3131 -0.0784 -0.2848
 5810SOL    HW129063   3.340   3.952   6.709 -0.9459 -1.5195 -0.8179
 5810SOL    HW229064   3.212   3.992   6.766  1.4509  0.3949  0.8319
 5811SOL     OW29065   3.210   0.004   3.940 -0.5187  0.5463  0.3115
 5811SOL    HW129066   3.162   0.000   4.023  2.3044 -0.5055  1.9136
 5811SOL    HW229067   3.199   4.650   3.912  1.2166  0.3763  0.1673
 5812SOL     OW29068   4.164   1.104   4.851  0.0519  0.1422  0.6030
 5812SOL    HW129069   4.104   1.176   4.866  0.2485  0.0372  1.9155
 5812SOL    HW229070   4.246   1.132   4.891  1.1336  0.2372 -1.7388
 5813SOL     OW29071   4.161   4.674   6.769  0.1971  0.3904 -0.5113
 5813SOL    HW129072   4.216   4.631   6.703  1.4198  2.1299 -0.6027
 5813SOL    HW229073   4.102   4.727   6.716 -1.2482 -0.4983  0.1919
 5814SOL     OW29074   2.397   4.050  13.542  0.8301 -0.6894  0.4154
 5814SOL    HW129075   2.454   4.125  13.525  0.0920  0.2952  2.2596
 5814SOL    HW229076   2.329   4.054  13.475  1.3145  1.3454  0.0427
 5815SOL     OW29077   2.418   3.062   3.389 -0.0534 -0.1191  0.2150
 5815SOL    HW129078   2.372   2.978   3.394  1.5512 -0.9034  1.5699
 5815SOL    HW229079   2.364   3.089   3.315 -0.8367 -0.6989  0.5774
 5816SOL     OW29080   1.275   3.224   2.771  0.2055  0.5475 -0.3357
 5816SOL    HW129081   1.239   3.241   2.684 -3.4714 -0.9842  0.8743
 5816SOL    HW229082   1.263   3.129   2.768 -0.6233  0.7413 -2.9973
 5817SOL     OW29083   1.358   2.179   7.365 -0.2322  0.3523 -0.3248
 5817SOL    HW129084   1.428   2.244   7.368 -0.1882  0.3305 -1.0576
 5817SOL    HW229085   1.378   2.137   7.281 -1.2370 -0.9570  0.0844
 5818SOL     OW29086   1.435   2.198   3.976 -0.9023  0.3098 -0.0592
 5818SOL    HW129087   1.348   2.217   4.012 -1.9191  0.4536 -2.6176
 5818SOL    HW229088   1.474   2.284   3.987 -0.1545 -0.0205 -0.1254
 5819SOL     OW29089   1.135   0.425   3.441  0.1363  0.3960 -0.5654
 5819SOL    HW129090   1.168   0.421   3.531 -2.5012  0.6045  0.3976
 5819SOL    HW229091   1.186   0.496   3.401  0.8726 -0.3167 -0.9075
 5820SOL     OW29092   1.304   1.813  10.872 -0.1602  0.2245  1.1019
 5820SOL    HW129093   1.320   1.858  10.789 -0.1086 -3.7368 -1.0369
 5820SOL    HW229094   1.392   1.776  10.874 -1.1092 -2.0586  0.1902
 5821SOL     OW29095   3.615   0.513  12.916  0.1246  0.8035  0.0177
 5821SOL    HW129096   3.656   0.427  12.903  2.9934  2.3264 -1.0165
 5821SOL    HW229097   3.644   0.563  12.840 -0.3821 -1.3627 -1.6071
 5822SOL     OW29098   0.391   3.112   2.664  0.1998 -0.2400 -0.0110
 5822SOL    HW129099   0.400   3.113   2.759 -0.3361 -0.1585  0.0404
 5822SOL    HW229100   0.361   3.202   2.651  0.4908 -0.3208 -1.2093
 5823SOL     OW29101   1.478   2.940   2.652  0.2403 -0.6528 -0.4833
 5823SOL    HW129102   1.532   2.993   2.711 -1.1661  1.8171 -1.3756
 5823SOL    HW229103   1.433   2.889   2.719  2.4672 -0.3243  1.2421
 5824SOL     OW29104   0.026   0.229   2.641 -0.4823  0.0508  0.1051
 5824SOL    HW129105   4.679   0.276   2.645  0.6020  2.0689 -0.5897
 5824SOL    HW229106   0.041   0.212   2.734 -0.2341 -2.2417 -0.3561
 5825SOL     OW29107   2.731   0.349   2.125 -0.3672  0.5475 -0.0274
 5825SOL    HW129108   2.750   0.417   2.060  1.9198  0.4240  0.5140
 5825SOL    HW229109   2.695   0.283   2.066 -1.7462  0.3503  1.0461
 5826SOL     OW29110   1.780   2.311   3.632  0.0829  0.3126  0.0136
 5826SOL    HW129111   1.688   2.285   3.624 -0.0826  0.2861  1.9010
 5826SOL    HW229112   1.808   2.234   3.583 -2.2251 -1.0500  0.8001
 5827SOL     OW29113   0.484   1.838   4.709 -0.5777  0.3988 -0.1887
 5827SOL    HW129114   0.552   1.830   4.775  0.7422 -1.8729 -1.8355
 5827SOL    HW229115   0.411   1.871   4.762  0.0098  1.0703  0.1987
 5828SOL     OW29116   0.942   4.389   8.091  0.1455  0.4293  0.6838
 5828SOL    HW129117   1.006   4.340   8.142  1.2034 -0.5989 -1.6162
 5828SOL    HW229118   0.867   4.387   8.151 -0.9586  2.4484 -0.6281
 5829SOL     OW29119   3.778   2.403   4.795  0.2662  0.1213 -0.7054
 5829SOL    HW129120   3.689   2.430   4.773 -0.6503 -1.6868  0.8054
 5829SOL    HW229121   3.820   2.427   4.712  1.9072 -0.5476 -0.0799
 5830SOL     OW29122   3.158   4.558   5.013  0.1869 -0.0336 -0.1988
 5830SOL    HW129123   3.191   4.521   4.931  2.8988 -0.1708  0.9460
 5830SOL    HW229124   3.234   4.608   5.043  0.5521 -2.5315  3.1353
 5831SOL     OW29125   0.876   1.030   8.501 -0.3806 -0.0408  0.1344
 5831SOL    HW129126   0.821   0.970   8.451  0.2566 -1.8125  1.5303
 5831SOL    HW229127   0.878   0.987   8.587  1.3382 -0.8759 -0.3297
 5832SOL     OW29128   1.092   1.515  16.747  0.3603 -0.5066  0.2323
 5832SOL    HW129129   1.091   1.610  16.735  1.0178 -0.4610  0.5104
 5832SOL    HW229130   1.040   1.502  16.827  0.4549 -2.2040  0.0054
 5833SOL     OW29131   2.176   0.443   7.129  0.2097  0.2386 -0.2058
 5833SOL    HW129132   2.201   0.357   7.162  0.8589 -0.1398 -1.6892
 5833SOL    HW229133   2.081   0.440   7.140  0.3659  0.3889  1.2367
 5834SOL     OW29134   1.231   3.760   1.991  0.5205  0.4007  0.2719
 5834SOL    HW129135   1.307   3.705   1.971  0.6969  0.6210  0.3327
 5834SOL    HW229136   1.156   3.723   1.943  0.6749 -0.1116  0.4294
 5835SOL     OW29137   0.047   0.466   9.976  0.0594 -0.3796 -0.0058
 5835SOL    HW129138   0.021   0.525  10.046  1.7558 -0.9992  1.1498
 5835SOL    HW229139   0.141   0.464   9.992  0.0817 -1.7552 -0.2852
 5836SOL     OW29140   1.256   3.901  15.531  0.1463  0.2753  0.2223
 5836SOL    HW129141   1.188   3.968  15.543  0.2330  0.6875 -1.5565
 5836SOL    HW229142   1.199   3.827  15.553  2.9022 -1.0109  3.0177
 5837SOL     OW29143   1.390   2.661   3.833  0.3238  0.2747 -0.3440
 5837SOL    HW129144   1.438   2.719   3.892  3.1361 -2.0662 -0.3753
 5837SOL    HW229145   1.407   2.576   3.873 -0.8965  0.1294 -0.1427
 5838SOL     OW29146   4.366   0.161  11.341 -0.6441 -0.5951  0.3015
 5838SOL    HW129147   4.349   0.074  11.306  1.2881 -0.4538 -0.9855
 5838SOL    HW229148   4.287   0.175  11.394 -0.1049  1.5532  0.5610
 5839SOL     OW29149   0.552   2.360   1.582 -0.4146  0.4871 -0.1553
 5839SOL    HW129150   0.467   2.404   1.582 -1.3560 -1.3165  0.8103
 5839SOL    HW229151   0.591   2.401   1.659 -2.2376  0.3552  0.8354
 5840SOL     OW29152   0.076   3.671   8.391 -0.0867 -0.3890 -0.2195
 5840SOL    HW129153   0.008   3.718   8.441  0.7915  0.4080  0.2234
 5840SOL    HW229154   0.142   3.740   8.382  1.6334 -2.0205  0.1251
 5841SOL     OW29155   0.127   2.460   4.079 -0.0856  0.6834  0.0842
 5841SOL    HW129156   0.138   2.475   4.173  0.1057 -1.3978  0.3792
 5841SOL    HW229157   0.204   2.497   4.036 -0.7917  0.8105 -1.0706
 5842SOL     OW29158   0.216   0.780  11.298 -0.3978 -0.3143  0.6807
 5842SOL    HW129159   0.270   0.838  11.244 -0.4934  0.7430  1.7202
 5842SOL    HW229160   0.134   0.827  11.310 -0.8463 -0.6195 -1.0701
 5843SOL     OW29161   1.050   3.590   2.554 -0.5635  0.4690  0.0727
 5843SOL    HW129162   0.982   3.656   2.551 -0.6037  0.4777  1.2021
 5843SOL    HW229163   1.103   3.615   2.630  1.5860 -0.7012 -1.0226
 5844SOL     OW29164   2.652   1.582   2.029 -0.7207 -0.4145  0.1921
 5844SOL    HW129165   2.677   1.534   1.950  1.7081  0.6001  0.3097
 5844SOL    HW229166   2.733   1.614   2.070 -1.0812 -1.6375  1.8400
 5845SOL     OW29167   4.681   1.032  10.170 -0.4723 -0.3245  0.0381
 5845SOL    HW129168   4.653   1.076  10.090  0.3802  0.8986  0.4042
 5845SOL    HW229169   4.691   1.102  10.235  1.0537 -0.8406  0.3660
 5846SOL     OW29170   3.817   3.129   2.320  0.3073  0.2861 -0.2252
 5846SOL    HW129171   3.895   3.079   2.345  1.7530  2.7692  0.2477
 5846SOL    HW229172   3.851   3.216   2.297 -0.4082  0.0295 -2.2578
 5847SOL     OW29173   1.453   3.345   5.026  0.4051 -0.2975 -0.2293
 5847SOL    HW129174   1.478   3.423   5.074 -0.3408 -1.0710  1.4078
 5847SOL    HW229175   1.534   3.319   4.983 -0.9882 -0.7737 -2.6201
 5848SOL     OW29176   4.723   0.184   2.076  0.3603 -0.1101  0.5585
 5848SOL    HW129177   0.027   0.126   2.140 -1.1830  1.5012  3.0037
 5848SOL    HW229178   0.061   0.205   2.020  1.4116 -2.3673  1.1223
 5849SOL     OW29179   3.357   3.360  10.682 -0.0566 -0.0471  0.6888
 5849SOL    HW129180   3.338   3.393  10.770  2.6454 -2.4601  2.1908
 5849SOL    HW229181   3.406   3.282  10.708 -1.4678 -1.2955 -0.4459
 5850SOL     OW29182   0.494   0.835   9.491  0.3896  0.1923  0.1000
 5850SOL    HW129183   0.486   0.894   9.566  1.2138  2.8097 -1.8941
 5850SOL    HW229184   0.549   0.884   9.430 -0.4054 -0.5208 -1.2075
 5851SOL     OW29185   1.726   3.531  13.275 -0.1887  0.4995  0.1496
 5851SOL    HW129186   1.799   3.543  13.336  0.1642  1.1935 -0.4090
 5851SOL    HW229187   1.643   3.534  13.322  0.3050 -0.0415  1.0664
 5852SOL     OW29188   1.407   1.894  14.763  0.3949  0.2334 -0.2042
 5852SOL    HW129189   1.487   1.855  14.798 -0.4554 -0.6030  0.8278
 5852SOL    HW229190   1.390   1.958  14.831 -0.4185 -0.0112 -0.1752
 5853SOL     OW29191   0.111   1.325   5.225  0.2360  0.9349  0.3460
 5853SOL    HW129192   0.110   1.294   5.315  0.1597 -0.2544 -0.0692
 5853SOL    HW229193   0.099   1.418   5.244  0.1727  1.1544 -0.7572
 5854SOL     OW29194   0.664   2.580   8.081 -0.2325  0.4643 -0.5266
 5854SOL    HW129195   0.574   2.597   8.108 -0.2597 -3.2759  1.7996
 5854SOL    HW229196   0.718   2.650   8.118  2.5520 -2.0228  0.1031
 5855SOL     OW29197   4.048   3.420   4.387  0.1292  0.2059  0.0530
 5855SOL    HW129198   4.139   3.411   4.416 -0.1197  1.3580  1.1405
 5855SOL    HW229199   4.052   3.376   4.302  0.5338  1.4431 -0.5657
 5856SOL     OW29200   2.321   2.550  16.169 -0.5552 -0.0402  0.0071
 5856SOL    HW129201   2.330   2.455  16.177  0.9314 -0.1222 -2.6463
 5856SOL    HW229202   2.315   2.585  16.258  0.3657 -2.0822  0.8912
 5857SOL     OW29203   3.185   3.465   5.825 -0.1589 -0.4124 -0.0626
 5857SOL    HW129204   3.091   3.477   5.809 -0.3494 -0.7457  0.8425
 5857SOL    HW229205   3.231   3.548   5.810 -0.5499 -0.3806 -1.1358
 5858SOL     OW29206   3.992   1.296   8.432 -0.1908  0.1782 -0.2913
 5858SOL    HW129207   4.018   1.235   8.500 -1.6074  0.4044  0.4544
 5858SOL    HW229208   3.956   1.370   8.482 -1.0277  0.4570 -1.2892
 5859SOL     OW29209   4.385   4.724   1.370  0.3214 -0.2931  0.1680
 5859SOL    HW129210   4.424   4.686   1.291  0.5725  0.2049  0.0522
 5859SOL    HW229211   4.420   0.076   1.367 -0.1482 -0.1354 -0.4754
 5860SOL     OW29212   4.107   0.213   6.386 -0.1633  0.2080 -0.3197
 5860SOL    HW129213   4.065   0.241   6.305 -1.1478  0.2447  0.1961
 5860SOL    HW229214   4.075   0.124   6.373 -0.9819  0.4136  0.3055
 5861SOL     OW29215   4.632   4.440   0.999 -0.3140  0.0465  0.0597
 5861SOL    HW129216   4.713   4.400   1.030  0.0097  1.6163  1.2515
 5861SOL    HW229217   4.606   4.366   0.944  3.3437 -1.8053  0.8614
 5862SOL     OW29218   1.357   2.283  14.129 -0.0492 -0.6800  0.0142
 5862SOL    HW129219   1.352   2.276  14.033 -1.3775 -2.3658  0.2060
 5862SOL    HW229220   1.433   2.233  14.155  0.7342 -0.2161 -1.3750
 5863SOL     OW29221   0.798   2.254  10.273 -0.2618 -0.0961  0.0938
 5863SOL    HW129222   0.821   2.194  10.344  1.1185  0.9344  0.4984
 5863SOL    HW229223   0.708   2.221  10.276  0.0904 -0.9760  1.0954
 5864SOL     OW29224   0.051   0.024   0.570  0.2662  0.1956 -0.1431
 5864SOL    HW129225   0.030   4.667   0.569  0.2139  0.2092 -0.2630
 5864SOL    HW229226   0.051   0.050   0.478  0.1495 -0.4867 -0.3326
 5865SOL     OW29227   4.654   0.266   5.155  0.3239  0.6775  0.5752
 5865SOL    HW129228   4.595   0.339   5.175 -2.1728 -0.7592 -1.7191
 5865SOL    HW229229   4.734   0.308   5.188  1.0806  0.7971 -1.4499
 5866SOL     OW29230   3.810   1.282   4.602 -0.0546  0.0678 -0.0008
 5866SOL    HW129231   3.778   1.245   4.519 -1.8258  0.5228  0.4853
 5866SOL    HW229232   3.882   1.339   4.575 -2.5731  3.2181 -0.0232
 5867SOL     OW29233   2.302   0.360  12.371  0.6445  0.2289 -0.5182
 5867SOL    HW129234   2.267   0.286  12.321 -0.1913 -0.0371  0.4641
 5867SOL    HW229235   2.246   0.345  12.447  2.1790  0.2387  0.5989
 5868SOL     OW29236   1.194   4.457   2.417  0.2560 -0.1339  0.0163
 5868SOL    HW129237   1.248   4.411   2.482 -0.4676 -0.2162  0.5603
 5868SOL    HW229238   1.257   4.482   2.350 -0.7168  0.2191 -0.7687
 5869SOL     OW29239   4.249   0.494  16.519 -0.5640 -0.0052  0.2348
 5869SOL    HW129240   4.182   0.490  16.451  0.9360 -0.6195 -1.1977
 5869SOL    HW229241   4.185   0.484  16.589  0.8186 -1.6124  1.2757
 5870SOL     OW29242   1.362   3.257   6.490  0.0271  0.1039  0.1309
 5870SOL    HW129243   1.402   3.208   6.562  1.1926 -0.8114 -1.1577
 5870SOL    HW229244   1.439   3.311   6.474 -2.3209  2.6820 -2.5639
 5871SOL     OW29245   0.656   0.072   8.833  0.0332 -0.1719  0.3051
 5871SOL    HW129246   0.725   0.010   8.808  1.5204 -0.5528  5.2767
 5871SOL    HW229247   0.681   0.086   8.925  1.6730  0.2504 -0.2188
 5872SOL     OW29248   0.681   0.199   9.114 -0.0790 -0.0555  0.7109
 5872SOL    HW129249   0.717   0.286   9.098 -1.6213  0.2843 -0.8900
 5872SOL    HW229250   0.610   0.226   9.174  0.3636 -0.6205  1.4862
 5873SOL     OW29251   0.277   0.834   5.669 -0.4061 -0.3997 -0.6660
 5873SOL    HW129252   0.300   0.883   5.590 -3.5123  0.8446 -0.7861
 5873SOL    HW229253   0.358   0.840   5.719  1.5141  0.6136 -3.9072
 5874SOL     OW29254   0.927   0.669  11.602  0.4687 -0.5611 -0.2142
 5874SOL    HW129255   0.890   0.756  11.589  0.6867 -0.3896  0.2880
 5874SOL    HW229256   0.848   0.617  11.590  1.1193 -1.3571 -1.0649
 5875SOL     OW29257   0.966   2.200   2.144  0.3313 -0.0820 -0.3140
 5875SOL    HW129258   0.909   2.251   2.202  0.5390 -1.5785  1.2162
 5875SOL    HW229259   1.019   2.149   2.206 -1.3092  0.0763  1.2284
 5876SOL     OW29260   4.570   1.704   2.011  0.8648 -0.1797 -0.0043
 5876SOL    HW129261   4.491   1.659   2.037  0.4803  0.3954 -0.1717
 5876SOL    HW229262   4.549   1.728   1.920  2.7103 -3.0868 -1.2046
 5877SOL     OW29263   0.429   4.411   3.045  0.4188 -0.2832  0.2226
 5877SOL    HW129264   0.406   4.429   2.954 -0.2041 -1.7303  0.1068
 5877SOL    HW229265   0.515   4.376   3.022 -1.2655 -3.7592 -0.7966
 5878SOL     OW29266   4.516   1.997   4.392  0.1418 -1.0669  0.7484
 5878SOL    HW129267   4.510   2.088   4.420 -0.0416 -1.2672  1.3764
 5878SOL    HW229268   4.501   1.969   4.483 -2.8291 -2.5357 -0.2065
 5879SOL     OW29269   1.622   1.151   3.050 -0.1688  0.1593 -0.5539
 5879SOL    HW129270   1.645   1.063   3.081  0.6150  0.5915  0.0827
 5879SOL    HW229271   1.694   1.203   3.084 -1.4681  0.9822  0.9399
 5880SOL     OW29272   2.022   1.053   1.610 -0.1135  0.2951 -0.3756
 5880SOL    HW129273   1.963   1.035   1.537 -1.0908  1.3640  0.1373
 5880SOL    HW229274   1.970   1.114   1.663 -0.5879  1.5547 -2.2925
 5881SOL     OW29275   0.287   1.882  13.777 -0.0972  0.3880 -0.0449
 5881SOL    HW129276   0.310   1.801  13.731 -1.0631 -0.3199  0.7064
 5881SOL    HW229277   0.331   1.954  13.733  0.4460  0.7683  1.1364
 5882SOL     OW29278   1.044   2.149   1.868  0.3325 -0.1124 -0.1287
 5882SOL    HW129279   1.139   2.144   1.880  0.4843  1.2902 -0.7338
 5882SOL    HW229280   1.010   2.150   1.957  0.8876  2.1757  0.0523
 5883SOL     OW29281   4.419   3.100   8.444 -0.1522  0.1205 -0.7219
 5883SOL    HW129282   4.345   3.160   8.457 -0.1928 -0.0986  0.0399
 5883SOL    HW229283   4.391   3.058   8.362 -0.6264 -0.4657 -0.2608
 5884SOL     OW29284   4.380   4.254   7.218  0.4649  0.2283  0.1647
 5884SOL    HW129285   4.339   4.183   7.169 -0.7428  0.2284  1.1960
 5884SOL    HW229286   4.378   4.331   7.161 -0.0455 -0.4854 -0.7706
 5885SOL     OW29287   0.268   3.069  10.444 -0.7172 -0.0148  0.0623
 5885SOL    HW129288   0.295   3.160  10.459  0.8700 -0.6395  0.9853
 5885SOL    HW229289   0.352   3.023  10.450 -1.0889 -0.9995 -2.3863
 5886SOL     OW29290   2.109   0.368   6.025  0.1694 -0.0654  0.1779
 5886SOL    HW129291   2.104   0.273   6.029 -1.0648 -0.0841 -1.9838
 5886SOL    HW229292   2.194   0.374   5.982  0.0670 -0.7826 -0.1177
 5887SOL     OW29293   4.414   2.587   5.218  0.1015 -0.3335 -0.7660
 5887SOL    HW129294   4.413   2.656   5.284  0.6637  0.3941 -1.5182
 5887SOL    HW229295   4.404   2.513   5.277 -1.0809  1.3635  1.1370
 5888SOL     OW29296   1.998   1.888   8.166 -0.1059 -0.0489  0.0687
 5888SOL    HW129297   1.967   1.864   8.254  0.1138 -0.9805 -0.1033
 5888SOL    HW229298   1.977   1.807   8.120 -1.7991  0.3150  0.1734
 5889SOL     OW29299   2.375   3.716   8.268  0.2841  0.2275 -0.3700
 5889SOL    HW129300   2.298   3.741   8.217  0.1138 -0.9933 -0.6967
 5889SOL    HW229301   2.387   3.796   8.320  1.5490  1.4532 -2.5336
 5890SOL     OW29302   3.374   1.676   7.807  0.2489  0.0309  1.1206
 5890SOL    HW129303   3.300   1.731   7.781 -0.6899 -0.1175  3.4106
 5890SOL    HW229304   3.332   1.590   7.803  1.2463 -0.5060  2.1847
 5891SOL     OW29305   1.804   0.958   8.455  0.6077 -0.4446  0.4574
 5891SOL    HW129306   1.745   0.928   8.385  2.1123  0.3487 -1.1463
 5891SOL    HW229307   1.842   0.874   8.482 -0.3583 -1.5375 -1.5399
 5892SOL     OW29308   4.276   0.457   3.294  0.5427 -0.4880 -0.2001
 5892SOL    HW129309   4.342   0.483   3.229 -0.5684 -1.4356 -1.6919
 5892SOL    HW229310   4.220   0.404   3.237 -1.0467  2.4099 -1.3537
 5893SOL     OW29311   0.817   2.576   5.900  0.2870  0.0919 -0.1594
 5893SOL    HW129312   0.892   2.616   5.944  1.4336 -0.1073 -1.9014
 5893SOL    HW229313   0.824   2.610   5.811  0.6541 -0.2992 -0.2837
 5894SOL     OW29314   2.870   3.645   6.446  0.0241  0.8396  0.6610
 5894SOL    HW129315   2.947   3.663   6.392  0.4708  0.2568  1.1079
 5894SOL    HW229316   2.895   3.554   6.464 -0.2158  0.5447 -0.5116
 5895SOL     OW29317   4.091   1.239   1.925  0.1160 -0.0266 -0.1493
 5895SOL    HW129318   4.018   1.251   1.864  0.9483  1.6899 -0.8181
 5895SOL    HW229319   4.054   1.275   2.005 -0.5269  1.7416 -1.2255
 5896SOL     OW29320   1.833   0.751   6.359  0.3827 -0.1178 -0.6558
 5896SOL    HW129321   1.849   0.713   6.273 -1.7575 -2.3135 -0.0919
 5896SOL    HW229322   1.922   0.739   6.393 -1.0036 -3.7503  1.7273
 5897SOL     OW29323   2.742   3.294  11.362  0.1925 -0.0934  0.1801
 5897SOL    HW129324   2.689   3.216  11.375 -0.5996  0.4002 -0.0671
 5897SOL    HW229325   2.684   3.345  11.305 -0.7479 -0.9062  0.4054
 5898SOL     OW29326   1.226   3.672   8.841 -0.3777 -0.0061  0.5341
 5898SOL    HW129327   1.280   3.676   8.763 -1.7856  0.1951 -0.4370
 5898SOL    HW229328   1.144   3.712   8.812  0.0088  0.5450  0.2094
 5899SOL     OW29329   0.823   3.467   6.090 -0.6230  0.2306  0.0266
 5899SOL    HW129330   0.905   3.451   6.137 -1.1867 -1.3499  0.4659
 5899SOL    HW229331   0.812   3.562   6.096  1.9793  0.6746 -1.8399
 5900SOL     OW29332   0.747   4.283   5.896 -0.1507  0.1519  0.4108
 5900SOL    HW129333   0.685   4.303   5.825  1.4247 -2.4227 -1.6898
 5900SOL    HW229334   0.832   4.282   5.852 -0.1740  1.7589  0.3561
 5901SOL     OW29335   0.919   2.781   5.102  0.6385  0.2988  0.5281
 5901SOL    HW129336   0.954   2.704   5.147 -2.5812 -0.8390  1.1106
 5901SOL    HW229337   0.825   2.766   5.111  0.2127  2.0368 -0.9438
 5902SOL     OW29338   1.832   4.288   7.639 -0.1005  0.1280 -0.0306
 5902SOL    HW129339   1.839   4.381   7.662  0.8924  0.3720 -1.2959
 5902SOL    HW229340   1.836   4.299   7.544 -0.0862  0.3529 -0.0037
 5903SOL     OW29341   3.922   0.933  10.971 -0.3836  0.0542 -0.3835
 5903SOL    HW129342   3.893   0.843  10.954  2.2893 -0.8115 -0.3618
 5903SOL    HW229343   3.855   0.973  10.915 -1.4450 -1.7528 -0.3966
 5904SOL     OW29344   0.879   3.322   6.656 -0.6387  0.3688  0.2091
 5904SOL    HW129345   0.831   3.251   6.615 -0.1020 -0.8308  1.6728
 5904SOL    HW229346   0.892   3.289   6.745  0.7079 -0.4881 -0.3116
 5905SOL     OW29347   4.268   4.234   8.086 -0.4601  0.4944 -0.0587
 5905SOL    HW129348   4.257   4.314   8.034 -0.6095  0.4618 -0.0768
 5905SOL    HW229349   4.362   4.229   8.067 -0.3820  0.3282  0.3738
 5906SOL     OW29350   3.159   3.747   6.906 -0.2045  0.1289 -0.3728
 5906SOL    HW129351   3.083   3.762   6.851  0.5611 -0.5781 -1.6082
 5906SOL    HW229352   3.186   3.671   6.855 -0.2391  0.9482 -1.6090
 5907SOL     OW29353   1.389   1.997  12.167 -0.0924  0.5680 -0.1978
 5907SOL    HW129354   1.397   1.954  12.253  1.4748  1.4197  0.0805
 5907SOL    HW229355   1.318   2.052  12.200 -1.5206 -2.2293  1.4057
 5908SOL     OW29356   3.725   1.108  13.486 -0.0476  0.0956 -0.2254
 5908SOL    HW129357   3.683   1.069  13.410 -2.5022 -0.7898  1.5881
 5908SOL    HW229358   3.753   1.190  13.444  0.8686 -1.0063 -1.7608
 5909SOL     OW29359   0.458   3.663   2.628  0.2490  0.2640 -0.1572
 5909SOL    HW129360   0.443   3.572   2.602  1.9616 -0.8966  2.8333
 5909SOL    HW229361   0.378   3.677   2.679  0.0254  0.3706 -0.5415
 5910SOL     OW29362   3.434   0.898  15.476  0.4043  0.6226 -0.5961
 5910SOL    HW129363   3.363   0.837  15.495  0.3713  1.7244  2.8320
 5910SOL    HW229364   3.506   0.843  15.445  0.0667  0.2189 -0.6506
 5911SOL     OW29365   0.530   4.376   3.613  0.2288  0.3871 -0.4474
 5911SOL    HW129366   0.620   4.408   3.623  0.4029 -0.5316  1.0070
 5911SOL    HW229367   0.550   4.311   3.545 -2.9084  0.1599 -1.1236
 5912SOL     OW29368   1.362   3.234   8.340 -0.2137  0.0073 -0.9230
 5912SOL    HW129369   1.368   3.244   8.435  0.0610 -1.6252 -0.7678
 5912SOL    HW229370   1.270   3.210   8.326 -0.7349  0.0914  2.3726
 5913SOL     OW29371   3.842   2.820   3.496  0.0017 -0.4128 -0.9949
 5913SOL    HW129372   3.763   2.792   3.542  0.6018 -0.1640  0.1715
 5913SOL    HW229373   3.902   2.774   3.554 -0.6483 -0.5309 -0.4155
 5914SOL     OW29374   3.025   3.930   2.302 -0.1714 -0.1247  0.1758
 5914SOL    HW129375   2.945   3.949   2.351  0.4521  2.3240  0.2676
 5914SOL    HW229376   2.992   3.911   2.215  1.1171  0.0666 -0.3572
 5915SOL     OW29377   2.957   4.547   6.349  0.2245  0.0411 -0.0521
 5915SOL    HW129378   2.949   4.515   6.259  2.0906  1.5167 -0.7454
 5915SOL    HW229379   3.038   4.506   6.380 -1.2874 -2.4958  0.5266
 5916SOL     OW29380   2.458   2.096   0.689  0.1597 -0.0316  0.5527
 5916SOL    HW129381   2.473   2.186   0.660  1.6880 -0.9373 -1.4901
 5916SOL    HW229382   2.370   2.114   0.721 -1.5373 -4.1264 -1.8179
 5917SOL     OW29383   2.658   0.009   5.639 -1.0482  0.1228  0.1226
 5917SOL    HW129384   2.629   0.095   5.668 -0.1660  0.3735  0.2820
 5917SOL    HW229385   2.585   4.706   5.592 -1.3922  1.1920 -0.2343
 5918SOL     OW29386   3.727   1.383   5.936 -0.2172  0.1666 -0.2231
 5918SOL    HW129387   3.680   1.386   5.853 -0.0498  2.8306 -0.2451
 5918SOL    HW229388   3.662   1.348   5.996 -1.2181  1.8080 -0.3482
 5919SOL     OW29389   3.507   0.919   7.568  0.0265 -0.8346  0.8041
 5919SOL    HW129390   3.525   1.008   7.540  0.2286 -1.4959 -1.1428
 5919SOL    HW229391   3.425   0.913   7.519  0.6581 -2.4309 -0.0522
 5920SOL     OW29392   0.604   2.918   2.604  0.0847  0.1031  0.5620
 5920SOL    HW129393   0.599   2.845   2.543  0.8482  1.0172 -0.6020
 5920SOL    HW229394   0.513   2.926   2.633  0.3836 -0.4921  1.6668
 5921SOL     OW29395   0.382   0.016  11.344 -0.0488  0.4437 -0.1858
 5921SOL    HW129396   0.413   4.662  11.353 -1.3290 -0.1206 -1.4391
 5921SOL    HW229397   0.342   0.030  11.429 -0.1471  1.6645 -0.4333
 5922SOL     OW29398   2.301   4.631   0.060 -0.1081  0.1941  0.1286
 5922SOL    HW129399   2.211   4.637   0.026 -0.8511 -3.9453  1.3988
 5922SOL    HW229400   2.298   4.689   0.136 -0.5096 -1.4712  1.3803
 5923SOL     OW29401   2.878   2.923  15.906 -0.1601 -0.3306 -0.5794
 5923SOL    HW129402   2.892   2.998  15.849 -1.0090  1.8198  2.0382
 5923SOL    HW229403   2.927   2.852  15.864  1.0195 -1.4102  2.6214
 5924SOL     OW29404   1.512   0.754   3.565 -0.3126 -0.2449  0.4159
 5924SOL    HW129405   1.419   0.775   3.566 -0.2044  0.1461  2.0617
 5924SOL    HW229406   1.536   0.830   3.511  1.1727 -0.8412  0.2343
 5925SOL     OW29407   2.394   3.409   8.218  0.7732  0.1300  0.2294
 5925SOL    HW129408   2.366   3.326   8.256 -1.7238  1.2447  0.8212
 5925SOL    HW229409   2.345   3.469   8.274  0.0264 -0.7039  0.4604
 5926SOL     OW29410   0.944   4.400   5.238  0.2114  0.4331 -0.4259
 5926SOL    HW129411   0.873   4.345   5.202 -0.0695 -0.0687  0.8653
 5926SOL    HW229412   0.996   4.329   5.275  0.6333  1.3508  0.7316
 5927SOL     OW29413   2.912   2.920   9.363  0.0725  0.1409  0.9230
 5927SOL    HW129414   2.948   3.005   9.388 -1.4979  0.7863  0.9875
 5927SOL    HW229415   2.945   2.871   9.438  0.6720 -0.9086 -0.0286
 5928SOL     OW29416   1.527   4.010   4.013  0.3590  0.2966 -0.4970
 5928SOL    HW129417   1.543   4.060   3.933  0.2123  0.1791 -0.6006
 5928SOL    HW229418   1.443   4.047   4.041  1.5644  2.9922 -0.4559
 5929SOL     OW29419   0.970   2.353   6.097 -0.4078  0.0593  0.3603
 5929SOL    HW129420   0.935   2.412   6.030  0.5307 -1.1162 -1.1861
 5929SOL    HW229421   1.044   2.313   6.051 -0.3959 -0.0909  0.5120
 5930SOL     OW29422   2.066   3.038   9.898 -0.6593 -0.7327 -0.3278
 5930SOL    HW129423   2.026   3.037   9.985 -0.2142  2.4930 -0.0952
 5930SOL    HW229424   2.140   2.979   9.908  2.2970  2.9846 -0.2443
 5931SOL     OW29425   3.250   0.402   6.393  0.3772  0.6557 -0.1324
 5931SOL    HW129426   3.346   0.398   6.384  0.3552  1.2065 -0.6037
 5931SOL    HW229427   3.229   0.411   6.485  2.2715 -2.1426  0.6018
 5932SOL     OW29428   3.102   4.017   4.443  0.0821  0.5791 -0.2629
 5932SOL    HW129429   3.181   3.963   4.448  0.0684  0.7496  1.9670
 5932SOL    HW229430   3.153   4.095   4.464 -0.1953  1.2974 -2.2850
 5933SOL     OW29431   2.274   1.462  14.889 -0.1503  0.2049 -0.0810
 5933SOL    HW129432   2.365   1.435  14.901 -0.7023 -1.1377  1.0936
 5933SOL    HW229433   2.233   1.390  14.840  1.1296 -0.1766 -0.5853
 5934SOL     OW29434   3.251   4.476  10.135  0.7629 -0.1153  0.6588
 5934SOL    HW129435   3.314   4.543  10.163 -0.2235  1.0037  0.1986
 5934SOL    HW229436   3.272   4.475  10.042 -0.7573 -1.2589  0.3411
 5935SOL     OW29437   4.290   4.154   5.221 -0.4745 -0.1725 -0.3211
 5935SOL    HW129438   4.301   4.178   5.313 -1.0922 -0.9493 -0.0416
 5935SOL    HW229439   4.194   4.151   5.220 -0.5435  1.4444  2.5171
 5936SOL     OW29440   1.317   1.422   7.554  0.3485  0.2020 -0.5331
 5936SOL    HW129441   1.401   1.447   7.515 -0.5297  1.1305 -1.8198
 5936SOL    HW229442   1.284   1.379   7.476  2.0538 -0.5927 -0.8146
 5937SOL     OW29443   4.028   1.941  12.393  0.2498  0.0703 -0.3444
 5937SOL    HW129444   4.050   2.024  12.435  1.7071  0.2322 -1.4309
 5937SOL    HW229445   4.084   1.874  12.433 -1.7234  0.2709  2.8162
 5938SOL     OW29446   0.733   3.573   2.694 -0.4238 -0.3436  0.1075
 5938SOL    HW129447   0.817   3.612   2.674 -1.2187  0.3809 -1.8010
 5938SOL    HW229448   0.671   3.624   2.643  0.7672  2.3769  1.4067
 5939SOL     OW29449   1.258   3.192   6.771 -0.6404  0.4766 -0.0631
 5939SOL    HW129450   1.187   3.162   6.715 -1.7377 -3.0573  3.1952
 5939SOL    HW229451   1.285   3.110   6.813  1.7223  1.5732  0.5703
 5940SOL     OW29452   4.152   2.350   6.693 -0.2100 -0.9312 -0.7211
 5940SOL    HW129453   4.135   2.391   6.608 -1.3041 -2.0764 -1.0533
 5940SOL    HW229454   4.081   2.391   6.742 -0.4083 -0.9141 -1.0255
 5941SOL     OW29455   0.334   2.508   8.280  0.3665 -0.5562  0.0106
 5941SOL    HW129456   0.340   2.554   8.196  1.7360  0.3422  0.5937
 5941SOL    HW229457   0.418   2.537   8.317  0.6606 -1.9950  0.4499
 5942SOL     OW29458   2.459   3.412   3.058 -0.0110 -0.3025  0.3786
 5942SOL    HW129459   2.443   3.461   2.978 -0.6021  2.4821  2.1975
 5942SOL    HW229460   2.554   3.407   3.052  0.0505  1.4582 -0.1159
 5943SOL     OW29461   0.293   2.012   7.268 -0.3884 -0.4652 -0.3652
 5943SOL    HW129462   0.268   2.092   7.314  1.0449  0.8185 -1.8015
 5943SOL    HW229463   0.216   1.956   7.280  1.4671 -2.5724  1.5652
 5944SOL     OW29464   1.814   4.444  12.301 -0.5380 -0.1508 -0.0539
 5944SOL    HW129465   1.789   4.520  12.248 -1.9825  1.9037  3.5364
 5944SOL    HW229466   1.803   4.465  12.394  1.2145  0.5400 -0.0006
 5945SOL     OW29467   3.923   3.938   5.083  0.4023 -0.6310  0.1400
 5945SOL    HW129468   3.860   3.873   5.053  0.4375 -0.3846 -0.4556
 5945SOL    HW229469   4.011   3.908   5.060 -0.1778 -1.6523 -0.6934
 5946SOL     OW29470   2.971   1.809  11.574 -0.5278 -0.3170  0.1168
 5946SOL    HW129471   3.060   1.809  11.610 -0.2639 -2.0795 -0.5164
 5946SOL    HW229472   2.959   1.720  11.541 -0.5157 -0.2162 -0.1610
 5947SOL     OW29473   2.226   4.436  14.384 -0.1881 -0.3170 -0.4486
 5947SOL    HW129474   2.149   4.402  14.339  1.0331  0.3865 -3.0881
 5947SOL    HW229475   2.281   4.358  14.378  0.0109 -0.1362 -0.9541
 5948SOL     OW29476   2.132   1.893  12.419 -0.3859 -0.2925 -0.1157
 5948SOL    HW129477   2.176   1.977  12.427  0.0141 -0.4290 -0.8871
 5948SOL    HW229478   2.062   1.900  12.483 -0.1745 -2.5289  0.3852
 5949SOL     OW29479   2.444   0.068   4.298 -0.0776 -0.1906 -0.6163
 5949SOL    HW129480   2.502   0.125   4.349  0.6953 -1.1574 -0.4104
 5949SOL    HW229481   2.415   0.015   4.372 -0.0743  0.8523  0.1387
 5950SOL     OW29482   4.691   3.453   5.737 -0.1930  0.1768  0.1480
 5950SOL    HW129483   4.671   3.403   5.658 -1.1450 -0.5163  0.8392
 5950SOL    HW229484   4.631   3.527   5.740  0.2080  0.4578  1.2462
 5951SOL     OW29485   3.820   2.074   2.043 -0.1384  0.4818  0.2200
 5951SOL    HW129486   3.905   2.056   2.084  0.4045 -0.2942 -1.2254
 5951SOL    HW229487   3.780   2.105   2.124 -0.0641  1.2997 -0.0524
 5952SOL     OW29488   4.320   4.138   9.026 -0.4769 -0.5322 -0.1091
 5952SOL    HW129489   4.386   4.206   9.042 -0.6428 -1.3264  3.9696
 5952SOL    HW229490   4.283   4.129   9.114  0.8142 -0.0652  0.4801
 5953SOL     OW29491   2.725   2.661   1.966  0.4101 -0.1272  0.2146
 5953SOL    HW129492   2.746   2.587   2.022  0.0852 -0.5584 -0.2385
 5953SOL    HW229493   2.641   2.633   1.929  0.2064 -1.3769  1.6337
 5954SOL     OW29494   0.684   0.025   5.608  0.5987 -0.2841 -0.2156
 5954SOL    HW129495   0.686   0.014   5.513 -2.6287  0.1480 -0.3281
 5954SOL    HW229496   0.715   0.115   5.616 -0.6288 -0.0459  1.8930
 5955SOL     OW29497   4.219   2.228  17.173  0.2589  0.6034 -0.6511
 5955SOL    HW129498   4.211   2.306  17.229 -2.5602 -1.7289  2.1872
 5955SOL    HW229499   4.226   2.161  17.242  2.4121 -0.3087 -1.7662
 5956SOL     OW29500   2.983   0.639   8.292 -0.1854  0.0644 -0.2900
 5956SOL    HW129501   2.938   0.607   8.370 -1.0311 -0.5923 -1.0425
 5956SOL    HW229502   3.057   0.684   8.333 -0.7519 -0.4829  1.3297
 5957SOL     OW29503   0.735   2.139   5.913  0.3509 -0.1794  0.3914
 5957SOL    HW129504   0.788   2.207   5.871  0.4944 -1.2737 -1.1854
 5957SOL    HW229505   0.647   2.154   5.878  0.7907  0.0112 -0.6407
 5958SOL     OW29506   3.283   1.434  17.416  0.5948 -0.2725 -0.0192
 5958SOL    HW129507   3.198   1.390  17.429 -0.1479  1.1543 -0.0622
 5958SOL    HW229508   3.252   1.506  17.361  0.3607  0.2339  0.7843
 5959SOL     OW29509   1.574   1.135   8.360  0.0989  0.1005  0.4309
 5959SOL    HW129510   1.635   1.105   8.427  0.1053  1.9544  1.2593
 5959SOL    HW229511   1.564   1.228   8.378 -0.4565  0.4480 -1.5931
 5960SOL     OW29512   3.709   2.078   1.548 -0.1025  0.0526  0.1369
 5960SOL    HW129513   3.753   2.098   1.630  0.1123  0.4995 -0.0871
 5960SOL    HW229514   3.655   2.014   1.593 -1.5223 -0.1061 -1.8137
 5961SOL     OW29515   1.471   1.578   1.585  0.7694  0.0974  0.0681
 5961SOL    HW129516   1.534   1.553   1.517 -0.4870  1.9913 -1.7887
 5961SOL    HW229517   1.389   1.563   1.537  1.7172  1.4589 -1.9817
 5962SOL     OW29518   3.693   1.642  15.293 -0.3274  0.1156  0.3548
 5962SOL    HW129519   3.737   1.593  15.223 -1.6913 -0.5201 -0.0503
 5962SOL    HW229520   3.602   1.631  15.266  0.2004  0.3283 -1.5120
 5963SOL     OW29521   2.891   1.167   7.847 -0.4087 -0.3921 -0.2943
 5963SOL    HW129522   2.922   1.133   7.931 -2.5978 -0.2965  0.5564
 5963SOL    HW229523   2.811   1.202   7.885 -0.5054  1.0147 -1.8060
 5964SOL     OW29524   2.552   3.645   8.515  0.6618 -0.0228  0.5737
 5964SOL    HW129525   2.525   3.647   8.423 -0.5256  1.7207  0.9713
 5964SOL    HW229526   2.467   3.633   8.557  0.9890  1.1480  1.5670
 5965SOL     OW29527   3.270   2.433   8.134  0.3654 -0.4377  0.0306
 5965SOL    HW129528   3.207   2.363   8.115 -0.7666  0.9536 -1.4104
 5965SOL    HW229529   3.243   2.457   8.222 -0.5646 -1.8801  0.1362
 5966SOL     OW29530   4.573   4.176  14.033 -0.1842 -0.0185  0.1552
 5966SOL    HW129531   4.632   4.252  14.029  1.9773 -1.6952 -0.0105
 5966SOL    HW229532   4.585   4.160  14.126  0.4093 -0.1294  0.0644
 5967SOL     OW29533   4.642   1.131   1.256  0.7670  0.6902 -0.5144
 5967SOL    HW129534   4.706   1.068   1.222  0.9538  0.5916  0.0155
 5967SOL    HW229535   4.610   1.079   1.330  3.2472  0.8837  0.7053
 5968SOL     OW29536   4.227   1.741   2.903  0.0464 -0.1489 -0.1752
 5968SOL    HW129537   4.183   1.762   2.985 -1.4828  0.5070 -1.1813
 5968SOL    HW229538   4.197   1.653   2.882  1.1343 -0.7432  0.7611
 5969SOL     OW29539   3.199   2.575   7.894 -0.4097  0.0151  0.3569
 5969SOL    HW129540   3.226   2.551   7.982  1.9449 -0.5656 -0.5395
 5969SOL    HW229541   3.188   2.670   7.898  1.6459  0.3350 -1.7085
 5970SOL     OW29542   1.658   2.087  10.747 -0.3073 -0.0699 -0.1783
 5970SOL    HW129543   1.663   2.129  10.833 -1.7549  0.1939 -0.2165
 5970SOL    HW229544   1.602   2.011  10.761 -2.5996  1.5171 -0.5217
 5971SOL     OW29545   2.722   4.715   7.671  0.4187  0.2829  0.0908
 5971SOL    HW129546   2.775   0.007   7.596 -1.7056 -1.0666 -1.9652
 5971SOL    HW229547   2.777   0.013   7.741 -1.3909 -0.1863  1.7179
 5972SOL     OW29548   0.363   0.077   6.517 -0.7846  0.2246 -0.5533
 5972SOL    HW129549   0.373   0.172   6.520  1.1601  0.0921 -2.1922
 5972SOL    HW229550   0.431   0.060   6.451 -0.3687  0.0511 -0.0762
 5973SOL     OW29551   2.826   3.056   2.148  0.5626  0.4524 -0.1286
 5973SOL    HW129552   2.757   3.081   2.210 -0.4822  0.1291 -1.1710
 5973SOL    HW229553   2.805   3.105   2.068  0.8115 -0.6816 -0.8852
 5974SOL     OW29554   0.615   1.710   8.078 -0.1144  0.4587  0.1189
 5974SOL    HW129555   0.565   1.765   8.137 -0.8150 -1.0407  0.9207
 5974SOL    HW229556   0.552   1.644   8.050 -0.2398  0.7251 -0.2274
 5975SOL     OW29557   3.279   0.783   9.461 -0.6016 -0.2252  0.2586
 5975SOL    HW129558   3.291   0.724   9.535 -1.5463 -0.5481  0.1611
 5975SOL    HW229559   3.282   0.719   9.390 -0.5003 -1.3220  1.2484
 5976SOL     OW29560   0.183   0.095   3.311  0.5226 -0.0572  0.1967
 5976SOL    HW129561   0.227   0.103   3.226  0.4637 -2.5886 -0.0663
 5976SOL    HW229562   0.141   0.009   3.311  2.7398 -1.1512 -0.6435
 5977SOL     OW29563   2.058   1.245   4.768  0.1235 -0.3790 -0.1116
 5977SOL    HW129564   2.049   1.277   4.678  0.5942 -1.6217 -0.5990
 5977SOL    HW229565   2.114   1.168   4.763  2.4050  1.2664  0.0227
 5978SOL     OW29566   3.033   4.500  13.540 -0.3073 -0.1048 -0.2906
 5978SOL    HW129567   3.072   4.475  13.457  1.3417  0.7318  0.2337
 5978SOL    HW229568   3.065   4.590  13.547 -0.5119  0.1964 -3.2287
 5979SOL     OW29569   1.104   2.582  16.229 -0.3296  0.3155 -0.9210
 5979SOL    HW129570   1.165   2.599  16.301  0.2977 -1.7159 -0.9840
 5979SOL    HW229571   1.128   2.654  16.171 -1.0596  1.3332  0.0209
 5980SOL     OW29572   2.058   4.562  14.610  0.0835 -0.1959  0.3029
 5980SOL    HW129573   2.138   4.575  14.661  0.6781 -0.3149 -0.5951
 5980SOL    HW229574   2.099   4.516  14.537 -0.0083 -2.2886  1.5526
 5981SOL     OW29575   3.037   1.280   8.177  0.5165  0.0041 -0.3593
 5981SOL    HW129576   2.944   1.295   8.193  0.9826  1.4746  0.9898
 5981SOL    HW229577   3.089   1.354   8.210  0.6787  0.1695 -0.9981
 5982SOL     OW29578   0.915   2.964   3.909 -0.7623  0.6417  0.1095
 5982SOL    HW129579   0.922   2.869   3.903  0.1886  0.7466 -0.4081
 5982SOL    HW229580   1.008   2.987   3.901 -1.1491  1.6651 -1.3681
 5983SOL     OW29581   0.143   4.217   3.570 -0.8245 -0.6293 -0.2415
 5983SOL    HW129582   0.192   4.144   3.532 -1.4404  0.0257 -2.2927
 5983SOL    HW229583   0.134   4.196   3.663 -1.9438  2.2365  0.2947
 5984SOL     OW29584   3.050   2.043   6.151  0.1772  0.2463  0.1649
 5984SOL    HW129585   3.007   1.957   6.143 -3.5163  2.0264  1.0422
 5984SOL    HW229586   3.143   2.031   6.132  0.0144 -1.7716  0.5982
 5985SOL     OW29587   4.559   0.370   7.381  0.0482  0.2582  0.2508
 5985SOL    HW129588   4.581   0.344   7.470  0.9253  0.3175  0.0523
 5985SOL    HW229589   4.467   0.345   7.382 -0.0012  0.2588 -3.2727
 5986SOL     OW29590   1.882   0.338  12.698  0.2338  0.0472  0.2135
 5986SOL    HW129591   1.868   0.363  12.789  2.5954  3.4949 -0.3301
 5986SOL    HW229592   1.970   0.300  12.700  1.1181  2.0469 -0.3463
 5987SOL     OW29593   4.426   4.147  13.288 -0.7183 -0.0707 -0.0908
 5987SOL    HW129594   4.412   4.098  13.369 -0.5084 -1.0834 -0.6683
 5987SOL    HW229595   4.469   4.081  13.233  1.8212 -0.7509  2.6885
 5988SOL     OW29596   4.622   0.529  10.455 -0.5796  0.4030 -0.0624
 5988SOL    HW129597   4.570   0.608  10.469 -0.3786  0.5354 -0.0623
 5988SOL    HW229598   4.670   0.538  10.537  1.0802 -1.1079 -0.8749
 5989SOL     OW29599   2.502   1.327  10.334 -0.2404  0.2845 -0.1189
 5989SOL    HW129600   2.476   1.394  10.271  0.0422  0.1569 -0.3687
 5989SOL    HW229601   2.474   1.248  10.287 -0.1807  0.4387 -0.4138
 5990SOL     OW29602   0.911   0.797   7.496  0.0712 -0.5477 -0.4376
 5990SOL    HW129603   0.990   0.749   7.520  0.2365  0.4816  1.0466
 5990SOL    HW229604   0.850   0.781   7.568 -1.9013  0.0027 -1.9651
 5991SOL     OW29605   4.588   1.874  14.724 -0.0562  0.3903  0.8282
 5991SOL    HW129606   4.666   1.890  14.776 -0.1901  2.3908  0.3958
 5991SOL    HW229607   4.627   1.859  14.638  1.1949 -2.4040  1.8868
 5992SOL     OW29608   2.203   1.882   6.886 -0.4422 -0.1824  0.0901
 5992SOL    HW129609   2.204   1.811   6.822 -0.0458  0.2414 -0.3830
 5992SOL    HW229610   2.152   1.947   6.836  0.2370 -1.0539 -1.7436
 5993SOL     OW29611   4.476   4.636   1.100 -0.1849 -0.2537  0.2149
 5993SOL    HW129612   4.535   4.576   1.055  0.1684 -0.0488  0.4016
 5993SOL    HW229613   4.392   4.595   1.081 -0.0781 -1.0765  1.5459
 5994SOL     OW29614   1.289   3.818   8.518 -0.6615  0.3356  0.3596
 5994SOL    HW129615   1.337   3.851   8.594 -1.3232 -2.1636  1.8647
 5994SOL    HW229616   1.329   3.860   8.442 -0.2225 -1.0765 -0.1975
 5995SOL     OW29617   2.274   2.181   7.537  0.3661  0.1705  0.2475
 5995SOL    HW129618   2.211   2.221   7.596  1.9069  1.3838  1.0847
 5995SOL    HW229619   2.327   2.260   7.528  0.8002 -0.4657 -2.9561
 5996SOL     OW29620   3.943   2.460   7.684  0.0340  0.2303  0.0768
 5996SOL    HW129621   3.961   2.379   7.636 -1.5698  0.3768 -0.7886
 5996SOL    HW229622   3.848   2.467   7.693  0.0999  2.2657 -0.8578
 5997SOL     OW29623   4.038   3.288   1.204  0.7555  0.7869 -0.4416
 5997SOL    HW129624   4.030   3.195   1.226  3.1862  0.7939  0.4869
 5997SOL    HW229625   4.050   3.327   1.290  0.2670 -2.0182  0.9086
 5998SOL     OW29626   2.476   3.530  13.377 -0.1546 -0.0248 -0.3441
 5998SOL    HW129627   2.529   3.609  13.393  0.5773 -0.8410  1.2003
 5998SOL    HW229628   2.493   3.480  13.456 -1.1110  1.8750  1.0501
 5999SOL     OW29629   2.524   0.732   8.766 -0.1510  0.7284  0.3151
 5999SOL    HW129630   2.471   0.772   8.835 -2.0830  0.4086 -1.0003
 5999SOL    HW229631   2.602   0.788   8.762  1.5957 -1.6872  0.2012
 6000SOL     OW29632   1.403   3.229  17.112  0.4235 -0.3526 -0.2602
 6000SOL    HW129633   1.394   3.136  17.089 -0.3338 -0.1143 -0.9271
 6000SOL    HW229634   1.478   3.250  17.056  1.1675 -0.7135  0.5966
 6001SOL     OW29635   1.910   0.655   3.440 -0.3729 -0.4262  0.0835
 6001SOL    HW129636   1.864   0.614   3.367  1.1641  1.4832 -1.9540
 6001SOL    HW229637   1.829   0.655   3.492 -1.6014 -0.4747 -1.8173
 6002SOL     OW29638   4.127   0.911   2.403  0.2512 -0.0563  0.2145
 6002SOL    HW129639   4.078   0.902   2.485 -0.7356  2.2656 -0.1300
 6002SOL    HW229640   4.180   0.831   2.404 -1.7088 -1.3034  3.3058
 6003SOL     OW29641   3.678   0.950   8.096  0.9316  0.1797  0.1986
 6003SOL    HW129642   3.681   0.986   8.184  0.8076  0.0515  0.2549
 6003SOL    HW229643   3.591   0.979   8.067  0.7806 -0.2303  0.2323
 6004SOL     OW29644   2.825   2.482   7.045  0.0260 -0.3406  0.0009
 6004SOL    HW129645   2.865   2.444   7.124  3.4951  1.8518 -0.7270
 6004SOL    HW229646   2.867   2.431   6.976 -1.0182 -0.5842 -0.4558
 6005SOL     OW29647   1.197   1.236   6.441  0.4701 -0.5713  0.3474
 6005SOL    HW129648   1.133   1.175   6.479  0.4152  0.1017  1.3551
 6005SOL    HW229649   1.244   1.171   6.389  1.1115 -2.6740  3.5389
 6006SOL     OW29650   1.002   2.024   1.619  0.0851  0.0625 -0.0661
 6006SOL    HW129651   0.996   1.942   1.668 -1.9082 -0.3449 -0.9800
 6006SOL    HW229652   1.007   2.087   1.691 -0.1937  0.7451 -0.6480
 6007SOL     OW29653   2.491   1.702   6.968 -0.5062  0.0667 -0.2337
 6007SOL    HW129654   2.510   1.625   6.915  1.5126  0.6959 -0.4225
 6007SOL    HW229655   2.408   1.689   7.015  0.2549 -1.3086  0.7395
 6008SOL     OW29656   2.402   2.783  17.176 -0.5552 -0.3276  0.0955
 6008SOL    HW129657   2.466   2.724  17.215  0.1951 -0.3171 -1.1329
 6008SOL    HW229658   2.468   2.847  17.148 -0.5170  0.7377  2.5631
 6009SOL     OW29659   3.370   4.638   8.920  0.1022 -0.6151 -0.0507
 6009SOL    HW129660   3.441   4.583   8.953 -0.0566 -0.8865 -0.1609
 6009SOL    HW229661   3.425   4.708   8.885 -1.3405  0.0315 -1.0481
 6010SOL     OW29662   0.924   4.079   6.770  0.1193  0.4091  0.0622
 6010SOL    HW129663   0.890   4.165   6.744  0.2409  0.1979 -0.7899
 6010SOL    HW229664   0.872   4.014   6.721  0.2090  0.1238  0.3480
 6011SOL     OW29665   0.692   1.922   2.793 -0.3034 -0.1106  0.4359
 6011SOL    HW129666   0.655   1.865   2.861 -0.0360 -1.7125 -0.7535
 6011SOL    HW229667   0.750   1.860   2.749  0.5225 -0.0294  1.4177
 6012SOL     OW29668   0.895   0.153   9.926  0.2694 -0.1686  0.1346
 6012SOL    HW129669   0.918   0.069   9.885  0.3655  0.2425 -0.6582
 6012SOL    HW229670   0.945   0.147  10.007 -0.2122  2.0355  0.5932
 6013SOL     OW29671   1.529   3.501   6.299  0.0541 -0.7301 -0.0654
 6013SOL    HW129672   1.615   3.543   6.297  0.8726 -2.5362 -1.8818
 6013SOL    HW229673   1.536   3.432   6.234 -5.2062 -3.3241  2.1142
 6014SOL     OW29674   0.037   0.282  12.531 -1.2432 -0.0287 -0.7408
 6014SOL    HW129675   0.132   0.282  12.514 -0.7512  0.8507  1.9626
 6014SOL    HW229676   0.040   0.232  12.613  1.9153 -0.2117 -0.9664
 6015SOL     OW29677   1.303   0.055   6.747  0.4589 -0.2092 -0.2097
 6015SOL    HW129678   1.275   4.701   6.758  1.4104 -0.6854 -1.7619
 6015SOL    HW229679   1.358   0.069   6.825 -1.1867  0.8675  0.7579
 6016SOL     OW29680   1.528   1.637   9.821  0.2833 -0.0863  0.2781
 6016SOL    HW129681   1.554   1.724   9.852 -0.3043 -0.1948  1.0716
 6016SOL    HW229682   1.609   1.586   9.830  0.9406  1.2674  2.0605
 6017SOL     OW29683   0.225   1.058   0.835  0.7238  0.4339 -0.3954
 6017SOL    HW129684   0.315   1.065   0.864  0.4622 -0.0594  0.5287
 6017SOL    HW229685   0.245   1.063   0.741  1.1994 -0.2532 -0.3299
 6018SOL     OW29686   3.021   0.704   8.039  0.3903  0.0971 -0.3169
 6018SOL    HW129687   2.998   0.668   8.124  0.7525  0.3540 -0.1094
 6018SOL    HW229688   3.044   0.628   7.986  2.0663  0.7620 -0.5591
 6019SOL     OW29689   3.322   3.397  15.634  0.1954  0.0187  0.1580
 6019SOL    HW129690   3.227   3.388  15.626  0.0711  1.1134  0.3181
 6019SOL    HW229691   3.345   3.331  15.569 -0.3064 -1.3822  1.4088
 6020SOL     OW29692   4.196   2.060   4.663 -0.1010  0.2144 -0.0538
 6020SOL    HW129693   4.116   2.093   4.702 -0.2080 -2.0417  1.6214
 6020SOL    HW229694   4.180   2.091   4.574  1.6858  0.9156 -0.1289
 6021SOL     OW29695   1.856   0.569   7.960  0.1387 -0.1757  0.3529
 6021SOL    HW129696   1.948   0.586   7.938 -0.1266 -1.1513 -1.5312
 6021SOL    HW229697   1.850   0.479   7.992 -1.4047 -0.2867 -0.2413
 6022SOL     OW29698   4.325   0.451   4.274 -1.0277  0.2951 -0.0097
 6022SOL    HW129699   4.336   0.418   4.185  0.3727 -2.3251  1.1176
 6022SOL    HW229700   4.248   0.507   4.265 -0.3265  0.9972 -1.7792
 6023SOL     OW29701   3.934   3.664  10.105 -1.1023 -0.6248  0.1589
 6023SOL    HW129702   3.916   3.570  10.110  1.4773 -1.0647  1.0001
 6023SOL    HW229703   4.026   3.667  10.130 -0.4579 -0.8537 -2.1944
 6024SOL     OW29704   1.760   0.564   8.238  0.9216  0.1214  0.1767
 6024SOL    HW129705   1.725   0.492   8.290 -0.0978 -0.2685 -1.0349
 6024SOL    HW229706   1.793   0.522   8.158  1.2077 -0.0965  0.4106
 6025SOL     OW29707   0.687   4.462   2.088  0.8663 -0.3408 -0.4465
 6025SOL    HW129708   0.711   4.544   2.131  1.2272 -0.6812  0.0055
 6025SOL    HW229709   0.705   4.487   1.998 -0.6193 -0.1541 -0.6947
 6026SOL     OW29710   1.003   2.491   0.814  0.2436 -0.8171  0.0480
 6026SOL    HW129711   0.943   2.539   0.758  0.6701 -0.9437 -0.5197
 6026SOL    HW229712   1.088   2.533   0.801 -0.4653  0.0579 -1.7234
 6027SOL     OW29713   2.056   1.843   1.313 -0.3934 -0.1516 -0.1619
 6027SOL    HW129714   2.133   1.807   1.359  0.4398 -0.1861 -1.5841
 6027SOL    HW229715   1.987   1.780   1.334  1.6563 -2.5340 -0.5847
 6028SOL     OW29716   3.056   1.680   3.558  0.6108 -0.1715 -0.3994
 6028SOL    HW129717   3.009   1.751   3.513  0.1630 -0.7239 -0.8126
 6028SOL    HW229718   3.147   1.709   3.561  0.3233  0.9436 -2.0852
 6029SOL     OW29719   2.241   1.258   9.770 -0.5042  0.2388  0.1496
 6029SOL    HW129720   2.305   1.187   9.771 -2.1512 -1.2911 -0.4980
 6029SOL    HW229721   2.160   1.206   9.771  0.0424 -0.5864  1.4923
 6030SOL     OW29722   0.664   2.893   4.589  0.0960 -0.1664 -0.3946
 6030SOL    HW129723   0.731   2.893   4.657 -1.4703 -0.2107  1.1607
 6030SOL    HW229724   0.632   2.983   4.597 -0.8750 -0.3431 -2.4631
 6031SOL     OW29725   4.058   0.210   4.362  0.2497  0.4528 -0.0806
 6031SOL    HW129726   4.109   0.132   4.384 -2.2950 -0.2418  3.4524
 6031SOL    HW229727   4.127   0.271   4.336  0.8460 -0.6221 -1.0076
 6032SOL     OW29728   4.629   2.280   8.291 -0.0704  0.0059  0.0310
 6032SOL    HW129729   4.566   2.350   8.275  0.1858 -0.0515 -1.2366
 6032SOL    HW229730   4.703   2.341   8.297 -0.5684  0.7123 -0.9880
 6033SOL     OW29731   2.480   4.041   2.723 -0.5368 -0.1107 -0.3924
 6033SOL    HW129732   2.524   3.963   2.689  0.0855  1.6470 -3.6755
 6033SOL    HW229733   2.412   4.052   2.657 -0.8837 -0.6736 -0.1219
 6034SOL     OW29734   0.576   0.235   1.129 -0.6717  0.2419  0.8034
 6034SOL    HW129735   0.611   0.323   1.144 -0.8623  0.2244  1.3501
 6034SOL    HW229736   0.613   0.189   1.204 -1.1877 -2.9695 -0.9279
 6035SOL     OW29737   3.570   1.083   8.733 -0.2392 -0.0840  0.4448
 6035SOL    HW129738   3.585   0.990   8.745  0.9414  0.2189  1.2816
 6035SOL    HW229739   3.475   1.071   8.730 -0.2114  0.1612 -1.4414
 6036SOL     OW29740   1.303   0.126   4.084  0.1310 -0.2382  0.4583
 6036SOL    HW129741   1.330   0.044   4.042 -0.3044  0.5876 -1.4319
 6036SOL    HW229742   1.387   0.152   4.121  0.2934  1.9509 -1.4671
 6037SOL     OW29743   1.427   3.676  13.220 -0.6047 -0.2807  0.3243
 6037SOL    HW129744   1.470   3.642  13.298 -1.9226 -0.1186  1.1240
 6037SOL    HW229745   1.386   3.596  13.188 -3.1883  1.6590 -1.2187
 6038SOL     OW29746   1.593   1.565   3.640  0.3552  0.6944  0.2049
 6038SOL    HW129747   1.522   1.520   3.685  1.2685 -0.1795  0.7564
 6038SOL    HW229748   1.541   1.603   3.569 -2.3224 -0.9026  1.3147
 6039SOL     OW29749   2.822   0.019   8.559  0.5536  0.4153  0.5676
 6039SOL    HW129750   2.799   0.038   8.650  1.0909 -2.2345  1.2334
 6039SOL    HW229751   2.877   0.091   8.526  0.5380  0.6118  0.9695
 6040SOL     OW29752   1.689   0.314   3.027  0.1608  0.9905  0.4325
 6040SOL    HW129753   1.657   0.360   2.949  0.2618  0.0433 -0.1788
 6040SOL    HW229754   1.731   0.236   2.990  1.5717  1.4239  1.1108
 6041SOL     OW29755   4.387   2.534   7.349 -0.1481 -0.2877 -0.0542
 6041SOL    HW129756   4.361   2.598   7.282  0.3310  1.6690  1.6220
 6041SOL    HW229757   4.415   2.596   7.416 -0.4137 -0.4247  0.1849
 6042SOL     OW29758   0.168   1.734  14.667 -0.1766  0.4839  0.3950
 6042SOL    HW129759   0.149   1.826  14.686 -2.6593  0.0181  0.2455
 6042SOL    HW229760   0.251   1.725  14.713  0.2140 -3.3272 -1.1088
 6043SOL     OW29761   3.153   2.187   8.006  0.1134  0.0927 -0.9630
 6043SOL    HW129762   3.070   2.170   8.049 -0.0028  1.3168 -0.7045
 6043SOL    HW229763   3.208   2.117   8.042  0.3440  1.0075  0.4898
 6044SOL     OW29764   3.526   3.889   1.801  0.3638  0.7371  0.1083
 6044SOL    HW129765   3.620   3.878   1.792  0.4838  1.0399  0.9357
 6044SOL    HW229766   3.504   3.981   1.791  1.6033  1.1570  1.2838
 6045SOL     OW29767   1.688   0.300   7.123 -0.1695  0.1303 -0.1355
 6045SOL    HW129768   1.704   0.211   7.155  0.2729 -0.2299 -1.3693
 6045SOL    HW229769   1.635   0.337   7.194  0.9916 -1.0190  1.3392
 6046SOL     OW29770   2.566   4.471   3.132  0.4950 -0.2715  0.4201
 6046SOL    HW129771   2.526   4.384   3.130 -2.5995  1.1985 -1.4462
 6046SOL    HW229772   2.584   4.495   3.041 -0.5114  2.0694  0.8459
 6047SOL     OW29773   1.475   4.296   4.972  0.6804  0.0435  0.5509
 6047SOL    HW129774   1.446   4.222   4.918 -0.0878 -1.1728  2.6107
 6047SOL    HW229775   1.411   4.366   4.965 -0.1480 -0.7146  0.5431
 6048SOL     OW29776   3.413   4.369   2.135  0.1930 -0.3394  0.0168
 6048SOL    HW129777   3.415   4.332   2.047 -1.3203  2.1175 -1.0781
 6048SOL    HW229778   3.322   4.398   2.138 -0.1220 -1.0491 -2.3944
 6049SOL     OW29779   2.023   1.743   3.669 -0.2117 -0.1469 -0.2741
 6049SOL    HW129780   2.014   1.670   3.731  0.8346 -0.3563 -0.3617
 6049SOL    HW229781   1.989   1.810   3.728  1.0623 -0.8142  1.2325
 6050SOL     OW29782   4.485   0.697   9.344  0.2889  0.5045 -0.0042
 6050SOL    HW129783   4.531   0.624   9.386 -0.8945  0.2624  0.8707
 6050SOL    HW229784   4.539   0.772   9.370 -1.7034  2.4706 -1.5129
 6051SOL     OW29785   1.553   1.730   4.362 -0.0759  0.5185 -0.3914
 6051SOL    HW129786   1.610   1.800   4.395  1.3538  0.0043 -1.7923
 6051SOL    HW229787   1.617   1.675   4.317 -0.9797 -3.1269  2.7756
 6052SOL     OW29788   0.149   4.311   3.294  0.2187 -0.2976  0.1048
 6052SOL    HW129789   0.203   4.233   3.295 -0.8252 -1.0265  0.2081
 6052SOL    HW229790   0.112   4.317   3.382 -1.7571 -1.4079 -0.6371
 6053SOL     OW29791   3.324   2.537   5.892  0.0897  0.3560 -0.2022
 6053SOL    HW129792   3.382   2.525   5.816 -2.4763  1.0452 -2.2595
 6053SOL    HW229793   3.258   2.593   5.851  1.0958  2.6383  1.2693
 6054SOL     OW29794   3.056   1.988  16.763 -0.1746 -0.5510 -0.6173
 6054SOL    HW129795   3.102   1.925  16.708 -1.0409 -2.0132  0.3286
 6054SOL    HW229796   3.077   2.074  16.728 -0.7388 -0.1385  0.0517
 6055SOL     OW29797   1.502   3.324   7.081  0.3355  0.4698  0.4392
 6055SOL    HW129798   1.586   3.334   7.125  0.5749 -2.5965  0.7270
 6055SOL    HW229799   1.460   3.283   7.157  0.4341 -0.2822  0.0861
 6056SOL     OW29800   1.671   0.894   2.485 -0.3289 -0.6320  0.0434
 6056SOL    HW129801   1.629   0.934   2.408 -1.4437  1.9188  1.9703
 6056SOL    HW229802   1.755   0.939   2.492 -0.3637 -0.0487 -2.9649
 6057SOL     OW29803   3.629   1.300   4.080 -0.1210  0.2403  0.4083
 6057SOL    HW129804   3.694   1.313   4.011 -0.1431 -0.3797  0.2669
 6057SOL    HW229805   3.620   1.206   4.097 -2.1671  0.4353  0.4685
 6058SOL     OW29806   2.297   4.498   2.100  0.1219 -0.0288  0.3684
 6058SOL    HW129807   2.242   4.577   2.103  0.1688 -0.0203  1.0694
 6058SOL    HW229808   2.243   4.431   2.059  2.3186 -0.3693 -1.9704
 6059SOL     OW29809   1.847   0.958  17.121 -0.0254  0.2377  0.1389
 6059SOL    HW129810   1.840   1.031  17.183  0.7752 -0.1410  0.6667
 6059SOL    HW229811   1.780   0.987  17.059 -0.1980  0.1530  0.2861
 6060SOL     OW29812   1.741   4.072  15.107  0.4328  0.0210 -0.1094
 6060SOL    HW129813   1.766   3.980  15.101  2.4799  0.6222 -0.5977
 6060SOL    HW229814   1.824   4.116  15.122  1.2064 -1.6384  0.5066
 6061SOL     OW29815   0.343   0.251   9.426  0.0016 -0.1763 -0.5124
 6061SOL    HW129816   0.374   0.280   9.340 -1.1204 -1.4844 -1.3701
 6061SOL    HW229817   0.392   0.308   9.486 -0.6354 -1.7383  1.4952
 6062SOL     OW29818   4.194   1.259   7.019  0.4462  0.0649  0.1183
 6062SOL    HW129819   4.231   1.173   7.037  1.7607  0.6788  0.3968
 6062SOL    HW229820   4.101   1.240   7.007  0.9366 -2.0405 -0.2449
 6063SOL     OW29821   2.455   2.240  12.366 -0.0611 -0.0770 -0.0676
 6063SOL    HW129822   2.454   2.236  12.270 -2.0225  1.1574 -0.0979
 6063SOL    HW229823   2.547   2.250  12.389  0.1602 -0.0280 -0.9640
 6064SOL     OW29824   1.381   4.108  15.707 -0.0213  0.0346  0.5278
 6064SOL    HW129825   1.347   4.033  15.658  0.9431  0.0793 -0.2112
 6064SOL    HW229826   1.405   4.059  15.786 -0.1483 -0.0832  0.4935
 6065SOL     OW29827   2.992   1.594   7.365 -0.2542  0.3797 -0.1695
 6065SOL    HW129828   2.969   1.516   7.314 -0.1905 -1.6935  2.9746
 6065SOL    HW229829   2.949   1.570   7.447  0.7487  0.6519  0.4380
 6066SOL     OW29830   2.149   4.417  12.518 -0.3903  0.2365 -0.6776
 6066SOL    HW129831   2.062   4.416  12.558  1.0835 -0.0642  2.4914
 6066SOL    HW229832   2.159   4.324  12.497  0.1516  0.1268  0.0615
 6067SOL     OW29833   2.064   3.268   3.844 -0.2036 -0.7354 -0.3921
 6067SOL    HW129834   2.053   3.343   3.784 -2.2967 -1.1671 -0.5649
 6067SOL    HW229835   2.026   3.200   3.789  0.0919 -1.8491  0.7991
 6068SOL     OW29836   2.060   2.303   8.597  0.3256 -0.7473  0.1472
 6068SOL    HW129837   2.139   2.281   8.547  1.5896  0.0848  1.7777
 6068SOL    HW229838   2.075   2.261   8.682  2.8254 -0.5542 -0.2055
 6069SOL     OW29839   3.524   0.254   2.357 -0.2889  0.1979  0.1545
 6069SOL    HW129840   3.458   0.270   2.424 -0.6034 -1.3695  0.2070
 6069SOL    HW229841   3.597   0.310   2.384  0.3513 -0.1267 -0.8837
 6070SOL     OW29842   2.731   0.177   2.895 -0.5669 -0.4365 -0.0943
 6070SOL    HW129843   2.644   0.217   2.892 -0.0812  0.6821  0.4259
 6070SOL    HW229844   2.772   0.198   2.811  1.6449 -3.2593  0.2799
 6071SOL     OW29845   2.374   1.374   1.962 -0.2005  0.4161 -0.5799
 6071SOL    HW129846   2.464   1.369   1.928  1.0230  4.1747  2.1821
 6071SOL    HW229847   2.329   1.312   1.903 -1.0990  0.3798  0.1469
 6072SOL     OW29848   2.735   0.660   6.234 -0.2855 -0.1137 -0.8780
 6072SOL    HW129849   2.787   0.711   6.172 -0.2344  0.7234 -0.1555
 6072SOL    HW229850   2.781   0.578   6.216  0.9098  0.0261  1.5034
 6073SOL     OW29851   1.139   3.238   3.601  0.2381  0.3747 -0.0606
 6073SOL    HW129852   1.146   3.149   3.568 -0.1684 -0.4534  2.0498
 6073SOL    HW229853   1.218   3.277   3.563  1.2609 -1.0240  0.6486
 6074SOL     OW29854   1.241   2.489   5.495 -0.1165  0.2609 -0.1522
 6074SOL    HW129855   1.214   2.579   5.474  0.5202  0.0883 -1.6783
 6074SOL    HW229856   1.294   2.499   5.574 -0.5936 -2.2631  0.4858
 6075SOL     OW29857   4.322   0.159  12.423 -0.1925 -0.4546 -0.5215
 6075SOL    HW129858   4.382   0.168  12.498 -1.2035 -0.4029  0.2822
 6075SOL    HW229859   4.281   0.246  12.425 -0.2311 -0.4967  0.4452
 6076SOL     OW29860   1.210   2.667   0.761  0.0363  0.4725 -0.2838
 6076SOL    HW129861   1.280   2.644   0.701  0.1888  4.9221 -1.8187
 6076SOL    HW229862   1.255   2.712   0.832  0.1963  1.7857 -1.2172
 6077SOL     OW29863   1.383   3.334   7.331  0.1495 -0.1954 -0.1896
 6077SOL    HW129864   1.334   3.252   7.336  1.3966 -0.8068  1.9570
 6077SOL    HW229865   1.333   3.390   7.390  3.0098 -0.0119  2.0650
 6078SOL     OW29866   4.508   0.031  15.510  0.1159 -0.6167  0.4456
 6078SOL    HW129867   4.503   4.674  15.491 -0.4431 -0.6646  0.8447
 6078SOL    HW229868   4.449   0.066  15.443  0.3409  0.5756  0.8772
 6079SOL     OW29869   2.773   3.548  12.573 -0.4629  0.8661 -0.4470
 6079SOL    HW129870   2.855   3.520  12.613 -2.3804  0.2380  3.0210
 6079SOL    HW229871   2.801   3.625  12.521  0.3117  0.0593 -1.2357
 6080SOL     OW29872   3.269   3.639   5.021  0.4050 -0.6823 -0.2668
 6080SOL    HW129873   3.339   3.600   4.968  0.7174  0.2570 -0.5447
 6080SOL    HW229874   3.319   3.683   5.090  0.6508 -0.6073 -0.4920
 6081SOL     OW29875   3.240   2.973   8.482  0.3939 -0.2603  0.1448
 6081SOL    HW129876   3.291   3.013   8.411 -0.0890  0.5202  0.2330
 6081SOL    HW229877   3.159   3.019   8.462 -0.8774 -1.8479  1.7223
 6082SOL     OW29878   0.607   3.859   3.220  0.4051 -0.0817 -0.1283
 6082SOL    HW129879   0.636   3.863   3.311 -2.2501  0.3927  0.7177
 6082SOL    HW229880   0.629   3.943   3.180  0.4746 -0.5820 -1.1329
 6083SOL     OW29881   3.596   4.129   5.346 -0.3375  0.4031  0.6641
 6083SOL    HW129882   3.543   4.088   5.279 -0.2863  0.0593  0.8343
 6083SOL    HW229883   3.609   4.219   5.316 -0.6206 -0.2300 -1.3596
 6084SOL     OW29884   1.945   0.718   3.893  0.5461  0.3830  0.5387
 6084SOL    HW129885   1.882   0.704   3.822  0.6841  1.5785  0.1819
 6084SOL    HW229886   1.977   0.808   3.881 -1.9026  1.4067  1.7088
 6085SOL     OW29887   0.721   3.648   6.910 -0.0022 -0.0041 -0.1961
 6085SOL    HW129888   0.660   3.588   6.952  0.8947 -0.1230  0.9232
 6085SOL    HW229889   0.807   3.618   6.937  0.4977  0.5644 -1.1396
 6086SOL     OW29890   3.738   0.476   3.926  0.1930 -0.1074  0.8377
 6086SOL    HW129891   3.712   0.385   3.915 -0.6950  0.0155  1.8391
 6086SOL    HW229892   3.761   0.509   3.839  2.4344  0.8694  1.7873
 6087SOL     OW29893   1.724   0.241   3.967 -0.1670 -0.7891  0.3585
 6087SOL    HW129894   1.820   0.246   3.963 -0.1779  0.2493  1.3094
 6087SOL    HW229895   1.698   0.184   3.895 -2.9232  1.5327 -0.4721
 6088SOL     OW29896   0.785   0.740   0.957  0.2831 -0.2330 -0.2935
 6088SOL    HW129897   0.785   0.801   1.030  1.8095 -3.1052  2.1193
 6088SOL    HW229898   0.700   0.747   0.914  0.6716  3.2238 -0.4916
 6089SOL     OW29899   0.993   1.341   9.216  0.1712 -0.1633 -0.5429
 6089SOL    HW129900   0.925   1.388   9.167 -0.7018  0.1603  0.9827
 6089SOL    HW229901   1.024   1.407   9.278  1.0119  1.8450 -3.0833
 6090SOL     OW29902   0.678   1.941   8.980 -0.4131  0.7016 -0.4667
 6090SOL    HW129903   0.695   2.020   9.033 -1.5558  0.3570  0.3949
 6090SOL    HW229904   0.759   1.936   8.929 -0.2702 -0.2964 -0.1359
 6091SOL     OW29905   0.762   0.358   5.840 -0.1961 -0.8646  0.3057
 6091SOL    HW129906   0.795   0.300   5.909  0.1422  0.2692  1.1009
 6091SOL    HW229907   0.779   0.444   5.878 -1.8553 -2.0736  3.7183
 6092SOL     OW29908   0.417   4.311   8.523 -0.1006  0.2094  0.7431
 6092SOL    HW129909   0.504   4.319   8.563  0.3689 -1.7783  0.1242
 6092SOL    HW229910   0.379   4.397   8.506 -2.3387 -0.1915  3.7434
 6093SOL     OW29911   3.393   1.278   6.734 -0.1771 -0.0787  0.3402
 6093SOL    HW129912   3.447   1.286   6.656  0.7117  1.1161  1.0843
 6093SOL    HW229913   3.400   1.366   6.770 -0.8293  0.3309 -0.5126
 6094SOL     OW29914   4.615   1.609   3.814 -0.1256  0.3200  0.1919
 6094SOL    HW129915   4.554   1.620   3.887 -1.7419  0.9876 -1.2752
 6094SOL    HW229916   4.701   1.613   3.856 -0.8396 -2.3037  1.8708
 6095SOL     OW29917   2.693   3.197   8.555  0.5296 -0.0871  0.1120
 6095SOL    HW129918   2.748   3.217   8.631 -0.4754  2.4699  0.1593
 6095SOL    HW229919   2.609   3.238   8.574  1.4257  2.7094 -1.9027
 6096SOL     OW29920   1.993   0.060  16.846  0.3688 -0.4342 -0.0660
 6096SOL    HW129921   1.936   0.006  16.791  0.8729 -0.6617 -0.3668
 6096SOL    HW229922   2.050   4.732  16.887  3.0899  1.1588 -1.2786
 6097SOL     OW29923   0.765   4.001  16.422  0.0119 -0.9568 -0.0299
 6097SOL    HW129924   0.689   4.042  16.381  0.7911 -0.1505 -0.6442
 6097SOL    HW229925   0.758   4.035  16.511  2.7810  1.4376 -0.7153
 6098SOL     OW29926   3.678   1.189   7.040 -0.0136 -0.2405 -0.6168
 6098SOL    HW129927   3.720   1.155   7.119 -2.2759  0.7281  1.0308
 6098SOL    HW229928   3.715   1.277   7.038 -0.7002  0.1118  1.6676
 6099SOL     OW29929   3.245   0.465   8.871 -0.6662 -0.5366 -0.1009
 6099SOL    HW129930   3.223   0.527   8.940 -0.3985  1.7597 -2.0501
 6099SOL    HW229931   3.275   0.397   8.931 -1.2708 -0.3176  0.4422
 6100SOL     OW29932   3.889   1.115   3.304  0.4483 -0.1946  0.2764
 6100SOL    HW129933   3.860   1.064   3.379 -1.0186  1.3161  0.7262
 6100SOL    HW229934   3.863   1.206   3.314 -0.7446 -0.3172 -1.7178
 6101SOL     OW29935   4.737   2.739   4.348 -0.2197  0.0434 -0.1083
 6101SOL    HW129936   4.668   2.805   4.337 -2.0117 -1.8145  0.0764
 6101SOL    HW229937   0.075   2.793   4.373  0.0444  0.1386 -1.0748
 6102SOL     OW29938   1.235   2.922  15.830  0.3100  0.3523 -0.2808
 6102SOL    HW129939   1.255   2.877  15.748  0.0084 -1.2702  0.5370
 6102SOL    HW229940   1.168   2.985  15.803  0.8017  1.0834  0.1780
 6103SOL     OW29941   2.266   2.805  11.329 -0.5772  0.7591 -0.3462
 6103SOL    HW129942   2.175   2.774  11.324 -0.0823 -0.7667  0.1722
 6103SOL    HW229943   2.306   2.723  11.300  0.6786  1.2436  0.0033
 6104SOL     OW29944   2.241   1.467  17.557 -0.0783 -0.1618 -0.1948
 6104SOL    HW129945   2.284   1.548  17.529 -0.1443 -0.5245 -1.3569
 6104SOL    HW229946   2.173   1.466  17.489  1.5946  1.4236 -1.9132
 6105SOL     OW29947   4.036   3.662  11.997  0.0812 -0.4151 -0.1843
 6105SOL    HW129948   3.996   3.749  12.005 -0.7372 -0.8286  0.2978
 6105SOL    HW229949   4.118   3.673  12.045 -0.4836  1.8318  0.2761
 6106SOL     OW29950   1.354   2.780  17.017 -0.0480 -0.4171  0.5979
 6106SOL    HW129951   1.444   2.751  17.030 -0.0267 -0.1925  0.9431
 6106SOL    HW229952   1.365   2.858  16.962  0.4932 -1.2692 -0.4998
 6107SOL     OW29953   4.333   1.718   4.922  0.3392  0.1373  0.1286
 6107SOL    HW129954   4.378   1.637   4.900  0.3062  0.3797 -0.8633
 6107SOL    HW229955   4.304   1.751   4.837 -0.4506  0.9101  0.6976
 6108SOL     OW29956   2.986   3.809  10.394  0.0947 -0.1920  0.0259
 6108SOL    HW129957   2.930   3.808  10.317  2.0320 -0.4451 -1.3648
 6108SOL    HW229958   3.069   3.785  10.353 -0.5976 -2.3945 -0.1077
 6109SOL     OW29959   1.869   4.228   7.122  0.3853  0.0684 -0.1251
 6109SOL    HW129960   1.963   4.243   7.110  0.8617 -2.4691  0.6012
 6109SOL    HW229961   1.858   4.138   7.092  2.5201  0.1938 -1.3358
 6110SOL     OW29962   0.976   4.020   6.461  0.4512  0.3767  0.3202
 6110SOL    HW129963   0.957   3.932   6.492  1.4364  0.1554  0.2814
 6110SOL    HW229964   0.902   4.077   6.483 -0.9567 -0.4646 -2.2707
 6111SOL     OW29965   1.287   1.324   4.392  0.0896 -0.4608 -0.2986
 6111SOL    HW129966   1.296   1.254   4.328  0.8357 -0.5619 -0.0826
 6111SOL    HW229967   1.292   1.404   4.340  0.0526 -0.4667 -0.3108
 6112SOL     OW29968   0.520   0.781   1.592  0.3329  0.3633  0.1966
 6112SOL    HW129969   0.558   0.769   1.679  0.2930 -0.9312  0.0390
 6112SOL    HW229970   0.585   0.843   1.557  0.9693  0.3701  1.3907
 6113SOL     OW29971   0.350   2.873   7.670 -0.0140  0.2188 -0.0304
 6113SOL    HW129972   0.353   2.845   7.579 -0.6092 -3.5757  1.1192
 6113SOL    HW229973   0.421   2.823   7.711 -0.1205 -0.1437 -0.2925
 6114SOL     OW29974   1.730   0.009  11.744 -0.5018  0.6037  0.4706
 6114SOL    HW129975   1.737   4.668  11.799 -1.0062 -1.8923 -2.9266
 6114SOL    HW229976   1.808   4.735  11.690 -0.8519  2.5538 -0.4278
 6115SOL     OW29977   1.563   1.688   0.858  0.3395 -0.1227 -1.0280
 6115SOL    HW129978   1.501   1.743   0.810  1.1063  2.8630  1.3737
 6115SOL    HW229979   1.592   1.623   0.794  3.7904  0.6214 -0.2032
 6116SOL     OW29980   3.385   1.057   3.019  0.4845 -0.0574 -0.2061
 6116SOL    HW129981   3.480   1.062   3.030  0.4072  1.8235 -0.4054
 6116SOL    HW229982   3.360   1.148   3.033 -0.0268 -0.4251  1.2923
 6117SOL     OW29983   0.970   4.736   7.341 -0.2341  0.5995 -0.6298
 6117SOL    HW129984   1.035   0.008   7.411 -0.1588 -0.7282 -0.5336
 6117SOL    HW229985   0.915   0.076   7.357 -1.1256  0.0227 -0.9721
 6118SOL     OW29986   4.582   2.614   1.983 -0.0531 -0.0442  0.2178
 6118SOL    HW129987   4.630   2.697   1.989 -0.9888  0.2142  4.3221
 6118SOL    HW229988   4.640   2.558   1.932 -0.7117 -0.7172  0.2082
 6119SOL     OW29989   2.756   0.821   4.187 -0.2106  0.0522  0.0812
 6119SOL    HW129990   2.691   0.816   4.116 -0.1406 -1.0221  0.0923
 6119SOL    HW229991   2.819   0.890   4.166 -2.2834  2.0232  0.3839
 6120SOL     OW29992   2.161   2.789   5.838 -0.2880  0.1243 -0.7425
 6120SOL    HW129993   2.111   2.870   5.824  2.4434  1.3507 -3.3382
 6120SOL    HW229994   2.109   2.748   5.908  1.3926  0.2770  0.5973
 6121SOL     OW29995   4.609   3.706   4.849 -0.4211  0.7114  0.2055
 6121SOL    HW129996   4.517   3.725   4.833 -0.3731 -0.5325 -1.5387
 6121SOL    HW229997   4.638   3.771   4.785  0.5891  0.2853  0.2246
 6122SOL     OW29998   3.957   2.936   2.961 -0.0353  0.0265 -0.0352
 6122SOL    HW129999   3.884   2.998   2.963 -0.1353  0.0740 -3.8944
 6122SOL    HW230000   3.936   2.875   3.031  0.2185  0.1083  0.1140
 6123SOL     OW30001   1.427   4.657   3.963 -0.7326  0.4298  0.0619
 6123SOL    HW130002   1.494   4.641   3.896  0.9748 -0.8542  2.0698
 6123SOL    HW230003   1.433   4.573   4.010 -0.4114  0.5805  0.2944
 6124SOL     OW30004   1.554   2.785   7.386  0.1550 -0.6531 -0.5336
 6124SOL    HW130005   1.505   2.732   7.449 -1.0356 -2.0713 -2.6532
 6124SOL    HW230006   1.490   2.825   7.328  1.8064  1.5179 -0.8707
 6125SOL     OW30007   1.911   1.382   2.145  0.0107  0.2712  0.5207
 6125SOL    HW130008   1.996   1.344   2.124  0.0563  0.3401  0.5833
 6125SOL    HW230009   1.946   1.464   2.179  1.3918  0.1820 -0.7028
 6126SOL     OW30010   4.296   1.141   4.061 -0.5508 -0.8203  0.5295
 6126SOL    HW130011   4.357   1.098   4.122  0.6330 -0.1306 -0.1687
 6126SOL    HW230012   4.291   1.076   3.991  1.2226 -1.4876  1.0171
 6127SOL     OW30013   1.062   0.485   1.554  0.1972 -0.1588 -0.3086
 6127SOL    HW130014   1.003   0.413   1.529 -0.9169  1.4981 -2.5262
 6127SOL    HW230015   1.002   0.558   1.569  1.2364  0.7410 -0.5688
 6128SOL     OW30016   3.293   2.328   3.683 -0.0796  0.2339 -0.2371
 6128SOL    HW130017   3.228   2.342   3.613 -2.3876  0.0061  1.8798
 6128SOL    HW230018   3.376   2.337   3.636 -1.0665 -1.4356 -2.3688
 6129SOL     OW30019   4.091   4.094  13.074  0.1087  0.7287 -0.1682
 6129SOL    HW130020   4.106   4.051  13.159  0.5644 -0.1500 -0.7015
 6129SOL    HW230021   4.170   4.148  13.075 -0.1129  1.0492  0.4561
 6130SOL     OW30022   3.209   0.039   6.277  0.5208  0.4514 -0.2073
 6130SOL    HW130023   3.265   0.040   6.355 -2.1250 -2.6830  1.7240
 6130SOL    HW230024   3.171   4.696   6.315  1.5346  0.1078  0.1020
 6131SOL     OW30025   1.070   3.705  15.588  0.1373  0.9335  0.4336
 6131SOL    HW130026   1.092   3.654  15.510  0.8637  1.8063  0.0756
 6131SOL    HW230027   1.076   3.638  15.657 -1.2246 -1.3270 -1.6689
 6132SOL     OW30028   2.713   0.695  12.848 -0.1791  0.2123  0.0072
 6132SOL    HW130029   2.782   0.752  12.813  0.9018 -1.7027 -0.9799
 6132SOL    HW230030   2.736   0.609  12.812  0.5004 -0.4555  1.9956
 6133SOL     OW30031   0.456   0.822   4.789 -0.1745  0.0399  0.3373
 6133SOL    HW130032   0.416   0.742   4.823 -0.1329 -0.5841 -1.1009
 6133SOL    HW230033   0.389   0.890   4.795  0.5985  0.8949 -0.8097
 6134SOL     OW30034   2.347   3.170   7.302 -0.3329  0.9819 -0.3738
 6134SOL    HW130035   2.320   3.252   7.344 -2.0020  0.3285 -0.1604
 6134SOL    HW230036   2.419   3.191   7.243  0.2480  1.1112  0.3676
 6135SOL     OW30037   3.144   3.847   7.161  0.2510  0.0634 -0.0515
 6135SOL    HW130038   3.237   3.849   7.184  0.3670  1.6397 -0.6580
 6135SOL    HW230039   3.146   3.797   7.079  2.7622  1.0903 -0.6172
 6136SOL     OW30040   0.051   1.793  16.740  0.9964 -0.5880  0.2416
 6136SOL    HW130041   0.082   1.836  16.820 -1.5325 -3.2304  2.6483
 6136SOL    HW230042   4.726   1.731  16.779  0.3069 -1.6004 -2.4763
 6137SOL     OW30043   4.499   2.109  13.091 -0.5386 -0.0108  0.3781
 6137SOL    HW130044   4.521   2.018  13.113 -1.7523  0.0298  1.7632
 6137SOL    HW230045   4.430   2.089  13.028 -0.1491  1.3573 -0.4789
 6138SOL     OW30046   2.705   0.045  11.651  0.1427 -0.2183 -0.0587
 6138SOL    HW130047   2.756   0.088  11.720  0.0253  0.9561 -0.7013
 6138SOL    HW230048   2.704   0.112  11.582  0.5121 -1.7821 -1.5901
 6139SOL     OW30049   0.025   1.459  12.214  0.0307  0.2267 -0.0394
 6139SOL    HW130050   0.087   1.388  12.199 -2.7348 -2.4518  1.1901
 6139SOL    HW230051   4.703   1.417  12.277  0.3352  0.9360  0.7326
 6140SOL     OW30052   3.708   1.802   4.909  0.3360 -0.2003  0.0847
 6140SOL    HW130053   3.626   1.758   4.934 -0.5817  2.4828  1.7457
 6140SOL    HW230054   3.691   1.896   4.913  0.8051 -0.1680  1.3271
 6141SOL     OW30055   4.518   1.067   7.372 -0.3054  0.1057  0.0923
 6141SOL    HW130056   4.440   1.044   7.421  0.3711 -2.1643  0.0846
 6141SOL    HW230057   4.566   0.985   7.380  1.7972  1.4331  1.0890
 6142SOL     OW30058   3.435   0.834   5.426  0.1898  0.2488  0.0998
 6142SOL    HW130059   3.466   0.892   5.496 -1.3213 -0.8344  1.6771
 6142SOL    HW230060   3.479   0.748   5.430  1.2233  0.7275 -1.0278
 6143SOL     OW30061   1.521   4.559  11.675 -0.2984 -0.0257  0.7604
 6143SOL    HW130062   1.521   4.654  11.670  0.0284 -0.1057 -0.7721
 6143SOL    HW230063   1.517   4.550  11.770 -2.4988  1.7242  0.8250
 6144SOL     OW30064   3.318   0.526   5.560  0.1491  0.2946 -0.0507
 6144SOL    HW130065   3.346   0.440   5.593  2.4080  1.7749  1.8286
 6144SOL    HW230066   3.374   0.532   5.483  0.3199 -0.4643  0.0102
 6145SOL     OW30067   0.261   2.957   9.040 -0.1397  0.5913  0.4346
 6145SOL    HW130068   0.303   2.878   9.006  2.5275  2.7658 -1.3441
 6145SOL    HW230069   0.227   2.930   9.125 -1.4038 -2.3170 -0.9845
 6146SOL     OW30070   0.942   2.321   4.276  0.5244 -0.5218  0.1849
 6146SOL    HW130071   1.005   2.375   4.323 -2.3000  2.7628  0.2850
 6146SOL    HW230072   0.937   2.244   4.333  0.5463 -0.1406  0.7048
 6147SOL     OW30073   4.459   2.935  17.682  0.7693  0.4415 -0.3218
 6147SOL    HW130074   4.454   2.901  17.593  0.9929 -0.5879  0.0491
 6147SOL    HW230075   4.499   3.020  17.668 -0.0378  0.8551 -0.1275
 6148SOL     OW30076   1.617   0.100  12.025  0.1185  0.2866  0.0796
 6148SOL    HW130077   1.661   0.094  11.941  3.0067 -1.8490  1.7292
 6148SOL    HW230078   1.530   0.121  11.993 -0.2139 -1.3652 -0.1318
 6149SOL     OW30079   1.558   1.883  10.912  0.2411 -0.2144  0.4136
 6149SOL    HW130080   1.617   1.832  10.967  0.2813  0.7454  1.2499
 6149SOL    HW230081   1.530   1.956  10.966  0.0558 -1.0978  1.4997
 6150SOL     OW30082   1.940   2.167   8.071 -0.4843  0.2291 -0.0086
 6150SOL    HW130083   1.848   2.149   8.049 -0.3113 -0.8354  0.1218
 6150SOL    HW230084   1.961   2.112   8.146 -0.1116  0.6990  0.2247
 6151SOL     OW30085   2.791   1.508   1.304  0.3689 -0.2259 -0.3274
 6151SOL    HW130086   2.883   1.507   1.327 -0.3123  0.7365  2.4209
 6151SOL    HW230087   2.754   1.595   1.323  3.3272  1.3962 -1.9844
 6152SOL     OW30088   3.120   3.428   9.156 -0.5133 -0.1908  0.6860
 6152SOL    HW130089   3.151   3.365   9.091  0.1234  0.1583  0.6514
 6152SOL    HW230090   3.199   3.447   9.207 -1.2602  1.9707  1.0414
 6153SOL     OW30091   0.372   1.166   6.533  0.1537  0.4612 -0.5579
 6153SOL    HW130092   0.321   1.107   6.478  0.5678 -1.9846  1.6882
 6153SOL    HW230093   0.326   1.169   6.617 -0.6791 -2.4727 -0.9050
 6154SOL     OW30094   2.175   0.435   3.557 -0.4079 -0.2214  0.3945
 6154SOL    HW130095   2.163   0.515   3.607  0.4631 -0.7654  1.4793
 6154SOL    HW230096   2.091   0.390   3.563  0.3422 -1.2858  2.9973
 6155SOL     OW30097   0.905   2.945   5.666  0.5768 -0.5596 -0.1014
 6155SOL    HW130098   0.825   2.927   5.715  0.4602 -1.0671 -0.4848
 6155SOL    HW230099   0.883   2.935   5.574  1.1316 -0.0134 -0.2906
 6156SOL     OW30100   0.284   4.733  14.164 -0.5573 -0.2222 -0.1697
 6156SOL    HW130101   0.364   4.682  14.174 -0.8395 -0.4332  1.0991
 6156SOL    HW230102   0.296   0.083  14.203  0.0242 -0.5385  0.3656
 6157SOL     OW30103   3.583   2.955   6.856  0.5557  0.4380 -0.1825
 6157SOL    HW130104   3.641   2.887   6.888  0.1191 -0.3732 -1.1022
 6157SOL    HW230105   3.561   2.922   6.769 -0.9487  0.5385  0.1558
 6158SOL     OW30106   0.831   2.292  13.872 -0.0739 -0.4096 -0.7815
 6158SOL    HW130107   0.778   2.216  13.847 -0.2156 -0.6378  0.2060
 6158SOL    HW230108   0.907   2.282  13.816  0.3903 -1.6355  0.0611
 6159SOL     OW30109   0.664   3.794   4.349  0.5441 -0.1472  0.1550
 6159SOL    HW130110   0.689   3.713   4.303  0.2802  0.3215 -0.8092
 6159SOL    HW230111   0.652   3.847   4.270 -0.2980 -1.4491 -0.6032
 6160SOL     OW30112   3.219   2.763   6.634  0.2302 -0.0567  0.5642
 6160SOL    HW130113   3.234   2.853   6.661 -2.8853  0.5011  0.3863
 6160SOL    HW230114   3.218   2.710   6.713 -0.0347  0.7380  1.0906
 6161SOL     OW30115   1.289   3.026   2.481  0.0498 -0.2146  0.1844
 6161SOL    HW130116   1.255   2.937   2.494 -0.8936 -0.0695 -1.2837
 6161SOL    HW230117   1.356   3.021   2.549  1.2544  0.0050 -0.9867
 6162SOL     OW30118   0.483   2.108   2.322  0.1002 -0.6683  0.2224
 6162SOL    HW130119   0.442   2.174   2.266 -0.5358 -0.6356  0.7251
 6162SOL    HW230120   0.536   2.164   2.379 -0.8017 -0.6408  1.0433
 6163SOL     OW30121   2.197   2.952   5.567  0.3156 -0.5851 -0.6267
 6163SOL    HW130122   2.279   2.904   5.578  0.9454  0.4300 -0.8566
 6163SOL    HW230123   2.159   2.920   5.486  0.7391 -1.8545 -0.3164
 6164SOL     OW30124   2.082   1.310   0.582 -0.0194 -0.0089  0.8157
 6164SOL    HW130125   2.081   1.374   0.511  1.8143 -0.4355  0.3946
 6164SOL    HW230126   2.169   1.275   0.562 -0.1367 -2.7208  5.0507
 6165SOL     OW30127   3.787   0.050   2.920 -0.6356 -0.0144  0.3881
 6165SOL    HW130128   3.828   0.137   2.916  1.5719 -1.0890 -0.5969
 6165SOL    HW230129   3.789   0.022   3.011 -0.1199 -1.1197  0.0389
 6166SOL     OW30130   2.473   3.767   4.150 -0.1371 -0.0530  0.3795
 6166SOL    HW130131   2.438   3.809   4.071 -0.5877  0.3177  0.7747
 6166SOL    HW230132   2.548   3.826   4.153  0.4094 -0.7785  0.8481
 6167SOL     OW30133   0.098   4.458   1.504 -0.1051 -0.2373 -0.3042
 6167SOL    HW130134   0.171   4.481   1.446 -0.2962 -2.0791 -1.2650
 6167SOL    HW230135   0.140   4.396   1.563 -0.1936  0.7199  0.7613
 6168SOL     OW30136   4.515   4.313   0.676 -0.1064 -0.1897 -0.2362
 6168SOL    HW130137   4.506   4.249   0.605  0.4109 -2.8695  2.1406
 6168SOL    HW230138   4.486   4.398   0.642 -0.3034 -0.0350  0.3265
 6169SOL     OW30139   4.252   1.635  13.661 -0.6757 -0.4678  0.1046
 6169SOL    HW130140   4.198   1.556  13.666  0.8732 -1.5068  0.4004
 6169SOL    HW230141   4.252   1.672  13.749 -0.8690 -1.7508  0.6549
 6170SOL     OW30142   1.426   0.027  16.154  0.2073 -0.6163 -0.4528
 6170SOL    HW130143   1.388   0.084  16.088 -1.4895 -1.2351 -0.0334
 6170SOL    HW230144   1.352   4.736  16.209  0.4490  0.6512  0.5123
 6171SOL     OW30145   3.147   2.782   4.347  0.0414 -0.0395 -0.0929
 6171SOL    HW130146   3.088   2.810   4.417 -1.7702  0.8141 -1.9735
 6171SOL    HW230147   3.207   2.856   4.348  0.8656 -0.7178  1.5096
 6172SOL     OW30148   0.590   2.725  10.182  0.0570  0.7024 -0.1072
 6172SOL    HW130149   0.514   2.680  10.220  2.1960 -1.0001  2.1869
 6172SOL    HW230150   0.665   2.699  10.236 -1.7757 -0.8875  1.6773
 6173SOL     OW30151   1.459   3.515  17.090 -0.2396  0.1018  0.5533
 6173SOL    HW130152   1.413   3.433  17.109  0.6469 -0.4001  0.5238
 6173SOL    HW230153   1.453   3.565  17.171 -1.3392  0.9420 -0.0545
 6174SOL     OW30154   1.304   1.738   4.231  0.1129 -0.1073  0.7806
 6174SOL    HW130155   1.378   1.724   4.290  2.0640  3.4580 -0.8296
 6174SOL    HW230156   1.344   1.799   4.170  2.0422 -1.7415  0.4264
 6175SOL     OW30157   2.396   4.043   5.573 -0.0313  0.0756  0.1795
 6175SOL    HW130158   2.414   4.096   5.650  1.2161  0.5243 -0.4246
 6175SOL    HW230159   2.330   3.981   5.606  0.2788  0.5185  1.6366
 6176SOL     OW30160   0.178   4.504   7.570  0.0770  0.3882  0.0858
 6176SOL    HW130161   0.155   4.579   7.516  0.6430  2.1665  2.3001
 6176SOL    HW230162   0.251   4.470   7.519  0.3870  0.8104  0.2518
 6177SOL     OW30163   2.040   2.132   9.247 -0.2915 -0.4410 -0.1847
 6177SOL    HW130164   2.011   2.183   9.323 -0.1986  0.7111 -0.9250
 6177SOL    HW230165   2.012   2.186   9.174 -1.8517  0.3698  1.0120
 6178SOL     OW30166   1.082   2.018   8.648 -0.2196  0.2166 -0.1708
 6178SOL    HW130167   1.048   1.987   8.565  1.6424  1.0210 -1.2332
 6178SOL    HW230168   1.122   2.104   8.637  0.6826 -0.2426 -0.4490
 6179SOL     OW30169   2.673   1.269  16.975 -0.0692  0.1672  0.4422
 6179SOL    HW130170   2.682   1.343  16.915 -1.7827  0.3559  0.4288
 6179SOL    HW230171   2.752   1.277  17.030 -0.7744  0.1426  1.4546
 6180SOL     OW30172   3.041   0.310   8.759  0.3606  0.0205  0.3477
 6180SOL    HW130173   3.103   0.333   8.828  0.5890 -0.5424  0.3335
 6180SOL    HW230174   3.097   0.271   8.692 -1.9690 -1.9070 -0.4773
 6181SOL     OW30175   1.723   0.469   2.562 -0.8698  0.1520  0.1616
 6181SOL    HW130176   1.767   0.492   2.645 -0.2534 -3.3311  0.7799
 6181SOL    HW230177   1.780   0.512   2.498 -0.6667 -0.5794 -0.1510
 6182SOL     OW30178   1.947   0.508   3.080 -0.4704  0.6635  0.4179
 6182SOL    HW130179   1.983   0.428   3.117 -0.2083  0.3780 -0.4402
 6182SOL    HW230180   1.878   0.518   3.145  0.7593  2.6989  1.4360
 6183SOL     OW30181   2.517   4.198   1.810  0.0449  0.1739 -0.4966
 6183SOL    HW130182   2.588   4.229   1.754  1.5539 -1.6954  0.3689
 6183SOL    HW230183   2.575   4.188   1.887 -2.0948  0.0868  1.1047
 6184SOL     OW30184   0.915   0.458   7.350  0.6381 -0.5488 -0.0692
 6184SOL    HW130185   0.942   0.537   7.397 -0.6652 -0.5024  0.6226
 6184SOL    HW230186   0.848   0.420   7.407  1.2133 -1.0021  0.3027
 6185SOL     OW30187   3.370   3.073   1.999 -0.1629 -0.0848 -0.0687
 6185SOL    HW130188   3.406   3.092   2.085 -1.5944 -0.8831  0.7111
 6185SOL    HW230189   3.287   3.030   2.021  1.5625 -3.3570  0.0102
 6186SOL     OW30190   2.209   2.490  17.093  0.0941  0.0078 -0.2544
 6186SOL    HW130191   2.210   2.490  17.189  1.2389  1.2630 -0.2643
 6186SOL    HW230192   2.129   2.539  17.071  1.1271  2.1300  0.7660
 6187SOL     OW30193   1.740   2.977   7.517  0.3910  0.0795 -0.6492
 6187SOL    HW130194   1.778   3.002   7.432  1.4825 -0.5696 -0.3558
 6187SOL    HW230195   1.719   2.886   7.494  0.8693 -0.5959  1.5922
 6188SOL     OW30196   4.536   4.636   8.495  0.5504 -0.5835 -0.0561
 6188SOL    HW130197   4.560   4.543   8.488  2.4264 -0.0881 -0.2508
 6188SOL    HW230198   4.460   4.636   8.553  0.5073 -1.7564 -0.1069
 6189SOL     OW30199   3.238   1.224  11.998  0.2124  0.1167 -0.0601
 6189SOL    HW130200   3.257   1.277  11.921  3.0411 -1.6544 -0.5931
 6189SOL    HW230201   3.319   1.175  12.010 -1.0241 -1.5449  1.5014
 6190SOL     OW30202   0.658   1.833   2.509 -0.1936 -0.2899 -0.1865
 6190SOL    HW130203   0.623   1.922   2.501 -1.4047 -0.7692 -0.1996
 6190SOL    HW230204   0.698   1.812   2.425  0.7785  0.1201  0.1776
 6191SOL     OW30205   2.408   3.460   4.660 -0.0447 -0.0649 -0.6814
 6191SOL    HW130206   2.476   3.457   4.593  0.0740  2.7584 -0.7107
 6191SOL    HW230207   2.354   3.536   4.638 -0.1900 -0.2895 -1.0948
 6192SOL     OW30208   2.610   3.095   7.181  0.1757 -0.3339 -0.4128
 6192SOL    HW130209   2.537   3.096   7.119  0.2907  1.7671 -0.5329
 6192SOL    HW230210   2.670   3.145   7.125  0.4461 -0.8052 -0.5464
 6193SOL     OW30211   0.096   2.223   1.759 -0.6824  0.5571  0.9064
 6193SOL    HW130212   0.103   2.287   1.687 -0.1656  0.7665  1.1418
 6193SOL    HW230213   0.151   2.157   1.718 -0.7358  0.4687  0.9791
 6194SOL     OW30214   4.108   1.040   6.700  0.3663 -0.0676 -0.7305
 6194SOL    HW130215   4.174   1.006   6.760 -0.8741  1.1192  1.2834
 6194SOL    HW230216   4.129   0.988   6.622  1.7551 -0.9530  0.2256
 6195SOL     OW30217   4.601   2.182   3.595 -0.2961  0.7292  0.1474
 6195SOL    HW130218   4.616   2.260   3.648 -1.0343  0.5907  0.5633
 6195SOL    HW230219   4.517   2.149   3.630  0.6326  0.9648  2.6203
 6196SOL     OW30220   4.462   1.199   5.041 -0.5247  0.0550 -0.1499
 6196SOL    HW130221   4.540   1.255   5.050 -0.0336 -0.6292 -0.1590
 6196SOL    HW230222   4.433   1.226   4.953  0.2885  1.5389  0.0207
 6197SOL     OW30223   2.758   0.057  15.786 -0.1566  0.6520 -0.1192
 6197SOL    HW130224   2.763   4.730  15.715 -0.1224  0.8444 -0.2890
 6197SOL    HW230225   2.848   0.082  15.806  0.5958 -0.3234 -2.2105
 6198SOL     OW30226   3.710   2.449   2.180  0.3356  0.6581 -0.3735
 6198SOL    HW130227   3.641   2.495   2.228  0.8070  1.4463 -0.4591
 6198SOL    HW230228   3.710   2.478   2.088 -1.6221 -0.7744 -0.8158
 6199SOL     OW30229   1.209   3.182   4.292  0.5544 -0.3349  0.3522
 6199SOL    HW130230   1.231   3.267   4.330  1.3761 -1.5309  2.5442
 6199SOL    HW230231   1.114   3.191   4.284  0.6134  0.8169  0.9310
 6200SOL     OW30232   1.879   3.443   5.814 -0.2058  0.3653  0.4374
 6200SOL    HW130233   1.789   3.473   5.829 -0.4177 -0.0534  0.0369
 6200SOL    HW230234   1.871   3.385   5.738  0.0998  0.9316 -0.0256
 6201SOL     OW30235   1.956   0.876   3.058 -0.5277  0.0977 -0.7363
 6201SOL    HW130236   1.891   0.895   2.990  0.8871 -1.2587 -2.4710
 6201SOL    HW230237   2.021   0.825   3.010  0.1299 -1.5282  1.8588
 6202SOL     OW30238   0.280   1.033   6.971 -0.3644  0.4416 -0.2394
 6202SOL    HW130239   0.235   0.985   7.040 -0.8228  0.8664 -0.2499
 6202SOL    HW230240   0.361   1.065   7.012  0.0697 -0.6294 -0.2427
 6203SOL     OW30241   2.074   2.185  17.732 -0.0038  0.1107 -0.2250
 6203SOL    HW130242   2.067   2.275   0.019 -1.0951 -0.2723  0.6253
 6203SOL    HW230243   1.985   2.151  17.741  0.0343  0.4757  1.6429
 6204SOL     OW30244   3.476   0.566  11.848 -0.0511  0.0235 -0.3964
 6204SOL    HW130245   3.469   0.472  11.865  2.7608 -0.0206  0.5333
 6204SOL    HW230246   3.406   0.569  11.783  0.0769  4.0367 -0.3201
 6205SOL     OW30247   3.401   1.789   4.270  0.5206 -0.0218 -0.1403
 6205SOL    HW130248   3.383   1.881   4.255  2.8132 -0.1004 -3.3126
 6205SOL    HW230249   3.476   1.797   4.211  0.4500 -0.3137 -0.2727
 6206SOL     OW30250   3.520   2.849   6.613 -0.1232  0.0115 -0.0798
 6206SOL    HW130251   3.573   2.771   6.629  0.4607  1.1190  3.4375
 6206SOL    HW230252   3.530   2.855   6.518  0.8482  0.5976  0.0559
 6207SOL     OW30253   2.495   0.191  14.255 -0.5365  0.2489 -0.2315
 6207SOL    HW130254   2.546   0.111  14.261  1.6052  1.4558 -2.1432
 6207SOL    HW230255   2.527   0.228  14.337 -0.1043  4.2443 -2.1990
 6208SOL     OW30256   1.688   2.259   2.583 -0.3980 -0.0431 -0.1050
 6208SOL    HW130257   1.672   2.276   2.676  0.0350 -0.8565  0.1099
 6208SOL    HW230258   1.695   2.349   2.551 -0.2535 -0.1479 -0.3677
 6209SOL     OW30259   4.252   0.237   8.665 -0.5010  0.3944 -0.0008
 6209SOL    HW130260   4.221   0.182   8.737 -0.5563 -0.1301 -0.4229
 6209SOL    HW230261   4.239   0.323   8.704 -0.1859  0.0169  0.9520
 6210SOL     OW30262   2.535   0.733  14.989  0.1348  0.8578 -0.4370
 6210SOL    HW130263   2.478   0.722  14.913  0.5776 -1.2341 -0.4587
 6210SOL    HW230264   2.522   0.649  15.032  1.7200  0.7108 -0.2267
 6211SOL     OW30265   2.623   0.610   8.024  0.5361  0.2216 -0.7843
 6211SOL    HW130266   2.624   0.686   8.082  0.9548  0.3823 -1.0007
 6211SOL    HW230267   2.609   0.539   8.087  0.8585  0.3616 -0.5543
 6212SOL     OW30268   1.887   4.696   6.637 -0.0275  0.6107 -0.1312
 6212SOL    HW130269   1.842   4.619   6.601  0.6980  0.5149 -0.8359
 6212SOL    HW230270   1.829   4.736   6.702 -2.4381 -0.7912 -1.4188
 6213SOL     OW30271   2.012   1.172  17.217 -0.3160 -0.3489 -0.4007
 6213SOL    HW130272   2.078   1.192  17.284 -0.8451 -0.3911  0.1318
 6213SOL    HW230273   1.945   1.235  17.243 -0.0515  0.9139 -2.7819
 6214SOL     OW30274   3.930   0.383   7.566 -0.6254 -0.5377  0.0055
 6214SOL    HW130275   3.954   0.316   7.502  0.3664 -0.3973  0.2349
 6214SOL    HW230276   3.835   0.385   7.551 -0.8136 -1.3353  1.0920
 6215SOL     OW30277   2.858   0.199   7.491 -0.0485 -0.1427  0.4487
 6215SOL    HW130278   2.845   0.280   7.442  1.5831  0.2208  0.6057
 6215SOL    HW230279   2.954   0.200   7.487 -0.0454  0.7492  0.6418
 6216SOL     OW30280   4.025   2.531   6.856 -0.7985  0.1485 -0.3284
 6216SOL    HW130281   3.963   2.506   6.924 -0.7943 -0.5613 -0.5790
 6216SOL    HW230282   3.976   2.611   6.838  1.7527  2.3557  2.7177
 6217SOL     OW30283   0.973   4.311   5.741 -0.7809  0.4732  0.4932
 6217SOL    HW130284   0.906   4.354   5.688 -0.1021  1.2348  0.2560
 6217SOL    HW230285   1.040   4.378   5.748 -1.5608  1.0069  2.9656
 6218SOL     OW30286   1.524   0.739   2.984 -0.2863  0.6164 -0.5243
 6218SOL    HW130287   1.603   0.761   3.033 -0.7496  1.5355 -0.1877
 6218SOL    HW230288   1.539   0.787   2.902  1.0319 -0.6325 -1.0163
 6219SOL     OW30289   2.913   2.788   2.144  0.5438  0.0554  0.1704
 6219SOL    HW130290   2.899   2.878   2.172  2.0265  0.1655  0.5323
 6219SOL    HW230291   2.840   2.776   2.083 -0.3117  0.8750  1.0373
 6220SOL     OW30292   3.101   0.309  15.453  0.6121 -0.0394 -0.1514
 6220SOL    HW130293   3.067   0.242  15.395 -0.9017  1.0292 -0.4787
 6220SOL    HW230294   3.161   0.358  15.397 -0.7217 -0.2542 -1.7396
 6221SOL     OW30295   2.695   2.335   1.875 -0.0992 -0.3289  0.0962
 6221SOL    HW130296   2.632   2.267   1.896  1.4066 -2.0400 -0.9418
 6221SOL    HW230297   2.740   2.355   1.957 -2.4849 -0.2349  1.3694
 6222SOL     OW30298   0.499   2.615   5.315 -0.1743  0.3090 -0.2782
 6222SOL    HW130299   0.434   2.677   5.350 -0.5277  0.3432 -0.9871
 6222SOL    HW230300   0.552   2.611   5.395  0.1789 -0.2159 -0.5388
 6223SOL     OW30301   4.095   2.580  11.825  0.0985 -0.1308  0.1074
 6223SOL    HW130302   4.077   2.572  11.731 -2.7314  1.2299  0.5057
 6223SOL    HW230303   4.148   2.659  11.820  0.7425 -0.4587  1.8550
 6224SOL     OW30304   1.311   2.505   8.182 -0.1952 -0.0850 -0.2396
 6224SOL    HW130305   1.309   2.412   8.204 -1.7400  0.0540  0.1780
 6224SOL    HW230306   1.387   2.498   8.123 -0.0817 -2.6161  0.2124
 6225SOL     OW30307   1.332   1.265  11.457  0.1255  0.2037 -0.5233
 6225SOL    HW130308   1.288   1.217  11.528 -0.8235  1.2517 -0.3944
 6225SOL    HW230309   1.384   1.193  11.423 -1.6999  0.0918 -2.9918
 6226SOL     OW30310   1.516   1.529   6.245  0.2205  0.1171  0.6392
 6226SOL    HW130311   1.429   1.558   6.272 -0.1860  1.2153 -1.8897
 6226SOL    HW230312   1.494   1.455   6.189 -0.7471 -0.3316  1.6223
 6227SOL     OW30313   3.934   1.574   2.573  0.1933 -0.4805 -0.3635
 6227SOL    HW130314   3.902   1.614   2.654 -4.0660 -0.3642 -2.1525
 6227SOL    HW230315   3.978   1.651   2.537 -3.0650  0.8874 -1.3857
 6228SOL     OW30316   3.049   0.845   7.514  0.2731  0.1652  0.3016
 6228SOL    HW130317   3.082   0.904   7.446 -0.2754  0.0116 -0.0944
 6228SOL    HW230318   3.030   0.766   7.463 -2.8145  0.5539  0.8746
 6229SOL     OW30319   2.958   3.156   3.153 -0.4612 -0.5760  0.0484
 6229SOL    HW130320   2.872   3.125   3.125 -0.3649 -1.0701  0.3038
 6229SOL    HW230321   2.972   3.076   3.203  2.5447 -0.3716 -0.4620
 6230SOL     OW30322   2.360   2.375   4.806  0.2074 -0.0887  0.2484
 6230SOL    HW130323   2.330   2.301   4.859 -0.5476  0.5398  0.6963
 6230SOL    HW230324   2.294   2.442   4.817  1.1996  0.8024  0.7707
 6231SOL     OW30325   1.557   0.915  14.890  0.2053  0.0246 -0.3047
 6231SOL    HW130326   1.544   0.835  14.839  0.9281 -1.1026  1.2831
 6231SOL    HW230327   1.637   0.899  14.941  1.9644  0.2617 -2.9656
 6232SOL     OW30328   0.912   1.905  11.404 -0.3446 -0.2193 -0.0156
 6232SOL    HW130329   0.969   1.972  11.442 -0.6252  0.6456 -1.1059
 6232SOL    HW230330   0.845   1.899  11.472  0.2102 -0.8879  0.4694
 6233SOL     OW30331   0.967   4.437   7.678 -0.0444 -0.6272 -0.0640
 6233SOL    HW130332   0.930   4.380   7.745 -2.1441 -0.8743 -1.4412
 6233SOL    HW230333   1.048   4.459   7.724  0.5510 -1.8838 -0.5158
 6234SOL     OW30334   4.576   1.656  11.576 -0.3633 -0.7725 -0.0286
 6234SOL    HW130335   4.629   1.581  11.604  1.0382  0.9764  1.9954
 6234SOL    HW230336   4.575   1.682  11.668  0.2718 -1.1724  0.0979
 6235SOL     OW30337   3.526   0.939   0.636 -0.3083  0.0063  0.4095
 6235SOL    HW130338   3.593   0.956   0.569 -2.3795  0.2356 -1.5700
 6235SOL    HW230339   3.450   0.910   0.587  1.2994 -0.2865 -1.9287
 6236SOL     OW30340   3.299   4.548   0.424  0.2170 -0.0730 -0.1808
 6236SOL    HW130341   3.246   4.473   0.395  1.3551  0.1522 -2.8735
 6236SOL    HW230342   3.276   4.612   0.356 -0.6780 -1.0861 -0.8416
 6237SOL     OW30343   3.295   2.568  13.503  0.1733  0.4433 -0.6103
 6237SOL    HW130344   3.323   2.492  13.452  0.4880 -0.1219  0.3902
 6237SOL    HW230345   3.318   2.530  13.588 -1.6952  2.2600  0.6860
 6238SOL     OW30346   3.408   3.192   4.734 -0.7735 -0.2469 -0.6532
 6238SOL    HW130347   3.404   3.205   4.829  1.9799 -1.4249 -0.3889
 6238SOL    HW230348   3.500   3.174   4.713  0.0033  2.2134  0.6496
 6239SOL     OW30349   3.104   2.682   8.255  0.2344 -0.2898 -0.2571
 6239SOL    HW130350   3.080   2.700   8.346  1.1713 -0.3096 -0.0112
 6239SOL    HW230351   3.029   2.629   8.227  0.5530  0.0297 -1.7217
 6240SOL     OW30352   0.440   0.937   8.846  0.0279 -0.2286 -0.0614
 6240SOL    HW130353   0.407   0.896   8.926  1.0095  0.2754  0.5999
 6240SOL    HW230354   0.500   0.991   8.896 -0.9677  0.0433  0.8461
 6241SOL     OW30355   3.257   2.375   8.512  1.1805  0.3066 -0.1309
 6241SOL    HW130356   3.244   2.458   8.557 -0.4399  0.5906 -1.1039
 6241SOL    HW230357   3.172   2.355   8.472  2.9372 -0.4329 -3.4981
 6242SOL     OW30358   2.173   0.512  15.235 -0.2073 -0.3744 -0.2170
 6242SOL    HW130359   2.177   0.417  15.232 -0.2127 -0.3894  0.2005
 6242SOL    HW230360   2.267   0.530  15.242 -0.1473 -1.0848  0.6871
 6243SOL     OW30361   4.443   1.298   5.446  0.3631  0.3811 -0.2719
 6243SOL    HW130362   4.535   1.315   5.427  0.1532  2.7709  0.7641
 6243SOL    HW230363   4.420   1.281   5.355  0.2225  0.6938 -0.2968
 6244SOL     OW30364   1.049   0.339   4.434  0.3857  0.2128  0.0953
 6244SOL    HW130365   1.073   0.255   4.395  0.4287 -0.0880  0.7738
 6244SOL    HW230366   1.031   0.383   4.351  1.5741  1.3370  0.4446
 6245SOL     OW30367   1.363   3.886   2.221 -0.1065  0.0556  0.3526
 6245SOL    HW130368   1.345   3.849   2.135 -2.0559 -0.6232  1.0469
 6245SOL    HW230369   1.362   3.806   2.274  5.2569  0.4976  1.1397
 6246SOL     OW30370   4.489   2.778   7.801 -0.5833  0.1028  0.1343
 6246SOL    HW130371   4.449   2.745   7.720 -1.2964  1.3718 -0.0358
 6246SOL    HW230372   4.581   2.800   7.785 -0.6616  1.4083  1.4509
 6247SOL     OW30373   0.858   4.014   7.033  0.2376  0.5036  0.4783
 6247SOL    HW130374   0.948   4.005   7.066  0.3440  0.2061  0.0993
 6247SOL    HW230375   0.877   4.053   6.948  0.8211  0.1839  0.4640
 6248SOL     OW30376   1.217   2.354   3.757 -0.0368  0.1533  0.3417
 6248SOL    HW130377   1.177   2.272   3.728 -2.3434  1.1950  0.5562
 6248SOL    HW230378   1.213   2.335   3.850  0.5631  2.8785  0.9134
 6249SOL     OW30379   3.036   2.449   9.091 -0.1717 -0.0969  0.0673
 6249SOL    HW130380   3.071   2.418   9.174 -0.0871  0.5334  0.2683
 6249SOL    HW230381   3.000   2.534   9.116 -2.1826 -0.6003 -1.0706
 6250SOL     OW30382   3.467   4.250   9.935 -0.2237  0.2334 -0.6026
 6250SOL    HW130383   3.420   4.319   9.887 -1.9462  1.0832  2.2953
 6250SOL    HW230384   3.555   4.282   9.915  0.6287 -0.5108  2.0120
 6251SOL     OW30385   1.286   4.070   6.159  0.5106 -0.1419 -0.6264
 6251SOL    HW130386   1.379   4.091   6.146  1.0773 -1.5129  1.1564
 6251SOL    HW230387   1.245   4.155   6.146  2.2683  0.6558 -0.9316
 6252SOL     OW30388   2.089   0.164   4.439  0.5225  0.3866  0.2239
 6252SOL    HW130389   2.087   0.238   4.500  0.2812  0.2578  0.3688
 6252SOL    HW230390   2.069   0.090   4.497  0.9990  1.8739  2.2941
 6253SOL     OW30391   2.148   3.795   5.570  0.4552 -0.1843  0.4420
 6253SOL    HW130392   2.160   3.709   5.530 -0.4402 -0.3368  0.5112
 6253SOL    HW230393   2.074   3.777   5.627  0.7919 -2.1655  0.2583
 6254SOL     OW30394   0.660   0.842  16.272 -0.2084  0.6497  0.5253
 6254SOL    HW130395   0.569   0.821  16.251  0.3543  0.2548 -1.5085
 6254SOL    HW230396   0.672   0.854  16.367  0.1615  0.2522  0.5308
 6255SOL     OW30397   1.618   1.581   7.214 -0.5657 -0.8029 -0.0395
 6255SOL    HW130398   1.665   1.576   7.131 -1.1417 -0.5348 -0.3833
 6255SOL    HW230399   1.676   1.642   7.259 -0.3101 -0.6119 -0.6429
 6256SOL     OW30400   3.817   2.093   4.615 -0.0873  0.3316 -0.5036
 6256SOL    HW130401   3.795   2.173   4.567 -1.6206 -1.1449 -2.2538
 6256SOL    HW230402   3.878   2.130   4.679  0.0439 -0.0061 -0.4323
 6257SOL     OW30403   2.728   4.527   8.995 -0.1349  0.3192 -0.1077
 6257SOL    HW130404   2.637   4.500   8.990 -0.6424  1.9724  0.0167
 6257SOL    HW230405   2.756   4.496   8.909 -0.7093 -0.0549 -0.1581
 6258SOL     OW30406   3.018   1.385   3.552 -0.0283 -0.2159 -0.0023
 6258SOL    HW130407   3.018   1.479   3.572  1.9485  0.2758 -2.3944
 6258SOL    HW230408   3.081   1.363   3.620 -1.1970 -1.4459  0.6895
 6259SOL     OW30409   3.917   0.677   8.801 -0.0467  0.0013 -0.0019
 6259SOL    HW130410   3.915   0.602   8.860 -2.0878  0.9519  1.1504
 6259SOL    HW230411   4.007   0.707   8.791 -0.7858  1.8171 -1.1547
 6260SOL     OW30412   1.538   3.745   3.399 -0.2613  0.3285  0.1011
 6260SOL    HW130413   1.572   3.823   3.356  2.2611 -0.9350 -0.2020
 6260SOL    HW230414   1.451   3.777   3.420 -1.0287 -0.6533 -1.5795
 6261SOL     OW30415   4.217   4.483  13.270 -0.2562  0.3614  0.5574
 6261SOL    HW130416   4.308   4.496  13.297  0.3558  0.2068 -1.4072
 6261SOL    HW230417   4.244   4.404  13.223  0.5009  1.3682 -0.7080
 6262SOL     OW30418   2.773   0.278   8.393 -0.6289 -0.1984  0.0237
 6262SOL    HW130419   2.843   0.254   8.331  0.2754  1.0697  0.5579
 6262SOL    HW230420   2.789   0.368   8.422 -1.4674  0.3710 -1.2675
 6263SOL     OW30421   1.741   4.612   6.311  0.6074  0.3033  0.3446
 6263SOL    HW130422   1.803   4.563   6.257 -1.4769 -2.6474  0.6135
 6263SOL    HW230423   1.799   4.651   6.376 -1.0742 -0.2747  2.1832
 6264SOL     OW30424   1.791   2.354  16.348 -0.3109  0.5975 -0.2605
 6264SOL    HW130425   1.784   2.262  16.373  0.6946  0.7528  0.5838
 6264SOL    HW230426   1.706   2.369  16.305 -0.0991 -0.9692 -1.1956
 6265SOL     OW30427   3.758   1.104   1.983 -0.5132  0.3646  0.3230
 6265SOL    HW130428   3.845   1.136   1.959 -1.2790  0.6020 -2.2445
 6265SOL    HW230429   3.711   1.188   1.973 -0.9215  0.1425  0.3656
 6266SOL     OW30430   2.740   2.562   1.088 -0.2205 -0.0638  0.8594
 6266SOL    HW130431   2.724   2.468   1.094 -0.5201 -0.2442 -2.7277
 6266SOL    HW230432   2.715   2.590   1.176 -0.5408  0.5743  0.5618
 6267SOL     OW30433   3.428   4.034   4.198  0.1688  0.1642  0.4457
 6267SOL    HW130434   3.467   3.946   4.193 -1.3445 -0.5368  0.9358
 6267SOL    HW230435   3.354   4.027   4.138  0.4118 -1.7657  0.3662
 6268SOL     OW30436   2.709   3.801   3.191 -0.0733 -0.3461 -0.4349
 6268SOL    HW130437   2.761   3.814   3.270  0.3987 -2.1616 -0.4422
 6268SOL    HW230438   2.640   3.862   3.216  0.4567  0.8738 -1.9034
 6269SOL     OW30439   3.172   3.964   1.602 -0.1691  0.0186  0.1023
 6269SOL    HW130440   3.112   3.906   1.556  0.9977 -1.2861  0.2033
 6269SOL    HW230441   3.241   3.982   1.538 -1.0141 -1.8634 -1.3236
 6270SOL     OW30442   0.589   4.131   9.453 -0.8954  0.0512 -0.0236
 6270SOL    HW130443   0.635   4.106   9.533 -1.5445 -1.5915 -0.1715
 6270SOL    HW230444   0.642   4.100   9.381 -0.4321 -2.0625  1.2272
 6271SOL     OW30445   3.246   4.291   3.348  0.2332 -0.2339 -0.3158
 6271SOL    HW130446   3.238   4.220   3.283 -0.2417  1.0642 -1.6804
 6271SOL    HW230447   3.266   4.370   3.298 -1.8387 -0.0640 -0.8775
 6272SOL     OW30448   2.840   2.227   3.946  1.1665  0.2902 -0.3413
 6272SOL    HW130449   2.894   2.276   4.008  2.2789 -0.9240 -0.3510
 6272SOL    HW230450   2.892   2.166   3.893  1.0961  0.4037 -0.5415
 6273SOL     OW30451   3.112   2.117  17.455 -0.0651 -0.6436 -0.8931
 6273SOL    HW130452   3.204   2.113  17.428  0.0785  1.1004 -0.6855
 6273SOL    HW230453   3.114   2.102  17.549  0.9408  0.9392 -0.6436
 6274SOL     OW30454   1.408   4.356  16.675  0.5260  0.2462 -0.1590
 6274SOL    HW130455   1.345   4.402  16.730  1.5037 -0.6790  1.7278
 6274SOL    HW230456   1.442   4.294  16.739  0.5944  0.3693 -0.0769
 6275SOL     OW30457   4.652   1.120   3.208 -0.9892  0.4109 -0.9107
 6275SOL    HW130458   4.611   1.072   3.279  0.0983  2.6719  1.2309
 6275SOL    HW230459   4.666   1.208   3.244 -0.6647 -0.1653  0.3734
 6276SOL     OW30460   0.444   3.263   2.883 -0.2229  0.1555 -0.5846
 6276SOL    HW130461   0.440   3.216   2.966 -2.7653  0.2408 -0.6643
 6276SOL    HW230462   0.485   3.347   2.907 -0.2496  0.1309 -0.4486
 6277SOL     OW30463   1.709   4.458  10.811 -0.1375 -0.0714 -0.0278
 6277SOL    HW130464   1.727   4.397  10.882 -0.9832  0.0038  0.2499
 6277SOL    HW230465   1.733   4.538  10.857  1.1241  0.7581 -2.1655
 6278SOL     OW30466   2.292   2.214   8.464  0.6641  0.2122 -0.4292
 6278SOL    HW130467   2.331   2.150   8.523 -2.0412 -0.2246  0.8758
 6278SOL    HW230468   2.336   2.191   8.382 -0.6384 -0.0526 -1.0470
 6279SOL     OW30469   2.774   4.725   4.160  0.1925 -0.6267  0.4942
 6279SOL    HW130470   2.759   4.651   4.101 -0.4486  0.2510 -0.4520
 6279SOL    HW230471   2.688   4.730   4.200  0.8774  1.8318  1.6338
 6280SOL     OW30472   0.878   1.437   0.941  0.2641 -0.1018 -0.3330
 6280SOL    HW130473   0.832   1.353   0.944  0.0865 -0.0365 -1.1136
 6280SOL    HW230474   0.972   1.421   0.937  0.4814 -0.0511  4.3654
 6281SOL     OW30475   0.175   2.508  11.314 -0.3595  0.1667  1.0911
 6281SOL    HW130476   0.094   2.548  11.347 -0.2970  0.9962  0.2224
 6281SOL    HW230477   0.242   2.561  11.357 -0.9845  1.4735  0.4651
 6282SOL     OW30478   0.203   2.904   2.452  0.0198  0.0997  0.4558
 6282SOL    HW130479   0.167   2.821   2.420 -0.6551  0.4261  0.3485
 6282SOL    HW230480   0.234   2.878   2.539  2.6480 -1.2446 -0.9101
 6283SOL     OW30481   1.763   4.341   3.704  0.4893 -0.1947  0.0118
 6283SOL    HW130482   1.790   4.265   3.652  0.6878 -2.0303  2.7737
 6283SOL    HW230483   1.845   4.390   3.714  0.4642 -0.1498 -0.0035
 6284SOL     OW30484   1.509   2.777   3.274 -0.0487 -0.0071 -0.2909
 6284SOL    HW130485   1.500   2.867   3.308  1.0893 -0.0923  0.2563
 6284SOL    HW230486   1.474   2.727   3.348 -0.8016  1.2543  0.2195
 6285SOL     OW30487   0.485   2.889   9.225 -0.6456 -0.0589 -0.1601
 6285SOL    HW130488   0.478   2.863   9.317  1.4122 -2.7015 -0.7613
 6285SOL    HW230489   0.512   2.981   9.232 -0.0497 -0.1778 -0.9624
 6286SOL     OW30490   2.569   2.780   6.109 -0.2490  0.2850  0.0390
 6286SOL    HW130491   2.515   2.770   6.031  1.1100  3.4462 -1.3040
 6286SOL    HW230492   2.655   2.793   6.069 -1.3116 -0.6558 -2.4872
 6287SOL     OW30493   2.143   3.337  15.328  0.6819 -0.3031  0.2991
 6287SOL    HW130494   2.128   3.354  15.235 -0.0845  0.6495  0.5944
 6287SOL    HW230495   2.145   3.241  15.326 -2.6426 -0.3902  0.9325
 6288SOL     OW30496   2.783   1.153   3.868 -0.3732  0.0997 -0.6068
 6288SOL    HW130497   2.816   1.188   3.951 -1.6757 -0.9776  0.3636
 6288SOL    HW230498   2.848   1.101   3.822  0.3123  0.9133 -0.5665
 6289SOL     OW30499   1.139   2.321   7.582  0.3166  0.0230  0.1426
 6289SOL    HW130500   1.073   2.357   7.641  0.9051 -0.0509  0.8570
 6289SOL    HW230501   1.213   2.368   7.620  0.0405  0.2021  0.4635
 6290SOL     OW30502   2.530   0.767   6.407  0.1170  0.0319 -0.5292
 6290SOL    HW130503   2.482   0.705   6.461  0.2407 -0.0275 -0.4880
 6290SOL    HW230504   2.597   0.708   6.372  0.4873  0.1321  0.0147
 6291SOL     OW30505   1.487   3.081   7.564 -0.7830  0.0975 -0.0398
 6291SOL    HW130506   1.525   3.078   7.652 -1.2874 -1.2650  0.1335
 6291SOL    HW230507   1.555   3.045   7.508 -1.0041 -1.2150  0.5285
 6292SOL     OW30508   1.839   2.824  10.979 -0.1933 -0.6106 -0.0399
 6292SOL    HW130509   1.813   2.770  10.905 -1.8811  0.2972 -0.1076
 6292SOL    HW230510   1.833   2.915  10.948 -1.2969 -0.4981  0.5245
 6293SOL     OW30511   4.451   4.432   4.219  0.0618  0.5898 -0.1847
 6293SOL    HW130512   4.376   4.434   4.160 -0.1242 -2.6959 -0.0574
 6293SOL    HW230513   4.501   4.370   4.166 -2.1781 -1.7475  0.4572
 6294SOL     OW30514   1.576   2.005   1.964  0.3035  0.3117 -0.6295
 6294SOL    HW130515   1.595   2.098   1.976 -0.1562  0.0447  2.1096
 6294SOL    HW230516   1.614   1.969   2.043  3.2578  0.8822 -1.8017
 6295SOL     OW30517   1.367   0.764   4.700 -0.1685  0.2924 -0.1008
 6295SOL    HW130518   1.302   0.811   4.648 -0.6215  0.5909  0.7358
 6295SOL    HW230519   1.366   0.685   4.647  0.9754  0.2984 -0.1258
 6296SOL     OW30520   3.467   0.144   6.936 -0.1522 -0.0681  0.1526
 6296SOL    HW130521   3.461   0.238   6.917 -0.6008 -0.6134 -2.2781
 6296SOL    HW230522   3.552   0.114   6.905  0.0030 -0.1264  0.6283
 6297SOL     OW30523   2.626   0.680   9.062 -0.4352 -0.3023  0.0535
 6297SOL    HW130524   2.627   0.704   8.970  1.9363  1.2120  0.4779
 6297SOL    HW230525   2.532   0.682   9.079 -0.3444 -2.1363  0.8643
 6298SOL     OW30526   0.453   2.217   9.344 -0.5257  0.1206 -0.1678
 6298SOL    HW130527   0.488   2.299   9.310 -0.8658  0.4805  0.3528
 6298SOL    HW230528   0.400   2.190   9.269  0.8166 -0.3219 -0.9675
 6299SOL     OW30529   1.636   1.291   6.117 -0.0176  0.3464 -0.1041
 6299SOL    HW130530   1.724   1.327   6.122 -0.2089  0.6086  1.5129
 6299SOL    HW230531   1.637   1.232   6.193  0.8508  0.9479  0.3546
 6300SOL     OW30532   3.094   1.916   8.236 -0.5832 -0.0270  0.2068
 6300SOL    HW130533   3.154   1.976   8.281 -1.0810 -0.4937  1.4786
 6300SOL    HW230534   3.151   1.845   8.205  1.6276  2.8280 -2.3160
 6301SOL     OW30535   4.492   1.205  16.985 -0.1913 -0.5443  0.2871
 6301SOL    HW130536   4.466   1.267  16.917  0.1634  0.8386  1.3938
 6301SOL    HW230537   4.561   1.251  17.033 -1.4227  0.4790  1.0820
 6302SOL     OW30538   3.477   0.627   8.734 -0.0951  0.2834  0.8200
 6302SOL    HW130539   3.445   0.645   8.823 -2.9397  2.7315 -0.7001
 6302SOL    HW230540   3.453   0.537   8.713  1.4320  0.2825 -0.9651
 6303SOL     OW30541   4.666   2.043   1.503  0.7240 -0.8822 -0.0155
 6303SOL    HW130542   4.693   2.010   1.589  0.6729  1.5412  0.9225
 6303SOL    HW230543   4.635   1.966   1.455 -1.7855  0.2700 -0.2823
 6304SOL     OW30544   4.690   2.880   2.050 -0.3491 -0.4955  0.4050
 6304SOL    HW130545   4.726   2.878   1.961  2.5127  0.9411  1.5055
 6304SOL    HW230546   4.660   2.971   2.056 -0.0464 -0.4702  1.5062
 6305SOL     OW30547   0.428   0.479   8.919 -0.4431 -0.3029 -0.0794
 6305SOL    HW130548   0.346   0.523   8.897 -0.1022  0.1549 -0.4523
 6305SOL    HW230549   0.474   0.555   8.953  0.6023 -0.5342 -0.9586
 6306SOL     OW30550   1.844   3.145   5.007  0.9091 -0.4987  0.0647
 6306SOL    HW130551   1.785   3.090   5.059  0.8103  0.0435  0.5218
 6306SOL    HW230552   1.784   3.162   4.935  1.6582  3.0940  0.3010
 6307SOL     OW30553   1.731   0.205   0.450 -0.3644 -0.4492  0.1493
 6307SOL    HW130554   1.755   0.283   0.399  0.3374  0.1209  1.3574
 6307SOL    HW230555   1.695   0.150   0.380 -0.5248  0.8371 -0.7807
 6308SOL     OW30556   1.100   1.467   4.613 -0.0204 -0.0623  0.1270
 6308SOL    HW130557   1.075   1.448   4.523  1.1808 -2.0910  0.2254
 6308SOL    HW230558   1.142   1.386   4.642 -0.5662 -0.7323 -0.9785
 6309SOL     OW30559   2.001   3.374   5.095 -0.4458 -0.1621  0.3013
 6309SOL    HW130560   1.921   3.426   5.087 -0.9687 -0.4730  3.6738
 6309SOL    HW230561   1.964   3.292   5.063  1.6520 -0.1491 -2.1337
 6310SOL     OW30562   4.230   3.164   3.058  0.3845 -0.2048  0.1563
 6310SOL    HW130563   4.155   3.130   3.107  0.1399  1.3330  0.8290
 6310SOL    HW230564   4.299   3.133   3.117  0.4059  0.6353  0.5666
 6311SOL     OW30565   2.699   0.333   2.613 -0.2938 -0.2581  0.1116
 6311SOL    HW130566   2.698   0.343   2.518  0.9475  1.6205  0.2956
 6311SOL    HW230567   2.627   0.271   2.618 -0.1175 -0.5915 -1.5419
 6312SOL     OW30568   0.672   1.222   0.412 -0.4664  0.2735  0.2857
 6312SOL    HW130569   0.750   1.193   0.365 -1.5605  0.3525 -1.5630
 6312SOL    HW230570   0.716   1.274   0.480  1.7728 -1.3210  0.0625
 6313SOL     OW30571   3.513   0.954   3.906  0.2523 -0.6543 -0.0760
 6313SOL    HW130572   3.452   0.884   3.884 -0.0368 -0.6520  0.7395
 6313SOL    HW230573   3.591   0.902   3.928 -1.2408 -1.9428  2.1088
 6314SOL     OW30574   1.425   2.548   6.814 -0.0430 -0.0181  0.1457
 6314SOL    HW130575   1.459   2.546   6.903 -2.1538  0.2502  0.9736
 6314SOL    HW230576   1.497   2.591   6.768  0.8588 -0.2664  1.3564
 6315SOL     OW30577   3.685   0.880  14.155 -0.1357 -0.1303  0.2086
 6315SOL    HW130578   3.618   0.938  14.193  3.4407  2.2617  2.8601
 6315SOL    HW230579   3.669   0.890  14.061  1.2270  1.2120  0.1234
 6316SOL     OW30580   1.279   1.823   6.824  0.4209 -0.2170 -0.2364
 6316SOL    HW130581   1.314   1.891   6.767  0.5314  0.8134  1.0490
 6316SOL    HW230582   1.263   1.758   6.756 -0.6182  0.8275 -0.9834
 6317SOL     OW30583   2.144   2.383  16.763 -0.2035  0.7104  0.0414
 6317SOL    HW130584   2.073   2.385  16.828 -0.3020  1.2255 -0.0785
 6317SOL    HW230585   2.085   2.392  16.688 -1.1463 -0.7686  0.5889
 6318SOL     OW30586   0.543   0.343   3.143  0.3689 -0.2818  0.6509
 6318SOL    HW130587   0.622   0.293   3.124  0.4912 -0.6691  2.1805
 6318SOL    HW230588   0.582   0.422   3.105 -1.3594  1.7318  3.0703
 6319SOL     OW30589   2.631   2.040   8.814 -0.6878  0.3039  0.8369
 6319SOL    HW130590   2.721   2.016   8.791 -0.3066  0.7376  1.8572
 6319SOL    HW230591   2.649   2.052   8.907  0.0531  1.2549  0.5676
 6320SOL     OW30592   2.466   4.513  16.174  0.6558 -0.1647 -0.1902
 6320SOL    HW130593   2.382   4.540  16.136  0.3368  1.4344  1.6123
 6320SOL    HW230594   2.442   4.459  16.249 -1.3344 -1.0756 -1.5022
 6321SOL     OW30595   0.588   1.906   8.735  0.4520  0.3003  0.2345
 6321SOL    HW130596   0.613   1.916   8.827 -0.1338 -1.5902  0.6041
 6321SOL    HW230597   0.500   1.869   8.748  1.1012 -0.5084  2.2420
 6322SOL     OW30598   3.915   3.507   4.799 -0.2255 -0.8818 -0.1484
 6322SOL    HW130599   3.908   3.462   4.883  1.9084  0.6196  0.8215
 6322SOL    HW230600   4.004   3.494   4.768  0.8230  1.4203  1.8867
 6323SOL     OW30601   0.520   3.008   7.136 -0.6755 -0.3719  0.3918
 6323SOL    HW130602   0.447   2.960   7.096  0.6730  0.2918 -2.8830
 6323SOL    HW230603   0.487   3.015   7.225 -0.0029 -0.8882  0.6834
 6324SOL     OW30604   2.349   0.078  15.049 -0.1338 -0.2858  0.2263
 6324SOL    HW130605   2.272   0.121  15.012 -1.1665 -1.0168  1.5200
 6324SOL    HW230606   2.297   0.002  15.078 -2.7519  1.1407 -0.6757
 6325SOL     OW30607   4.033   1.455   7.777  0.3919  0.0481 -0.1980
 6325SOL    HW130608   3.958   1.462   7.837  0.3359  0.4522 -0.3142
 6325SOL    HW230609   4.003   1.384   7.720 -0.5668 -0.6353  1.1317
 6326SOL     OW30610   1.068   3.473   2.157  0.4034 -0.4271  0.4991
 6326SOL    HW130611   1.083   3.423   2.237  0.6441  0.9359  1.3129
 6326SOL    HW230612   1.057   3.563   2.188  2.2280 -0.0156 -0.0256
 6327SOL     OW30613   3.409   2.054   4.861  0.2605  0.7297  0.5348
 6327SOL    HW130614   3.414   1.959   4.877  0.0768  0.4503 -0.9821
 6327SOL    HW230615   3.374   2.053   4.772  0.1884 -0.8960  0.5757
 6328SOL     OW30616   0.493   0.383   3.963  0.0116  0.0461  0.5103
 6328SOL    HW130617   0.450   0.387   3.877  1.0611 -0.7895 -0.0656
 6328SOL    HW230618   0.437   0.330   4.020 -3.3913  1.3345 -1.6326
 6329SOL     OW30619   0.490   1.200   0.708  0.5548 -0.8105 -0.5501
 6329SOL    HW130620   0.536   1.268   0.659  0.2687  0.4098  0.8784
 6329SOL    HW230621   0.473   1.236   0.795  0.9549 -1.8721 -0.0326
 6330SOL     OW30622   3.820   3.468   7.100 -0.5377 -0.2123 -0.7422
 6330SOL    HW130623   3.786   3.549   7.139  0.3035 -0.6311  0.8665
 6330SOL    HW230624   3.913   3.472   7.123 -0.1747 -0.1191 -2.2450
 6331SOL     OW30625   1.920   3.154  16.492 -0.0614  0.1667 -0.2591
 6331SOL    HW130626   1.978   3.179  16.563 -0.5921 -0.2028  0.2995
 6331SOL    HW230627   1.956   3.206  16.420  0.5013 -0.2074 -0.2510
 6332SOL     OW30628   3.636   3.043   1.926 -0.8822  0.3599 -0.0900
 6332SOL    HW130629   3.656   3.124   1.975  2.0834  0.0841 -0.8486
 6332SOL    HW230630   3.545   3.063   1.905 -0.9846 -0.7722 -0.7040
 6333SOL     OW30631   0.102   3.816   3.961 -0.7740  0.0151  0.3361
 6333SOL    HW130632   0.117   3.812   4.056  1.8227  1.8868  0.0168
 6333SOL    HW230633   0.112   3.727   3.928  1.6271  0.3117  0.2252
 6334SOL     OW30634   1.153   3.057  14.607 -0.0079 -1.0839 -0.0831
 6334SOL    HW130635   1.075   3.063  14.552  1.5751  0.6791 -2.1252
 6334SOL    HW230636   1.118   3.058  14.696  0.4172  1.7421  0.0425
 6335SOL     OW30637   2.277   0.657   4.480  0.3587  0.0445  0.4851
 6335SOL    HW130638   2.186   0.669   4.454  0.8306  2.4947 -0.0281
 6335SOL    HW230639   2.281   0.679   4.573  1.0106 -0.7153  0.6341
 6336SOL     OW30640   1.175   2.535   2.721 -0.5677 -0.4738 -0.3342
 6336SOL    HW130641   1.122   2.483   2.782 -0.5060  1.6046  1.4841
 6336SOL    HW230642   1.139   2.525   2.633 -2.4848 -0.1806  0.4080
 6337SOL     OW30643   3.991   3.993   2.111  0.1802  0.0310 -0.1209
 6337SOL    HW130644   3.909   4.012   2.064 -0.7798 -1.8976  0.7606
 6337SOL    HW230645   3.978   4.024   2.200  0.0953 -2.2991  0.6737
 6338SOL     OW30646   2.554   1.021   6.496 -0.5967  0.2775  0.1783
 6338SOL    HW130647   2.530   0.935   6.460  0.2371  0.7735 -1.5507
 6338SOL    HW230648   2.645   1.014   6.524 -1.3984 -0.1355  2.6176
 6339SOL     OW30649   0.654   0.273  16.370  0.1880 -0.1318 -0.1656
 6339SOL    HW130650   0.652   0.331  16.294 -0.2197 -0.4697 -0.4113
 6339SOL    HW230651   0.575   0.297  16.418 -0.6906 -0.1509 -1.6106
 6340SOL     OW30652   1.562   4.315  11.332  0.0361  0.4120 -0.0866
 6340SOL    HW130653   1.612   4.233  11.333 -0.1311  0.2978 -0.9535
 6340SOL    HW230654   1.635   4.373  11.356 -1.1201  1.0895  1.7725
 6341SOL     OW30655   1.521   3.286   2.875 -0.1970  0.1986 -0.2454
 6341SOL    HW130656   1.570   3.269   2.794  0.2400 -1.1676  0.3017
 6341SOL    HW230657   1.438   3.247   2.850 -0.6547 -0.1158  1.7527
 6342SOL     OW30658   3.453   4.505  13.654  0.1817  0.0293 -0.2740
 6342SOL    HW130659   3.474   4.571  13.588 -0.1596 -0.6227 -1.0485
 6342SOL    HW230660   3.540   4.483  13.686 -0.7249 -1.4433  1.2257
 6343SOL     OW30661   2.040   1.674  15.523 -0.2114  0.0363  0.3505
 6343SOL    HW130662   2.068   1.662  15.614  0.4728  1.1698  0.2938
 6343SOL    HW230663   2.126   1.698  15.489 -0.8809  1.0488 -0.5796
 6344SOL     OW30664   4.074   0.835   8.165 -0.3312  0.4769  0.3950
 6344SOL    HW130665   4.145   0.778   8.194 -0.3159  1.0053  1.3989
 6344SOL    HW230666   4.090   0.887   8.244  0.6687  0.2817  0.3181
 6345SOL     OW30667   1.631   1.102   7.735 -0.1793  0.2190 -0.1107
 6345SOL    HW130668   1.659   1.186   7.771  2.9193 -1.4087  1.2866
 6345SOL    HW230669   1.628   1.051   7.816 -0.0127  0.0168 -0.2337
 6346SOL     OW30670   2.191   3.746   3.378  0.0209 -0.3624 -0.2734
 6346SOL    HW130671   2.169   3.816   3.316 -0.6943 -0.1772  0.1921
 6346SOL    HW230672   2.255   3.692   3.331  1.8345 -0.4962  2.3706
 6347SOL     OW30673   2.518   3.400   6.787 -0.2686  0.1337  0.4762
 6347SOL    HW130674   2.462   3.332   6.749 -1.3693  1.2957  0.0320
 6347SOL    HW230675   2.562   3.432   6.709  0.5879 -1.6311  0.2271
 6348SOL     OW30676   1.945   1.838   8.884 -0.0714  0.7633  0.9159
 6348SOL    HW130677   1.895   1.767   8.924  1.0723  0.2172  1.4085
 6348SOL    HW230678   1.888   1.911   8.905  0.6605  1.8536 -0.8869
 6349SOL     OW30679   0.960   4.004   8.159  0.2587 -0.1802  0.1373
 6349SOL    HW130680   0.953   4.002   8.064 -0.4647 -0.2442  0.1897
 6349SOL    HW230681   0.977   3.913   8.182 -1.6917 -0.8381 -1.0195
 6350SOL     OW30682   0.600   0.918   5.302 -0.3008 -0.1635  0.3321
 6350SOL    HW130683   0.608   0.870   5.220  1.5216  1.5949 -0.5225
 6350SOL    HW230684   0.683   0.893   5.345 -0.0467 -0.3292 -0.2557
 6351SOL     OW30685   4.084   2.638   2.323  0.2633  0.3793  0.0924
 6351SOL    HW130686   4.017   2.684   2.272  1.0484  1.0921 -0.3109
 6351SOL    HW230687   4.042   2.640   2.409 -0.6883  1.9601 -0.3941
 6352SOL     OW30688   3.173   3.498   8.121 -0.4927 -0.2529 -0.1271
 6352SOL    HW130689   3.102   3.495   8.185 -0.2444 -0.4121  0.1434
 6352SOL    HW230690   3.201   3.589   8.129 -0.6350 -0.2589  0.4914
 6353SOL     OW30691   0.772   4.203   6.547  0.3325 -0.0369  0.4181
 6353SOL    HW130692   0.682   4.171   6.541 -0.2816  1.4811  1.6539
 6353SOL    HW230693   0.771   4.273   6.612 -2.1242  0.0585  0.2612
 6354SOL     OW30694   1.124   4.255  17.152  0.3724  0.3653  0.7605
 6354SOL    HW130695   1.215   4.251  17.180  0.3955  0.6575  0.7307
 6354SOL    HW230696   1.085   4.331  17.196  0.2765 -1.2977  3.5539
 6355SOL     OW30697   4.104   2.419   3.434  0.3563  0.0558  0.3959
 6355SOL    HW130698   4.050   2.428   3.356  0.1625  0.5118  0.5761
 6355SOL    HW230699   4.183   2.374   3.405 -0.6448 -1.0681 -0.5568
 6356SOL     OW30700   1.149   1.048  11.297 -0.0538  0.2662 -0.1362
 6356SOL    HW130701   1.059   1.037  11.330 -0.1977  0.9885 -0.2952
 6356SOL    HW230702   1.146   1.139  11.268  0.2948  0.4055  0.2615
 6357SOL     OW30703   0.818   3.031  15.170  0.5123  0.0502  0.0797
 6357SOL    HW130704   0.862   2.993  15.094  0.3672  0.9435 -0.4516
 6357SOL    HW230705   0.803   3.122  15.144 -1.9977 -0.2510  0.4745
 6358SOL     OW30706   3.321   1.932   0.001 -0.5459  0.2184  0.3033
 6358SOL    HW130707   3.320   1.878  17.667 -1.1779  0.5753  0.0687
 6358SOL    HW230708   3.406   1.917   0.043 -1.6704 -1.7421  1.9149
 6359SOL     OW30709   1.011   0.502   4.166 -0.6133  0.6290 -0.2408
 6359SOL    HW130710   0.994   0.410   4.146 -0.9003  0.6958 -0.2977
 6359SOL    HW230711   0.940   0.555   4.129 -0.6508 -0.0469 -1.1414
 6360SOL     OW30712   3.923   2.209   7.559  0.1973  0.5583  0.5612
 6360SOL    HW130713   4.016   2.189   7.555  0.8824  3.7276  0.0653
 6360SOL    HW230714   3.887   2.166   7.482  2.0547  0.9941 -0.5333
 6361SOL     OW30715   2.469   3.510  15.574 -0.1345 -0.3774 -0.2529
 6361SOL    HW130716   2.519   3.433  15.599 -1.1581 -1.7353 -2.3901
 6361SOL    HW230717   2.536   3.566  15.535  0.7282 -0.5874  0.9217
 6362SOL     OW30718   4.716   0.349   6.841  0.1533  0.1469  0.3450
 6362SOL    HW130719   4.730   0.257   6.819  1.5874  0.2685  0.7293
 6362SOL    HW230720   0.043   0.393   6.784  0.9440 -2.0861 -0.4940
 6363SOL     OW30721   0.336   2.700   3.307 -0.8022 -0.5178  0.7110
 6363SOL    HW130722   0.317   2.781   3.258 -0.4635  0.3879  2.0705
 6363SOL    HW230723   0.301   2.639   3.243  0.9093  1.7247 -2.3543
 6364SOL     OW30724   1.092   0.067   9.010  0.1619  0.0156  0.9775
 6364SOL    HW130725   1.043   0.090   8.930  0.0646 -0.3971  0.9190
 6364SOL    HW230726   1.044   4.724   9.032 -0.5915 -0.3368 -1.9098
 6365SOL     OW30727   2.224   0.402   9.471  0.0549  0.3664 -0.0887
 6365SOL    HW130728   2.219   0.405   9.566 -0.5271  0.5986 -0.1221
 6365SOL    HW230729   2.294   0.466   9.457 -1.0337  1.3892 -0.8903
 6366SOL     OW30730   3.197   3.914   9.605 -0.0160 -0.4384  0.0332
 6366SOL    HW130731   3.189   4.006   9.632  2.6608 -0.6021  1.3427
 6366SOL    HW230732   3.168   3.863   9.680  0.7139  0.6861  1.0737
 6367SOL     OW30733   1.443   2.389   1.700  0.5829  0.3668 -0.1502
 6367SOL    HW130734   1.407   2.388   1.789  0.0211  0.9532 -0.3746
 6367SOL    HW230735   1.372   2.427   1.648 -0.1773  0.3992  0.9154
 6368SOL     OW30736   0.456   0.760   3.228 -0.1624  0.4204 -0.2079
 6368SOL    HW130737   0.368   0.799   3.230  0.5399  2.0505 -0.8257
 6368SOL    HW230738   0.454   0.688   3.166 -3.2897  0.8024 -0.5486
 6369SOL     OW30739   2.151   3.022  12.207  0.4321 -0.1706 -0.1858
 6369SOL    HW130740   2.218   3.071  12.157 -0.9153  2.5121  0.6209
 6369SOL    HW230741   2.143   3.081  12.281 -1.4840 -0.3787 -0.2353
 6370SOL     OW30742   3.359   4.152   8.424 -0.1411 -0.3139  0.1848
 6370SOL    HW130743   3.330   4.204   8.349  0.6235  1.7528  1.3339
 6370SOL    HW230744   3.356   4.221   8.490  0.7256 -1.3401  1.3098
 6371SOL     OW30745   4.031   1.336   4.885 -0.3259 -0.1098 -0.0539
 6371SOL    HW130746   4.026   1.403   4.818  0.2079 -0.2776 -0.2592
 6371SOL    HW230747   4.081   1.381   4.953 -0.7060 -0.7812  0.6848
 6372SOL     OW30748   2.259   0.022   7.421 -0.5441  0.7181  0.0246
 6372SOL    HW130749   2.332   4.728   7.475 -2.0813  0.3735  1.8805
 6372SOL    HW230750   2.186   0.008   7.480 -0.9041  3.0315  0.1395
 6373SOL     OW30751   3.358   0.623  16.570  0.3149  0.5169  1.0052
 6373SOL    HW130752   3.423   0.649  16.506  0.2456 -0.8823  0.3671
 6373SOL    HW230753   3.388   0.538  16.602 -0.3503  0.2146  0.8208
 6374SOL     OW30754   2.287   1.236   1.492 -0.2572 -0.3238  0.0808
 6374SOL    HW130755   2.307   1.312   1.547  1.1829 -0.3464 -0.4205
 6374SOL    HW230756   2.373   1.196   1.480  0.3290  0.4985  1.6015
 6375SOL     OW30757   4.214   4.617  13.816  0.0164 -0.2252 -0.6124
 6375SOL    HW130758   4.183   4.689  13.871  1.0661 -0.4234  0.2299
 6375SOL    HW230759   4.264   4.560  13.873 -0.4195  0.9160  0.9122
 6376SOL     OW30760   2.194   0.869   5.307 -0.7272 -0.3100 -0.4453
 6376SOL    HW130761   2.120   0.930   5.301 -0.8275 -0.3761  0.1037
 6376SOL    HW230762   2.158   0.799   5.361 -0.8433 -1.2343 -1.7184
 6377SOL     OW30763   0.831   1.134  12.397  0.4601 -0.2905 -0.7743
 6377SOL    HW130764   0.897   1.068  12.416  0.2092 -0.4512 -0.4691
 6377SOL    HW230765   0.864   1.221  12.419 -0.6886  0.1491 -0.7700
 6378SOL     OW30766   1.945   2.690  17.324 -0.1313  0.3934  0.5390
 6378SOL    HW130767   1.894   2.756  17.277 -0.7688 -1.1465 -0.9476
 6378SOL    HW230768   1.897   2.609  17.304  0.7616 -0.3530  1.4747
 6379SOL     OW30769   3.518   2.459   5.671 -0.0230 -0.1580 -0.0632
 6379SOL    HW130770   3.511   2.521   5.598 -0.4155 -1.6432 -1.2834
 6379SOL    HW230771   3.489   2.382   5.623  0.6227 -0.7758  0.5524
 6380SOL     OW30772   4.168   0.304   7.200 -0.4748  0.0363  0.6382
 6380SOL    HW130773   4.185   0.247   7.125  1.2920  0.7330  0.5044
 6380SOL    HW230774   4.073   0.308   7.190 -0.4072 -0.6237 -0.2570
 6381SOL     OW30775   2.621   1.278   8.749  0.0491 -0.5311  0.0029
 6381SOL    HW130776   2.703   1.237   8.776 -1.6487 -1.8615  3.1229
 6381SOL    HW230777   2.650   1.346   8.688 -0.1345  0.1407  0.6710
 6382SOL     OW30778   0.537   0.687   4.220  0.3238 -0.0969 -0.3811
 6382SOL    HW130779   0.502   0.599   4.234  1.8465 -0.8702 -1.3563
 6382SOL    HW230780   0.503   0.715   4.135 -0.6281 -0.6515 -0.1827
 6383SOL     OW30781   3.056   1.167   1.463 -0.7057  0.1277 -0.5940
 6383SOL    HW130782   3.067   1.208   1.377  3.6635 -0.6336 -0.4139
 6383SOL    HW230783   2.974   1.123   1.444 -0.5126  0.0549 -1.2442
 6384SOL     OW30784   3.200   2.015  11.233  0.0110  0.0683  0.2198
 6384SOL    HW130785   3.221   1.975  11.317  0.1979 -1.4321 -0.5379
 6384SOL    HW230786   3.133   2.076  11.264 -0.3114  0.1691 -0.6757
 6385SOL     OW30787   4.352   2.865   4.711  0.2559  0.4567  0.5943
 6385SOL    HW130788   4.351   2.770   4.695 -0.5749  0.8243 -1.4719
 6385SOL    HW230789   4.306   2.872   4.794 -1.0889  0.5292 -0.1562
 6386SOL     OW30790   2.159   2.951  16.162  0.3219 -0.2737 -0.1815
 6386SOL    HW130791   2.176   2.950  16.068 -1.9484  0.8123 -0.5948
 6386SOL    HW230792   2.245   2.924  16.197  0.5028 -1.6899 -1.7263
 6387SOL     OW30793   1.594   0.883   2.179 -0.3271  0.1639 -0.9715
 6387SOL    HW130794   1.551   0.856   2.098 -2.2409 -1.5829  0.6468
 6387SOL    HW230795   1.544   0.962   2.202  0.4778  0.4515 -0.1961
 6388SOL     OW30796   3.693   3.528  12.348  0.6475 -0.0754  0.4072
 6388SOL    HW130797   3.743   3.600  12.309 -1.6182 -0.1538 -2.7164
 6388SOL    HW230798   3.645   3.576  12.415  0.5761 -0.4092  0.5935
 6389SOL     OW30799   0.013   2.301  12.104 -0.0610 -0.2086 -0.5362
 6389SOL    HW130800   0.042   2.356  12.176 -0.9003  0.8270 -0.9903
 6389SOL    HW230801   4.734   2.357  12.028  3.0619 -0.3551 -1.3047
 6390SOL     OW30802   4.441   1.916   6.579  0.5976 -0.0062  0.3755
 6390SOL    HW130803   4.378   1.859   6.624  0.0926 -0.2425 -0.6340
 6390SOL    HW230804   4.404   2.001   6.602  2.2179  1.5571 -2.8425
 6391SOL     OW30805   4.390   1.099  11.204 -0.5047 -0.3105 -0.2967
 6391SOL    HW130806   4.338   1.146  11.139  1.7191  0.7301 -1.3413
 6391SOL    HW230807   4.348   1.013  11.200 -1.5541  0.1662  0.7159
 6392SOL     OW30808   1.245   1.245   8.306  0.8884  0.4579  0.0088
 6392SOL    HW130809   1.164   1.289   8.331  0.7156  0.2874 -0.2510
 6392SOL    HW230810   1.272   1.233   8.397 -2.5429  1.0803  1.1304
 6393SOL     OW30811   4.703   4.409   5.110  0.3985 -0.2818  0.2276
 6393SOL    HW130812   4.607   4.413   5.109  0.3534 -1.4777 -0.5398
 6393SOL    HW230813   4.722   4.499   5.086 -3.1931  0.7534  1.2416
 6394SOL     OW30814   2.978   1.391  12.992 -0.3998  0.1382 -0.2896
 6394SOL    HW130815   2.917   1.434  13.051 -2.5935 -0.3611 -2.2135
 6394SOL    HW230816   2.975   1.447  12.914  0.5927 -0.5347 -0.8118
 6395SOL     OW30817   2.478   1.369  17.340 -0.3891 -0.4440 -0.0101
 6395SOL    HW130818   2.467   1.364  17.245  0.1004  2.0508 -0.1972
 6395SOL    HW230819   2.569   1.399  17.349 -0.3016 -0.9462  0.7873
 6396SOL     OW30820   3.918   1.346   6.757  0.4466  0.8648 -0.7892
 6396SOL    HW130821   3.841   1.401   6.741 -0.2808  0.2424  0.5830
 6396SOL    HW230822   3.902   1.260   6.717 -1.6741  0.6170  0.6374
 6397SOL     OW30823   3.060   3.015   5.069  0.1424 -0.1749  0.0956
 6397SOL    HW130824   3.069   3.107   5.046 -2.1247 -0.1825 -0.8106
 6397SOL    HW230825   3.152   2.990   5.073  0.2466  0.3816  1.2033
 6398SOL     OW30826   0.929   3.909   9.026  0.0901 -0.0870  0.0429
 6398SOL    HW130827   0.838   3.891   9.006  0.0118 -2.8531  2.9287
 6398SOL    HW230828   0.934   3.894   9.120 -0.8019  1.4976  0.3449
 6399SOL     OW30829   0.994   2.695   5.722  0.6570  0.3243  0.2643
 6399SOL    HW130830   0.971   2.771   5.670  0.8789  0.8268  0.9074
 6399SOL    HW230831   1.077   2.727   5.757  0.5263 -0.3169  1.1763
 6400SOL     OW30832   3.904   3.690   8.132  0.2024 -0.0431  0.0865
 6400SOL    HW130833   3.927   3.634   8.206 -0.8065  0.5337  0.8373
 6400SOL    HW230834   3.981   3.746   8.122 -0.1553  0.3341 -0.5490
 6401SOL     OW30835   4.679   2.115   0.082 -0.1384  0.1210 -0.2668
 6401SOL    HW130836   4.677   2.020   0.072 -0.3140 -0.0381  1.3000
 6401SOL    HW230837   4.733   2.127   0.160 -0.7502 -0.7821  0.2991
 6402SOL     OW30838   0.432   1.015  13.366 -0.4692  0.0322  0.0858
 6402SOL    HW130839   0.505   1.066  13.401 -0.0340  0.4438 -1.4258
 6402SOL    HW230840   0.374   1.000  13.441 -0.0211 -0.6814  0.2895
 6403SOL     OW30841   2.746   1.093   9.290  0.1146 -0.2590 -0.1780
 6403SOL    HW130842   2.689   1.085   9.214  1.2694 -3.0231 -0.7691
 6403SOL    HW230843   2.835   1.075   9.260 -0.4194  0.2153 -2.0625
 6404SOL     OW30844   0.684   0.343   7.214 -0.3045  0.0181 -0.1164
 6404SOL    HW130845   0.614   0.292   7.172  2.0746 -1.4944 -2.2368
 6404SOL    HW230846   0.728   0.280   7.271  1.2356  2.1028  0.9894
 6405SOL     OW30847   3.335   4.032  15.847 -0.3139  0.0645 -0.3165
 6405SOL    HW130848   3.390   4.110  15.843 -1.6608  1.0000 -0.8607
 6405SOL    HW230849   3.404   3.969  15.827 -1.4264 -1.3083  0.1877
 6406SOL     OW30850   2.351   2.737   2.841  0.1658  0.0352 -0.0665
 6406SOL    HW130851   2.418   2.690   2.791  0.2453 -2.9181  2.8029
 6406SOL    HW230852   2.272   2.709   2.797  0.8617 -0.6531 -0.8772
 6407SOL     OW30853   3.326   4.196   6.490 -0.0650  0.0913 -0.1862
 6407SOL    HW130854   3.392   4.129   6.472 -1.7587 -1.7975  0.6381
 6407SOL    HW230855   3.291   4.160   6.572 -0.0361 -1.1337 -0.7185
 6408SOL     OW30856   2.747   2.364   9.943 -0.0261  0.2458  0.5962
 6408SOL    HW130857   2.657   2.376   9.975  0.2376 -0.9336  1.7368
 6408SOL    HW230858   2.769   2.452   9.914  0.2285  0.5782  1.7873
 6409SOL     OW30859   0.099   0.718  10.573 -0.0140 -0.0669  0.2049
 6409SOL    HW130860   0.132   0.778  10.507 -2.4248 -1.2121 -2.0078
 6409SOL    HW230861   0.181   0.726  10.623 -0.4379 -0.7824  1.0261
 6410SOL     OW30862   0.443   3.444   4.365  0.1017  0.7276  0.7863
 6410SOL    HW130863   0.390   3.515   4.332 -1.2478 -0.5886  0.1158
 6410SOL    HW230864   0.458   3.390   4.287 -0.9740  1.1098  0.3290
 6411SOL     OW30865   0.829   1.718   8.647 -0.0502 -0.1858  0.8449
 6411SOL    HW130866   0.898   1.670   8.600  0.4488 -0.1811  1.5736
 6411SOL    HW230867   0.848   1.807   8.618 -2.6592  0.1867  0.3256
 6412SOL     OW30868   4.271   3.803  13.164  0.0472  0.3070 -0.5301
 6412SOL    HW130869   4.302   3.720  13.201  0.7585 -0.0268 -1.8699
 6412SOL    HW230870   4.189   3.821  13.210 -0.8056 -1.8488 -1.2298
 6413SOL     OW30871   4.221   4.372   2.130 -0.8409 -0.4870  0.3809
 6413SOL    HW130872   4.164   4.421   2.071 -1.0940 -1.2658 -0.0231
 6413SOL    HW230873   4.269   4.322   2.064 -0.4536 -0.1319  0.3875
 6414SOL     OW30874   0.546   1.770   3.278 -0.4248 -0.0252 -0.0433
 6414SOL    HW130875   0.532   1.864   3.270 -0.9621 -0.0689  0.3497
 6414SOL    HW230876   0.491   1.750   3.354  0.4306  1.0768  0.8855
 6415SOL     OW30877   4.389   4.519   2.291  0.0788  0.3485 -0.1450
 6415SOL    HW130878   4.386   4.607   2.253  2.9129  0.1808 -0.7592
 6415SOL    HW230879   4.333   4.472   2.229 -0.4389 -0.7188  1.1391
 6416SOL     OW30880   0.735   3.183   4.937  0.3191  0.0454  0.2605
 6416SOL    HW130881   0.794   3.130   4.990  1.2662  0.9697  0.1225
 6416SOL    HW230882   0.674   3.207   5.007  1.2458 -1.0080  1.4124
 6417SOL     OW30883   0.995   0.667   6.889 -0.0290  0.0242  0.0866
 6417SOL    HW130884   0.969   0.606   6.957  0.5041  0.1190  0.3711
 6417SOL    HW230885   0.913   0.714   6.872 -0.2790 -0.4494 -0.0114
 6418SOL     OW30886   2.113   0.706   2.212 -0.3054  0.5519  0.3998
 6418SOL    HW130887   2.087   0.726   2.122  1.5811  0.6187 -0.1365
 6418SOL    HW230888   2.107   0.789   2.260 -0.7005  1.0452 -0.4991
 6419SOL     OW30889   0.770   2.885   9.993 -0.7101  0.2006 -0.5664
 6419SOL    HW130890   0.700   2.873  10.057 -0.6727 -0.2447 -0.6053
 6419SOL    HW230891   0.755   2.800   9.951  2.7588  0.4364 -2.2436
 6420SOL     OW30892   0.097   2.725   7.532  0.0743  0.0824 -0.4224
 6420SOL    HW130893   0.169   2.783   7.552  0.8441 -0.2735 -2.1613
 6420SOL    HW230894   0.026   2.787   7.550 -0.2408 -0.3768 -0.0676
 6421SOL     OW30895   2.449   2.822   9.675  0.2202 -0.6773  0.1080
 6421SOL    HW130896   2.424   2.914   9.664 -0.8944 -1.1362 -1.2260
 6421SOL    HW230897   2.368   2.776   9.656  0.1888 -0.8093  0.5679
 6422SOL     OW30898   2.856   1.704   2.712  0.3808 -0.3591  0.1677
 6422SOL    HW130899   2.896   1.626   2.751 -0.8347 -0.1574  1.7990
 6422SOL    HW230900   2.920   1.712   2.641  1.2428 -1.4902  0.8009
 6423SOL     OW30901   4.407   4.446  13.927  0.4439 -0.3541 -0.2270
 6423SOL    HW130902   4.426   4.389  14.001  1.9931 -0.9643 -1.0991
 6423SOL    HW230903   4.470   4.410  13.865 -1.5837 -1.7496 -1.4749
 6424SOL     OW30904   2.274   0.474  10.855  0.2914  0.2362  0.1286
 6424SOL    HW130905   2.226   0.432  10.926  1.7257  0.8562  1.4733
 6424SOL    HW230906   2.204   0.534  10.829 -0.8302 -1.0730  0.1797
 6425SOL     OW30907   3.942   0.374   4.752  1.1880 -0.4238  0.3994
 6425SOL    HW130908   4.012   0.398   4.691 -0.4682 -0.4761 -1.5490
 6425SOL    HW230909   3.917   0.295   4.705 -0.9773 -0.9815  2.4884
 6426SOL     OW30910   0.729   2.639   9.065 -0.4728  0.0387  0.2117
 6426SOL    HW130911   0.701   2.686   8.986  0.7068  1.9023  0.8826
 6426SOL    HW230912   0.821   2.668   9.067 -0.0055 -1.4839  1.0880
 6427SOL     OW30913   4.515   3.114  13.719 -0.3571 -0.6649 -0.3718
 6427SOL    HW130914   4.534   3.206  13.697  1.5421 -1.1209 -0.6720
 6427SOL    HW230915   4.606   3.084  13.710  0.1451  0.0485  2.4231
 6428SOL     OW30916   1.212   4.175   5.211  0.6557  0.7639 -0.1532
 6428SOL    HW130917   1.235   4.140   5.125 -0.2198 -0.1196 -0.0233
 6428SOL    HW230918   1.249   4.113   5.273  1.2663  0.4648 -0.8209
 6429SOL     OW30919   4.384   2.397   5.766  0.0333  0.3022 -0.2114
 6429SOL    HW130920   4.410   2.312   5.803 -1.2138 -0.5849 -1.3500
 6429SOL    HW230921   4.310   2.359   5.718  0.7125  0.1249 -1.1201
 6430SOL     OW30922   4.566   1.283   9.035 -0.3596  0.1390  0.1701
 6430SOL    HW130923   4.651   1.240   9.025 -1.3197 -1.9163  0.9213
 6430SOL    HW230924   4.577   1.354   8.971 -1.2167 -1.4223 -1.6896
 6431SOL     OW30925   4.296   2.410  16.965  0.5508  0.2215 -0.0590
 6431SOL    HW130926   4.294   2.325  17.009 -3.0546  0.2770 -0.1094
 6431SOL    HW230927   4.328   2.464  17.037  1.4094  0.7796 -0.8441
 6432SOL     OW30928   2.071   2.930  11.675 -0.5963  0.1580 -0.6344
 6432SOL    HW130929   2.154   2.894  11.644 -0.3831  0.0259  0.0886
 6432SOL    HW230930   2.019   2.878  11.613  0.6653  0.6782 -2.1385
 6433SOL     OW30931   0.213   1.427   7.038  0.2270 -0.1150 -0.4584
 6433SOL    HW130932   0.295   1.469   7.066  0.0861 -1.4875  1.9973
 6433SOL    HW230933   0.185   1.483   6.965  3.9795  0.0794 -1.7617
 6434SOL     OW30934   4.470   3.530   7.176  0.1497 -0.4110  0.4843
 6434SOL    HW130935   4.440   3.592   7.110  2.3322  0.0291 -0.1154
 6434SOL    HW230936   4.446   3.575   7.257 -0.1530  0.7083 -0.2189
 6435SOL     OW30937   4.602   2.236   2.624  0.1119 -0.1407  0.0805
 6435SOL    HW130938   4.566   2.268   2.707 -1.3099  1.7788 -1.2473
 6435SOL    HW230939   4.686   2.194   2.640 -0.8228 -0.8463  2.9500
 6436SOL     OW30940   1.686   2.942  10.037  0.4983 -0.7883  0.5798
 6436SOL    HW130941   1.674   2.994   9.958 -0.9946 -1.2841  0.4639
 6436SOL    HW230942   1.725   3.005  10.097 -1.3508  0.0856  0.8710
 6437SOL     OW30943   3.635   2.661  12.082 -0.0207 -0.2152  0.4447
 6437SOL    HW130944   3.642   2.735  12.023  0.1984 -1.7765 -1.4915
 6437SOL    HW230945   3.709   2.612  12.047 -0.5215  0.2618 -1.2521
 6438SOL     OW30946   2.321   1.215   7.314  0.3350 -0.2260  0.6774
 6438SOL    HW130947   2.343   1.140   7.258  0.1077 -0.3406  0.7396
 6438SOL    HW230948   2.312   1.175   7.401 -2.6915 -1.0531  0.0023
 6439SOL     OW30949   2.397   4.533   5.692 -0.1656 -0.0875 -0.3638
 6439SOL    HW130950   2.333   4.565   5.628 -0.0786  3.0751  1.0818
 6439SOL    HW230951   2.437   4.611   5.731  0.1230 -0.6932  0.5470
 6440SOL     OW30952   4.051   0.291   9.500  0.1300  0.1278 -0.0487
 6440SOL    HW130953   4.145   0.309   9.506 -0.3829  2.3864  1.4087
 6440SOL    HW230954   4.034   0.221   9.563 -0.4191  0.5137  0.2397
 6441SOL     OW30955   1.799   3.678  12.250 -0.1857  0.1612  0.7083
 6441SOL    HW130956   1.836   3.766  12.257  1.8485 -0.6355  0.2623
 6441SOL    HW230957   1.873   3.622  12.275 -1.2807 -0.6344  2.1506
 6442SOL     OW30958   3.175   3.347   7.629  0.0868  0.0254 -0.5635
 6442SOL    HW130959   3.153   3.353   7.722 -1.6171 -1.7034 -0.8611
 6442SOL    HW230960   3.242   3.414   7.619 -0.1223  0.5682  1.8143
 6443SOL     OW30961   4.576   0.484   5.792 -0.3876  0.1203  0.0609
 6443SOL    HW130962   4.537   0.473   5.879  1.1561 -0.8969  0.6190
 6443SOL    HW230963   4.530   0.419   5.738  0.5454 -0.1725 -0.3852
 6444SOL     OW30964   3.359   2.475   4.629 -0.0013 -0.1682 -0.5413
 6444SOL    HW130965   3.398   2.474   4.717  1.8077  1.1782 -1.3284
 6444SOL    HW230966   3.275   2.434   4.649  0.7229 -1.4225 -0.0891
 6445SOL     OW30967   2.767   1.877   2.917  0.2829 -0.3127 -0.1393
 6445SOL    HW130968   2.679   1.851   2.945  0.1921  1.4210  1.1543
 6445SOL    HW230969   2.776   1.822   2.839  0.3808  1.4076 -1.3256
 6446SOL     OW30970   1.958   3.349   8.284 -0.1264 -0.0217 -0.2098
 6446SOL    HW130971   1.894   3.353   8.355  1.9762  1.1496  1.6236
 6446SOL    HW230972   2.015   3.421   8.311  1.0765 -1.0773  0.0517
 6447SOL     OW30973   0.750   3.289  15.121 -0.7838 -0.0872  0.1065
 6447SOL    HW130974   0.756   3.375  15.080 -2.2368  0.6185  1.3788
 6447SOL    HW230975   0.657   3.272  15.109 -0.4523 -0.7392 -1.6447
 6448SOL     OW30976   0.452   3.999   6.934 -0.3796  0.0304 -0.2602
 6448SOL    HW130977   0.510   3.976   6.862  1.8630 -2.3359  2.3080
 6448SOL    HW230978   0.408   3.916   6.950  0.2565  0.2251  2.5395
 6449SOL     OW30979   3.730   1.935  15.642 -0.4512 -0.2470  0.2334
 6449SOL    HW130980   3.702   1.912  15.553  0.7279  0.8559 -0.4206
 6449SOL    HW230981   3.692   1.866  15.697  1.4080 -1.0993  0.4283
 6450SOL     OW30982   1.319   3.715  14.328 -0.1219 -0.3590 -0.4825
 6450SOL    HW130983   1.386   3.695  14.393 -3.1228 -1.9613  2.0958
 6450SOL    HW230984   1.282   3.630  14.306 -1.2249  0.4811 -1.9037
 6451SOL     OW30985   4.434   4.402   5.613  0.2931 -0.6141 -0.5600
 6451SOL    HW130986   4.521   4.380   5.647  0.7680  2.6009  0.2863
 6451SOL    HW230987   4.382   4.333   5.656  1.0184  0.4319  2.0210
 6452SOL     OW30988   2.718   0.245   6.053  0.0420 -0.4596  0.5335
 6452SOL    HW130989   2.627   0.216   6.048 -0.4546  0.7801  2.3930
 6452SOL    HW230990   2.710   0.273   6.144  0.6672 -1.8970  1.0351
 6453SOL     OW30991   1.402   4.302   3.211 -0.0606  0.0045  0.2918
 6453SOL    HW130992   1.320   4.256   3.199  0.0964 -0.6399  1.7101
 6453SOL    HW230993   1.402   4.329   3.119 -0.4039 -0.4062  0.1723
 6454SOL     OW30994   3.855   4.426   5.223 -0.0552  0.3700  0.7896
 6454SOL    HW130995   3.882   4.499   5.168  0.3784  1.7850  2.9053
 6454SOL    HW230996   3.762   4.444   5.231 -0.0935  0.1512  0.8398
 6455SOL     OW30997   1.746   3.570   3.507 -0.2851 -0.2227  0.2736
 6455SOL    HW130998   1.817   3.595   3.448 -0.2273 -0.3647  0.2846
 6455SOL    HW230999   1.682   3.638   3.483 -0.3003 -0.6125 -0.7694
 6456SOL     OW31000   3.847   1.410   7.021  0.0548  0.1149  0.0547
 6456SOL    HW131001   3.894   1.356   6.957  1.3242  0.7411  0.4758
 6456SOL    HW231002   3.884   1.496   7.006  1.1187 -0.1455  1.2898
 6457SOL     OW31003   4.610   0.578   9.565 -0.5364  0.2098  0.3951
 6457SOL    HW131004   4.637   0.670   9.569 -0.5499  0.2187  0.2764
 6457SOL    HW231005   4.695   0.536   9.578 -0.3362  0.4950 -0.0079
 6458SOL     OW31006   1.165   0.252   2.006  0.0033 -0.4692  0.0040
 6458SOL    HW131007   1.148   0.285   2.094 -3.6913  0.2482 -0.9985
 6458SOL    HW231008   1.183   0.161   2.027  1.5758  0.3296  2.1892
 6459SOL     OW31009   3.773   1.725   8.604 -0.9173 -0.0798  0.4143
 6459SOL    HW131010   3.778   1.800   8.546  0.7096 -0.8797 -0.4989
 6459SOL    HW231011   3.744   1.756   8.690 -0.8393  0.3532  0.2828
 6460SOL     OW31012   3.505   4.720   9.853  0.5796 -0.3547 -0.4880
 6460SOL    HW131013   3.540   4.701   9.766  0.6418  0.9739 -0.7499
 6460SOL    HW231014   3.483   0.074   9.834  3.1209 -0.0063 -1.8768
 6461SOL     OW31015   4.447   0.614   8.669 -0.0111 -0.6324 -0.0192
 6461SOL    HW131016   4.476   0.691   8.621 -1.9355  0.7722  1.0603
 6461SOL    HW231017   4.434   0.645   8.758 -3.6800  1.8833 -1.4100
 6462SOL     OW31018   4.551   1.554   5.992  0.0817  0.1112  0.1201
 6462SOL    HW131019   4.477   1.494   5.996 -0.1167  0.3992  0.6874
 6462SOL    HW231020   4.592   1.538   6.077  2.2196  1.8970 -0.5723
 6463SOL     OW31021   2.571   2.693   7.870  0.1337  0.7770 -0.2414
 6463SOL    HW131022   2.652   2.641   7.874 -0.0792  0.4222 -0.6064
 6463SOL    HW231023   2.614   2.778   7.860  0.6911  0.6833  1.3515
 6464SOL     OW31024   3.301   0.198   4.289  0.1058  0.0262  0.2272
 6464SOL    HW131025   3.224   0.207   4.232  0.1534 -0.2163  0.1264
 6464SOL    HW231026   3.366   0.151   4.238 -0.3531  1.1876 -1.4192
 6465SOL     OW31027   1.213   0.060   8.304  0.5890 -0.1084 -0.0208
 6465SOL    HW131028   1.134   0.008   8.291 -0.7869  1.4247  2.1407
 6465SOL    HW231029   1.166   0.137   8.335  0.0078 -0.2531 -0.5608
 6466SOL     OW31030   3.520   0.786   4.715 -0.1649  0.3461 -0.1568
 6466SOL    HW131031   3.515   0.736   4.634  0.3467 -1.5652  1.0004
 6466SOL    HW231032   3.578   0.854   4.681  1.6179 -0.5833  1.0550
 6467SOL     OW31033   3.737   1.187   1.538  0.0038 -0.3116 -0.1047
 6467SOL    HW131034   3.731   1.092   1.542 -0.7691 -0.2563 -0.0823
 6467SOL    HW231035   3.750   1.194   1.443  1.3336  1.7876  0.2029
 6468SOL     OW31036   4.262   3.261   4.502  0.6191  0.1198  0.2271
 6468SOL    HW131037   4.276   3.260   4.407 -0.0109  0.1812  0.1373
 6468SOL    HW231038   4.330   3.197   4.524 -1.2712 -0.8941  3.1546
 6469SOL     OW31039   0.786   1.993   7.161  0.0012  0.0717  0.1339
 6469SOL    HW131040   0.866   1.986   7.214  0.0266 -1.3531 -0.0978
 6469SOL    HW231041   0.788   1.911   7.112  1.3269  0.8916 -1.1705
 6470SOL     OW31042   4.692   3.341  12.183  0.6334 -0.5168  0.2565
 6470SOL    HW131043   4.687   3.436  12.174 -0.0315 -0.4419  1.3585
 6470SOL    HW231044   0.021   3.319  12.117 -0.2028 -0.9356 -0.4251
 6471SOL     OW31045   4.180   2.275   5.643 -0.3536 -0.1673  0.7396
 6471SOL    HW131046   4.176   2.213   5.716 -1.0076  0.2172  1.0302
 6471SOL    HW231047   4.121   2.230   5.582  0.5833 -0.8105  0.3093
 6472SOL     OW31048   3.109   1.868   9.025 -0.0430  0.3901  0.1743
 6472SOL    HW131049   3.027   1.833   9.060  1.2576 -2.5500  0.2485
 6472SOL    HW231050   3.139   1.923   9.098  0.6660 -0.2854  0.3879
 6473SOL     OW31051   3.367   4.381   8.592  0.3258 -0.4279 -0.2874
 6473SOL    HW131052   3.353   4.395   8.686  1.7485 -0.2905 -0.1078
 6473SOL    HW231053   3.368   4.468   8.551  0.7517  0.4505  1.5754
 6474SOL     OW31054   0.542   2.424  11.658 -0.2030 -0.3162  0.1592
 6474SOL    HW131055   0.471   2.380  11.705 -0.6181 -0.6625 -0.8086
 6474SOL    HW231056   0.572   2.358  11.597 -1.9619 -2.1308  1.2716
 6475SOL     OW31057   4.439   4.026   8.814 -0.0630 -0.2642  0.5455
 6475SOL    HW131058   4.407   4.051   8.901 -0.6295 -0.5575  0.4197
 6475SOL    HW231059   4.426   3.931   8.809 -2.2364  0.1447 -1.0482
 6476SOL     OW31060   4.079   2.198   2.084  0.6790  0.1211 -0.6909
 6476SOL    HW131061   4.166   2.184   2.120 -0.5433 -0.1402  2.2041
 6476SOL    HW231062   4.023   2.222   2.158 -0.4234  0.7574 -1.7256
 6477SOL     OW31063   1.721   1.311   3.889  0.1940 -0.5712 -0.0698
 6477SOL    HW131064   1.776   1.322   3.966  0.0423 -0.1294 -0.0281
 6477SOL    HW231065   1.633   1.314   3.927  0.4573 -0.5924  0.5441
 6478SOL     OW31066   0.925   2.187  12.326 -0.1361  0.0494  0.4271
 6478SOL    HW131067   1.017   2.182  12.301 -0.4545  0.7153 -0.9205
 6478SOL    HW231068   0.923   2.198  12.421 -0.5117 -0.4535  0.4766
 6479SOL     OW31069   0.186   4.537  14.856 -0.0556 -0.1308 -0.0824
 6479SOL    HW131070   0.105   4.567  14.899 -0.5057 -0.4185 -0.7397
 6479SOL    HW231071   0.158   4.556  14.766 -0.5559  0.7570  0.2561
 6480SOL     OW31072   2.314   0.998   3.597 -0.3629  0.4761  0.1671
 6480SOL    HW131073   2.258   0.920   3.588  1.5524 -0.8264 -0.4406
 6480SOL    HW231074   2.393   0.944   3.598 -0.4700  0.3176  0.1198
 6481SOL     OW31075   2.744   2.536   1.579  0.1633  0.4176  0.7911
 6481SOL    HW131076   2.721   2.590   1.654 -0.7037  0.4983  0.4590
 6481SOL    HW231077   2.840   2.544   1.572  0.1936 -1.1490 -0.5779
 6482SOL     OW31078   4.007   3.147   8.819  0.2904  0.1052  0.5242
 6482SOL    HW131079   4.056   3.121   8.742 -2.0934 -0.7066 -0.7354
 6482SOL    HW231080   4.055   3.222   8.853 -0.9509  0.0577  2.4318
 6483SOL     OW31081   4.458   1.612   2.413 -0.3777 -0.1403  0.0688
 6483SOL    HW131082   4.463   1.685   2.474 -1.4273 -0.2795  0.3200
 6483SOL    HW231083   4.551   1.591   2.400  0.3365  2.3065  1.1215
 6484SOL     OW31084   0.744   4.087   9.686 -0.0017 -0.0992 -0.5312
 6484SOL    HW131085   0.722   4.133   9.767 -3.0473 -0.9823 -0.8621
 6484SOL    HW231086   0.785   4.003   9.708  0.9607  1.4346  3.5314
 6485SOL     OW31087   2.037   3.080  17.350 -0.0850 -0.4072 -0.0534
 6485SOL    HW131088   2.053   3.073  17.444 -4.1468  0.0334  0.6796
 6485SOL    HW231089   2.058   2.994  17.314 -0.4858 -0.4776 -0.1097
 6486SOL     OW31090   1.086   0.781  14.479 -0.1328 -0.3696 -0.2744
 6486SOL    HW131091   1.139   0.785  14.558 -1.5404  0.7215  0.5984
 6486SOL    HW231092   1.143   0.730  14.421  2.4422  1.2800  0.8201
 6487SOL     OW31093   3.977   1.717   1.665  0.4880  0.0954 -0.0179
 6487SOL    HW131094   4.026   1.796   1.688  1.3783 -0.2546 -0.6970
 6487SOL    HW231095   3.968   1.712   1.570 -1.1100  0.1604  0.1445
 6488SOL     OW31096   0.608   0.322  10.284 -0.2578 -0.0355 -0.5468
 6488SOL    HW131097   0.548   0.362  10.347 -2.5015 -0.0306 -2.6632
 6488SOL    HW231098   0.585   0.376  10.209  0.1926 -0.9446 -1.3379
 6489SOL     OW31099   1.488   4.564  11.944 -0.5305 -0.0921 -0.2986
 6489SOL    HW131100   1.451   4.542  12.030 -0.2458 -1.9701 -0.6398
 6489SOL    HW231101   1.431   4.633  11.911  0.8446  1.4945  0.6894
 6490SOL     OW31102   0.671   1.728   4.334 -0.0897  0.3774  0.1299
 6490SOL    HW131103   0.723   1.719   4.414 -0.2487 -0.1627  0.1717
 6490SOL    HW231104   0.587   1.687   4.353  0.0805  0.7226  1.6383
 6491SOL     OW31105   1.582   3.625   2.764  0.5401  0.1430 -0.0607
 6491SOL    HW131106   1.596   3.540   2.723 -0.0502  0.1016 -0.1641
 6491SOL    HW231107   1.619   3.602   2.849  0.3356 -0.8695 -0.2438
 6492SOL     OW31108   2.240   2.749   6.377  0.6520 -0.1785  0.8829
 6492SOL    HW131109   2.267   2.700   6.299 -1.6276  1.1618 -0.6987
 6492SOL    HW231110   2.319   2.728   6.428  0.3398  0.8263  1.7882
 6493SOL     OW31111   2.921   3.289   5.177  0.0000 -0.0483  1.1683
 6493SOL    HW131112   2.829   3.265   5.177 -0.1164  0.4054  0.9081
 6493SOL    HW231113   2.937   3.298   5.271 -2.6683  1.6342  1.4643
 6494SOL     OW31114   4.193   1.306   9.291 -0.0841 -0.1811  0.0013
 6494SOL    HW131115   4.150   1.230   9.331  0.9315 -0.4981  0.4953
 6494SOL    HW231116   4.148   1.314   9.208  1.0454  1.1575 -0.4968
 6495SOL     OW31117   4.183   2.685  17.464 -0.3594 -0.1296  0.0015
 6495SOL    HW131118   4.119   2.729  17.520  1.4559  0.2329  1.7920
 6495SOL    HW231119   4.131   2.670  17.385  2.8389 -0.3225 -2.0756
 6496SOL     OW31120   3.461   2.729   1.803 -0.3912 -0.2871  0.6138
 6496SOL    HW131121   3.450   2.671   1.727  1.0438  0.0390  0.1690
 6496SOL    HW231122   3.379   2.777   1.801 -0.4421 -0.3349  1.8751
 6497SOL     OW31123   2.818   1.600   3.109 -0.1718  0.2667 -0.0108
 6497SOL    HW131124   2.726   1.625   3.123 -0.8801 -2.6691  0.6821
 6497SOL    HW231125   2.842   1.582   3.200 -1.7662 -0.8459  0.2058
 6498SOL     OW31126   2.171   3.526  17.678 -0.2421  0.4457  0.3243
 6498SOL    HW131127   2.229   3.571  17.740 -0.1667  1.6059 -0.5873
 6498SOL    HW231128   2.225   3.497  17.605 -0.6964  0.3098  0.0439
 6499SOL     OW31129   2.856   2.115  11.845 -0.7230  0.1841  0.2097
 6499SOL    HW131130   2.911   2.083  11.917  0.1883  1.3649  0.0463
 6499SOL    HW231131   2.855   2.209  11.867  1.8239  0.0155  1.0381
 6500SOL     OW31132   3.729   0.492  10.721  0.1914 -0.0893  0.8075
 6500SOL    HW131133   3.737   0.499  10.626 -0.1557  2.1695  0.9439
 6500SOL    HW231134   3.778   0.573  10.734 -0.4381  0.4822 -0.3691
 6501SOL     OW31135   3.941   0.751  12.989  0.4023 -0.6863  0.3667
 6501SOL    HW131136   3.857   0.711  13.013 -1.2419  1.6650 -1.4136
 6501SOL    HW231137   3.920   0.843  13.006 -1.6400 -1.2391  0.8483
 6502SOL     OW31138   4.162   2.846   9.153 -0.5602 -0.3634  0.4081
 6502SOL    HW131139   4.075   2.870   9.123 -0.9939 -0.0893  1.8907
 6502SOL    HW231140   4.191   2.786   9.084  1.6857 -0.2023  1.2017
 6503SOL     OW31141   1.171   1.608   3.330 -0.5052  0.0658  0.4714
 6503SOL    HW131142   1.138   1.686   3.375 -0.1810  1.6958 -2.0992
 6503SOL    HW231143   1.158   1.645   3.243  0.3510  1.0927  0.7756
 6504SOL     OW31144   1.405   2.377  10.281  0.0188 -0.0433 -0.2527
 6504SOL    HW131145   1.382   2.468  10.296  2.5020  0.5431  0.0365
 6504SOL    HW231146   1.480   2.400  10.226 -0.1029 -1.2201 -0.9165
 6505SOL     OW31147   0.959   0.182   8.805  0.0624 -0.8704  0.7182
 6505SOL    HW131148   0.895   0.178   8.733  1.1326 -1.7296 -0.1890
 6505SOL    HW231149   1.011   0.257   8.775 -0.0849  0.2411  3.3112
 6506SOL     OW31150   0.538   0.922  14.207  0.4131  0.0451  0.3166
 6506SOL    HW131151   0.602   0.909  14.277  0.9672  2.6917  0.2871
 6506SOL    HW231152   0.594   0.912  14.130  0.9083  0.1144  0.6695
 6507SOL     OW31153   1.843   3.947  11.955  0.1146  0.9271 -0.0020
 6507SOL    HW131154   1.901   3.977  11.885 -0.0668  1.0305 -0.1091
 6507SOL    HW231155   1.757   3.981  11.929  0.4061  0.9207 -0.9945
 6508SOL     OW31156   1.765   1.361   0.897 -0.0111 -0.2533 -0.0240
 6508SOL    HW131157   1.811   1.341   0.815  1.1922 -0.0931  0.6141
 6508SOL    HW231158   1.821   1.317   0.960  2.2089 -0.4882 -2.1474
 6509SOL     OW31159   3.233   2.290   4.459 -0.4516 -0.4194 -0.1159
 6509SOL    HW131160   3.309   2.346   4.440  0.1377 -1.5065 -0.9561
 6509SOL    HW231161   3.163   2.354   4.448  0.7317  0.6579 -1.3967
 6510SOL     OW31162   0.410   1.358   9.919 -0.0762 -0.1285 -0.9564
 6510SOL    HW131163   0.391   1.264   9.921  1.0467 -0.3200  0.8103
 6510SOL    HW231164   0.353   1.379   9.846 -1.0452 -0.4434 -0.2865
 6511SOL     OW31165   3.240   0.700  15.570 -0.7162  0.0714 -0.0181
 6511SOL    HW131166   3.146   0.709  15.558 -0.5346 -0.1155 -1.6761
 6511SOL    HW231167   3.264   0.608  15.580  0.0568  0.1343 -1.2110
 6512SOL     OW31168   4.708   0.861   2.203  0.3377  0.0500 -0.2855
 6512SOL    HW131169   0.036   0.927   2.228 -0.1597 -0.4957  2.4378
 6512SOL    HW231170   4.720   0.852   2.108 -2.6376 -0.3623 -0.6321
 6513SOL     OW31171   3.516   4.689   3.210 -0.1507 -0.2731  0.1664
 6513SOL    HW131172   3.528   0.010   3.134 -0.6193 -0.4252 -0.0230
 6513SOL    HW231173   3.471   4.737   3.280 -1.1853  2.1608 -2.1248
 6514SOL     OW31174   2.585   1.502   6.793  0.0457 -0.2842  0.1794
 6514SOL    HW131175   2.642   1.431   6.764  0.8460 -0.2262  1.6128
 6514SOL    HW231176   2.498   1.476   6.765  0.6421 -2.1408  0.0629
 6515SOL     OW31177   1.369   1.348   8.559 -0.2331 -0.4592 -0.5908
 6515SOL    HW131178   1.389   1.440   8.543  0.7810 -0.8421 -1.5474
 6515SOL    HW231179   1.329   1.343   8.645  0.2973  0.6112 -0.2873
 6516SOL     OW31180   3.870   2.808   4.203 -0.0922 -0.1537 -0.9631
 6516SOL    HW131181   3.943   2.866   4.224 -1.7526  1.7393 -0.4167
 6516SOL    HW231182   3.814   2.847   4.136 -1.6347 -0.9810 -0.1635
 6517SOL     OW31183   1.664   2.624   6.735  0.1301  0.5269  0.0528
 6517SOL    HW131184   1.741   2.681   6.739 -0.5152  1.5224 -2.0844
 6517SOL    HW231185   1.658   2.619   6.640 -2.4019 -0.7786  0.2585
 6518SOL     OW31186   2.136   3.011   2.289 -0.5002  0.5218 -0.3200
 6518SOL    HW131187   2.083   3.091   2.288 -2.4786 -0.7817  0.6779
 6518SOL    HW231188   2.114   2.972   2.204  0.6491 -0.5664 -0.1045
 6519SOL     OW31189   4.480   1.824   6.248 -0.6988  0.2134  0.0069
 6519SOL    HW131190   4.545   1.867   6.304 -0.7778 -0.3218  0.5133
 6519SOL    HW231191   4.423   1.779   6.311  0.6565  1.2588  1.9969
 6520SOL     OW31192   4.051   4.491   1.946 -0.0461 -0.4544 -0.1478
 6520SOL    HW131193   3.999   4.570   1.960  1.2868 -0.0669  2.6516
 6520SOL    HW231194   4.084   4.512   1.859  0.6219  0.6389  0.3704
 6521SOL     OW31195   4.584   1.297  11.158 -0.0550 -0.2335  0.2917
 6521SOL    HW131196   4.521   1.362  11.127 -1.8666 -1.9863  0.3132
 6521SOL    HW231197   4.531   1.219  11.171 -0.4990  0.2965  1.7268
 6522SOL     OW31198   1.268   2.244  11.874  0.1171 -0.7638  0.5737
 6522SOL    HW131199   1.254   2.165  11.927 -2.4905 -0.9114 -0.3312
 6522SOL    HW231200   1.353   2.266  11.912  0.4724  0.6981 -1.0911
 6523SOL     OW31201   1.302   3.625   2.700 -0.0926  0.6062  0.4168
 6523SOL    HW131202   1.286   3.570   2.777 -0.9901  1.2860  0.7167
 6523SOL    HW231203   1.396   3.610   2.691 -0.2581  0.3718 -0.8333
 6524SOL     OW31204   2.862   4.455  15.882 -0.1077  0.2153  0.1498
 6524SOL    HW131205   2.888   4.506  15.806  0.1550 -3.8549 -2.4666
 6524SOL    HW231206   2.783   4.504  15.903 -0.3844 -0.5257  0.8294
 6525SOL     OW31207   2.961   0.790   1.039  0.9429 -0.5601  0.2517
 6525SOL    HW131208   2.956   0.883   1.065  1.7193 -0.0735 -1.3573
 6525SOL    HW231209   2.867   0.772   1.047  0.8014 -0.8935 -2.1048
 6526SOL     OW31210   4.547   1.442  17.172 -0.2986  0.1950  0.7472
 6526SOL    HW131211   4.470   1.499  17.178  0.1032  0.9422 -1.3516
 6526SOL    HW231212   4.592   1.474  17.094 -0.3883 -0.6187  0.3686
 6527SOL     OW31213   3.718   0.669  11.170  0.5977 -0.0114 -0.1701
 6527SOL    HW131214   3.723   0.595  11.110 -1.5069 -0.4824  0.2136
 6527SOL    HW231215   3.669   0.732  11.118 -0.1838 -1.4185 -1.1570
 6528SOL     OW31216   3.540   0.326   8.471 -0.4095  0.5414 -0.5871
 6528SOL    HW131217   3.539   0.236   8.440  0.2651  0.4567 -0.3739
 6528SOL    HW231218   3.590   0.319   8.553 -1.1595 -1.7408 -0.3332
 6529SOL     OW31219   0.251   1.313   4.842 -0.1207 -0.2003 -0.1562
 6529SOL    HW131220   0.283   1.296   4.930 -0.0824 -1.6910 -0.4719
 6529SOL    HW231221   0.327   1.281   4.793  0.2011 -1.1796  0.9924
 6530SOL     OW31222   3.475   3.980   3.045  0.3623  0.4238  0.7920
 6530SOL    HW131223   3.543   4.010   3.106 -0.0816 -2.9021  2.8756
 6530SOL    HW231224   3.437   3.904   3.089  0.2046 -0.3418 -0.6470
 6531SOL     OW31225   1.440   4.001   5.266  0.0485 -0.5506 -0.7355
 6531SOL    HW131226   1.415   3.909   5.252 -4.3512  0.4402  0.6265
 6531SOL    HW231227   1.446   3.998   5.362  0.3940  0.9331 -0.7131
 6532SOL     OW31228   4.259   0.014  14.117  0.0455 -0.4197  0.2777
 6532SOL    HW131229   4.278   0.099  14.156 -0.8885 -0.8647  1.6702
 6532SOL    HW231230   4.192   0.036  14.052 -0.9738  1.2361  1.9205
 6533SOL     OW31231   0.734   2.471  12.651 -0.1526  0.0375 -0.1563
 6533SOL    HW131232   0.679   2.398  12.682  2.0094 -0.6405  2.0546
 6533SOL    HW231233   0.697   2.482  12.563 -0.7530 -2.1396 -0.1845
 6534SOL     OW31234   2.604   1.459   7.208 -0.3206  0.3712  0.0424
 6534SOL    HW131235   2.674   1.517   7.178 -1.8683  0.9014 -2.5997
 6534SOL    HW231236   2.578   1.418   7.125  2.8446 -1.6709  0.0457
 6535SOL     OW31237   1.533   1.828   7.914 -0.4932 -0.2792  0.0726
 6535SOL    HW131238   1.580   1.746   7.898  0.9921  0.4696  0.6017
 6535SOL    HW231239   1.480   1.833   7.835  0.5234 -1.2166 -0.6806
 6536SOL     OW31240   3.406   2.581   5.391  0.2958 -0.3006 -0.3139
 6536SOL    HW131241   3.418   2.503   5.336 -0.1527 -0.4396 -0.2223
 6536SOL    HW231242   3.497   2.608   5.396  0.1440  0.4354 -1.5735
 6537SOL     OW31243   3.502   1.208  15.325 -0.7189  0.0558  0.3164
 6537SOL    HW131244   3.439   1.279  15.337 -1.7957 -0.7423 -0.6635
 6537SOL    HW231245   3.518   1.218  15.231  0.9874 -2.6307  0.3241
 6538SOL     OW31246   3.562   3.413  11.097 -0.6977  0.2714  0.1319
 6538SOL    HW131247   3.514   3.372  11.025 -0.6649 -1.1611  0.9264
 6538SOL    HW231248   3.622   3.473  11.052 -0.2344 -0.5173 -0.3156
 6539SOL     OW31249   4.516   4.522   2.956  0.4483 -0.1284  0.4082
 6539SOL    HW131250   4.478   4.533   2.869 -1.1993 -0.3240  1.1000
 6539SOL    HW231251   4.442   4.544   3.013  1.7895  2.4341  1.1678
 6540SOL     OW31252   4.685   1.901   2.998  0.4061 -0.5708  0.0708
 6540SOL    HW131253   0.036   1.937   2.985  1.1074 -2.9027 -1.5688
 6540SOL    HW231254   4.664   1.862   2.914  0.1296 -1.2918  0.4768
 6541SOL     OW31255   1.811   4.593  14.564 -0.1204 -0.6168 -0.3556
 6541SOL    HW131256   1.884   4.547  14.606 -0.0545 -0.0372  0.1686
 6541SOL    HW231257   1.855   4.634  14.490 -3.7922 -0.0796 -2.2663
 6542SOL     OW31258   3.655   2.647   5.273 -0.3521  0.8264  0.0905
 6542SOL    HW131259   3.690   2.638   5.362  0.9489 -0.7143 -0.5790
 6542SOL    HW231260   3.732   2.657   5.218  0.0612  1.5961  0.8039
 6543SOL     OW31261   3.332   1.320   5.624 -0.2532  0.8142  0.4529
 6543SOL    HW131262   3.286   1.241   5.593  0.8918 -0.0251  0.8634
 6543SOL    HW231263   3.276   1.353   5.694 -2.2649 -1.2119 -0.1849
 6544SOL     OW31264   1.891   2.762   6.766 -0.0533  0.2564 -0.2768
 6544SOL    HW131265   1.920   2.845   6.804  0.2758 -0.4317  0.9883
 6544SOL    HW231266   1.965   2.705   6.789 -1.0405 -1.2404 -0.7720
 6545SOL     OW31267   3.901   0.921   9.409 -0.1479  0.1319  0.3789
 6545SOL    HW131268   3.856   0.962   9.482 -0.8449  1.8771 -1.0266
 6545SOL    HW231269   3.977   0.880   9.450  1.8173  2.2626 -1.1537
 6546SOL     OW31270   0.006   0.653  10.164 -0.0197 -0.0197  0.9038
 6546SOL    HW131271   0.052   0.728  10.125  0.8211 -1.2607 -0.5104
 6546SOL    HW231272   4.668   0.694  10.208 -0.4425  0.6419 -0.4156
 6547SOL     OW31273   4.582   0.863   8.580 -0.6718 -0.2709 -0.1678
 6547SOL    HW131274   4.537   0.942   8.607  1.9208  0.8444  0.9361
 6547SOL    HW231275   4.667   0.873   8.623 -1.3436  0.0242  1.0807
 6548SOL     OW31276   1.396   4.289  17.191  0.4848  0.4021  0.0566
 6548SOL    HW131277   1.449   4.317  17.266  0.8566 -1.2164  0.3877
 6548SOL    HW231278   1.458   4.310  17.121 -0.0941  0.1337 -0.5374
 6549SOL     OW31279   1.891   2.605   2.167 -0.1766  0.5053  0.0036
 6549SOL    HW131280   1.977   2.613   2.125 -1.2942  1.5214 -2.1151
 6549SOL    HW231281   1.847   2.558   2.097 -1.9225  2.6972 -0.3756
 6550SOL     OW31282   2.168   3.688   1.740  0.2918  0.2052  0.0584
 6550SOL    HW131283   2.142   3.771   1.702 -0.0454  0.6097  1.1575
 6550SOL    HW231284   2.247   3.723   1.783  0.6850  0.0175 -0.5153
 6551SOL     OW31285   2.004   3.390  13.131 -0.3750  0.3451  0.0391
 6551SOL    HW131286   2.012   3.459  13.197 -0.5474 -0.4873  0.9338
 6551SOL    HW231287   2.040   3.438  13.056  0.4653  0.6556  0.6459
 6552SOL     OW31288   0.860   2.378   3.756 -0.4029  0.5060 -0.0876
 6552SOL    HW131289   0.939   2.332   3.729 -0.0344  0.9617  0.2066
 6552SOL    HW231290   0.895   2.442   3.818 -0.4880 -0.7080  1.1862
 6553SOL     OW31291   4.611   3.662  14.575 -0.0445 -0.2359  0.2540
 6553SOL    HW131292   4.582   3.590  14.630 -2.4692  1.2917  0.9741
 6553SOL    HW231293   4.691   3.635  14.530 -0.1958  2.0736 -1.4612
 6554SOL     OW31294   4.092   1.974   4.056  0.0887  0.5102  0.3497
 6554SOL    HW131295   4.045   1.925   3.989  2.3304  0.8727 -1.4531
 6554SOL    HW231296   4.031   2.018   4.116 -0.0788  1.9233 -0.8507
 6555SOL     OW31297   2.805   2.500  14.734 -0.1252 -0.3517 -0.1979
 6555SOL    HW131298   2.883   2.517  14.787 -2.3938  0.7228  2.7290
 6555SOL    HW231299   2.778   2.414  14.765  0.8501 -0.3525  0.6514
 6556SOL     OW31300   1.739   0.295   8.352  0.1143 -0.0062  0.2066
 6556SOL    HW131301   1.832   0.278   8.363 -0.4123 -2.4207  1.0214
 6556SOL    HW231302   1.702   0.232   8.414  1.0687 -0.7285  0.0248
 6557SOL     OW31303   1.499   4.711   6.222  0.8896  0.3838 -0.2714
 6557SOL    HW131304   1.586   4.673   6.239  0.6636  0.5048  1.1463
 6557SOL    HW231305   1.505   4.727   6.128 -1.3844 -1.2646 -0.6949
 6558SOL     OW31306   0.924   1.939   8.893 -0.6942  0.3491 -0.0774
 6558SOL    HW131307   0.978   2.002   8.941 -0.7946  1.0738 -0.9180
 6558SOL    HW231308   0.941   1.981   8.809 -2.6291  1.9625  0.3441
 6559SOL     OW31309   4.023   0.387  13.245 -0.6130 -0.8685 -0.1084
 6559SOL    HW131310   4.045   0.295  13.257 -0.7311 -0.8587  0.1887
 6559SOL    HW231311   4.057   0.407  13.158  0.9618 -4.3302 -0.2816
 6560SOL     OW31312   1.237   1.544   5.681  0.1009 -0.2227  0.7965
 6560SOL    HW131313   1.199   1.613   5.736 -0.5284  0.5828 -0.6311
 6560SOL    HW231314   1.226   1.471   5.741 -0.9243 -1.2568 -0.6381
 6561SOL     OW31315   0.318   3.450   8.366 -0.5064  0.3934  0.5434
 6561SOL    HW131316   0.233   3.492   8.378 -2.2673 -2.8366 -0.5394
 6561SOL    HW231317   0.365   3.520   8.321 -0.8621 -1.6596 -3.0082
 6562SOL     OW31318   4.005   3.927   2.842 -0.0632 -0.3436  0.5695
 6562SOL    HW131319   3.937   3.953   2.904 -1.4012  0.3655 -1.2001
 6562SOL    HW231320   4.035   3.845   2.881 -0.8543 -0.5926  0.6565
 6563SOL     OW31321   0.893   1.324   9.691 -0.2773  0.0864 -0.0292
 6563SOL    HW131322   0.826   1.275   9.644 -1.6865  0.2199  1.8409
 6563SOL    HW231323   0.872   1.294   9.780 -2.1521  1.2289 -0.1037
 6564SOL     OW31324   1.543   3.620   6.587  0.8544 -0.5397 -0.1240
 6564SOL    HW131325   1.637   3.632   6.582  0.4907  1.1318 -2.6590
 6564SOL    HW231326   1.517   3.611   6.495 -2.5804  2.3691  0.5419
 6565SOL     OW31327   2.014   1.965   0.458 -0.3472 -0.3902  0.3686
 6565SOL    HW131328   2.018   1.915   0.539 -0.2800 -0.0216  0.5917
 6565SOL    HW231329   1.945   2.031   0.465 -2.6593 -2.4662 -2.7398
 6566SOL     OW31330   1.159   2.557   9.310 -0.0332  0.1180 -0.4067
 6566SOL    HW131331   1.244   2.534   9.348  0.2541  1.5563 -0.1812
 6566SOL    HW231332   1.140   2.640   9.354  0.5975 -0.4466  0.9219
 6567SOL     OW31333   1.362   3.314   1.723  0.0475  0.2976  0.6617
 6567SOL    HW131334   1.276   3.297   1.684 -0.2965  1.2759  0.9982
 6567SOL    HW231335   1.337   3.328   1.815  0.6761  1.6790  0.6188
 6568SOL     OW31336   1.452   2.823   8.603  0.4892  0.9518 -0.4394
 6568SOL    HW131337   1.381   2.822   8.539 -0.7815  1.2089  0.9543
 6568SOL    HW231338   1.455   2.737   8.645 -2.0707  0.3585 -1.4826
 6569SOL     OW31339   4.264   0.294   2.738 -0.0539  0.0700 -0.3499
 6569SOL    HW131340   4.302   0.240   2.669  2.2908 -1.0213  1.7895
 6569SOL    HW231341   4.324   0.265   2.807 -0.7655 -0.1458  0.1719
 6570SOL     OW31342   3.037   0.170   3.734 -0.2822 -0.1917  0.2709
 6570SOL    HW131343   3.077   0.117   3.804 -2.0825  0.1223  1.5213
 6570SOL    HW231344   3.112   0.185   3.676 -0.1522  0.6035  0.6507
 6571SOL     OW31345   1.314   4.248   5.827 -0.6542  0.1382 -0.4513
 6571SOL    HW131346   1.317   4.289   5.741 -0.3107  1.1475  0.0454
 6571SOL    HW231347   1.228   4.207   5.837 -0.8237  0.7026  0.4575
 6572SOL     OW31348   0.842   4.298   3.138  0.4833  0.0042  0.3919
 6572SOL    HW131349   0.916   4.335   3.090  0.1572  2.0220  1.4338
 6572SOL    HW231350   0.812   4.379   3.181 -0.0528  0.9978 -1.8459
 6573SOL     OW31351   0.869   1.297   4.774 -0.2639  0.2373 -0.0410
 6573SOL    HW131352   0.951   1.330   4.739  0.7326 -2.2802 -0.0587
 6573SOL    HW231353   0.805   1.355   4.733  1.5665  0.6829 -2.2393
 6574SOL     OW31354   3.696   4.554   7.511 -0.2180  0.7008  0.3507
 6574SOL    HW131355   3.686   4.463   7.541 -0.3730  0.6948  0.2756
 6574SOL    HW231356   3.716   4.595   7.595  0.9479  0.5441  0.1502
 6575SOL     OW31357   0.027   2.206  13.192 -0.1671  0.3542  0.7859
 6575SOL    HW131358   4.710   2.127  13.186 -0.9597  0.6497  4.2156
 6575SOL    HW231359   4.699   2.269  13.222 -2.0714 -0.8821 -0.7288
 6576SOL     OW31360   0.395   1.898   9.770  0.4571  0.2006  0.5649
 6576SOL    HW131361   0.438   1.815   9.751  0.7653  0.9733 -2.1658
 6576SOL    HW231362   0.417   1.954   9.696  0.1203  0.3796  0.6010
 6577SOL     OW31363   1.328   4.389  16.426 -0.2848  0.1065 -0.3990
 6577SOL    HW131364   1.376   4.380  16.509  0.6928 -1.5349 -1.1297
 6577SOL    HW231365   1.371   4.452  16.368  2.3288 -0.7169  0.6366
 6578SOL     OW31366   1.621   3.874   0.728 -0.2622 -0.0914 -0.2179
 6578SOL    HW131367   1.676   3.936   0.776 -1.3139 -0.4606  1.4572
 6578SOL    HW231368   1.536   3.916   0.713 -1.2409 -1.7582  0.7685
 6579SOL     OW31369   2.829   3.737   7.520 -0.4885 -0.4057 -0.6708
 6579SOL    HW131370   2.851   3.707   7.432 -1.2950 -0.6515 -0.7875
 6579SOL    HW231371   2.877   3.820   7.517  1.3920 -1.3671  2.3361
 6580SOL     OW31372   1.650   2.143   8.321  0.2233  0.6664  0.3460
 6580SOL    HW131373   1.556   2.144   8.302  0.4132  1.5766 -0.5311
 6580SOL    HW231374   1.681   2.120   8.233 -0.7180 -0.5402  0.3306
 6581SOL     OW31375   4.139   2.974  10.543 -0.4729  0.1443  0.0573
 6581SOL    HW131376   4.186   2.896  10.512 -0.9983 -1.8145  4.1418
 6581SOL    HW231377   4.066   2.973  10.480  0.8263  2.0685 -1.4636
 6582SOL     OW31378   4.515   2.174   6.760 -0.7856 -0.0322  0.0803
 6582SOL    HW131379   4.553   2.207   6.841 -0.0013  0.9556 -0.6936
 6582SOL    HW231380   4.548   2.229   6.689  1.6535 -0.6555  0.7257
 6583SOL     OW31381   1.192   2.458   3.042  0.1696  0.6421  0.4339
 6583SOL    HW131382   1.237   2.482   3.123  2.4653  0.1679 -0.7278
 6583SOL    HW231383   1.137   2.535   3.026 -2.0312 -0.8242  0.9384
 6584SOL     OW31384   1.724   0.627   7.681  0.2668 -0.2693  0.3734
 6584SOL    HW131385   1.804   0.615   7.732  0.8565 -0.2314 -0.5583
 6584SOL    HW231386   1.659   0.663   7.741 -0.2705 -0.9714  0.2120
 6585SOL     OW31387   1.375   3.036  14.008 -0.0854 -0.3426 -0.3650
 6585SOL    HW131388   1.303   2.996  14.056  0.3457 -0.0168  0.5623
 6585SOL    HW231389   1.327   3.110  13.970 -0.0377 -0.1063  0.0391
 6586SOL     OW31390   2.820   2.415   0.048  0.3152 -0.4624  0.6020
 6586SOL    HW131391   2.840   2.504   0.020 -0.3003  0.2523  2.3976
 6586SOL    HW231392   2.751   2.438   0.110 -0.4792  0.5156 -0.6654
 6587SOL     OW31393   1.839   2.074  17.697  0.0735  0.5314 -0.0606
 6587SOL    HW131394   1.791   2.057   0.033  0.1288  1.9769  0.2732
 6587SOL    HW231395   1.787   2.144  17.658  0.6749  0.2621 -1.3445
 6588SOL     OW31396   4.391   3.790  17.572  0.0605 -0.3278  0.3908
 6588SOL    HW131397   4.420   3.711  17.527  2.4125  0.4267  0.5966
 6588SOL    HW231398   4.402   3.854  17.501  0.9625  0.3265  1.1252
 6589SOL     OW31399   3.942   0.338   3.286 -0.4877  0.5722  0.4552
 6589SOL    HW131400   3.959   0.432   3.280 -2.8310  1.1755  3.1837
 6589SOL    HW231401   4.003   0.304   3.220  0.2763  0.1458  1.3794
 6590SOL     OW31402   4.330   2.925  14.794  0.1210  0.3539 -0.2540
 6590SOL    HW131403   4.336   2.856  14.860 -2.1726 -0.6686 -1.1140
 6590SOL    HW231404   4.244   2.903  14.758  0.9779 -1.4894 -1.1591
 6591SOL     OW31405   1.794   1.309   3.581 -0.2288  0.5668 -0.2957
 6591SOL    HW131406   1.785   1.351   3.666  1.4325  1.2239 -0.4507
 6591SOL    HW231407   1.700   1.291   3.572  0.2005 -2.0950  0.2444
 6592SOL     OW31408   2.615   2.763  13.332 -0.0313 -0.0221  0.3170
 6592SOL    HW131409   2.566   2.707  13.272 -2.3866  0.6194  1.6425
 6592SOL    HW231410   2.563   2.749  13.412  1.5661  0.6294  1.4737
 6593SOL     OW31411   0.591   0.313  17.472  0.3301 -0.5456 -0.4492
 6593SOL    HW131412   0.573   0.378  17.541  0.9841 -0.0257 -0.7653
 6593SOL    HW231413   0.667   0.346  17.424 -0.4362  1.1353 -0.5058
 6594SOL     OW31414   4.132   3.118   1.687  0.1322 -0.1776 -0.2365
 6594SOL    HW131415   4.129   3.183   1.757  0.4261 -0.9498  0.4951
 6594SOL    HW231416   4.043   3.086   1.678  1.0543 -2.6940 -0.3586
 6595SOL     OW31417   2.520   0.916   4.417 -0.1466 -0.6024 -0.1072
 6595SOL    HW131418   2.592   0.860   4.387  0.3396  1.9035 -3.5175
 6595SOL    HW231419   2.449   0.883   4.363 -0.1734  0.5542 -0.7867
 6596SOL     OW31420   1.389   3.234   8.606 -0.3957  0.1655  0.1503
 6596SOL    HW131421   1.352   3.184   8.679 -2.5988  2.5058  0.6715
 6596SOL    HW231422   1.463   3.280   8.645 -0.7562  0.5479  0.3955
 6597SOL     OW31423   0.654   2.218   4.045  0.1468  0.0205  0.6257
 6597SOL    HW131424   0.745   2.201   4.022  0.1326 -0.0898  0.6496
 6597SOL    HW231425   0.644   2.174   4.129 -1.3221  0.1208  0.5024
 6598SOL     OW31426   3.861   0.802   8.005  0.1209  0.1105  0.5218
 6598SOL    HW131427   3.933   0.811   8.067  0.5999 -0.0680 -0.0004
 6598SOL    HW231428   3.796   0.866   8.034  1.2777  0.8284  1.5205
 6599SOL     OW31429   2.053   2.095   6.750 -0.5262 -0.5550  0.1883
 6599SOL    HW131430   2.086   2.183   6.727  0.0337 -0.7244  0.3437
 6599SOL    HW231431   2.083   2.098   6.840  1.1741  1.1776 -0.4361
 6600SOL     OW31432   4.588   3.174   0.136  0.6757 -0.5355  0.1687
 6600SOL    HW131433   4.641   3.253   0.134 -3.4941  2.3039  2.5988
 6600SOL    HW231434   4.619   3.133   0.217 -0.7364  1.6083  1.8017
 6601SOL     OW31435   4.598   4.218   8.757  0.1411  0.5503  0.0021
 6601SOL    HW131436   4.528   4.153   8.763  0.4861  0.2615  0.8632
 6601SOL    HW231437   4.650   4.180   8.828  0.5693 -0.9054 -1.1173
 6602SOL     OW31438   0.702   0.632   9.680  0.1673 -0.4871  0.3686
 6602SOL    HW131439   0.768   0.563   9.670  2.9547  2.0108  1.6702
 6602SOL    HW231440   0.747   0.699   9.628 -2.3878  1.0047  0.1134
 6603SOL     OW31441   3.087   0.543   2.586  0.3974 -0.2301  0.0045
 6603SOL    HW131442   3.128   0.458   2.574  1.8534  0.3172  1.0502
 6603SOL    HW231443   3.088   0.554   2.681 -1.1640  0.4587 -0.0619
 6604SOL     OW31444   2.114   2.873   5.315 -0.5233 -0.7434 -0.4812
 6604SOL    HW131445   2.199   2.905   5.284 -0.4350 -0.4652  0.0530
 6604SOL    HW231446   2.088   2.815   5.243 -0.8886 -2.4833  1.0735
 6605SOL     OW31447   2.530   1.616   1.481  0.2417 -0.0558  0.0332
 6605SOL    HW131448   2.546   1.651   1.569  0.6764 -0.9491  0.3083
 6605SOL    HW231449   2.536   1.521   1.494 -1.8119 -0.1598  0.1754
 6606SOL     OW31450   2.676   1.345   9.451  0.3569 -0.0722 -0.0450
 6606SOL    HW131451   2.676   1.261   9.405  0.4665 -0.2729  0.3211
 6606SOL    HW231452   2.770   1.361   9.462  0.4157  0.3970 -1.2053
 6607SOL     OW31453   2.981   3.229   9.312 -0.4459 -0.0295  0.2135
 6607SOL    HW131454   2.894   3.231   9.272 -0.2214 -2.0864 -0.3880
 6607SOL    HW231455   3.009   3.313   9.276  2.0515 -0.3867  1.3340
 6608SOL     OW31456   3.901   1.693   4.421 -0.4284 -0.5062 -0.3939
 6608SOL    HW131457   3.887   1.714   4.513  1.9357 -0.3442 -0.0835
 6608SOL    HW231458   3.808   1.678   4.403 -0.7401  1.7141 -0.6497
 6609SOL     OW31459   1.772   1.772   6.850  0.3105  0.1698  0.6807
 6609SOL    HW131460   1.776   1.698   6.910 -1.6789  0.3546  1.0306
 6609SOL    HW231461   1.765   1.846   6.910 -2.8174  1.7494 -1.6487
 6610SOL     OW31462   0.869   3.419  14.218 -0.0182  0.0994 -0.0442
 6610SOL    HW131463   0.839   3.415  14.309  1.9877  0.0631  0.6101
 6610SOL    HW231464   0.924   3.341  14.209  0.6362  0.6533 -0.8804
 6611SOL     OW31465   4.399   2.421   3.684  0.5262 -0.1552  0.1709
 6611SOL    HW131466   4.432   2.501   3.725 -0.6897 -0.1794  1.2007
 6611SOL    HW231467   4.403   2.359   3.757  4.7415  0.4287  0.3997
 6612SOL     OW31468   0.029   0.777  13.509 -0.4326  0.2055  0.2693
 6612SOL    HW131469   4.672   0.755  13.513 -0.2159 -0.9514 -1.0395
 6612SOL    HW231470   0.066   0.707  13.456 -0.8007  1.3708 -1.5298
 6613SOL     OW31471   1.803   4.118   2.575  0.0582  0.4733  0.1421
 6613SOL    HW131472   1.847   4.055   2.631 -1.0647 -1.7614 -1.5084
 6613SOL    HW231473   1.794   4.058   2.501  0.7189  1.4596 -0.7434
 6614SOL     OW31474   1.002   1.653   3.728  0.1822  0.4908  0.2101
 6614SOL    HW131475   0.906   1.652   3.728  0.1861 -0.4334  0.6261
 6614SOL    HW231476   1.021   1.562   3.750  0.8518  0.9521  1.5573
 6615SOL     OW31477   2.610   3.667   6.566  0.0690 -0.3084 -0.3791
 6615SOL    HW131478   2.705   3.675   6.560 -0.0551  1.5535  0.3155
 6615SOL    HW231479   2.591   3.623   6.482 -0.4501  1.2265 -1.0622
 6616SOL     OW31480   2.004   1.119  11.046  0.3280 -0.5757 -1.1174
 6616SOL    HW131481   2.082   1.162  11.012  0.8695  0.8572  1.9450
 6616SOL    HW231482   1.950   1.196  11.060 -0.2097 -1.6404  2.6091
 6617SOL     OW31483   0.893   4.142   1.753 -0.5282  0.2798 -0.0201
 6617SOL    HW131484   0.915   4.063   1.802 -0.5424  1.1668  1.4252
 6617SOL    HW231485   0.843   4.117   1.676  1.3675 -1.0638 -0.7985
 6618SOL     OW31486   4.704   2.070   6.300  0.9989  0.4910  0.7286
 6618SOL    HW131487   4.622   2.118   6.309 -0.1943 -1.5405  0.6256
 6618SOL    HW231488   4.721   2.049   6.392  3.6416  0.6079  0.2643
 6619SOL     OW31489   0.070   0.529   4.312  0.2375 -0.5163  0.0202
 6619SOL    HW131490   0.132   0.462   4.342 -1.1432 -1.0025  1.7965
 6619SOL    HW231491   4.723   0.484   4.312 -0.4299  0.7241  1.2315
 6620SOL     OW31492   4.633   2.527   4.624  0.2631 -0.1293 -0.0504
 6620SOL    HW131493   4.647   2.611   4.667  0.3461  0.4603 -1.2560
 6620SOL    HW231494   4.694   2.466   4.667 -1.0516 -1.5875 -0.2450
 6621SOL     OW31495   3.348   4.196   1.440 -0.2012  0.0487 -0.2159
 6621SOL    HW131496   3.319   4.115   1.400 -0.4665  0.6716 -1.2721
 6621SOL    HW231497   3.426   4.211   1.387  1.2020  2.2602  2.4701
 6622SOL     OW31498   0.336   2.813   2.686 -0.3587  0.3684  0.1504
 6622SOL    HW131499   0.266   2.859   2.734  0.2686 -0.4646  1.8623
 6622SOL    HW231500   0.398   2.797   2.757  0.1241 -0.8299 -0.5618
 6623SOL     OW31501   2.878   0.741   7.695 -0.2785  0.4014  0.0591
 6623SOL    HW131502   2.932   0.780   7.626  0.4701  0.8707  0.9135
 6623SOL    HW231503   2.818   0.813   7.714 -0.1820  0.6019 -0.3952
 6624SOL     OW31504   1.124   1.184   2.891  0.1768  0.0111 -0.2348
 6624SOL    HW131505   1.127   1.088   2.897  0.2663 -0.0100 -0.6527
 6624SOL    HW231506   1.200   1.211   2.941  0.8752  0.5830 -1.6189
 6625SOL     OW31507   0.177   3.095  12.883  0.2215  0.0675 -0.4164
 6625SOL    HW131508   0.270   3.097  12.907 -0.1939  0.2962  1.1552
 6625SOL    HW231509   0.172   3.162  12.815  1.3558  0.6574  0.0636
 6626SOL     OW31510   0.244   4.179   6.999 -0.4214  0.7295 -0.5620
 6626SOL    HW131511   0.294   4.247   6.955 -0.4944  1.6745  0.8419
 6626SOL    HW231512   0.289   4.100   6.969 -0.0521  1.7718 -2.7415
 6627SOL     OW31513   1.014   1.056   6.534 -0.0165  0.1385 -0.3997
 6627SOL    HW131514   0.986   1.065   6.625  0.8409  0.7571 -0.1910
 6627SOL    HW231515   0.946   1.000   6.498 -0.7267 -0.0809  1.3103
 6628SOL     OW31516   3.420   1.362  16.021 -0.1899 -0.6483  0.1954
 6628SOL    HW131517   3.336   1.407  16.024  1.1816  1.8096  0.8296
 6628SOL    HW231518   3.401   1.277  15.980  0.8544 -2.4444  3.4715
 6629SOL     OW31519   3.450   0.522   9.386  0.5886  0.7595 -0.0834
 6629SOL    HW131520   3.518   0.581   9.416  2.2551 -0.4176 -1.5669
 6629SOL    HW231521   3.456   0.454   9.452 -1.6054  0.7204  0.0985
 6630SOL     OW31522   3.793   3.735   1.784 -0.1945  0.5604  0.4267
 6630SOL    HW131523   3.882   3.702   1.768 -0.3506  0.1089  0.5035
 6630SOL    HW231524   3.817   3.765   1.872  3.4397  2.2185 -1.1387
 6631SOL     OW31525   2.934   2.829   2.512 -0.1087  0.2792 -0.5040
 6631SOL    HW131526   2.902   2.824   2.602  0.1976 -0.5523 -0.4422
 6631SOL    HW231527   2.857   2.871   2.474 -0.1865  0.5332 -0.0613
 6632SOL     OW31528   0.104   1.438   2.627 -0.7641 -0.6004 -0.4524
 6632SOL    HW131529   0.097   1.510   2.690 -0.9257 -1.7252  0.8185
 6632SOL    HW231530   0.180   1.394   2.666 -0.4127 -0.4417 -0.9581
 6633SOL     OW31531   1.107   0.108  15.795  0.4512 -1.0647  0.6064
 6633SOL    HW131532   1.198   0.130  15.816  0.1612 -0.5607  1.3461
 6633SOL    HW231533   1.127   0.107  15.701  0.2055  2.5627  0.5166
 6634SOL     OW31534   2.476   4.656  12.987  0.2002  0.5017 -0.1296
 6634SOL    HW131535   2.536   4.582  12.978  0.0144  0.2019  1.0906
 6634SOL    HW231536   2.533   4.730  13.009  1.7384 -0.7838  0.1786
 6635SOL     OW31537   0.095   1.251   9.042 -0.5420 -0.6813 -0.6985
 6635SOL    HW131538   0.171   1.263   8.984  1.2564 -0.5841  1.6980
 6635SOL    HW231539   0.105   1.331   9.093 -0.1622 -1.9185  1.1490
 6636SOL     OW31540   3.290   0.230   9.539 -0.1578  1.0654  0.1680
 6636SOL    HW131541   3.376   0.217   9.498 -1.9387 -0.6967 -3.0478
 6636SOL    HW231542   3.317   0.260   9.626 -1.0335  1.0791  0.4321
 6637SOL     OW31543   2.561   4.017   3.296  0.3119 -0.8620  0.1565
 6637SOL    HW131544   2.629   4.062   3.346  0.2989  0.0002 -0.6162
 6637SOL    HW231545   2.499   4.004   3.368 -0.5338  2.4220  0.0269
 6638SOL     OW31546   1.776   2.308   4.132  0.3114 -0.3477 -0.3239
 6638SOL    HW131547   1.841   2.362   4.087 -2.3743  1.2004 -2.2754
 6638SOL    HW231548   1.825   2.227   4.147  3.7271  1.7739 -0.0159
 6639SOL     OW31549   2.485   1.156   8.973 -0.1347 -0.5368  0.0989
 6639SOL    HW131550   2.493   1.248   8.948  0.0299 -0.7083 -0.4665
 6639SOL    HW231551   2.577   1.139   8.993  0.0874  0.8825  0.2384
 6640SOL     OW31552   2.673   3.168   4.756 -0.4852 -0.3011 -0.5492
 6640SOL    HW131553   2.713   3.242   4.802 -0.0871 -0.0144 -1.3563
 6640SOL    HW231554   2.580   3.181   4.776 -0.1576  1.1088  0.0569
 6641SOL     OW31555   3.585   2.036  10.331  0.1893  0.4067  0.3819
 6641SOL    HW131556   3.493   2.024  10.307  1.6386  0.3270 -5.0699
 6641SOL    HW231557   3.569   2.060  10.422  0.7758  2.9337 -0.1810
 6642SOL     OW31558   2.613   2.418   4.870 -0.0398  0.0097  0.4225
 6642SOL    HW131559   2.524   2.390   4.850 -0.5956  2.1022 -0.0904
 6642SOL    HW231560   2.598   2.464   4.953  0.6648  0.9727  0.0262
 6643SOL     OW31561   1.429   0.757  12.381  0.2968 -0.2938 -0.3667
 6643SOL    HW131562   1.422   0.668  12.346  2.7692 -0.8338  0.4964
 6643SOL    HW231563   1.524   0.766  12.392  0.3760 -0.5947 -0.8178
 6644SOL     OW31564   1.400   1.205   6.003 -0.4275 -0.2530 -0.6045
 6644SOL    HW131565   1.485   1.209   6.047 -0.3539 -1.0351 -0.6819
 6644SOL    HW231566   1.372   1.118   6.032  0.2841  0.0541  0.9784
 6645SOL     OW31567   1.334   2.127   1.870  0.1966  0.1800 -0.1105
 6645SOL    HW131568   1.420   2.084   1.866  1.2717  2.1504  2.1830
 6645SOL    HW231569   1.367   2.209   1.906 -0.1380  0.7769 -1.1662
 6646SOL     OW31570   4.584   4.678   5.504 -0.1321 -0.2339 -0.0290
 6646SOL    HW131571   4.587   4.735   5.581 -1.4797  0.4031 -0.4573
 6646SOL    HW231572   4.635   4.605   5.540 -0.3799 -0.3219  0.1518
 6647SOL     OW31573   2.821   2.387   5.048  0.1344  0.0849  0.3999
 6647SOL    HW131574   2.793   2.295   5.050 -2.4704  0.9264  1.9264
 6647SOL    HW231575   2.772   2.413   4.970  1.4181  0.6471 -0.2197
 6648SOL     OW31576   4.029   0.329   9.245 -0.1570  0.6340  0.0968
 6648SOL    HW131577   4.029   0.331   9.341 -1.6537 -0.9232  0.1315
 6648SOL    HW231578   4.088   0.404   9.238  0.3543  0.3920  1.7341
 6649SOL     OW31579   0.077   3.221   6.288 -0.5547  0.6545 -0.2772
 6649SOL    HW131580   0.002   3.246   6.341 -1.2921 -0.6305 -0.6898
 6649SOL    HW231581   0.043   3.138   6.253  1.1994 -1.0489  2.1171
 6650SOL     OW31582   2.159   1.477   3.547  0.0208  0.0390 -0.4658
 6650SOL    HW131583   2.225   1.409   3.537 -0.0103  0.1066 -1.1246
 6650SOL    HW231584   2.214   1.548   3.581 -0.8943 -0.1959  1.5336
 6651SOL     OW31585   3.405   1.350   8.208  0.1848 -0.5632  0.3865
 6651SOL    HW131586   3.371   1.318   8.292 -2.2836  2.0074  0.3719
 6651SOL    HW231587   3.500   1.345   8.217  0.4433  1.7964 -1.1790
 6652SOL     OW31588   2.055   4.584   7.379 -0.3894  0.4984 -0.0737
 6652SOL    HW131589   2.143   4.553   7.359 -0.3961 -0.3597  1.2487
 6652SOL    HW231590   2.013   4.554   7.298  0.5283 -1.7831  0.2924
 6653SOL     OW31591   1.984   2.884  16.346 -0.3601 -0.4390  0.1087
 6653SOL    HW131592   1.966   2.973  16.376 -3.7708 -1.0590 -0.2005
 6653SOL    HW231593   2.053   2.900  16.280 -0.7515 -1.0473 -0.4512
 6654SOL     OW31594   0.011   3.280   9.175  0.5707  0.0499 -0.0400
 6654SOL    HW131595   0.037   3.369   9.151 -2.1289  0.8261 -0.0944
 6654SOL    HW231596   0.088   3.254   9.225  0.3438  0.5713  0.5710
 6655SOL     OW31597   2.241   4.616   6.062 -0.3532 -0.4991 -0.0744
 6655SOL    HW131598   2.233   4.522   6.081 -1.6573 -0.4204 -0.2174
 6655SOL    HW231599   2.335   4.628   6.059 -0.4580  0.3832  0.3091
 6656SOL     OW31600   3.457   3.272   6.301 -0.0911 -0.6541 -0.2456
 6656SOL    HW131601   3.465   3.214   6.225  1.3539  0.6824 -1.1013
 6656SOL    HW231602   3.365   3.299   6.301  0.5402  1.4944  0.9975
 6657SOL     OW31603   1.756   0.947   7.547 -0.5558 -0.1888 -0.4270
 6657SOL    HW131604   1.703   0.980   7.620 -2.7191 -2.4797 -0.9288
 6657SOL    HW231605   1.770   0.863   7.590  1.0115 -0.4810 -1.5144
 6658SOL     OW31606   2.172   2.463   7.103  0.0416  0.1983 -0.0002
 6658SOL    HW131607   2.118   2.539   7.086 -1.2358 -0.2957  1.7667
 6658SOL    HW231608   2.189   2.475   7.197 -1.3472 -0.2440  0.3095
 6659SOL     OW31609   2.613   2.869   7.346 -0.0335 -0.3775  0.3164
 6659SOL    HW131610   2.677   2.819   7.295  0.7570  1.8462 -0.8630
 6659SOL    HW231611   2.602   2.937   7.280 -4.9120 -0.3237  1.2420
 6660SOL     OW31612   4.333   3.585   1.369  0.0724 -0.8808 -0.8943
 6660SOL    HW131613   4.378   3.651   1.316 -2.1192 -0.8785 -2.7300
 6660SOL    HW231614   4.354   3.625   1.453  0.0730 -4.4798  0.8457
 6661SOL     OW31615   2.756   2.131  12.171 -0.3614 -0.1304  0.1005
 6661SOL    HW131616   2.746   2.188  12.247  0.3658  1.5515 -1.0706
 6661SOL    HW231617   2.837   2.167  12.136 -0.0301  0.0258  1.0317
 6662SOL     OW31618   1.783   3.513  17.105 -0.1414  0.6486 -0.3854
 6662SOL    HW131619   1.704   3.502  17.053  0.7828 -0.3693 -1.5881
 6662SOL    HW231620   1.736   3.502  17.188  1.6690  2.8026  0.9240
 6663SOL     OW31621   3.471   2.366   7.871 -0.0184 -0.1747  0.2366
 6663SOL    HW131622   3.384   2.330   7.890  0.4865 -1.1429  0.7033
 6663SOL    HW231623   3.509   2.348   7.957  1.7236  0.6024 -0.3760
 6664SOL     OW31624   3.806   4.590   9.749  0.3962  0.6013 -0.6096
 6664SOL    HW131625   3.857   4.559   9.674 -0.4787 -1.1432 -0.4635
 6664SOL    HW231626   3.714   4.569   9.733  1.0857 -3.0865  0.3173
 6665SOL     OW31627   0.984   3.023   7.740  0.3030 -0.1927  0.1830
 6665SOL    HW131628   1.029   3.100   7.775  0.1285  0.5458 -1.2291
 6665SOL    HW231629   1.060   2.981   7.699  1.5937  0.2583  2.0920
 6666SOL     OW31630   2.057   1.835   1.057  0.1331  0.1178 -0.3658
 6666SOL    HW131631   2.038   1.828   1.150  0.4259  0.4410 -0.2817
 6666SOL    HW231632   2.118   1.762   1.050  0.7149  0.6395 -0.7615
 6667SOL     OW31633   4.349   3.095   1.307 -0.4635  0.4138 -0.4352
 6667SOL    HW131634   4.333   3.189   1.323 -0.3837  0.3854 -0.1827
 6667SOL    HW231635   4.418   3.097   1.241  0.2317 -1.2191  0.2415
 6668SOL     OW31636   0.988   3.633   2.899 -0.0035 -0.1442 -0.1682
 6668SOL    HW131637   0.917   3.691   2.925  3.0120  3.1846  0.6881
 6668SOL    HW231638   0.987   3.573   2.974  0.1477  0.7768  0.5746
 6669SOL     OW31639   3.936   2.717   0.717  0.5338 -0.2773 -0.2795
 6669SOL    HW131640   3.932   2.711   0.622  0.9735 -0.3179 -0.2915
 6669SOL    HW231641   3.859   2.665   0.744  0.4277 -1.4582 -2.9062
 6670SOL     OW31642   1.758   1.313   7.848  0.4839 -0.5948  0.1894
 6670SOL    HW131643   1.724   1.367   7.919  0.6019 -1.9796  1.2939
 6670SOL    HW231644   1.811   1.374   7.796  0.9771  0.8159  2.3630
 6671SOL     OW31645   0.363   0.939  16.284 -0.0404  0.6737  0.3099
 6671SOL    HW131646   0.326   0.964  16.199 -1.0259 -3.8929 -0.6362
 6671SOL    HW231647   0.413   1.011  16.323  0.7372  0.5729 -0.4720
 6672SOL     OW31648   3.097   0.779  10.596 -0.0304 -0.5756 -0.9812
 6672SOL    HW131649   3.105   0.779  10.500  2.2376  2.1760 -0.7830
 6672SOL    HW231650   3.034   0.708  10.610 -1.0035  0.7236  1.1990
 6673SOL     OW31651   4.728   3.018   3.459  0.5941  0.0543 -0.4926
 6673SOL    HW131652   4.672   2.955   3.414 -0.9616  0.2687  1.1238
 6673SOL    HW231653   4.711   3.106   3.426 -1.0995 -1.1766 -2.8558
 6674SOL     OW31654   2.793   3.217   2.705 -0.5272  0.4352  0.0470
 6674SOL    HW131655   2.887   3.198   2.708 -0.4927  0.4847 -0.9660
 6674SOL    HW231656   2.797   3.269   2.785 -0.0812  0.7365 -0.1711
 6675SOL     OW31657   0.433   3.398   2.529  0.0090  0.2842  0.4701
 6675SOL    HW131658   0.415   3.329   2.466 -0.3075  1.1607 -0.3959
 6675SOL    HW231659   0.528   3.401   2.542  0.0656 -0.4335  0.1672
 6676SOL     OW31660   2.050   1.255   7.944  0.0040 -0.3099 -0.1834
 6676SOL    HW131661   2.012   1.190   7.886  2.0459 -1.0471 -0.6940
 6676SOL    HW231662   2.018   1.336   7.904  2.6924  1.8931  2.0561
 6677SOL     OW31663   1.049   0.653   6.084 -0.1336 -0.8536 -0.3104
 6677SOL    HW131664   1.144   0.652   6.081 -0.2081 -0.1455 -3.3834
 6677SOL    HW231665   1.031   0.599   6.160  1.0261  0.3138  0.7822
 6678SOL     OW31666   3.340   3.593   0.211 -0.1048 -0.1195 -0.3771
 6678SOL    HW131667   3.366   3.596   0.303  1.8622  3.0238 -1.0021
 6678SOL    HW231668   3.368   3.681   0.186 -2.0607  0.7823  0.6101
 6679SOL     OW31669   3.119   0.445   4.158 -0.0097 -0.4168  0.4685
 6679SOL    HW131670   3.045   0.389   4.134 -0.0288 -0.3369  0.3432
 6679SOL    HW231671   3.120   0.444   4.254 -1.2056 -1.1652  0.4798
 6680SOL     OW31672   1.094   4.194   4.215  0.0024 -0.1542 -0.3689
 6680SOL    HW131673   1.115   4.267   4.274 -1.2201 -0.7340  0.7879
 6680SOL    HW231674   1.111   4.229   4.128 -1.6342  2.3582  0.3056
 6681SOL     OW31675   1.176   2.100   1.085 -0.2667  0.2764 -0.3411
 6681SOL    HW131676   1.215   2.022   1.047 -1.3695 -1.0798  1.3215
 6681SOL    HW231677   1.119   2.133   1.016 -0.5351 -0.7005 -0.5744
 6682SOL     OW31678   0.587   2.442   9.273 -0.4444  0.2967  1.0581
 6682SOL    HW131679   0.653   2.480   9.214 -1.2532 -1.3233 -0.8955
 6682SOL    HW231680   0.523   2.512   9.262 -0.4723  0.2334  0.8220
 6683SOL     OW31681   4.383   3.935  17.316 -0.6498 -0.4202  0.0784
 6683SOL    HW131682   4.434   3.937  17.235  0.4079  2.1705  0.8012
 6683SOL    HW231683   4.406   4.013  17.366  0.1484  1.1847 -2.7765
 6684SOL     OW31684   2.754   1.941  11.681  0.1093  0.2271 -0.1253
 6684SOL    HW131685   2.794   1.992  11.751 -1.0485 -2.4565  2.5034
 6684SOL    HW231686   2.828   1.891  11.648 -1.0074 -2.6300  1.7103
 6685SOL     OW31687   3.021   0.377   3.326 -0.0153 -0.4162 -0.3378
 6685SOL    HW131688   2.998   0.317   3.255 -0.0072 -1.3160  0.4302
 6685SOL    HW231689   2.979   0.458   3.298  2.1502  1.1767  0.9939
 6686SOL     OW31690   4.689   0.473   2.330  0.1715 -0.2039 -0.2272
 6686SOL    HW131691   4.613   0.529   2.313  0.4779  0.2069 -0.2633
 6686SOL    HW231692   4.654   0.419   2.400  0.5848 -1.6612 -1.1427
 6687SOL     OW31693   2.159   3.497  17.348 -0.0171 -0.4767 -0.2618
 6687SOL    HW131694   2.150   3.564  17.281  2.8836 -0.4514 -0.6488
 6687SOL    HW231695   2.140   3.420  17.294 -2.3775  1.2650 -1.8750
 6688SOL     OW31696   4.329   4.365   4.579 -0.0128  0.1406  0.1269
 6688SOL    HW131697   4.247   4.369   4.629 -1.6223 -1.9349 -2.2926
 6688SOL    HW231698   4.318   4.287   4.524  2.0461  0.1230 -0.2500
 6689SOL     OW31699   4.422   1.694   6.830  0.7116 -0.0085 -0.3619
 6689SOL    HW131700   4.366   1.709   6.754 -0.6727  0.8056  0.8211
 6689SOL    HW231701   4.364   1.632   6.873 -0.9738  1.3490 -0.6680
 6690SOL     OW31702   2.047   0.163   2.779 -0.5631  0.0474  0.5823
 6690SOL    HW131703   2.083   0.215   2.851 -0.0012 -1.2932  1.2681
 6690SOL    HW231704   2.065   0.226   2.709  1.3010 -2.7401 -1.4168
 6691SOL     OW31705   3.445   4.251   5.746 -0.3281  0.3673 -0.3920
 6691SOL    HW131706   3.374   4.249   5.682 -0.1556 -0.9567 -0.5378
 6691SOL    HW231707   3.488   4.335   5.729 -0.6908  0.0985 -2.6794
 6692SOL     OW31708   4.734   3.093   8.971  0.3857  0.1510  0.4099
 6692SOL    HW131709   0.003   3.154   9.045  1.5476  0.6514 -0.0963
 6692SOL    HW231710   0.076   3.040   8.982  1.4867  1.1168 -2.9224
 6693SOL     OW31711   4.312   3.820   7.945  0.1748  0.5837 -0.1388
 6693SOL    HW131712   4.397   3.865   7.945 -0.7102  2.2753 -1.6832
 6693SOL    HW231713   4.298   3.831   7.851 -0.9480 -1.0956 -0.1584
 6694SOL     OW31714   0.953   1.810   5.576  0.0955  0.2199 -0.2507
 6694SOL    HW131715   0.916   1.737   5.625 -0.9048  1.5618  1.0041
 6694SOL    HW231716   1.009   1.846   5.645  0.1009 -3.5272  1.6752
 6695SOL     OW31717   1.054   1.932  16.252  0.5694 -0.1598  0.8251
 6695SOL    HW131718   1.021   1.925  16.341 -0.5128 -1.1377  0.3462
 6695SOL    HW231719   1.025   1.849  16.215 -2.4776  0.7328  1.1932
 6696SOL     OW31720   0.122   3.771   0.476 -0.2158  0.1639 -0.4588
 6696SOL    HW131721   0.204   3.755   0.428 -0.9442  0.8604 -1.9264
 6696SOL    HW231722   0.093   3.852   0.435 -0.8379 -1.4929 -3.2935
 6697SOL     OW31723   0.158   3.050   1.422 -0.3564  0.0500  0.0774
 6697SOL    HW131724   0.244   3.007   1.415 -0.2841  0.2184 -0.0979
 6697SOL    HW231725   0.184   3.130   1.468  1.3671 -1.9238  2.5196
 6698SOL     OW31726   0.907   1.640  11.226 -0.6332  0.0259 -0.2603
 6698SOL    HW131727   0.843   1.657  11.157 -1.5945 -0.7340  0.4497
 6698SOL    HW231728   0.908   1.721  11.276  1.0273 -0.2241  0.1374
 6699SOL     OW31729   2.365   3.647   0.124 -0.3256  0.8611  0.2150
 6699SOL    HW131730   2.316   3.585   0.178 -0.9445  2.3849  1.4205
 6699SOL    HW231731   2.374   3.724   0.181 -0.5383  0.1451  1.2332
 6700SOL     OW31732   3.151   4.735  16.435  0.3077 -0.0930  0.3660
 6700SOL    HW131733   3.095   0.017  16.360 -1.0162 -1.7472  0.9352
 6700SOL    HW231734   3.141   4.641  16.447 -0.4183 -0.4129 -2.8404
 6701SOL     OW31735   1.872   0.519   9.094 -0.1684 -0.1270 -0.6114
 6701SOL    HW131736   1.822   0.443   9.124 -2.6546  0.9811 -1.9484
 6701SOL    HW231737   1.949   0.510   9.150 -0.9231 -1.8606  0.1399
 6702SOL     OW31738   0.977   3.566   7.629  0.1554  0.0460  0.0279
 6702SOL    HW131739   0.910   3.633   7.640  0.9225  1.1763 -2.0138
 6702SOL    HW231740   0.919   3.491   7.629 -0.4184  0.4901 -0.2148
 6703SOL     OW31741   4.036   1.302   9.061  0.0508  0.1484  0.1778
 6703SOL    HW131742   3.944   1.315   9.085  0.2100  0.7569  0.4684
 6703SOL    HW231743   4.033   1.206   9.057 -0.5994  0.0205  3.9535
 6704SOL     OW31744   1.814   4.082   6.078 -0.0055  0.2067 -0.6597
 6704SOL    HW131745   1.849   4.095   5.990  0.0268  1.0343 -0.5269
 6704SOL    HW231746   1.882   4.027   6.117  0.5496  1.3412 -0.0281
 6705SOL     OW31747   4.578   3.723  15.471  0.2615 -0.0750  0.0904
 6705SOL    HW131748   4.574   3.815  15.446 -1.9950 -0.3974 -0.8097
 6705SOL    HW231749   4.525   3.725  15.551 -0.4692  0.1619 -0.3965
 6706SOL     OW31750   0.096   4.234  15.735 -0.2468  0.3337  0.1757
 6706SOL    HW131751   0.053   4.306  15.782 -1.5232 -1.6934  2.0839
 6706SOL    HW231752   0.120   4.278  15.653 -2.8852  1.2271 -0.1094
 6707SOL     OW31753   3.823   4.664   6.551  0.2874  0.1809 -0.5067
 6707SOL    HW131754   3.850   4.573   6.557  3.3171  1.0468 -0.7522
 6707SOL    HW231755   3.733   4.664   6.585 -0.1054  0.1114 -1.5614
 6708SOL     OW31756   0.740   1.272   5.627  0.0500 -0.5538  0.3977
 6708SOL    HW131757   0.657   1.225   5.634 -0.3821  0.1160 -0.2173
 6708SOL    HW231758   0.787   1.240   5.704  1.0270  1.0945  0.4942
 6709SOL     OW31759   2.719   3.275   8.897  0.1886 -0.1843 -0.4331
 6709SOL    HW131760   2.654   3.343   8.876  0.3173 -0.3514 -1.3714
 6709SOL    HW231761   2.789   3.310   8.842 -2.7463  2.8620 -2.2709
 6710SOL     OW31762   4.087   1.969   1.755 -0.4120 -0.1866  0.4296
 6710SOL    HW131763   4.168   2.002   1.793  0.5332 -1.8286 -0.1653
 6710SOL    HW231764   4.073   2.016   1.673  2.2217 -0.4965 -0.1856
 6711SOL     OW31765   0.637   1.509   6.315  0.0087  0.7742  0.8651
 6711SOL    HW131766   0.640   1.587   6.260  0.0239  1.1697  1.4290
 6711SOL    HW231767   0.691   1.535   6.389 -1.1839  2.8862  0.9912
 6712SOL     OW31768   2.516   0.768   4.041  0.1977 -0.1531 -0.4273
 6712SOL    HW131769   2.537   0.684   4.002 -0.3163 -0.2214 -0.5595
 6712SOL    HW231770   2.521   0.835   3.972 -2.1123  1.1333  0.6592
 6713SOL     OW31771   4.080   3.482   6.445 -0.0990 -0.6442 -0.1245
 6713SOL    HW131772   3.989   3.462   6.423  0.1127 -2.8596  0.9831
 6713SOL    HW231773   4.057   3.551   6.507  2.7676  0.1261  0.0596
 6714SOL     OW31774   1.039   1.069  10.618  0.8718  0.1801  0.0679
 6714SOL    HW131775   1.116   1.061  10.562  0.5973 -0.1562 -0.2601
 6714SOL    HW231776   1.075   1.048  10.704  1.9364  3.6618  0.4780
 6715SOL     OW31777   2.906   0.900  16.051  0.1786 -0.5193 -0.1722
 6715SOL    HW131778   2.966   0.848  16.104  0.2651 -1.0751 -0.8093
 6715SOL    HW231779   2.859   0.951  16.116  0.5646 -1.3499  0.7563
 6716SOL     OW31780   1.374   2.119   8.349  0.0627  0.3545  0.2062
 6716SOL    HW131781   1.334   2.083   8.270  0.4784 -0.6665  0.4686
 6716SOL    HW231782   1.326   2.202   8.350 -0.1896  0.2091  0.2905
 6717SOL     OW31783   4.563   3.947   1.992  0.6933  0.8221 -0.0541
 6717SOL    HW131784   4.566   3.886   1.918  1.2124  1.4896 -0.5858
 6717SOL    HW231785   4.471   3.953   2.019  0.4510 -0.1593 -0.6429
 6718SOL     OW31786   3.956   2.113  12.047 -0.1205  0.0887 -0.0984
 6718SOL    HW131787   3.906   2.174  11.993  0.5700  1.0908  0.4065
 6718SOL    HW231788   4.017   2.076  11.983 -0.9840 -2.2543  0.4428
 6719SOL     OW31789   1.797   0.099   5.708  0.3319  0.6365 -0.2754
 6719SOL    HW131790   1.875   0.150   5.687 -0.3268  1.7575 -0.0092
 6719SOL    HW231791   1.731   0.164   5.733  1.9550  0.3647  4.7969
 6720SOL     OW31792   4.627   3.152   8.590  0.3793 -0.0252  0.1760
 6720SOL    HW131793   4.546   3.138   8.540  0.0363 -2.7811  1.5353
 6720SOL    HW231794   4.629   3.248   8.585 -3.9851  0.0845  0.4737
 6721SOL     OW31795   3.167   0.884  15.761  0.2213  0.2851  0.9055
 6721SOL    HW131796   3.189   0.811  15.819 -0.5240 -1.2853 -0.8006
 6721SOL    HW231797   3.191   0.834  15.683 -2.9609 -0.5842  0.4626
 6722SOL     OW31798   2.306   3.814   8.672 -0.9252  0.1216 -0.8453
 6722SOL    HW131799   2.328   3.856   8.755 -3.5399  0.9661 -0.5872
 6722SOL    HW231800   2.211   3.825   8.671 -0.9846 -0.4066 -1.2833
 6723SOL     OW31801   3.440   0.705  12.239 -0.3705 -0.3509  0.1022
 6723SOL    HW131802   3.475   0.717  12.327  0.3959 -0.0927 -0.2369
 6723SOL    HW231803   3.352   0.682  12.269 -0.5914 -1.1169 -1.1719
 6724SOL     OW31804   0.284   2.070   5.556 -0.5561 -0.2432 -0.2238
 6724SOL    HW131805   0.319   1.990   5.517  2.5143  0.7477  0.5083
 6724SOL    HW231806   0.328   2.128   5.493  0.3523 -0.0769  0.5504
 6725SOL     OW31807   4.008   1.779  11.791  0.1560  0.2861 -0.0161
 6725SOL    HW131808   4.102   1.758  11.795  0.1753  0.3162 -0.3276
 6725SOL    HW231809   3.974   1.778  11.881  0.3806 -0.5146  0.0666
 6726SOL     OW31810   2.100   1.761   0.665  0.6430  0.0658 -0.3145
 6726SOL    HW131811   2.103   1.683   0.609  0.3195 -1.1593  1.3788
 6726SOL    HW231812   2.046   1.726   0.736  0.0276 -0.9865 -1.3049
 6727SOL     OW31813   4.144   2.715  10.735  0.1260  0.2793  0.2817
 6727SOL    HW131814   4.104   2.801  10.722 -0.5863 -0.3530 -1.5534
 6727SOL    HW231815   4.231   2.751  10.753  1.0023 -1.3706 -0.6360
 6728SOL     OW31816   2.650   4.576  15.977 -0.2644 -0.1158  0.2941
 6728SOL    HW131817   2.650   4.668  16.005  0.0236 -0.2692  0.7928
 6728SOL    HW231818   2.585   4.539  16.037  0.9847  0.4937  2.0129
 6729SOL     OW31819   0.441   3.289   8.845 -0.2656 -0.4368 -0.2420
 6729SOL    HW131820   0.398   3.283   8.931 -0.2933  2.8994 -0.0101
 6729SOL    HW231821   0.379   3.246   8.786 -0.8333  1.7330 -1.2295
 6730SOL     OW31822   2.264   3.208   8.323  0.5994  0.3429  0.9657
 6730SOL    HW131823   2.208   3.135   8.297 -1.1849  1.8299  0.6206
 6730SOL    HW231824   2.309   3.175   8.401  0.3681  0.9689  1.3602
 6731SOL     OW31825   2.594   4.154   2.118  0.9857  0.3333  0.1893
 6731SOL    HW131826   2.652   4.086   2.083 -0.7680 -0.4469 -1.1759
 6731SOL    HW231827   2.538   4.108   2.180 -1.6728  0.9773 -1.7640
 6732SOL     OW31828   1.146   4.447   8.884 -0.3623  0.2058  0.4647
 6732SOL    HW131829   1.196   4.438   8.803 -0.9846 -4.3088  0.5560
 6732SOL    HW231830   1.156   4.356   8.913  0.3153  0.3436  0.6483
 6733SOL     OW31831   2.392   3.598   2.887 -0.3747  0.0475 -0.1865
 6733SOL    HW131832   2.459   3.664   2.906  0.4383 -0.6065 -0.7541
 6733SOL    HW231833   2.317   3.644   2.850 -0.9057  0.4124  1.3225
 6734SOL     OW31834   4.475   4.378   7.754  0.0866  0.9220  0.3628
 6734SOL    HW131835   4.531   4.382   7.676  1.4285 -1.0644  1.2122
 6734SOL    HW231836   4.512   4.301   7.798 -1.0309  0.5234  0.5986
 6735SOL     OW31837   0.708   3.529   0.681  0.2662 -0.1016 -0.2039
 6735SOL    HW131838   0.744   3.470   0.748  1.5478 -0.6257 -1.3756
 6735SOL    HW231839   0.697   3.472   0.605  1.3016 -0.6130  0.0350
 6736SOL     OW31840   3.398   1.489   2.098  0.3276 -0.3007  0.7170
 6736SOL    HW131841   3.362   1.404   2.125 -0.2729 -0.1096  0.5201
 6736SOL    HW231842   3.481   1.474   2.143  1.2393  0.9183 -0.5420
 6737SOL     OW31843   3.636   2.354  12.263  0.0874 -0.2184  0.2043
 6737SOL    HW131844   3.566   2.419  12.266  2.5222  2.3721  0.1383
 6737SOL    HW231845   3.707   2.414  12.241  0.9885 -1.7056 -1.0411
 6738SOL     OW31846   1.269   2.526   7.740 -0.3537  0.2169  0.3914
 6738SOL    HW131847   1.360   2.529   7.770 -0.6675  4.7515  0.8413
 6738SOL    HW231848   1.228   2.468   7.804  0.7261  0.1799  1.0508
 6739SOL     OW31849   2.733   3.061   2.485 -0.2730 -0.3452 -0.2939
 6739SOL    HW131850   2.723   3.133   2.424 -1.2478 -2.2504 -2.3928
 6739SOL    HW231851   2.739   3.097   2.574  1.2707 -1.0646 -0.0888
 6740SOL     OW31852   2.703   2.348   6.152 -0.0201  0.5662 -0.5172
 6740SOL    HW131853   2.710   2.431   6.199 -0.3445  1.0188 -1.2664
 6740SOL    HW231854   2.794   2.337   6.127 -0.1329  2.1589 -1.6078
 6741SOL     OW31855   3.053   0.167   4.657 -0.3050  0.0626  0.4180
 6741SOL    HW131856   3.146   0.147   4.643  0.5472  1.4009  3.9992
 6741SOL    HW231857   3.010   0.141   4.576 -0.7907  0.9313  0.3981
 6742SOL     OW31858   0.573   1.781   5.643  0.3800  0.1681  0.1893
 6742SOL    HW131859   0.547   1.818   5.727  0.2180  0.1874  0.1322
 6742SOL    HW231860   0.652   1.739   5.676 -1.6404 -3.5490  0.2784
 6743SOL     OW31861   0.863   3.232   1.067  0.3214  0.3587  0.1122
 6743SOL    HW131862   0.830   3.260   0.981  1.2949  2.2130  0.3415
 6743SOL    HW231863   0.936   3.177   1.038  0.8313  0.8700  0.4270
 6744SOL     OW31864   3.544   1.767  17.682 -0.1416  0.1067  0.8742
 6744SOL    HW131865   3.525   1.786  17.590  1.7518  0.2479  0.5163
 6744SOL    HW231866   3.597   1.841  17.713 -0.1288 -0.3247  1.8859
 6745SOL     OW31867   2.548   1.801   1.699  0.2864  0.2195  0.8082
 6745SOL    HW131868   2.500   1.881   1.675 -0.8280 -0.4578  0.7639
 6745SOL    HW231869   2.636   1.836   1.710  1.1239 -1.7673  0.4590
 6746SOL     OW31870   1.094   4.408   3.261  0.0351  0.3444 -0.1257
 6746SOL    HW131871   1.129   4.461   3.190 -0.5946  0.2701 -0.4846
 6746SOL    HW231872   1.028   4.471   3.288  2.4101  2.3794  0.8863
 6747SOL     OW31873   2.350   2.767   7.728  0.0784 -0.0620  0.2792
 6747SOL    HW131874   2.275   2.722   7.769 -0.8684 -1.6159 -3.1403
 6747SOL    HW231875   2.425   2.729   7.774  0.8526 -0.1377 -1.0532
 6748SOL     OW31876   0.446   0.235   2.587  0.7500 -0.1121  0.2544
 6748SOL    HW131877   0.380   0.167   2.570 -0.2664  0.6388  1.2033
 6748SOL    HW231878   0.485   0.224   2.501 -0.1782  1.2849 -0.3381
 6749SOL     OW31879   3.736   1.841   6.499 -0.6489  0.5679  0.5279
 6749SOL    HW131880   3.708   1.899   6.571 -1.6994  1.4596 -0.5943
 6749SOL    HW231881   3.718   1.891   6.420 -0.8347  4.2522  2.8649
 6750SOL     OW31882   1.901   0.654  12.804 -0.7427  0.8822 -0.3981
 6750SOL    HW131883   1.838   0.635  12.735  1.4704  0.8098 -2.3944
 6750SOL    HW231884   1.963   0.582  12.792 -1.8620 -0.3667  1.3014
 6751SOL     OW31885   2.311   2.833   8.250 -0.1006 -0.1605  0.3834
 6751SOL    HW131886   2.228   2.852   8.206 -0.4703 -0.9057  0.7573
 6751SOL    HW231887   2.371   2.875   8.188  2.0594 -2.3703  0.9623
 6752SOL     OW31888   4.260   3.335   8.881  0.2425 -0.4289 -0.1686
 6752SOL    HW131889   4.321   3.262   8.894 -0.3740 -0.3737  2.8892
 6752SOL    HW231890   4.266   3.384   8.962  0.0159 -0.9121  0.1419
 6753SOL     OW31891   0.531   4.729   7.483  0.1255 -0.3339 -0.3544
 6753SOL    HW131892   0.567   4.642   7.500 -1.1857 -1.0583 -1.3010
 6753SOL    HW231893   0.500   0.017   7.570  1.1200 -1.6934  0.4017
 6754SOL     OW31894   0.025   3.701   6.280 -0.3620 -0.1621  0.0227
 6754SOL    HW131895   4.727   3.726   6.366 -0.7670  2.5004 -0.9269
 6754SOL    HW231896   4.684   3.715   6.224  0.9659 -0.2636 -1.8445
 6755SOL     OW31897   3.076   0.815   3.997 -0.3386 -0.0216 -0.0252
 6755SOL    HW131898   3.099   0.835   4.087  0.7798  0.7717 -0.4897
 6755SOL    HW231899   3.108   0.726   3.981 -0.9148 -0.3634  0.6929
 6756SOL     OW31900   3.753   1.375   6.321 -0.9871  0.1500  0.0705
 6756SOL    HW131901   3.670   1.413   6.292  0.0367  0.7825 -2.0278
 6756SOL    HW231902   3.774   1.427   6.398  0.5301 -0.1711 -0.1255
 6757SOL     OW31903   2.871   4.263   7.244  0.4361 -0.0711 -0.0622
 6757SOL    HW131904   2.955   4.280   7.288 -0.2863  1.2382  0.8302
 6757SOL    HW231905   2.897   4.179   7.205 -0.6262 -0.7913  0.7745
 6758SOL     OW31906   0.844   0.876   8.122  0.2553 -0.3479  0.4283
 6758SOL    HW131907   0.758   0.916   8.134  1.0685  1.6438 -0.4458
 6758SOL    HW231908   0.901   0.936   8.170  2.4303 -0.7381 -1.6827
 6759SOL     OW31909   2.369   4.437  15.138  0.5162 -0.4997 -0.0609
 6759SOL    HW131910   2.306   4.501  15.106  0.2833  0.2957  1.9433
 6759SOL    HW231911   2.338   4.428  15.229 -0.2862  1.8730 -0.1176
 6760SOL     OW31912   3.342   2.766   8.161 -0.1933 -0.3024  0.2338
 6760SOL    HW131913   3.250   2.757   8.184 -0.5288 -0.0240 -0.9971
 6760SOL    HW231914   3.342   2.753   8.066 -0.9958 -2.1660  0.4885
 6761SOL     OW31915   3.344   4.670   5.339  0.0086  0.5132 -0.0619
 6761SOL    HW131916   3.297   4.730   5.398  1.2972  1.8614 -0.3957
 6761SOL    HW231917   3.410   4.726   5.298  0.2576 -0.1333 -0.5414
 6762SOL     OW31918   0.225   1.550   8.736  0.5939 -0.1725  0.8244
 6762SOL    HW131919   0.293   1.527   8.674 -0.4829 -3.7927  0.9768
 6762SOL    HW231920   0.148   1.530   8.683  1.6996  1.7731 -1.5007
 6763SOL     OW31921   0.110   0.850  15.003 -0.4414 -0.2149 -0.1736
 6763SOL    HW131922   0.202   0.867  15.024 -0.3178 -1.1753  0.0692
 6763SOL    HW231923   0.119   0.781  14.938  4.6754  2.5285 -2.3705
 6764SOL     OW31924   3.640   2.960   7.742  0.2992  0.0158 -0.4045
 6764SOL    HW131925   3.649   2.973   7.648  1.6861 -0.2340 -0.3128
 6764SOL    HW231926   3.718   2.906   7.761 -0.3638 -0.0468  2.1536
 6765SOL     OW31927   4.375   3.365   8.035  0.7144  0.0885  0.3275
 6765SOL    HW131928   4.317   3.411   8.096  0.0281  1.3028 -1.2318
 6765SOL    HW231929   4.408   3.286   8.077  2.2358  0.5168 -0.0611
 6766SOL     OW31930   1.632   3.601   0.784  0.0604  0.4642 -0.2272
 6766SOL    HW131931   1.543   3.572   0.762  0.5502 -1.3574  0.2077
 6766SOL    HW231932   1.629   3.692   0.753  0.5651  0.3252 -0.6888
 6767SOL     OW31933   0.066   3.517   2.079 -0.4196  0.0960 -0.3920
 6767SOL    HW131934   0.037   3.596   2.124 -0.0028 -0.9290  1.7035
 6767SOL    HW231935   0.071   3.461   2.157  0.0150 -1.3441 -1.4469
 6768SOL     OW31936   4.308   0.541  10.319  0.1569 -0.2644  0.0691
 6768SOL    HW131937   4.364   0.605  10.274 -1.1328  2.9139  3.0384
 6768SOL    HW231938   4.348   0.556  10.404 -2.4361 -1.0800  1.4345
 6769SOL     OW31939   1.351   3.722   5.360  0.3588  0.1413 -0.5047
 6769SOL    HW131940   1.277   3.743   5.303 -1.1235 -1.2533  0.8931
 6769SOL    HW231941   1.308   3.706   5.444 -0.5179 -0.7428 -1.1202
 6770SOL     OW31942   3.130   4.575  10.452 -0.1441 -0.1742  0.4158
 6770SOL    HW131943   3.192   4.609  10.388 -0.2488 -1.8335 -0.5739
 6770SOL    HW231944   3.045   4.607  10.422 -0.6278  0.0622  2.0369
 6771SOL     OW31945   3.912   4.469   9.538 -0.2673 -0.5715 -0.1546
 6771SOL    HW131946   3.891   4.555   9.502  0.6941 -0.3179 -0.0899
 6771SOL    HW231947   3.874   4.414   9.469  2.1982  0.9387 -2.6798
 6772SOL     OW31948   3.538   2.669  12.928  0.2334 -0.5457 -0.3936
 6772SOL    HW131949   3.481   2.628  12.863  0.2962  0.6263 -1.1787
 6772SOL    HW231950   3.478   2.719  12.983  1.5718  1.7682 -1.0248
 6773SOL     OW31951   2.300   1.608   8.100 -0.4000 -0.1694 -0.0061
 6773SOL    HW131952   2.294   1.692   8.144 -3.8149  0.5368 -1.7596
 6773SOL    HW231953   2.206   1.589   8.090 -0.5165 -0.1694  1.1578
 6774SOL     OW31954   1.696   0.059   7.241 -0.6256  0.1087  0.1122
 6774SOL    HW131955   1.638   4.722   7.261 -1.7956  0.6846 -1.1545
 6774SOL    HW231956   1.751   0.056   7.318  0.5784 -0.9517 -0.7942
 6775SOL     OW31957   1.585   3.370   4.354 -0.2507 -0.7029 -0.3386
 6775SOL    HW131958   1.588   3.309   4.280  1.3686  0.1692 -1.0052
 6775SOL    HW231959   1.572   3.449   4.301 -1.7139  1.0708  2.6632
 6776SOL     OW31960   0.652   0.346   7.702 -0.2728 -0.1966  0.0022
 6776SOL    HW131961   0.657   0.390   7.617  2.4598 -2.0066 -0.7461
 6776SOL    HW231962   0.746   0.345   7.717  0.2912 -1.6684 -3.7056
 6777SOL     OW31963   3.542   4.279   9.418 -0.7002 -0.7173 -0.0804
 6777SOL    HW131964   3.537   4.193   9.460  1.3718 -1.0615 -0.5332
 6777SOL    HW231965   3.454   4.286   9.382 -0.8585 -2.5369 -0.0563
 6778SOL     OW31966   0.490   0.164   4.821 -0.1335 -0.6137 -0.0724
 6778SOL    HW131967   0.480   0.157   4.726 -2.8383 -1.2081  0.2715
 6778SOL    HW231968   0.408   0.212   4.831  1.0999  1.1334  1.8244
 6779SOL     OW31969   0.987   0.607   2.436  0.0781  0.8871  0.4694
 6779SOL    HW131970   1.055   0.552   2.474  0.1504  0.1245 -0.7848
 6779SOL    HW231971   0.997   0.680   2.498  0.8547  1.0044  0.1999
 6780SOL     OW31972   0.545   3.550   8.826  0.1440 -0.1326 -0.6356
 6780SOL    HW131973   0.489   3.588   8.758  1.0510  1.0671 -0.7212
 6780SOL    HW231974   0.518   3.459   8.822  0.0031 -0.0816 -0.8380
 6781SOL     OW31975   0.264   0.192   7.133 -0.3602  0.1421  0.3123
 6781SOL    HW131976   0.243   0.196   7.226 -0.2162 -0.1416  0.3547
 6781SOL    HW231977   0.186   0.176   7.080 -0.1082 -1.8032  0.5412
 6782SOL     OW31978   1.219   3.118   7.370 -0.1511 -0.2716  0.0766
 6782SOL    HW131979   1.230   3.106   7.464  1.5949  2.1484  0.1888
 6782SOL    HW231980   1.128   3.093   7.350  1.2679 -3.6926 -2.2713
 6783SOL     OW31981   1.099   3.863  12.574  0.1824  0.7233 -0.1008
 6783SOL    HW131982   1.016   3.905  12.596 -0.0395 -0.0139  0.4667
 6783SOL    HW231983   1.145   3.847  12.657 -2.9792 -1.3078  1.2819
 6784SOL     OW31984   4.385   4.299   0.297 -0.3173  0.5120 -0.2038
 6784SOL    HW131985   4.426   4.384   0.278 -2.0638  1.6877  1.3373
 6784SOL    HW231986   4.291   4.314   0.284  0.0207  1.3134 -1.7506
 6785SOL     OW31987   2.362   3.963   3.986 -0.4442 -0.5914  0.1794
 6785SOL    HW131988   2.384   4.055   3.971  0.8418 -0.6865  1.4253
 6785SOL    HW231989   2.288   3.956   3.926  0.5979  1.5891 -1.3155
 6786SOL     OW31990   2.711   2.524  17.000 -0.2337  0.2093 -0.8119
 6786SOL    HW131991   2.680   2.569  16.921 -1.9379  0.7576  0.1723
 6786SOL    HW231992   2.743   2.602  17.044  0.5586  0.7710 -2.3911
 6787SOL     OW31993   4.321   3.558   6.716  0.4954 -0.2714 -0.0254
 6787SOL    HW131994   4.393   3.598   6.765 -0.2347 -0.0456  0.8628
 6787SOL    HW231995   4.275   3.634   6.680  1.4530  0.3224 -0.0097
 6788SOL     OW31996   3.688   1.287   5.437 -0.2297 -0.3334 -0.1697
 6788SOL    HW131997   3.701   1.340   5.358  0.3953 -1.5450 -0.8920
 6788SOL    HW231998   3.641   1.212   5.402 -1.2641 -0.0906  0.6958
 6789SOL     OW31999   3.365   1.708   6.004  0.0515 -0.7607  0.1272
 6789SOL    HW132000   3.428   1.722   5.933 -1.4370  1.9767 -0.6189
 6789SOL    HW232001   3.384   1.614   6.006  4.2047  0.0419 -0.6729
 6790SOL     OW32002   2.307   0.075   9.037 -0.1877  0.6346 -0.1510
 6790SOL    HW132003   2.340   0.129   9.109 -2.3209  1.5571  0.1222
 6790SOL    HW232004   2.379   0.073   8.974  1.3350  1.6227  1.5381
 6791SOL     OW32005   1.016   2.304   3.293  0.0830 -0.1458  0.0241
 6791SOL    HW132006   1.084   2.368   3.271 -0.5388  0.0324 -1.4290
 6791SOL    HW232007   1.063   2.222   3.279 -2.4095 -1.4357 -0.9237
 6792SOL     OW32008   4.080   3.516   7.150 -0.2202 -0.2120 -0.3007
 6792SOL    HW132009   4.136   3.594   7.151 -2.1754  1.1666  1.6118
 6792SOL    HW232010   4.129   3.462   7.211  0.5360  0.2317 -0.5145
 6793SOL     OW32011   0.582   2.424  16.967  0.0148  0.7343 -0.2564
 6793SOL    HW132012   0.617   2.464  16.887 -0.1398  1.7263  0.1725
 6793SOL    HW232013   0.595   2.500  17.023 -2.7851  0.4907  0.7140
 6794SOL     OW32014   1.193   4.188   6.476  0.3951 -0.0842 -0.2335
 6794SOL    HW132015   1.243   4.122   6.524 -0.3579 -1.4814 -1.4034
 6794SOL    HW232016   1.110   4.143   6.461  1.4131 -2.1762  0.5116
 6795SOL     OW32017   3.444   4.105  10.817  0.6230 -0.4652  0.2537
 6795SOL    HW132018   3.457   4.174  10.751  1.1418 -1.2986 -0.5095
 6795SOL    HW232019   3.351   4.116  10.839  0.5774 -1.1299  0.3931
 6796SOL     OW32020   4.626   0.681   3.196 -0.0443  0.0958 -0.5840
 6796SOL    HW132021   4.576   0.609   3.158  0.0821 -1.0012  1.3426
 6796SOL    HW232022   4.665   0.711   3.114 -0.3759  3.5974  0.5557
 6797SOL     OW32023   0.750   3.370  10.989 -0.0462 -0.3284  0.1601
 6797SOL    HW132024   0.742   3.297  10.928 -0.9000 -0.0343 -0.0691
 6797SOL    HW232025   0.691   3.347  11.061  1.2681  0.9815  1.6461
 6798SOL     OW32026   1.933   4.216   5.822  0.0702 -0.2035 -0.2243
 6798SOL    HW132027   1.922   4.162   5.743 -1.9307 -1.6837  1.0618
 6798SOL    HW232028   1.939   4.301   5.779  1.8241 -0.3783 -0.3015
 6799SOL     OW32029   0.181   2.812   3.892  0.3034  0.2574 -0.2146
 6799SOL    HW132030   0.138   2.871   3.954  1.1961  1.1323 -0.4224
 6799SOL    HW232031   0.241   2.766   3.950 -1.4939 -1.8869 -0.0461
 6800SOL     OW32032   1.279   3.804   4.435  0.4650  0.6866 -0.1995
 6800SOL    HW132033   1.300   3.735   4.497 -0.6880 -1.8220 -2.5628
 6800SOL    HW232034   1.366   3.836   4.412  0.6343  1.3289  1.3165
 6801SOL     OW32035   4.311   1.891   9.265 -0.0142  0.0615  0.4651
 6801SOL    HW132036   4.281   1.803   9.243  0.3749 -0.2672  1.2223
 6801SOL    HW232037   4.230   1.939   9.282 -1.2984 -2.0218  0.2765
 6802SOL     OW32038   2.769   4.535   5.271  0.5655  0.0105  0.3594
 6802SOL    HW132039   2.799   4.551   5.361  0.1917 -2.2769  0.8872
 6802SOL    HW232040   2.701   4.600   5.257  1.0293  0.3336 -0.4113
 6803SOL     OW32041   1.250   4.643   1.644  0.0752  0.5282 -0.0162
 6803SOL    HW132042   1.227   4.562   1.690 -0.0822  0.7203  0.2369
 6803SOL    HW232043   1.176   4.671   1.590  0.8996 -0.1981 -1.5502
 6804SOL     OW32044   1.627   0.998   3.463  0.7545 -0.2061  0.5747
 6804SOL    HW132045   1.689   1.012   3.535  0.4184 -0.6084  0.9437
 6804SOL    HW232046   1.681   0.963   3.393 -0.7156  0.0931 -0.6994
 6805SOL     OW32047   0.876   1.406   1.448  0.2388 -0.2915  0.6118
 6805SOL    HW132048   0.807   1.402   1.514 -0.0344 -0.7172  0.3018
 6805SOL    HW232049   0.818   1.438   1.379 -1.7650 -1.7016  1.6285
 6806SOL     OW32050   1.904   2.865  15.994  0.2151  0.2502 -0.2185
 6806SOL    HW132051   1.971   2.797  15.984 -0.2607 -0.2469 -0.0196
 6806SOL    HW232052   1.852   2.839  16.071 -0.9606  0.7696 -0.8482
 6807SOL     OW32053   0.493   4.555  14.152  0.6632 -0.5562 -0.0429
 6807SOL    HW132054   0.554   4.500  14.201  1.8725  0.0517 -0.8822
 6807SOL    HW232055   0.538   4.554  14.068 -4.2630  1.1043 -2.7157
 6808SOL     OW32056   3.220   2.434   6.122  0.0340  0.5792 -0.2985
 6808SOL    HW132057   3.255   2.479   6.045 -2.1046 -0.2335 -1.7406
 6808SOL    HW232058   3.147   2.391   6.078  0.2782  1.2407 -1.3311
 6809SOL     OW32059   0.912   3.067   5.144  0.5991 -0.0836  0.7482
 6809SOL    HW132060   0.891   3.068   5.237 -1.9782  0.9756  0.1539
 6809SOL    HW232061   0.920   2.972   5.140  2.5822  0.0388  2.0281
 6810SOL     OW32062   3.572   0.607  16.830 -0.2640  0.6191  0.5364
 6810SOL    HW132063   3.484   0.614  16.793  0.5841  2.2821 -1.1343
 6810SOL    HW232064   3.561   0.663  16.906 -1.9759 -0.5872  1.1859
 6811SOL     OW32065   3.097   3.909  15.810 -0.2490 -0.1225  0.5049
 6811SOL    HW132066   3.138   3.847  15.750 -0.3933  0.1642  0.1122
 6811SOL    HW232067   3.169   3.972  15.806 -1.1443  0.9832  1.7734
 6812SOL     OW32068   0.512   0.301   6.606  0.0801 -0.1073  0.2164
 6812SOL    HW132069   0.556   0.323   6.524 -1.7342  0.3088 -0.6431
 6812SOL    HW232070   0.590   0.304   6.662 -0.8697  3.9620  1.3135
 6813SOL     OW32071   4.209   2.102   5.120  0.0740 -0.2087 -0.3729
 6813SOL    HW132072   4.165   2.159   5.183 -1.0694 -0.5191 -0.8867
 6813SOL    HW232073   4.130   2.070   5.077  0.3509  0.1267 -1.1256
 6814SOL     OW32074   1.888   3.935   4.109 -0.2291 -0.3595 -0.6417
 6814SOL    HW132075   1.854   3.948   4.198  0.2025 -0.5190 -0.4552
 6814SOL    HW232076   1.837   3.858   4.083 -0.3024 -0.9798  1.3662
 6815SOL     OW32077   3.233   2.314  12.378 -0.5734  0.3649 -0.0338
 6815SOL    HW132078   3.310   2.317  12.435 -0.9375 -1.5572  0.5664
 6815SOL    HW232079   3.167   2.293  12.444 -2.8210 -2.0320 -3.1002
 6816SOL     OW32080   2.127   2.128   3.447 -0.3776  0.2444  0.3581
 6816SOL    HW132081   2.161   2.210   3.482  3.8603 -0.9964 -0.9509
 6816SOL    HW232082   2.203   2.105   3.394  0.2417  0.3886  1.1896
 6817SOL     OW32083   4.656   1.890   8.621 -0.2928 -0.5017 -0.3261
 6817SOL    HW132084   4.683   1.936   8.541  0.4309 -1.0348 -0.3891
 6817SOL    HW232085   4.592   1.822   8.596 -0.2173 -0.1460 -1.5001
 6818SOL     OW32086   4.279   0.216  15.431  0.3800  0.0154 -0.1999
 6818SOL    HW132087   4.265   0.254  15.344 -0.0571  1.3747  0.4503
 6818SOL    HW232088   4.213   0.148  15.433  1.6022 -1.1869 -0.6002
 6819SOL     OW32089   1.208   2.944   7.584 -0.3600  0.2110  0.3501
 6819SOL    HW132090   1.283   3.004   7.585  0.0386 -0.2958  0.3667
 6819SOL    HW232091   1.240   2.855   7.599 -1.9760  0.0557  2.9131
 6820SOL     OW32092   1.006   1.299  13.069 -0.0468 -0.0089  0.2301
 6820SOL    HW132093   0.960   1.378  13.040 -0.4249  0.0192  0.9051
 6820SOL    HW232094   1.095   1.327  13.087  0.3471 -0.6181 -0.7727
 6821SOL     OW32095   1.967   1.200   3.219  0.2533  0.2531 -0.6912
 6821SOL    HW132096   1.955   1.269   3.284 -2.1657 -0.2572 -0.5763
 6821SOL    HW232097   2.057   1.195   3.187  1.6755  1.8761  3.0694
 6822SOL     OW32098   0.952   1.574   7.497  0.4358 -0.2524 -0.1456
 6822SOL    HW132099   1.000   1.613   7.423 -1.4899  0.6560 -0.9201
 6822SOL    HW232100   1.002   1.496   7.522 -0.7634 -1.0269 -0.1771
 6823SOL     OW32101   3.076   0.245   5.456  0.0297 -0.2413 -1.1136
 6823SOL    HW132102   3.033   0.193   5.387  0.6767  1.2108 -2.6070
 6823SOL    HW232103   3.093   0.176   5.520 -2.0547  0.8093  0.5605
 6824SOL     OW32104   3.196   3.915  10.590  0.5090  0.3694  0.4201
 6824SOL    HW132105   3.129   3.871  10.538 -0.2976  0.7482  1.1546
 6824SOL    HW232106   3.173   4.006  10.569  0.9778  0.1153 -1.1980
 6825SOL     OW32107   4.118   4.590   1.717 -0.2903  0.0517 -0.1142
 6825SOL    HW132108   4.194   4.553   1.672 -1.2032 -2.5508  0.4553
 6825SOL    HW232109   4.131   4.685   1.712 -0.0003 -0.0405 -1.0997
 6826SOL     OW32110   0.085   0.934   7.167  0.0959  0.2605 -0.0283
 6826SOL    HW132111   0.067   1.022   7.201  0.5419  1.0392 -1.8335
 6826SOL    HW232112   0.049   0.881   7.238  0.2170 -0.3469 -0.4253
 6827SOL     OW32113   1.404   2.767   0.939 -0.3235 -0.7951 -0.2686
 6827SOL    HW132114   1.382   2.738   1.027  0.2712 -2.0486 -0.5255
 6827SOL    HW232115   1.499   2.765   0.945 -0.2748  1.8225 -0.2450
 6828SOL     OW32116   2.988   3.863   2.868  0.3026  0.1713  0.0844
 6828SOL    HW132117   3.004   3.819   2.785 -0.5438  1.4556 -0.7670
 6828SOL    HW232118   3.077   3.887   2.890  0.2746  1.2347 -0.9879
 6829SOL     OW32119   2.472   3.592   5.654 -0.2620 -0.1502  0.6590
 6829SOL    HW132120   2.422   3.514   5.677 -0.4904 -0.1720  0.0903
 6829SOL    HW232121   2.441   3.598   5.563 -1.5516 -2.6635  0.9311
 6830SOL     OW32122   0.466   4.059   2.589 -0.2098  0.5487 -0.0961
 6830SOL    HW132123   0.507   3.999   2.526  3.4074 -0.5547  3.3223
 6830SOL    HW232124   0.492   4.141   2.546 -0.1700  0.4969 -0.1711
 6831SOL     OW32125   1.783   3.688   1.483  0.4707  0.4218 -0.3724
 6831SOL    HW132126   1.710   3.751   1.488  0.0818 -0.0256 -0.3590
 6831SOL    HW232127   1.767   3.640   1.564 -1.0492  0.1364 -0.8355
 6832SOL     OW32128   3.913   1.493   1.384  0.4653  0.2895 -0.0750
 6832SOL    HW132129   3.893   1.581   1.352 -2.4116 -0.5113 -0.4662
 6832SOL    HW232130   3.881   1.444   1.307 -2.0914 -0.9947  1.7817
 6833SOL     OW32131   0.877   2.240  13.106  0.2673 -0.4059  0.5605
 6833SOL    HW132132   0.937   2.239  13.032  0.4266 -1.6170  0.7201
 6833SOL    HW232133   0.839   2.152  13.100  1.2582 -0.7064 -1.1207
 6834SOL     OW32134   3.675   1.461   9.528 -0.3483  0.6586  0.3305
 6834SOL    HW132135   3.604   1.408   9.493  1.2400 -0.7815 -0.6899
 6834SOL    HW232136   3.714   1.395   9.586  1.0179  1.4923  0.3699
 6835SOL     OW32137   3.208   2.694   3.399  0.0573  0.1100 -0.3470
 6835SOL    HW132138   3.141   2.755   3.368  0.6689  0.5836 -0.7264
 6835SOL    HW232139   3.182   2.685   3.491 -0.6404 -0.2790 -0.5825
 6836SOL     OW32140   3.764   0.666   4.818 -0.0338  0.2148  0.5174
 6836SOL    HW132141   3.696   0.732   4.832 -0.2253  0.3557 -1.0154
 6836SOL    HW232142   3.713   0.591   4.789 -0.3510  0.1836  1.1575
 6837SOL     OW32143   2.963   2.390   5.606 -0.0401  0.1745  0.2319
 6837SOL    HW132144   3.057   2.386   5.589 -0.3966 -1.1295 -1.3083
 6837SOL    HW232145   2.947   2.297   5.621  2.1873 -0.2313  0.1153
 6838SOL     OW32146   3.499   1.790   9.157 -0.1756  0.3711 -0.1430
 6838SOL    HW132147   3.519   1.880   9.134 -1.0448  0.8573  1.0149
 6838SOL    HW232148   3.444   1.765   9.083 -0.0774 -0.9119  0.2175
 6839SOL     OW32149   2.866   1.577   7.608  0.5555  0.0516  0.0922
 6839SOL    HW132150   2.895   1.577   7.699  2.0294 -0.6271 -0.3809
 6839SOL    HW232151   2.771   1.564   7.613  0.3325  1.6156 -0.1603
 6840SOL     OW32152   2.676   3.148   3.025 -0.0079  0.7087  0.3318
 6840SOL    HW132153   2.671   3.240   3.002  0.6502  0.9473  1.1353
 6840SOL    HW232154   2.611   3.103   2.972 -1.0080  1.0739  1.2485
 6841SOL     OW32155   1.894   4.385  11.721  0.2908 -0.2367  0.0343
 6841SOL    HW132156   1.922   4.298  11.748  0.1966 -0.9184 -2.0591
 6841SOL    HW232157   1.833   4.413  11.789  2.1222  0.4461  1.3968
 6842SOL     OW32158   0.219   0.396   2.534  0.2551  0.2940 -0.2745
 6842SOL    HW132159   0.299   0.357   2.499 -0.1256 -2.1470  1.6009
 6842SOL    HW232160   0.173   0.322   2.574  2.5551  0.0836  1.9839
 6843SOL     OW32161   3.456   3.810  17.239 -0.2614  0.0784  0.0152
 6843SOL    HW132162   3.399   3.856  17.177 -0.4290 -1.1347 -0.7344
 6843SOL    HW232163   3.432   3.859  17.317 -2.8159  0.5933 -1.1050
 6844SOL     OW32164   3.768   0.405   5.610 -0.1149 -0.5485 -0.3254
 6844SOL    HW132165   3.820   0.466   5.557  0.5289 -0.4922  0.3694
 6844SOL    HW232166   3.815   0.426   5.691  1.1888  1.7482 -1.6689
 6845SOL     OW32167   4.737   1.649  12.011  1.0679  0.6499 -0.0196
 6845SOL    HW132168   0.003   1.582  12.079  1.0273  1.1065  0.4282
 6845SOL    HW232169   0.045   1.724  12.050  0.1563  0.7925  0.7608
 6846SOL     OW32170   4.441   0.245   6.604 -0.6203  0.0991  0.5180
 6846SOL    HW132171   4.447   0.206   6.691  4.3102  1.5312  0.8640
 6846SOL    HW232172   4.403   0.328   6.634  0.5231  0.8977 -0.2149
 6847SOL     OW32173   4.139   3.615   0.888  0.2980  0.4380 -0.3543
 6847SOL    HW132174   4.100   3.597   0.802  1.2236 -0.5331 -0.5718
 6847SOL    HW232175   4.110   3.541   0.941  0.8291 -0.4871 -1.3542
 6848SOL     OW32176   4.391   3.075   4.906 -0.3196  0.0427  0.4160
 6848SOL    HW132177   4.426   3.030   4.829  0.1033  1.9774 -0.5126
 6848SOL    HW232178   4.471   3.109   4.945  0.8055 -1.3063 -0.6997
 6849SOL     OW32179   4.671   1.196   5.707  0.2979 -0.1725  0.2487
 6849SOL    HW132180   4.633   1.167   5.790  1.3284  0.4008  0.9194
 6849SOL    HW232181   4.680   1.110   5.666 -2.0118 -1.0262  1.5395
 6850SOL     OW32182   4.664   4.141   1.393  0.1202 -0.1619 -0.4379
 6850SOL    HW132183   4.617   4.109   1.316 -0.8175 -0.1689  0.1363
 6850SOL    HW232184   4.654   4.235   1.377  0.5964 -0.1312 -0.5556
 6851SOL     OW32185   0.423   0.550  13.284 -0.3877  0.5984 -0.4877
 6851SOL    HW132186   0.454   0.640  13.295  3.0600 -0.2485 -3.4349
 6851SOL    HW232187   0.425   0.542  13.189 -1.2519 -1.1676 -0.3504
 6852SOL     OW32188   1.685   0.834   8.236  0.2336  1.2015  0.0727
 6852SOL    HW132189   1.711   0.746   8.260 -2.1209  1.5085  3.6705
 6852SOL    HW232190   1.641   0.804   8.156  0.2677  1.2248  0.0450
 6853SOL     OW32191   0.963   0.430  10.092 -0.6743 -0.3120 -0.0754
 6853SOL    HW132192   1.003   0.345  10.074 -0.5503 -0.5915  1.5117
 6853SOL    HW232193   0.932   0.412  10.181 -0.0892  1.1587  0.4231
 6854SOL     OW32194   4.490   4.271   2.291 -0.1290  0.5279  0.1409
 6854SOL    HW132195   4.403   4.237   2.313  0.5297 -0.9941  0.4536
 6854SOL    HW232196   4.479   4.362   2.265  0.5678  0.4473 -0.4246
 6855SOL     OW32197   2.510   2.372   7.879 -0.5583  0.6042  0.5349
 6855SOL    HW132198   2.604   2.354   7.875 -0.3237  2.3669 -1.4859
 6855SOL    HW232199   2.512   2.393   7.973 -1.0068  1.9957  0.2246
 6856SOL     OW32200   3.004   1.574   4.318 -0.2810  0.2717  0.6835
 6856SOL    HW132201   3.096   1.594   4.337 -0.3869  0.7761  0.6725
 6856SOL    HW232202   2.975   1.557   4.408  0.2188 -1.1536  0.5851
 6857SOL     OW32203   1.922   2.018  17.270  0.5715  0.0257 -0.0415
 6857SOL    HW132204   1.891   1.958  17.338  1.2814  2.3546  2.3322
 6857SOL    HW232205   1.991   2.071  17.312  1.0491  2.1415 -3.5066
 6858SOL     OW32206   1.984   0.383   4.589  0.2300  0.2731  0.4032
 6858SOL    HW132207   1.935   0.464   4.600 -1.0145 -0.6657  1.8015
 6858SOL    HW232208   2.018   0.361   4.676  0.5549 -4.2604 -0.8812
 6859SOL     OW32209   4.492   2.403   5.023 -0.4720  0.0105 -0.0148
 6859SOL    HW132210   4.574   2.441   4.993 -0.1908 -1.6731 -1.3977
 6859SOL    HW232211   4.445   2.469   5.073  0.0811  0.4356 -0.0566
 6860SOL     OW32212   3.611   4.683   5.495  0.4734 -0.0072  0.7214
 6860SOL    HW132213   3.650   0.034   5.504 -1.2475  0.9896 -1.5561
 6860SOL    HW232214   3.581   4.697   5.405 -1.3621 -1.3248  1.1340
 6861SOL     OW32215   0.700   3.492   3.797  0.3368 -0.0373  0.3944
 6861SOL    HW132216   0.640   3.472   3.725  1.3714 -0.8964 -0.2256
 6861SOL    HW232217   0.735   3.405   3.811  0.9602  0.3246  1.0834
 6862SOL     OW32218   0.498   3.305   4.139 -0.4698  0.0994 -0.2813
 6862SOL    HW132219   0.573   3.250   4.158  0.1476  0.3453 -1.9909
 6862SOL    HW232220   0.457   3.257   4.067 -1.3924  1.0152 -0.3740
 6863SOL     OW32221   1.567   1.488   9.180 -0.2472 -0.6633 -0.6130
 6863SOL    HW132222   1.604   1.478   9.268  1.0015 -0.8974 -1.1685
 6863SOL    HW232223   1.549   1.397   9.156 -0.7384 -1.1210  1.4314
 6864SOL     OW32224   3.079   4.318  13.296 -0.5395 -0.1699  0.6165
 6864SOL    HW132225   3.086   4.236  13.345 -0.1239 -1.0930 -0.9864
 6864SOL    HW232226   3.171   4.335  13.275 -0.4379 -0.1249  1.1060
 6865SOL     OW32227   0.655   4.561  12.763 -0.0353 -0.0322  0.1688
 6865SOL    HW132228   0.716   4.522  12.825 -0.6369 -0.5586  0.4335
 6865SOL    HW232229   0.618   4.483  12.721  0.3794  1.4781 -2.9942
 6866SOL     OW32230   0.340   1.321   8.885  0.6686 -0.4048  0.4061
 6866SOL    HW132231   0.290   1.379   8.828  1.3769  1.0412  1.2613
 6866SOL    HW232232   0.372   1.390   8.943  1.7597 -0.2483 -0.3906
 6867SOL     OW32233   0.890   1.277   5.117  0.0951 -0.3784  0.3680
 6867SOL    HW132234   0.815   1.249   5.064  1.2067 -0.8314 -0.9552
 6867SOL    HW232235   0.960   1.245   5.061 -1.5084 -0.3150 -1.6589
 6868SOL     OW32236   3.896   0.985  13.650  0.1835 -0.0260  0.5868
 6868SOL    HW132237   3.970   1.043  13.631  1.2861 -1.8792 -0.6649
 6868SOL    HW232238   3.827   1.030  13.600  0.1014  0.5493  1.2097
 6869SOL     OW32239   3.466   2.562   2.172  0.5824  0.7148  0.0456
 6869SOL    HW132240   3.377   2.597   2.166 -0.0474 -1.0048 -0.5218
 6869SOL    HW232241   3.444   2.476   2.136 -0.4722 -0.0132  2.3892
 6870SOL     OW32242   0.985   1.148   2.419  0.3596 -0.8401  0.0609
 6870SOL    HW132243   1.016   1.187   2.337 -2.0296  0.8704 -0.0230
 6870SOL    HW232244   1.035   1.199   2.483  0.1399  0.6292 -0.9259
 6871SOL     OW32245   2.073   0.857   7.671  0.2041  0.1883  0.1047
 6871SOL    HW132246   2.009   0.911   7.716  0.5315  0.0607  0.7181
 6871SOL    HW232247   2.142   0.867   7.736 -0.8541  0.9003  1.1087
 6872SOL     OW32248   3.725   1.372   7.382  0.2953  0.1725 -0.0980
 6872SOL    HW132249   3.760   1.397   7.296 -1.1863 -0.4315 -0.8753
 6872SOL    HW232250   3.756   1.444   7.438 -0.3246 -1.3188  2.1406
 6873SOL     OW32251   0.317   3.772  10.801 -0.8618  0.3955  0.7512
 6873SOL    HW132252   0.351   3.695  10.846 -1.8563 -1.4830 -1.7166
 6873SOL    HW232253   0.282   3.728  10.724  0.0720  1.1409 -0.1012
 6874SOL     OW32254   3.019   3.764   1.495  0.0405  0.4065 -0.6188
 6874SOL    HW132255   2.935   3.751   1.539 -0.9023  0.6324 -2.3206
 6874SOL    HW232256   3.057   3.680   1.520 -1.4047  0.1021  0.5943
 6875SOL     OW32257   2.830   4.621   8.115 -0.1653 -0.2356 -0.0616
 6875SOL    HW132258   2.749   4.668   8.097  0.7023  2.2461  2.6623
 6875SOL    HW232259   2.813   4.590   8.204 -0.2375  0.1096  0.0438
 6876SOL     OW32260   4.159   1.427   2.619 -0.1719 -0.4225 -0.3325
 6876SOL    HW132261   4.084   1.486   2.622  1.9434  2.1031  2.8560
 6876SOL    HW232262   4.223   1.481   2.573  0.9057  0.1041  1.7756
 6877SOL     OW32263   4.584   2.706  12.670 -0.5575  0.8220 -0.4089
 6877SOL    HW132264   4.653   2.773  12.674 -0.2618  0.5038 -0.2283
 6877SOL    HW232265   4.606   2.649  12.744 -3.3492  2.0138  1.3430
 6878SOL     OW32266   1.319   4.718   9.338  0.5588 -0.8699 -0.0331
 6878SOL    HW132267   1.263   4.648   9.305  0.7576 -0.6481 -0.8430
 6878SOL    HW232268   1.403   4.672   9.343  1.0514  0.0752  0.4387
 6879SOL     OW32269   2.118   2.966   8.005 -0.1351 -0.5656 -0.0094
 6879SOL    HW132270   2.083   2.959   7.916 -2.0020  0.6667  0.6285
 6879SOL    HW232271   2.172   3.046   8.004  0.9318 -1.2770  0.4233
 6880SOL     OW32272   0.731   0.693   7.252 -0.6135  0.3698  0.8459
 6880SOL    HW132273   0.742   0.615   7.308  2.1602 -0.1872 -0.4695
 6880SOL    HW232274   0.822   0.709   7.226 -0.4061 -1.2584  0.5223
 6881SOL     OW32275   3.112   0.282   7.403  0.1908  0.2923 -0.0547
 6881SOL    HW132276   3.087   0.299   7.312 -0.3323 -2.6861 -0.4642
 6881SOL    HW232277   3.204   0.257   7.395  0.0721 -0.4874  0.9717
 6882SOL     OW32278   3.838   2.669   7.934  0.5304 -0.5653 -0.4716
 6882SOL    HW132279   3.752   2.643   7.966  1.4006 -2.5996  0.2133
 6882SOL    HW232280   3.817   2.742   7.876  1.0774  1.5230  1.9422
 6883SOL     OW32281   4.369   2.054   8.475  0.3169 -0.0456  1.4006
 6883SOL    HW132282   4.311   1.979   8.460 -1.8693  1.8332  0.5850
 6883SOL    HW232283   4.450   2.026   8.431 -0.8849 -0.6041 -0.4667
 6884SOL     OW32284   2.624   0.673   4.977 -0.0370 -0.0574  0.5037
 6884SOL    HW132285   2.564   0.649   5.047  0.7996 -0.5270  1.0604
 6884SOL    HW232286   2.694   0.611   5.000  0.7325  1.4389  2.2152
 6885SOL     OW32287   0.215   3.035   8.701  0.2926 -0.1592  0.1283
 6885SOL    HW132288   0.129   3.041   8.743  0.0130  2.5073 -0.8481
 6885SOL    HW232289   0.226   3.128   8.685 -0.0689 -0.2665 -0.7194
 6886SOL     OW32290   2.489   4.390  17.193  0.5457 -0.0311 -0.4705
 6886SOL    HW132291   2.454   4.301  17.188  1.8257 -0.6881  1.8992
 6886SOL    HW232292   2.481   4.425  17.105  0.4676  0.0135 -0.4455
 6887SOL     OW32293   4.479   3.999   9.360  0.0004  0.1010 -0.1353
 6887SOL    HW132294   4.479   3.905   9.380 -0.7016  0.0728 -0.2777
 6887SOL    HW232295   4.392   4.019   9.327  0.0184 -1.6219 -1.2074
 6888SOL     OW32296   1.653   3.244   7.352 -0.2257 -0.0150 -0.5707
 6888SOL    HW132297   1.665   3.335   7.326  1.3737 -0.3420 -1.0051
 6888SOL    HW232298   1.592   3.241   7.426  1.2437 -3.9175  0.5165
 6889SOL     OW32299   2.011   3.650  17.148 -0.0168  0.1083  0.1409
 6889SOL    HW132300   1.938   3.591  17.127 -0.9873  1.3308  0.0912
 6889SOL    HW232301   2.027   3.676  17.057 -0.2091  0.3192  0.1681
 6890SOL     OW32302   3.652   1.309   8.616 -0.0748 -0.2339  0.1467
 6890SOL    HW132303   3.579   1.252   8.643  0.3641 -0.4534  0.8662
 6890SOL    HW232304   3.728   1.266   8.655 -0.0701 -0.5437 -0.1966
 6891SOL     OW32305   3.639   3.260   7.474  0.6629 -0.1042 -0.5058
 6891SOL    HW132306   3.697   3.244   7.400  1.9315 -1.0777  0.6889
 6891SOL    HW232307   3.625   3.352   7.452  0.5566  0.5028  2.0418
 6892SOL     OW32308   4.728   1.082   8.316 -0.0724 -0.4278 -0.0628
 6892SOL    HW132309   0.022   1.072   8.406  1.1129  0.9168 -0.3304
 6892SOL    HW232310   4.633   1.098   8.319  0.5405  2.6583  2.6975
 6893SOL     OW32311   2.374   2.094  15.970  0.3795 -0.1058  0.8002
 6893SOL    HW132312   2.352   2.087  15.877  2.2229 -0.4827  0.4086
 6893SOL    HW232313   2.387   2.188  15.980 -1.2045 -0.0771  2.6075
 6894SOL     OW32314   3.333   2.475   1.215  0.0434  0.3877  0.1005
 6894SOL    HW132315   3.330   2.506   1.306 -1.6796  2.0786 -0.5260
 6894SOL    HW232316   3.362   2.557   1.174 -0.5184  1.7161  2.3763
 6895SOL     OW32317   2.478   0.830   9.846 -0.2647 -0.0155 -1.0390
 6895SOL    HW132318   2.418   0.778   9.793 -1.1898  1.4139 -1.3821
 6895SOL    HW232319   2.536   0.760   9.877 -0.1160 -0.1076 -1.5245
 6896SOL     OW32320   0.892   3.874  11.416  0.0939 -0.2765  0.4339
 6896SOL    HW132321   0.886   3.969  11.424  0.7358 -0.2752  0.8949
 6896SOL    HW232322   0.986   3.867  11.434 -0.0669 -0.1883  1.2845
 6897SOL     OW32323   0.222   0.768   5.166 -0.1659  0.0085 -0.1096
 6897SOL    HW132324   0.316   0.787   5.170  0.1055 -1.5393  0.8080
 6897SOL    HW232325   0.210   0.747   5.073  0.1637  1.2299 -0.4296
 6898SOL     OW32326   2.212   3.354  11.920 -0.0501  0.0824 -0.4729
 6898SOL    HW132327   2.147   3.413  11.882 -0.6010  0.7551  1.5262
 6898SOL    HW232328   2.233   3.289  11.853  0.0686 -0.8474  0.4502
 6899SOL     OW32329   3.645   4.006   7.580  0.3629  0.1122  0.2952
 6899SOL    HW132330   3.667   3.997   7.487 -1.8135 -0.1841 -0.1872
 6899SOL    HW232331   3.632   4.101   7.585  1.0037  0.1618  1.0554
 6900SOL     OW32332   3.559   4.668  15.918  0.0850 -0.6273 -0.3371
 6900SOL    HW132333   3.529   4.687  16.007 -0.1446  1.5394 -0.8782
 6900SOL    HW232334   3.651   4.648  15.934 -0.0695  0.3164  1.6128
 6901SOL     OW32335   3.283   1.550   3.782 -0.4648 -0.5745 -0.1791
 6901SOL    HW132336   3.282   1.457   3.758 -0.2588 -0.8985  1.0675
 6901SOL    HW232337   3.189   1.567   3.787 -0.2000  0.3896  1.5456
 6902SOL     OW32338   4.359   2.168   3.365 -0.6091  0.5393  0.1835
 6902SOL    HW132339   4.341   2.190   3.274 -1.9294 -0.0095  0.3140
 6902SOL    HW232340   4.440   2.218   3.379  1.6233 -2.9034 -0.4857
 6903SOL     OW32341   2.588   3.779   2.970  0.1450 -0.4181  0.0573
 6903SOL    HW132342   2.640   3.795   3.049 -0.2812 -3.3992  0.9718
 6903SOL    HW232343   2.649   3.753   2.902  0.1671  0.6404 -0.3162
 6904SOL     OW32344   0.236   3.406   3.995  0.5183  0.0752 -0.4497
 6904SOL    HW132345   0.294   3.336   3.966  0.1635 -0.0246 -0.9206
 6904SOL    HW232346   0.298   3.479   3.992 -1.5369  1.9154  1.6081
 6905SOL     OW32347   1.593   4.687   2.397 -0.1252  0.4949  0.2634
 6905SOL    HW132348   1.651   0.021   2.368 -1.3132  0.6486 -1.7822
 6905SOL    HW232349   1.619   4.689   2.489 -0.5970  0.4004  0.4011
 6906SOL     OW32350   3.561   4.358   4.979  0.4148  0.2684  0.8174
 6906SOL    HW132351   3.604   4.305   4.913 -0.7072 -1.9530  1.8557
 6906SOL    HW232352   3.554   4.444   4.938 -1.4427 -0.3239 -0.1288
 6907SOL     OW32353   1.791   4.626  13.823 -0.0329 -0.4959 -0.7283
 6907SOL    HW132354   1.744   4.545  13.799 -2.5309  0.9805 -0.8272
 6907SOL    HW232355   1.731   4.698  13.804 -2.0460 -2.2393 -1.0193
 6908SOL     OW32356   2.866   2.139   5.667  0.1830  0.5087 -0.1215
 6908SOL    HW132357   2.784   2.123   5.621 -0.5540  0.9248  1.0448
 6908SOL    HW232358   2.847   2.120   5.759  0.3625  1.0638  0.0347
 6909SOL     OW32359   2.480   0.345   7.802 -0.0079  0.8430 -0.1714
 6909SOL    HW132360   2.564   0.310   7.774 -0.2016 -0.2075  0.5411
 6909SOL    HW232361   2.504   0.433   7.772 -0.3031  1.6954  2.0570
 6910SOL     OW32362   1.341   0.573  14.787 -0.0383 -0.3427 -0.8890
 6910SOL    HW132363   1.364   0.630  14.714 -0.9664  1.7728  0.4559
 6910SOL    HW232364   1.414   0.587  14.847 -2.0067  1.7334  1.0635
 6911SOL     OW32365   3.298   0.701   2.277  0.2362  0.6320  0.4605
 6911SOL    HW132366   3.254   0.784   2.259  2.6291  0.9681 -3.9433
 6911SOL    HW232367   3.265   0.660   2.197 -0.2925 -2.8155  2.4831
 6912SOL     OW32368   1.856   1.473   2.901  0.4510 -0.3300  0.0571
 6912SOL    HW132369   1.767   1.456   2.870  0.4284  0.8456 -0.4917
 6912SOL    HW232370   1.838   1.514   2.985 -2.3173 -0.0491 -0.6795
 6913SOL     OW32371   3.668   0.481   9.000 -0.0054 -0.1945  0.8387
 6913SOL    HW132372   3.732   0.478   9.071  3.5737 -1.6658 -2.4629
 6913SOL    HW232373   3.594   0.535   9.028  0.7394  2.3868 -2.2876
 6914SOL     OW32374   0.439   4.168   8.778 -0.1412 -0.1421  0.9132
 6914SOL    HW132375   0.493   4.235   8.820 -0.7999  0.0896  1.3905
 6914SOL    HW232376   0.463   4.083   8.816  3.2885 -0.5154 -2.1419
 6915SOL     OW32377   1.983   3.832  14.558 -0.8527  0.1446 -0.9448
 6915SOL    HW132378   1.983   3.781  14.639  0.7963  0.8331 -0.5070
 6915SOL    HW232379   2.077   3.844  14.543 -0.8856 -0.0065 -1.2689
 6916SOL     OW32380   1.754   2.141  11.843 -0.1395  0.1501 -0.2527
 6916SOL    HW132381   1.839   2.128  11.886  0.3944  1.9761 -0.7207
 6916SOL    HW232382   1.689   2.097  11.897  0.5395 -0.5273  0.0122
 6917SOL     OW32383   0.830   1.904   4.128  0.2656  0.3762  0.6135
 6917SOL    HW132384   0.774   1.857   4.190  3.1232 -1.1030  2.0941
 6917SOL    HW232385   0.906   1.853   4.159 -1.1293 -1.3813  1.1669
 6918SOL     OW32386   2.765   4.624   2.583  0.1980  0.2286 -0.2779
 6918SOL    HW132387   2.845   4.635   2.531  0.4831  0.4155  0.2007
 6918SOL    HW232388   2.798   4.634   2.672  1.1820 -2.2715 -0.3435
 6919SOL     OW32389   0.631   2.292   8.473  0.1786  0.0238  0.2528
 6919SOL    HW132390   0.569   2.219   8.477  2.9512 -2.2116  1.4771
 6919SOL    HW232391   0.690   2.270   8.545  0.1558  4.3021  1.5732
 6920SOL     OW32392   0.795   1.428   3.195  0.4793  0.8365  0.1129
 6920SOL    HW132393   0.798   1.500   3.258  0.5679 -1.2727  2.5098
 6920SOL    HW232394   0.768   1.356   3.252 -0.1486  0.5072 -0.5940
 6921SOL     OW32395   4.383   2.864  17.429  0.1635 -0.1521  0.3773
 6921SOL    HW132396   4.312   2.800  17.421 -0.1004  0.1680  0.1632
 6921SOL    HW232397   4.446   2.808  17.382  1.1719  0.1421  1.3781
 6922SOL     OW32398   2.233   4.350   6.081  0.0911 -0.2851  0.2441
 6922SOL    HW132399   2.163   4.292   6.109 -0.4973 -0.7459 -2.1899
 6922SOL    HW232400   2.310   4.310   6.122 -0.4478 -1.8808 -0.3267
 6923SOL     OW32401   4.645   0.267  14.177 -0.1511 -0.4005  0.4341
 6923SOL    HW132402   4.710   0.205  14.145 -1.2520 -1.0808 -0.4706
 6923SOL    HW232403   4.583   0.272  14.104  0.4672 -1.2734 -0.1335
 6924SOL     OW32404   1.886   3.209  12.134 -0.6315 -0.0342  0.3406
 6924SOL    HW132405   1.825   3.195  12.207  1.1967 -0.0115  1.8907
 6924SOL    HW232406   1.831   3.271  12.086 -0.7802 -0.6716 -0.3146
 6925SOL     OW32407   0.655   0.464   1.593  0.4953 -0.6443 -0.7483
 6925SOL    HW132408   0.577   0.467   1.537 -1.2854 -1.0562  1.7269
 6925SOL    HW232409   0.619   0.498   1.675 -1.9648 -1.1509 -1.6049
 6926SOL     OW32410   0.779   0.342   6.695 -0.0404 -0.7067  0.1443
 6926SOL    HW132411   0.751   0.265   6.745 -0.8673  0.8453  2.0709
 6926SOL    HW232412   0.870   0.315   6.688  0.3920  0.3297  1.6911
 6927SOL     OW32413   0.137   3.128  10.207 -0.1461 -0.0440  0.5604
 6927SOL    HW132414   0.169   3.083  10.285  0.0062  0.0918  0.5778
 6927SOL    HW232415   0.105   3.051  10.160  0.8773  0.6196 -1.2245
 6928SOL     OW32416   2.130   2.393   6.504 -1.0113  0.3291 -0.0705
 6928SOL    HW132417   2.221   2.420   6.498 -0.6738 -1.1129 -1.4237
 6928SOL    HW232418   2.119   2.395   6.599 -1.4686  0.7838 -0.1302
 6929SOL     OW32419   3.093   3.189   4.743  0.1267  0.1293 -0.1750
 6929SOL    HW132420   3.086   3.230   4.829  0.4421  1.0762 -0.5933
 6929SOL    HW232421   3.131   3.105   4.767 -0.9497 -0.8356 -1.8538
 6930SOL     OW32422   4.369   4.732   5.986  0.1361  0.7709 -0.2103
 6930SOL    HW132423   4.439   0.048   6.023 -0.4345  0.9181  0.6626
 6930SOL    HW232424   4.406   4.693   5.907  1.8368 -0.0369  0.9687
 6931SOL     OW32425   1.701   2.534   1.940  0.2798  0.6978 -1.1426
 6931SOL    HW132426   1.684   2.626   1.924  0.8788  0.7630 -1.3784
 6931SOL    HW232427   1.789   2.525   1.905  1.0353  1.1203  0.6379
 6932SOL     OW32428   2.419   3.068   8.777  0.2024 -0.3524  0.1922
 6932SOL    HW132429   2.387   2.998   8.721 -2.1423  1.5918 -0.8955
 6932SOL    HW232430   2.465   3.117   8.709  1.6557 -3.8708 -1.3535
 6933SOL     OW32431   2.988   3.374  11.822  0.6974 -0.1797 -0.4076
 6933SOL    HW132432   3.060   3.358  11.762 -0.1008  1.9709 -1.9121
 6933SOL    HW232433   2.921   3.311  11.796  1.9309 -0.8174 -2.0126
 6934SOL     OW32434   3.432   0.455   6.764  0.4120  0.6568  0.3122
 6934SOL    HW132435   3.382   0.537   6.767 -0.6270  0.0611 -0.6859
 6934SOL    HW232436   3.517   0.498   6.752  1.2555 -0.8263  1.0946
 6935SOL     OW32437   3.800   3.482   8.801 -0.1502 -0.0115  0.4946
 6935SOL    HW132438   3.815   3.401   8.752  1.1867 -0.7353  2.0607
 6935SOL    HW232439   3.840   3.545   8.741  2.4961 -2.1957 -0.0502
 6936SOL     OW32440   1.941   2.119   4.224  0.3251  0.0513  0.1422
 6936SOL    HW132441   1.901   2.147   4.307 -0.7746 -2.4506  0.4504
 6936SOL    HW232442   2.036   2.125   4.239  0.4707  1.2011 -1.2313
 6937SOL     OW32443   0.228   2.870   6.986  0.0575 -0.0946  0.2001
 6937SOL    HW132444   0.169   2.814   6.937  0.4591  0.2406 -0.6782
 6937SOL    HW232445   0.198   2.851   7.075 -0.8622  0.7735  0.0724
 6938SOL     OW32446   2.301   3.517   5.972 -0.0410  0.2972 -0.0320
 6938SOL    HW132447   2.294   3.486   5.882 -0.2653 -0.6961  0.3264
 6938SOL    HW232448   2.208   3.528   5.992 -0.1804  0.8388 -0.9622
 6939SOL     OW32449   0.077   0.795   5.871  0.0658  1.0135 -0.3821
 6939SOL    HW132450   0.020   0.773   5.797  2.3273 -2.2691 -1.1509
 6939SOL    HW232451   0.153   0.816   5.817  0.2481 -2.2483 -1.4062
 6940SOL     OW32452   0.455   4.112   9.857 -0.1962  0.4273 -0.1008
 6940SOL    HW132453   0.466   4.192   9.805  1.1011  1.6789  2.1145
 6940SOL    HW232454   0.382   4.061   9.821  0.3492 -0.6979  0.3772
 6941SOL     OW32455   1.848   3.295   5.598  0.0473  0.7508 -0.0420
 6941SOL    HW132456   1.872   3.326   5.511  0.8449 -2.6687 -1.0573
 6941SOL    HW232457   1.752   3.291   5.594 -0.0741  1.8823  1.7258
 6942SOL     OW32458   2.524   1.260   7.602  0.0418  0.2221  0.3973
 6942SOL    HW132459   2.488   1.188   7.654  0.3308  0.6510  1.1850
 6942SOL    HW232460   2.554   1.318   7.672 -0.1893 -0.5501  1.1423
 6943SOL     OW32461   4.642   4.091   4.421  0.7240 -0.3650  0.4404
 6943SOL    HW132462   4.560   4.067   4.378  0.8027  0.5456 -0.2238
 6943SOL    HW232463   4.637   4.182   4.449  1.4034 -0.2503  0.2020
 6944SOL     OW32464   2.018   2.809   8.200  0.1040 -0.1117 -0.0211
 6944SOL    HW132465   1.922   2.804   8.200  0.0500  0.9654  0.5074
 6944SOL    HW232466   2.034   2.858   8.119  0.2900 -1.3956 -0.7545
 6945SOL     OW32467   1.335   0.854  14.256  0.1463  0.2056 -0.0028
 6945SOL    HW132468   1.262   0.913  14.238 -1.4941 -2.0034 -0.4873
 6945SOL    HW232469   1.288   0.772  14.256  0.4101  0.0442  1.1914
 6946SOL     OW32470   0.476   3.616   5.901 -0.0172 -0.0032 -0.0650
 6946SOL    HW132471   0.458   3.558   5.975 -0.9878  0.3833 -0.0000
 6946SOL    HW232472   0.411   3.584   5.838  0.9718 -0.7567 -0.7090
 6947SOL     OW32473   4.694   1.524   6.227 -0.5699 -0.1428  0.0825
 6947SOL    HW132474   4.645   1.584   6.282 -1.6744  0.4528 -1.5397
 6947SOL    HW232475   0.049   1.546   6.243 -0.1578 -2.8001  1.3024
 6948SOL     OW32476   1.928   4.692  11.939 -0.5003  0.0070 -0.0976
 6948SOL    HW132477   1.929   0.050  11.952  0.1220 -0.1946  1.2949
 6948SOL    HW232478   1.984   4.691  11.862  1.3415 -0.9505  1.2717
 6949SOL     OW32479   3.524   0.056   8.345  0.2774  0.5684 -0.2528
 6949SOL    HW132480   3.619   0.042   8.340 -0.0450 -2.4273  1.6865
 6949SOL    HW232481   3.511   0.077   8.253  2.1258 -0.2670 -0.7117
 6950SOL     OW32482   3.406   2.859   2.248 -0.3235 -0.0409  0.2585
 6950SOL    HW132483   3.342   2.816   2.190 -2.4810  0.1655  2.4892
 6950SOL    HW232484   3.458   2.781   2.269 -0.9470 -0.7855 -0.9077
 6951SOL     OW32485   1.569   3.560  12.154  0.0493  0.2009  0.1777
 6951SOL    HW132486   1.529   3.634  12.108 -0.7941 -1.8958 -2.4430
 6951SOL    HW232487   1.652   3.596  12.185  0.5684 -1.1501  0.3649
 6952SOL     OW32488   4.220   1.577   3.182  0.3536  0.4073 -0.4013
 6952SOL    HW132489   4.235   1.502   3.124 -0.2587 -0.7557  0.9337
 6952SOL    HW232490   4.142   1.616   3.143  0.1655 -2.1153 -2.5471
 6953SOL     OW32491   2.138   4.701   8.854 -0.3316  0.7397  0.6750
 6953SOL    HW132492   2.190   0.011   8.920  1.9958 -0.5786 -0.2133
 6953SOL    HW232493   2.166   0.016   8.779 -0.5673 -1.9651 -1.2915
 6954SOL     OW32494   2.823   2.839   6.030 -0.3065  0.1322 -0.4110
 6954SOL    HW132495   2.889   2.782   5.991  0.4479  0.5929  0.2124
 6954SOL    HW232496   2.842   2.921   5.983 -0.2044  0.7358  0.6921
 6955SOL     OW32497   3.755   4.053   5.543  0.0199 -0.0949  0.2304
 6955SOL    HW132498   3.845   4.084   5.534  0.2377  0.0821  3.0325
 6955SOL    HW232499   3.716   4.080   5.460  2.6016  0.3603 -0.8466
 6956SOL     OW32500   2.318   1.684  17.416 -0.2136  0.1766 -0.6501
 6956SOL    HW132501   2.283   1.771  17.399  0.4761  0.7632  0.8627
 6956SOL    HW232502   2.388   1.672  17.352 -0.9173  2.6994 -1.8871
 6957SOL     OW32503   4.207   3.060   7.038 -0.5196 -0.3020  0.3922
 6957SOL    HW132504   4.273   3.079   6.971 -1.3942  2.6096  0.3783
 6957SOL    HW232505   4.229   3.137   7.090 -0.3095  0.9002 -1.4741
 6958SOL     OW32506   2.789   2.283   7.530  0.0840 -0.5096 -0.1407
 6958SOL    HW132507   2.694   2.284   7.521 -0.1075  1.9740  2.1357
 6958SOL    HW232508   2.788   2.291   7.626  1.0600  2.1182 -0.3272
 6959SOL     OW32509   0.633   4.511   4.469  0.1855  0.1801  0.3685
 6959SOL    HW132510   0.697   4.579   4.449 -0.0234  0.3301  0.2023
 6959SOL    HW232511   0.681   4.433   4.442 -0.7868  0.6082 -2.5785
 6960SOL     OW32512   0.043   0.491  13.792  0.2156  0.2367  0.5776
 6960SOL    HW132513   0.110   0.485  13.860 -0.8881 -0.9359  1.5606
 6960SOL    HW232514   0.029   0.586  13.796  2.0421  0.5002  0.5831
 6961SOL     OW32515   0.683   2.170   9.137 -0.2654  0.4871 -0.2943
 6961SOL    HW132516   0.757   2.222   9.169 -0.0998  0.0326  0.0638
 6961SOL    HW232517   0.636   2.154   9.219  1.0773  0.0215  0.3800
 6962SOL     OW32518   3.155   1.634  10.477  0.2708 -0.2375 -0.4832
 6962SOL    HW132519   3.087   1.697  10.500  0.5302 -0.6901  1.5050
 6962SOL    HW232520   3.112   1.553  10.501  0.6227 -0.6552 -1.2665
 6963SOL     OW32521   4.159   0.607   1.211 -0.5135  0.2726 -0.0808
 6963SOL    HW132522   4.242   0.655   1.204  0.0592 -0.6465  0.3484
 6963SOL    HW232523   4.188   0.518   1.230  0.5601  1.0196  1.7749
 6964SOL     OW32524   2.207   2.232   7.887 -0.0253 -0.4633  0.0303
 6964SOL    HW132525   2.190   2.259   7.977 -3.1855 -0.1910 -0.6609
 6964SOL    HW232526   2.255   2.150   7.894  1.8817  0.7241  0.8267
 6965SOL     OW32527   0.994   4.675   5.347  0.4816 -0.3781 -0.2757
 6965SOL    HW132528   0.979   4.580   5.343  1.5740 -0.5541 -0.1854
 6965SOL    HW232529   0.959   4.713   5.267  1.3766  0.7161 -0.1557
 6966SOL     OW32530   1.702   2.822   2.545 -0.4506  0.6725  0.3377
 6966SOL    HW132531   1.645   2.892   2.577  0.1726  2.1692 -1.7922
 6966SOL    HW232532   1.638   2.774   2.493  0.6618 -1.0002  0.5174
 6967SOL     OW32533   1.991   3.775  15.507 -0.3502 -0.3717 -0.3055
 6967SOL    HW132534   2.017   3.781  15.415  1.4131 -2.4960  0.0457
 6967SOL    HW232535   1.981   3.866  15.534 -1.7062 -0.8302  0.7193
 6968SOL     OW32536   2.196   2.593   4.895 -0.0978  0.0206 -0.8955
 6968SOL    HW132537   2.148   2.616   4.974  1.6587 -1.3333  0.5790
 6968SOL    HW232538   2.266   2.658   4.894  0.7355 -0.8702  0.4780
 6969SOL     OW32539   2.502   3.429  17.117  0.1972  0.1924 -0.2313
 6969SOL    HW132540   2.467   3.346  17.084 -0.1563  0.1150  0.3455
 6969SOL    HW232541   2.572   3.388  17.169  0.4433  1.1912  0.2156
 6970SOL     OW32542   0.400   1.224  12.376 -0.1089  0.0770  0.3455
 6970SOL    HW132543   0.419   1.184  12.461 -2.0980  0.8760  1.1748
 6970SOL    HW232544   0.423   1.316  12.391  2.1508 -0.4803  0.2397
 6971SOL     OW32545   2.408   4.459  16.912  0.2466  0.1950 -0.6184
 6971SOL    HW132546   2.318   4.454  16.881  0.8745 -0.1915 -2.4011
 6971SOL    HW232547   2.427   4.548  16.884 -0.9640  0.4132 -0.7321
 6972SOL     OW32548   1.430   2.307   4.867 -0.2225 -0.2827  0.0320
 6972SOL    HW132549   1.411   2.327   4.775 -1.5107  2.4367  0.9048
 6972SOL    HW232550   1.523   2.284   4.863  0.2871  2.0768 -1.5297
 6973SOL     OW32551   0.090   1.504   7.742  0.6486  0.6056  0.0819
 6973SOL    HW132552   0.158   1.451   7.700 -1.5926 -1.9967 -0.2369
 6973SOL    HW232553   0.006   1.466   7.717  0.0295  2.9228 -1.3823
 6974SOL     OW32554   3.083   3.698   2.644  0.3094  0.1764  0.0772
 6974SOL    HW132555   3.118   3.684   2.556 -1.1433 -3.1596  0.0464
 6974SOL    HW232556   3.158   3.663   2.692  0.5841  0.5396 -0.0806
 6975SOL     OW32557   1.303   4.500   4.877  0.0768  0.3427  0.6518
 6975SOL    HW132558   1.241   4.465   4.814 -1.5834  1.9594  1.3837
 6975SOL    HW232559   1.259   4.502   4.962  2.2346  2.3557  1.6986
 6976SOL     OW32560   2.908   1.119   7.409  0.4519 -0.7196  0.5009
 6976SOL    HW132561   2.972   1.184   7.380 -2.4871  2.2534  0.6477
 6976SOL    HW232562   2.826   1.167   7.393  1.9872  1.3796 -1.0568
 6977SOL     OW32563   1.547   4.383  17.422 -0.1662 -0.1114  0.2676
 6977SOL    HW132564   1.540   4.467  17.377 -3.4478  0.1788  1.3462
 6977SOL    HW232565   1.639   4.361  17.407 -0.0455  0.8776 -0.4837
 6978SOL     OW32566   4.496   2.836   8.748 -0.4149 -0.0266  0.4502
 6978SOL    HW132567   4.567   2.860   8.688 -0.1053 -2.7132 -0.2516
 6978SOL    HW232568   4.521   2.747   8.773 -1.3511 -0.9357 -1.8059
 6979SOL     OW32569   2.365   0.047   2.432  0.3380  0.2860  0.1144
 6979SOL    HW132570   2.329   0.114   2.373 -1.1973 -2.5465 -2.1494
 6979SOL    HW232571   2.454   0.042   2.397  0.0505 -1.5682 -0.3319
 6980SOL     OW32572   0.490   0.748   3.701  0.6789 -0.8542 -0.0933
 6980SOL    HW132573   0.493   0.802   3.622  0.7890 -4.7044 -2.7419
 6980SOL    HW232574   0.509   0.662   3.665 -0.5959 -1.0104 -0.3960
 6981SOL     OW32575   2.206   1.955   0.124 -0.4056  0.1387 -0.4508
 6981SOL    HW132576   2.202   2.036   0.073  0.5036 -1.8376 -3.6598
 6981SOL    HW232577   2.268   2.001   0.179  1.1922 -2.0870 -0.3710
 6982SOL     OW32578   0.896   0.392  16.822  0.4137 -0.2485  0.2432
 6982SOL    HW132579   0.844   0.450  16.768 -0.0231 -0.1136  0.8063
 6982SOL    HW232580   0.885   0.329  16.751  2.3252 -1.3797  0.9438
 6983SOL     OW32581   3.711   1.150  16.272 -0.0569 -0.4053  0.2715
 6983SOL    HW132582   3.728   1.087  16.202  0.9884 -1.8386  1.8166
 6983SOL    HW232583   3.763   1.121  16.346 -0.2784  0.6299  0.8273
 6984SOL     OW32584   3.896   3.747   5.313  0.2328 -0.1184 -0.0765
 6984SOL    HW132585   3.924   3.693   5.239 -0.5552 -1.1039  0.3591
 6984SOL    HW232586   3.902   3.836   5.277 -2.7407 -0.7105 -1.9783
 6985SOL     OW32587   2.909   2.177  17.257 -0.3924  0.4581 -0.3742
 6985SOL    HW132588   2.970   2.172  17.331 -0.3298  0.2466 -0.4423
 6985SOL    HW232589   2.963   2.150  17.183  0.7578 -1.0848  1.0193
 6986SOL     OW32590   3.280   3.547   6.789  0.1187  0.2595 -0.3437
 6986SOL    HW132591   3.261   3.464   6.833 -0.1098  0.4980  0.0148
 6986SOL    HW232592   3.351   3.518   6.733  0.4488  1.7831 -0.7230
 6987SOL     OW32593   2.749   2.372  17.351  0.4184 -0.1148  0.5697
 6987SOL    HW132594   2.724   2.307  17.417  0.0298  0.5475  1.0681
 6987SOL    HW232595   2.796   2.305  17.301 -1.0307 -0.1482 -0.7384
 6988SOL     OW32596   2.418   1.262  13.727  0.2368  0.8868  0.1739
 6988SOL    HW132597   2.336   1.224  13.761  0.4216  0.7631  0.4848
 6988SOL    HW232598   2.463   1.197  13.673 -0.1742  1.3940 -0.7684
 6989SOL     OW32599   1.633   2.570   1.555  0.9854  0.5401  0.0838
 6989SOL    HW132600   1.687   2.498   1.521  0.0038  0.4356 -1.2526
 6989SOL    HW232601   1.618   2.548   1.647  0.2980  0.6034 -0.0163
 6990SOL     OW32602   4.459   4.403   8.901  0.5623 -0.4090 -0.4873
 6990SOL    HW132603   4.509   4.453   8.966 -3.2172  2.0540  0.5516
 6990SOL    HW232604   4.522   4.367   8.839 -0.8591  0.4420 -2.4109
 6991SOL     OW32605   2.253   1.103   7.582 -0.6522 -0.6391  0.2736
 6991SOL    HW132606   2.183   1.043   7.610 -1.3834  0.5371  0.9708
 6991SOL    HW232607   2.325   1.061   7.629 -2.3892 -1.5942  2.1082
 6992SOL     OW32608   4.687   0.808   2.778 -0.6946  0.0404 -0.0682
 6992SOL    HW132609   4.718   0.879   2.721 -0.3534  0.6259  0.8394
 6992SOL    HW232610   4.619   0.849   2.832  1.6118  2.6880  0.8611
 6993SOL     OW32611   1.668   2.931   1.337  0.5084 -0.0149 -0.5745
 6993SOL    HW132612   1.748   2.889   1.306 -0.6674 -1.5519 -1.4722
 6993SOL    HW232613   1.696   2.977   1.417  0.3135 -2.5566  0.9389
 6994SOL     OW32614   3.163   2.250  15.146  0.3974  0.9694 -0.7114
 6994SOL    HW132615   3.089   2.201  15.111  0.8599 -0.1794 -0.0780
 6994SOL    HW232616   3.193   2.177  15.201 -0.1111  1.6167  0.4370
 6995SOL     OW32617   2.365   1.364   2.684  0.2907 -0.1461  0.2249
 6995SOL    HW132618   2.353   1.289   2.743  1.0830  1.4790  2.4435
 6995SOL    HW232619   2.443   1.406   2.721  1.4947 -0.0935 -2.3123
 6996SOL     OW32620   2.070   1.794  17.143  0.0521  0.0154  0.0640
 6996SOL    HW132621   2.152   1.836  17.117  0.5411  0.3710  2.1847
 6996SOL    HW232622   2.020   1.870  17.173 -2.7514 -1.4470 -0.9575
 6997SOL     OW32623   4.546   0.953   4.147  0.0593  0.1730  0.3088
 6997SOL    HW132624   4.598   0.987   4.074 -1.0515 -0.7282 -0.9006
 6997SOL    HW232625   4.518   0.870   4.107 -1.0109 -0.1153  1.6571
 6998SOL     OW32626   3.532   0.198   8.094 -0.2931  0.1909  0.5695
 6998SOL    HW132627   3.580   0.276   8.066 -0.5078  0.2168  0.2769
 6998SOL    HW232628   3.489   0.171   8.013  1.1315  2.2449 -0.8739
 6999SOL     OW32629   2.684   4.397   6.855 -0.5429  0.0228 -0.4173
 6999SOL    HW132630   2.651   4.487   6.851 -0.0520  0.2140 -0.1829
 6999SOL    HW232631   2.649   4.366   6.938  0.4103  0.1202  0.0303
 7000SOL     OW32632   3.506   4.230  15.798 -0.4494 -0.2352 -0.1323
 7000SOL    HW132633   3.546   4.274  15.723 -0.0841  2.1685  1.4731
 7000SOL    HW232634   3.518   4.294  15.868 -1.5326 -1.4386  1.1579
 7001SOL     OW32635   3.973   1.562  12.917  0.3044  0.2155 -0.0609
 7001SOL    HW132636   3.950   1.530  12.830 -1.2195 -0.6837  0.6785
 7001SOL    HW232637   4.030   1.634  12.891 -2.3596  1.0642 -3.4436
 7002SOL     OW32638   4.562   3.264  13.333  0.0867  0.5291 -0.0789
 7002SOL    HW132639   4.658   3.259  13.335  0.1438  1.1789 -1.2865
 7002SOL    HW232640   4.544   3.296  13.422  2.3767  0.5264  0.4018
 7003SOL     OW32641   0.911   3.412  11.351 -0.0617  0.1485 -0.2691
 7003SOL    HW132642   0.831   3.397  11.402 -0.8922  1.6141 -1.1185
 7003SOL    HW232643   0.879   3.462  11.275 -0.3084 -1.5362 -1.2750
 7004SOL     OW32644   2.552   4.580   8.648 -0.2812  0.5655 -0.6225
 7004SOL    HW132645   2.498   4.511   8.610  0.0043 -0.0059  0.0133
 7004SOL    HW232646   2.631   4.529   8.668 -1.1289 -0.3435  0.4344
 7005SOL     OW32647   1.390   3.287  12.377  0.0948 -0.6797  0.1636
 7005SOL    HW132648   1.408   3.257  12.288  1.7039  1.2680 -0.1734
 7005SOL    HW232649   1.357   3.211  12.424 -0.0827 -0.0918  0.9758
 7006SOL     OW32650   0.060   3.861  14.616 -0.0006 -0.2353 -0.4187
 7006SOL    HW132651   0.127   3.810  14.661  1.8392  1.6075 -1.0887
 7006SOL    HW232652   4.729   3.793  14.613 -0.7246  0.4948 -0.6600
 7007SOL     OW32653   2.746   2.882   3.529  0.2965 -0.3133 -0.1107
 7007SOL    HW132654   2.655   2.864   3.555  1.3214 -0.2393  3.5184
 7007SOL    HW232655   2.742   2.868   3.435  0.8064  2.5088 -0.5443
 7008SOL     OW32656   4.015   1.313   5.645 -0.1244  0.2146  0.2694
 7008SOL    HW132657   4.038   1.224   5.672 -4.0221 -1.3298 -1.5298
 7008SOL    HW232658   4.023   1.363   5.726 -0.0878 -1.0778  1.0580
 7009SOL     OW32659   1.508   4.473   6.819  0.1978 -0.1962  0.2402
 7009SOL    HW132660   1.445   4.464   6.747  0.6364 -1.9480  0.0886
 7009SOL    HW232661   1.463   4.403   6.865 -0.0866 -0.7402 -0.8644
 7010SOL     OW32662   2.426   3.124   7.796 -0.0210 -0.3975  0.3671
 7010SOL    HW132663   2.402   3.197   7.739  1.0545 -0.4599 -0.1640
 7010SOL    HW232664   2.378   3.060   7.742 -0.1330 -0.8435  0.9902
 7011SOL     OW32665   2.034   1.944   5.879 -0.1166  0.3018  0.1743
 7011SOL    HW132666   2.112   1.962   5.931 -0.8421  0.2802  1.2647
 7011SOL    HW232667   1.966   1.933   5.945 -1.2235 -0.3033 -1.0676
 7012SOL     OW32668   2.692   2.728   3.242  1.0968  0.2305 -0.4602
 7012SOL    HW132669   2.720   2.645   3.203  1.5511  0.8481 -1.4673
 7012SOL    HW232670   2.610   2.704   3.285 -0.4691  2.9222 -1.9084
 7013SOL     OW32671   0.376   1.521   8.509  0.1352 -0.0390  0.2638
 7013SOL    HW132672   0.461   1.537   8.550  0.1415 -0.6149  0.4777
 7013SOL    HW232673   0.381   1.429   8.484  0.0892 -0.0134  0.1621
 7014SOL     OW32674   1.638   4.180   6.753 -0.0442 -0.1090  0.2295
 7014SOL    HW132675   1.576   4.206   6.821  0.1130 -1.8778  1.0505
 7014SOL    HW232676   1.591   4.112   6.706  0.2284 -0.8711  1.0708
 7015SOL     OW32677   3.186   2.715   2.505  0.3368  0.4441  0.4169
 7015SOL    HW132678   3.115   2.776   2.483 -0.6269 -0.5590  0.7534
 7015SOL    HW232679   3.265   2.759   2.474  0.0594  1.4309  1.1290
 7016SOL     OW32680   4.515   2.051  15.833 -0.1261 -0.1540  0.3572
 7016SOL    HW132681   4.421   2.048  15.816 -0.1250 -0.5751  0.4375
 7016SOL    HW232682   4.508   2.130  15.887 -2.3960  0.1662 -0.4192
 7017SOL     OW32683   2.914   4.004   7.164 -0.1751  0.0046  0.1640
 7017SOL    HW132684   2.868   3.975   7.086  1.6227  0.8984 -1.2182
 7017SOL    HW232685   2.996   3.954   7.155  0.7461  1.8963 -1.7135
 7018SOL     OW32686   1.940   4.060   8.320  0.0624 -0.8193 -0.1952
 7018SOL    HW132687   1.913   4.025   8.235 -1.2334  0.9518 -0.5295
 7018SOL    HW232688   1.884   4.138   8.318  0.0300 -0.8568 -0.7027
 7019SOL     OW32689   4.246   4.376   3.304  0.2161  0.1548 -0.0201
 7019SOL    HW132690   4.288   4.421   3.377  0.5461 -2.3561  1.3110
 7019SOL    HW232691   4.250   4.284   3.328  0.6733  0.8109  2.4180
 7020SOL     OW32692   1.608   3.806   3.760  0.3666 -0.1288 -0.0283
 7020SOL    HW132693   1.697   3.782   3.785  0.0032 -1.1147  0.3198
 7020SOL    HW232694   1.589   3.859   3.838 -0.3272  1.0584 -1.0114
 7021SOL     OW32695   0.130   0.510   3.872  0.5582  0.0150 -0.6098
 7021SOL    HW132696   0.127   0.601   3.844 -0.0131  0.3420  0.4978
 7021SOL    HW232697   0.206   0.479   3.823  3.3492 -0.4527  3.9172
 7022SOL     OW32698   4.284   4.035  11.765 -0.4879  0.1806 -0.8570
 7022SOL    HW132699   4.351   4.102  11.777 -0.1746 -0.5471  1.4571
 7022SOL    HW232700   4.201   4.076  11.788  0.2823  1.1791  0.1122
 7023SOL     OW32701   2.019   1.754   7.825  0.4238  0.0605 -0.2471
 7023SOL    HW132702   2.085   1.796   7.769  1.7124  0.5205  1.5952
 7023SOL    HW232703   1.939   1.775   7.778  0.0181  1.1592  0.9385
 7024SOL     OW32704   0.788   3.450   4.502 -0.0865 -0.1451 -1.0850
 7024SOL    HW132705   0.832   3.417   4.423  2.9680  0.2009  0.4716
 7024SOL    HW232706   0.806   3.381   4.566 -3.1248 -1.2253 -1.4039
 7025SOL     OW32707   2.376   1.164   0.073 -0.0179  0.0050  0.3476
 7025SOL    HW132708   2.390   1.127  17.731  0.2343  2.1358 -0.5163
 7025SOL    HW232709   2.304   1.224   0.058 -0.8480 -1.0459  0.1196
 7026SOL     OW32710   0.177   4.049   2.630 -0.2524 -0.0197 -0.3455
 7026SOL    HW132711   0.160   4.064   2.537 -0.4211  2.7078  0.1273
 7026SOL    HW232712   0.272   4.056   2.632 -0.1813 -1.3566  1.0258
 7027SOL     OW32713   3.656   3.057  12.189 -0.4964  0.3180  0.0869
 7027SOL    HW132714   3.652   2.983  12.250 -0.1105  0.2160 -0.0166
 7027SOL    HW232715   3.693   3.016  12.111 -0.1189 -2.4937  1.7430
 7028SOL     OW32716   1.821   4.417   4.816  0.2897 -0.3195 -0.0646
 7028SOL    HW132717   1.837   4.330   4.854  0.3651 -0.6120 -0.7676
 7028SOL    HW232718   1.895   4.437   4.759 -0.2675 -0.1512 -0.7393
 7029SOL     OW32719   1.697   3.730   8.403  0.4324 -0.2339 -0.1466
 7029SOL    HW132720   1.703   3.663   8.335  1.3133 -0.4721  0.1634
 7029SOL    HW232721   1.611   3.770   8.394  0.4728  0.1269  1.0266
 7030SOL     OW32722   3.318   3.143  16.348  0.4420  0.1022  0.3261
 7030SOL    HW132723   3.305   3.166  16.440 -1.2829 -0.4718  0.2278
 7030SOL    HW232724   3.372   3.222  16.341 -1.9092  1.7697  0.7975
 7031SOL     OW32725   1.806   2.763   4.105 -0.6384 -0.1876 -0.5042
 7031SOL    HW132726   1.871   2.828   4.077  1.1214 -1.4064  0.6892
 7031SOL    HW232727   1.847   2.725   4.183  0.9742 -0.0736 -1.2987
 7032SOL     OW32728   2.720   1.874   4.747  0.3121 -0.0809 -0.3756
 7032SOL    HW132729   2.704   1.856   4.840  0.4563  1.8706  0.0234
 7032SOL    HW232730   2.720   1.969   4.750  1.2383 -0.1292  1.4251
 7033SOL     OW32731   0.906   1.909  10.980  0.1209 -0.5277 -0.0435
 7033SOL    HW132732   0.981   1.851  10.966  1.0568  0.8462 -0.7255
 7033SOL    HW232733   0.836   1.843  10.981 -0.2322 -0.1615 -1.0806
 7034SOL     OW32734   2.330   2.163   1.892 -0.1742 -0.1364  0.2734
 7034SOL    HW132735   2.287   2.084   1.926 -2.8663  1.3138  0.2319
 7034SOL    HW232736   2.421   2.134   1.880 -0.0769 -0.3787  1.6776
 7035SOL     OW32737   2.978   2.712   8.517  0.4169  0.4778  0.1413
 7035SOL    HW132738   2.918   2.641   8.539 -1.5599  1.7074 -1.2688
 7035SOL    HW232739   2.938   2.778   8.573 -0.1886  2.2426 -2.3766
 7036SOL     OW32740   3.844   1.145  12.207 -0.3283 -0.0117  0.6115
 7036SOL    HW132741   3.899   1.071  12.181 -0.5019 -0.6737  2.1010
 7036SOL    HW232742   3.768   1.128  12.152 -0.4534  1.3036  0.3740
 7037SOL     OW32743   1.242   0.724   3.660 -0.1940  0.6615  0.2270
 7037SOL    HW132744   1.181   0.736   3.588  0.2502 -2.0132 -0.5950
 7037SOL    HW232745   1.230   0.632   3.684 -0.0536  0.3622 -0.8786
 7038SOL     OW32746   1.450   1.129   2.545 -0.1411  0.3828  0.7507
 7038SOL    HW132747   1.397   1.053   2.525  0.9540 -0.1972  0.0862
 7038SOL    HW232748   1.489   1.149   2.460 -0.1775  0.1674  0.6836
 7039SOL     OW32749   0.888   1.567  14.928 -0.0079 -0.1030  0.1377
 7039SOL    HW132750   0.864   1.474  14.920  0.0638 -0.0493 -0.7321
 7039SOL    HW232751   0.896   1.584  15.022  0.0388  0.1222  0.0926
 7040SOL     OW32752   1.043   4.172   9.655 -0.5002  0.3540 -0.4773
 7040SOL    HW132753   1.059   4.085   9.692  0.5600  0.6606 -0.2379
 7040SOL    HW232754   0.947   4.180   9.657 -0.4595  0.1171  2.5616
 7041SOL     OW32755   3.535   4.291   3.659  0.2027 -0.6432  0.5136
 7041SOL    HW132756   3.573   4.304   3.572  0.9530  0.0056  0.9380
 7041SOL    HW232757   3.447   4.268   3.631  0.1620 -1.0123  0.9520
 7042SOL     OW32758   1.484   3.419   8.013  0.2972  0.0935 -0.3554
 7042SOL    HW132759   1.483   3.514   7.999  0.9127 -0.0973 -1.6764
 7042SOL    HW232760   1.401   3.393   7.973 -0.6857 -0.6756  2.1607
 7043SOL     OW32761   0.869   0.803   3.807 -0.0391  0.1516 -0.1466
 7043SOL    HW132762   0.808   0.730   3.798  1.0141 -0.4459 -2.3522
 7043SOL    HW232763   0.866   0.848   3.723 -1.0681 -2.9976 -1.7694
 7044SOL     OW32764   1.206   0.936   5.373 -0.2068  0.0542  0.7836
 7044SOL    HW132765   1.262   0.898   5.305  1.2955  3.8653 -0.0977
 7044SOL    HW232766   1.186   1.013   5.319 -0.2217  0.0879  0.8368
 7045SOL     OW32767   0.522   1.431  15.708 -0.2356  0.2473 -0.0214
 7045SOL    HW132768   0.521   1.508  15.764 -3.6946  1.1303 -1.3250
 7045SOL    HW232769   0.571   1.456  15.629  1.9969 -2.3330  0.5248
 7046SOL     OW32770   3.200   2.531   4.216  0.1600  0.1289  0.6097
 7046SOL    HW132771   3.191   2.590   4.142 -0.1243 -1.2852 -0.4809
 7046SOL    HW232772   3.197   2.600   4.282 -1.1331  1.4572 -0.8379
 7047SOL     OW32773   0.010   2.128   9.126  0.4505  0.3204  0.4979
 7047SOL    HW132774   4.658   2.102   9.151 -0.9371  2.1916 -2.5289
 7047SOL    HW232775   0.066   2.081   9.188 -0.4195 -0.0414  1.0139
 7048SOL     OW32776   2.711   0.954   7.767 -0.3325  0.2053  0.3958
 7048SOL    HW132777   2.760   1.034   7.748  2.8426 -0.5736  5.1517
 7048SOL    HW232778   2.734   0.943   7.860 -1.4520  0.5335  0.7094
 7049SOL     OW32779   4.062   2.709   1.453 -0.1457  0.0361 -0.3994
 7049SOL    HW132780   4.095   2.791   1.489 -2.2643  1.1984 -1.0978
 7049SOL    HW232781   4.033   2.743   1.368 -1.2145 -1.1314 -0.5088
 7050SOL     OW32782   1.070   0.103   4.263  0.0818 -0.0874 -0.0278
 7050SOL    HW132783   1.150   0.096   4.213  0.4216  0.5433  0.4237
 7050SOL    HW232784   1.057   0.009   4.273 -2.3795  0.1020 -1.2873
 7051SOL     OW32785   0.268   0.661  10.789 -0.2922  0.0333  0.4222
 7051SOL    HW132786   0.221   0.655  10.872 -0.2423 -0.8012  0.3872
 7051SOL    HW232787   0.337   0.725  10.809 -0.1185  0.4514 -1.5276
 7052SOL     OW32788   4.676   3.716   8.099  0.3096  0.4956 -0.5850
 7052SOL    HW132789   4.733   3.707   8.175  1.7301  2.3650 -1.4224
 7052SOL    HW232790   4.690   3.628   8.064 -1.8378 -0.1975  0.3185
 7053SOL     OW32791   3.018   4.067   7.808 -0.7433 -0.3193  0.0470
 7053SOL    HW132792   3.016   4.021   7.724  1.1890 -0.8541  0.3068
 7053SOL    HW232793   2.983   3.996   7.861  1.1814 -0.9682  0.4361
 7054SOL     OW32794   0.101   0.826   7.659 -0.4207 -0.6654 -0.8261
 7054SOL    HW132795   0.113   0.902   7.602  2.8219  1.0615  2.1739
 7054SOL    HW232796   0.169   0.763   7.637  0.9729 -0.3758  2.7582
 7055SOL     OW32797   2.829   0.034   7.201  0.5462 -0.0430  0.1173
 7055SOL    HW132798   2.781   4.708   7.147  0.4470 -1.1707  1.5028
 7055SOL    HW232799   2.750   0.077   7.234 -0.3635 -0.0368 -2.0548
 7056SOL     OW32800   0.678   1.489  10.555  0.8050 -0.0480  0.2609
 7056SOL    HW132801   0.657   1.473  10.463 -0.0978 -1.6788  0.7569
 7056SOL    HW232802   0.744   1.419  10.561 -0.6021 -1.2966  1.2252
 7057SOL     OW32803   2.105   2.433   0.864  0.2145  0.5620  1.0302
 7057SOL    HW132804   2.153   2.514   0.882 -0.6058  0.5903  3.0186
 7057SOL    HW232805   2.034   2.432   0.928  0.4480 -1.6989  1.2634
 7058SOL     OW32806   4.382   1.775  17.358  1.0365 -0.0432 -0.0482
 7058SOL    HW132807   4.328   1.854  17.356  1.8635  0.5117 -0.6088
 7058SOL    HW232808   4.471   1.810  17.361  1.0747 -0.0093 -1.2810
 7059SOL     OW32809   2.159   3.144  10.454 -0.7074 -0.1765 -0.0909
 7059SOL    HW132810   2.254   3.155  10.451 -0.7963  0.0115 -2.0628
 7059SOL    HW232811   2.130   3.151  10.545  1.6313 -1.0254  0.7233
 7060SOL     OW32812   0.131   4.561   4.930  0.2950  0.4002  0.0540
 7060SOL    HW132813   0.162   4.596   5.013 -1.5450 -1.3411  1.4863
 7060SOL    HW232814   0.055   4.616   4.909  1.8854  2.9469  1.0323
 7061SOL     OW32815   0.700   0.135   6.870 -0.0027 -0.3226 -1.1985
 7061SOL    HW132816   0.621   0.179   6.902 -0.5228 -1.0283 -1.4962
 7061SOL    HW232817   0.757   0.131   6.947 -1.0273 -2.3550 -0.5443
 7062SOL     OW32818   3.942   0.529   2.916 -0.4127 -0.2341  0.1335
 7062SOL    HW132819   4.016   0.590   2.915  0.2142 -1.0395 -1.7869
 7062SOL    HW232820   3.899   0.570   2.991  2.4738 -0.0831  1.7136
 7063SOL     OW32821   4.251   2.633  14.206 -0.1462 -0.1816 -0.0603
 7063SOL    HW132822   4.298   2.716  14.196 -0.9378  0.4922  1.8118
 7063SOL    HW232823   4.216   2.641  14.294 -0.5071  0.5505 -0.2735
 7064SOL     OW32824   1.927   0.969   2.022  0.1403  0.0012  0.4255
 7064SOL    HW132825   1.831   0.977   2.018  0.0964 -0.8991 -0.3665
 7064SOL    HW232826   1.937   0.882   1.983  0.6150  0.7587 -1.1383
 7065SOL     OW32827   3.713   0.646   8.556  0.7591  0.0521  0.4496
 7065SOL    HW132828   3.780   0.613   8.615  1.5842 -1.2074 -1.2034
 7065SOL    HW232829   3.636   0.592   8.576  0.1662 -0.5370 -3.4228
 7066SOL     OW32830   3.104   2.788   9.824  0.2083 -0.4434  0.3341
 7066SOL    HW132831   3.094   2.727   9.897 -3.7579  0.5695  0.6354
 7066SOL    HW232832   3.115   2.869   9.873  1.2884 -0.7903  0.6840
 7067SOL     OW32833   2.481   0.146  15.697  0.0274 -0.0990 -0.0902
 7067SOL    HW132834   2.520   0.087  15.760 -1.5789 -2.1098 -0.9817
 7067SOL    HW232835   2.398   0.162  15.743 -0.6522 -1.7981 -0.7559
 7068SOL     OW32836   2.436   3.375  13.140  0.3312  0.2116 -0.4169
 7068SOL    HW132837   2.526   3.396  13.115  0.5963  1.6183  1.7521
 7068SOL    HW232838   2.430   3.405  13.231  0.0658  1.2728 -0.7844
 7069SOL     OW32839   0.670   3.773  14.020 -0.7067 -0.5357 -0.6808
 7069SOL    HW132840   0.758   3.801  14.046 -0.5729 -0.2563 -1.4673
 7069SOL    HW232841   0.681   3.677  14.021 -1.3414 -0.6018  1.6609
 7070SOL     OW32842   3.980   2.809   5.858  0.3781 -0.1225 -0.1503
 7070SOL    HW132843   3.973   2.833   5.765 -0.6095  0.7280  0.1414
 7070SOL    HW232844   3.974   2.895   5.898 -1.3798 -0.2327 -0.1804
 7071SOL     OW32845   3.210   4.000   5.228  0.4520 -0.2421 -0.5511
 7071SOL    HW132846   3.238   4.013   5.319  0.5690 -0.0782 -0.6106
 7071SOL    HW232847   3.289   4.032   5.185  2.2590 -0.5140  2.5161
 7072SOL     OW32848   2.216   4.563   4.033  0.2093 -1.0873 -0.1443
 7072SOL    HW132849   2.310   4.574   4.048 -0.5327  2.1460  2.2482
 7072SOL    HW232850   2.183   4.609   4.110 -0.6506 -1.5416 -0.2440
 7073SOL     OW32851   1.077   3.805   1.446  0.8512  0.3990  0.3387
 7073SOL    HW132852   1.037   3.741   1.387  1.3113  0.3756  0.0499
 7073SOL    HW232853   1.011   3.828   1.511 -0.1607 -1.5998  0.0443
 7074SOL     OW32854   0.963   1.178   5.833  0.0361  0.2700  0.0586
 7074SOL    HW132855   1.028   1.206   5.898  1.6060 -0.1733 -1.3249
 7074SOL    HW232856   1.015   1.156   5.756  0.7880  2.1714  0.0305
 7075SOL     OW32857   4.479   1.105   8.633  0.3515 -0.1645 -0.2220
 7075SOL    HW132858   4.460   1.147   8.549 -0.3140 -1.6523 -0.8031
 7075SOL    HW232859   4.524   1.177   8.678  2.0488 -1.9159  0.8529
 7076SOL     OW32860   4.674   2.751   4.764 -0.3201  0.6125  0.3622
 7076SOL    HW132861   4.603   2.811   4.741  1.2698  2.5827  0.5393
 7076SOL    HW232862   4.672   2.747   4.860 -2.9057 -0.0987  0.2591
 7077SOL     OW32863   0.370   1.747  10.017  0.3345 -0.0339 -0.3400
 7077SOL    HW132864   0.420   1.805   9.959  0.3076  1.4518  1.1543
 7077SOL    HW232865   0.429   1.673  10.035 -0.7586 -0.9111 -0.3762
 7078SOL     OW32866   1.121   2.161   0.252  0.4657 -0.9000  0.4056
 7078SOL    HW132867   1.094   2.203   0.170  1.3798 -1.8266 -0.3632
 7078SOL    HW232868   1.063   2.188   0.323 -1.1525  1.9311 -2.0241
 7079SOL     OW32869   2.884   1.820   6.067 -0.7512 -0.3321  0.5768
 7079SOL    HW132870   2.966   1.775   6.048  0.6043  2.1983  0.5916
 7079SOL    HW232871   2.823   1.781   6.005 -2.3316 -0.1032  1.9677
 7080SOL     OW32872   0.966   2.371   9.210  0.1752  0.2451 -0.2158
 7080SOL    HW132873   0.938   2.337   9.295  0.5766  0.0053 -0.1767
 7080SOL    HW232874   0.999   2.455   9.241  1.2310 -0.4330  0.4874
 7081SOL     OW32875   3.962   3.235   7.404 -0.3084 -0.0543 -0.5059
 7081SOL    HW132876   3.953   3.212   7.312 -0.5603  2.1665 -1.0521
 7081SOL    HW232877   4.035   3.297   7.396 -0.9813  0.7041 -0.7952
 7082SOL     OW32878   3.964   4.616   4.951 -0.4633  0.6060  0.6453
 7082SOL    HW132879   4.032   4.551   4.969  0.8665  1.3460 -1.7547
 7082SOL    HW232880   4.006   4.672   4.886  1.8669  0.4190  1.9973
 7083SOL     OW32881   4.693   3.469   3.721  0.5998  0.1642 -0.6717
 7083SOL    HW132882   4.713   3.377   3.735  1.9361  0.7100  1.0016
 7083SOL    HW232883   4.597   3.472   3.729  0.4855 -0.6144 -1.7692
 7084SOL     OW32884   3.069   0.953   7.992  0.2534  0.1917 -0.4906
 7084SOL    HW132885   3.056   0.867   8.032  3.9400  0.0092  0.3111
 7084SOL    HW232886   3.115   0.925   7.913  1.0716  0.8828 -0.2552
 7085SOL     OW32887   1.089   3.854   7.341 -0.4393 -0.5073  0.1560
 7085SOL    HW132888   1.066   3.765   7.313 -1.8486 -0.0429 -0.1554
 7085SOL    HW232889   1.010   3.874   7.391 -0.3899  0.5792 -0.2106
 7086SOL     OW32890   0.629   3.074  14.742 -0.0359  0.1550 -0.6087
 7086SOL    HW132891   0.555   3.013  14.737  0.0967 -0.0630  0.0870
 7086SOL    HW232892   0.703   3.026  14.703  0.0154 -1.2499  1.2297
 7087SOL     OW32893   1.249   3.017  17.640  0.3403  0.0257 -0.1807
 7087SOL    HW132894   1.261   3.024  17.546 -1.8686 -0.1172 -0.4626
 7087SOL    HW232895   1.338   3.009  17.673 -0.6828  0.8956  2.7890
 7088SOL     OW32896   2.860   4.107  10.628  0.2383  0.4164 -0.3026
 7088SOL    HW132897   2.922   4.174  10.597 -0.3311  1.8796  1.7196
 7088SOL    HW232898   2.893   4.105  10.718  1.9423 -1.5868 -0.9824
 7089SOL     OW32899   2.919   3.826   5.461  0.8459  0.3471 -0.3370
 7089SOL    HW132900   2.874   3.754   5.504  4.5609 -2.8989 -1.9148
 7089SOL    HW232901   2.887   3.899   5.515  0.6612  0.2888 -0.3702
 7090SOL     OW32902   3.664   4.110   8.343  0.2978  0.3754 -0.6976
 7090SOL    HW132903   3.749   4.089   8.303  2.7322 -0.3733  4.8438
 7090SOL    HW232904   3.608   4.082   8.271 -2.1582  1.3793  0.8150
 7091SOL     OW32905   2.030   1.043  16.558  0.4300 -0.1170  0.1339
 7091SOL    HW132906   1.990   1.111  16.612  1.6523  1.2687 -0.6926
 7091SOL    HW232907   2.049   0.974  16.621  1.5518 -0.0039 -0.0771
 7092SOL     OW32908   2.254   1.401  11.936  0.0533 -0.3022 -0.2563
 7092SOL    HW132909   2.195   1.452  11.991 -0.5672  1.4109 -2.5441
 7092SOL    HW232910   2.326   1.394  12.000 -0.3087  1.0189  0.3006
 7093SOL     OW32911   1.552   3.067   7.839  0.6650  0.7904 -0.0919
 7093SOL    HW132912   1.629   3.017   7.868  0.8983  1.4951  0.5180
 7093SOL    HW232913   1.485   3.028   7.894  1.5437  2.0284  1.8748
 7094SOL     OW32914   4.416   0.596   9.748 -0.7897  0.5294  0.1134
 7094SOL    HW132915   4.444   0.522   9.803 -0.0675  2.1051  1.8625
 7094SOL    HW232916   4.465   0.579   9.667  0.3787 -1.6762  1.2600
 7095SOL     OW32917   3.632   3.518  17.646  0.6860  0.1899  0.0734
 7095SOL    HW132918   3.726   3.515  17.627  1.3156 -2.2002  3.5691
 7095SOL    HW232919   3.631   3.512  17.742 -1.1562 -2.8874 -0.1716
 7096SOL     OW32920   0.759   2.599  14.488  0.1625 -0.6107 -0.1033
 7096SOL    HW132921   0.796   2.640  14.566  1.5430 -2.6923  0.3421
 7096SOL    HW232922   0.820   2.525  14.488 -0.2122 -0.9176 -0.5442
 7097SOL     OW32923   2.796   2.912   2.804  0.3280 -0.4086 -0.1396
 7097SOL    HW132924   2.789   3.003   2.833 -1.9831 -0.5304 -0.3163
 7097SOL    HW232925   2.887   2.894   2.830  0.6866  1.4111 -0.1470
 7098SOL     OW32926   1.652   3.796   4.104  0.6093  0.3844 -0.3608
 7098SOL    HW132927   1.665   3.839   4.189 -1.5298 -0.2890  0.3049
 7098SOL    HW232928   1.605   3.862   4.054  0.0619 -2.2090 -3.2464
 7099SOL     OW32929   1.497   4.334   8.824  0.8824  0.1341  0.3384
 7099SOL    HW132930   1.573   4.314   8.770 -0.7222 -2.1582 -1.0581
 7099SOL    HW232931   1.515   4.288   8.906 -2.3985 -0.1248  0.8917
 7100SOL     OW32932   2.645   2.540  13.641  0.4080 -0.5194 -0.0295
 7100SOL    HW132933   2.677   2.459  13.680 -0.0298  0.1642  1.7592
 7100SOL    HW232934   2.640   2.585  13.725 -0.9328  0.5239 -0.6561
 7101SOL     OW32935   0.604   1.075   3.821 -0.3777  0.2152 -0.4585
 7101SOL    HW132936   0.530   1.082   3.882  1.0535  0.4218  1.2567
 7101SOL    HW232937   0.676   1.091   3.881 -2.3754 -1.0996  2.2977
 7102SOL     OW32938   0.213   2.603   9.079 -0.1071  0.1997  0.5084
 7102SOL    HW132939   0.209   2.514   9.043 -1.6214  0.4782 -0.0009
 7102SOL    HW232940   0.137   2.642   9.036  1.1299 -0.2739 -2.1114
 7103SOL     OW32941   0.371   0.952  11.150 -0.5703 -0.0198  0.0806
 7103SOL    HW132942   0.413   0.911  11.074  0.0271  2.0228 -0.7062
 7103SOL    HW232943   0.436   1.019  11.169 -1.5552  1.0467 -0.3317
 7104SOL     OW32944   3.716   3.853   8.850 -0.1220 -0.1977 -0.1449
 7104SOL    HW132945   3.692   3.939   8.885  0.6567  0.4759 -1.2646
 7104SOL    HW232946   3.676   3.856   8.763  0.5009  0.7210 -0.3978
 7105SOL     OW32947   0.796   0.520   3.523  0.8773 -0.6575  0.2891
 7105SOL    HW132948   0.880   0.564   3.508  0.1830  0.7662  0.5987
 7105SOL    HW232949   0.740   0.581   3.475 -1.8632 -2.1090  1.6647
 7106SOL     OW32950   3.197   1.015   1.910  0.0018 -0.1131  0.1722
 7106SOL    HW132951   3.211   1.083   1.845  0.7159  0.7451  1.2183
 7106SOL    HW232952   3.265   1.037   1.974  1.6632 -0.7722 -1.3792
 7107SOL     OW32953   1.076   4.109  15.959 -0.6528 -0.4365  0.2809
 7107SOL    HW132954   1.027   4.165  16.019  1.5477 -0.3534  2.0237
 7107SOL    HW232955   1.083   4.028  16.009 -1.6651 -1.4323 -1.2182
 7108SOL     OW32956   2.774   4.420   4.333  0.0334 -0.3141  0.1715
 7108SOL    HW132957   2.795   4.343   4.385 -0.8456 -0.9373 -0.3936
 7108SOL    HW232958   2.774   4.485   4.403 -0.9302 -1.7124  1.4557
 7109SOL     OW32959   4.542   1.554   8.889 -0.1010 -0.1946 -0.1789
 7109SOL    HW132960   4.583   1.615   8.951 -2.0200  0.4949  0.4040
 7109SOL    HW232961   4.487   1.614   8.839  0.1353  0.8623  0.8187
 7110SOL     OW32962   4.426   1.239   4.345 -0.2488  0.1884  0.7642
 7110SOL    HW132963   4.461   1.319   4.306  2.1346 -0.3875  1.7771
 7110SOL    HW232964   4.331   1.247   4.358 -0.4134 -1.5077  0.5851
 7111SOL     OW32965   3.034   1.964   1.839 -0.3548 -0.6586 -0.1756
 7111SOL    HW132966   3.071   2.046   1.873 -0.9203 -0.1311 -0.8297
 7111SOL    HW232967   3.071   1.958   1.751  0.9086  0.0471  0.3093
 7112SOL     OW32968   0.992   1.195   3.379 -0.0145  0.0736 -0.0504
 7112SOL    HW132969   1.056   1.260   3.409  0.2644  0.2805 -1.0856
 7112SOL    HW232970   1.048   1.144   3.321 -1.7283 -0.1268 -1.5108
 7113SOL     OW32971   2.322   0.294   3.342  0.0855 -0.3597  0.4676
 7113SOL    HW132972   2.399   0.261   3.388  0.4754  0.4671  0.4000
 7113SOL    HW232973   2.307   0.370   3.399  1.2877  1.4017 -1.5816
 7114SOL     OW32974   0.732   1.343   9.020 -0.0856  0.5618  0.1189
 7114SOL    HW132975   0.704   1.417   8.968  1.3792  3.1233  2.9491
 7114SOL    HW232976   0.758   1.288   8.947  0.9075  0.5606  0.4724
 7115SOL     OW32977   1.533   4.236   3.807  0.2674  0.1536 -0.1269
 7115SOL    HW132978   1.628   4.244   3.803  0.4268 -1.9665 -0.7717
 7115SOL    HW232979   1.504   4.296   3.738  1.5644  2.2476  1.1609
 7116SOL     OW32980   4.044   0.514   5.504  0.5258  0.2202 -0.3196
 7116SOL    HW132981   4.123   0.521   5.558  2.0417  2.0704 -2.8108
 7116SOL    HW232982   4.088   0.514   5.419 -0.8054 -1.4994 -1.0190
 7117SOL     OW32983   1.667   3.539  12.846  0.9037 -0.5172 -0.1300
 7117SOL    HW132984   1.747   3.540  12.793 -0.1704 -3.0327 -1.8055
 7117SOL    HW232985   1.695   3.485  12.920 -2.0905  0.4976  1.7468
 7118SOL     OW32986   0.912   4.202   4.581 -0.5002 -0.3863 -0.3647
 7118SOL    HW132987   0.825   4.213   4.620 -0.8720 -2.1151 -0.6925
 7118SOL    HW232988   0.924   4.107   4.591  1.4361 -0.2459 -1.2936
 7119SOL     OW32989   4.712   3.816   7.703 -0.4121 -1.0067 -0.3010
 7119SOL    HW132990   4.720   3.876   7.629  2.4788  1.7235  2.1756
 7119SOL    HW232991   0.063   3.829   7.740 -0.5774 -0.2621 -0.1628
 7120SOL     OW32992   0.186   0.556  10.360 -0.0805  0.6581  0.8312
 7120SOL    HW132993   0.142   0.617  10.419  0.4633  1.0532  0.8253
 7120SOL    HW232994   0.125   0.536  10.289  2.6969  0.3486 -1.4580
 7121SOL     OW32995   2.010   3.152  14.925 -0.1826  0.4271 -0.0957
 7121SOL    HW132996   2.028   3.224  14.864  1.3491 -0.7670 -1.0468
 7121SOL    HW232997   2.096   3.110  14.931 -0.0870  0.7676  0.9348
 7122SOL     OW32998   2.090   2.861   2.935  0.4287  0.4632  0.2352
 7122SOL    HW132999   2.131   2.941   2.902 -2.4979  2.8403  2.4073
 7122SOL    HW233000   2.125   2.799   2.871 -1.3435  1.7698 -1.9992
 7123SOL     OW33001   0.803   1.113   6.212 -0.0021  0.3930  0.3381
 7123SOL    HW133002   0.849   1.033   6.184 -1.0510 -0.0345 -0.1712
 7123SOL    HW233003   0.760   1.086   6.293 -0.0100 -0.3439  0.0885
 7124SOL     OW33004   0.412   2.611   2.532 -0.3860  0.1279  0.1003
 7124SOL    HW133005   0.362   2.684   2.568 -0.2257  0.1418  0.2966
 7124SOL    HW233006   0.347   2.543   2.517 -0.7217  0.6656 -0.8957
 7125SOL     OW33007   2.457   3.226   2.644  0.2209  0.3084 -0.6120
 7125SOL    HW133008   2.484   3.188   2.560  0.3177  1.2092 -0.9995
 7125SOL    HW233009   2.506   3.180   2.712  0.2032  1.1001 -0.0616
 7126SOL     OW33010   3.262   2.837   4.728 -0.2787  0.2129  0.0239
 7126SOL    HW133011   3.185   2.781   4.720 -1.1528  1.3812  0.2432
 7126SOL    HW233012   3.288   2.848   4.637 -0.1876  2.2309  0.3075
 7127SOL     OW33013   1.005   3.990   7.864  0.4013  0.4160 -0.1245
 7127SOL    HW133014   1.089   3.968   7.823  0.1867 -0.6436  0.0137
 7127SOL    HW233015   0.985   4.065   7.808  0.4992 -0.1242 -0.8832
 7128SOL     OW33016   4.161   4.638   7.021  0.5433 -0.0604  0.4813
 7128SOL    HW133017   4.151   4.651   6.927 -1.6002 -2.3446  0.3852
 7128SOL    HW233018   4.212   4.557   7.017 -0.6927 -0.7831 -0.5356
 7129SOL     OW33019   3.644   4.086   8.079 -0.2168  0.0824 -0.6203
 7129SOL    HW133020   3.712   4.112   8.017  1.5463 -0.4673  1.1000
 7129SOL    HW233021   3.651   3.991   8.074 -0.8289 -0.0620  1.5575
 7130SOL     OW33022   1.824   3.869   2.730  0.3778 -0.7490 -0.2500
 7130SOL    HW133023   1.799   3.844   2.819  0.9583 -1.5666 -0.3183
 7130SOL    HW233024   1.899   3.925   2.751 -0.5832  0.1845  0.6990
 7131SOL     OW33025   4.420   2.765   6.214 -0.5495  0.2992 -0.6654
 7131SOL    HW133026   4.478   2.711   6.267 -1.8737 -0.0430  0.4219
 7131SOL    HW233027   4.461   2.851   6.208  0.4133 -0.1813 -1.0053
 7132SOL     OW33028   2.516   1.443   3.658 -0.0837 -0.5719  0.0648
 7132SOL    HW133029   2.584   1.505   3.687 -0.0626 -0.4605 -0.2175
 7132SOL    HW233030   2.441   1.470   3.711 -0.3911 -1.2380 -0.0328
 7133SOL     OW33031   0.326   0.414   3.327 -0.2436 -0.7573  0.1446
 7133SOL    HW133032   0.244   0.453   3.296  1.3037  1.8188 -0.7493
 7133SOL    HW233033   0.371   0.399   3.244  0.0117  0.3849  0.0740
 7134SOL     OW33034   1.257   4.304  15.870  0.4382  0.6668 -0.2457
 7134SOL    HW133035   1.307   4.243  15.815  0.8001  1.8302 -1.1861
 7134SOL    HW233036   1.183   4.249  15.896 -0.0611  1.5946  0.2768
 7135SOL     OW33037   2.901   2.189   5.272  0.1342  0.7300 -0.1373
 7135SOL    HW133038   2.846   2.151   5.341  0.1217  3.0977  1.1663
 7135SOL    HW233039   2.972   2.221   5.327  1.2731 -2.3849  0.2464
 7136SOL     OW33040   1.142   0.854  17.719  0.1832 -0.6131 -0.0904
 7136SOL    HW133041   1.107   0.911   0.041  2.2786  0.9774 -0.3317
 7136SOL    HW233042   1.226   0.826   0.011 -1.5662 -1.0332  3.4482
 7137SOL     OW33043   4.294   3.964   7.070  0.2726  0.0306  0.2972
 7137SOL    HW133044   4.254   3.987   6.986  0.5973 -1.1796 -0.1878
 7137SOL    HW233045   4.237   4.001   7.137 -0.4848  1.5308 -1.1729
 7138SOL     OW33046   2.725   3.149   8.266 -0.4349 -0.1248  0.5815
 7138SOL    HW133047   2.671   3.070   8.271 -2.1721  1.0014 -0.4987
 7138SOL    HW233048   2.678   3.205   8.327  0.0636  1.2228 -0.2667
 7139SOL     OW33049   0.650   4.133   4.565  0.2007 -0.0010 -0.0773
 7139SOL    HW133050   0.621   4.161   4.478  0.5009 -1.6635 -0.7283
 7139SOL    HW233051   0.582   4.164   4.624  0.9545  0.9761  0.2845
 7140SOL     OW33052   1.025   3.411   1.682  0.4630  0.1066  0.3971
 7140SOL    HW133053   0.984   3.415   1.768 -2.2561  0.7145 -0.9431
 7140SOL    HW233054   0.966   3.464   1.629 -1.1649 -0.3193  1.8129
 7141SOL     OW33055   0.588   1.630   5.282 -0.0722  0.4086  0.6452
 7141SOL    HW133056   0.668   1.634   5.230 -0.4592  1.6116  0.1308
 7141SOL    HW233057   0.580   1.536   5.297  2.3418  0.2831  1.1282
 7142SOL     OW33058   2.522   2.487   9.707  0.3348 -0.5536  0.5802
 7142SOL    HW133059   2.473   2.568   9.691  2.0833  0.7274  1.7241
 7142SOL    HW233060   2.556   2.455   9.624  1.2546  0.7566  0.4448
 7143SOL     OW33061   1.349   4.083   2.480  0.4065  0.1877  0.1290
 7143SOL    HW133062   1.422   4.023   2.465 -0.8980 -0.9153 -1.7168
 7143SOL    HW233063   1.368   4.133   2.400 -0.5366 -1.3399 -1.0333
 7144SOL     OW33064   2.053   1.762  17.586 -0.1091  0.5202 -0.4809
 7144SOL    HW133065   2.120   1.749  17.519  0.0870 -1.4990  0.1098
 7144SOL    HW233066   2.105   1.814  17.648 -0.9680  0.1276  0.5741
 7145SOL     OW33067   2.534   0.556   6.798 -0.3259  0.1306 -0.2035
 7145SOL    HW133068   2.568   0.565   6.887  0.1833  1.9190 -0.5607
 7145SOL    HW233069   2.440   0.560   6.816  0.3057 -0.8920  3.1685
 7146SOL     OW33070   3.473   3.089  17.420  0.1952 -0.1933  0.4081
 7146SOL    HW133071   3.438   3.154  17.481  0.8267  1.0434 -0.5396
 7146SOL    HW233072   3.542   3.138  17.375  2.4324 -2.2439  1.6235
 7147SOL     OW33073   0.606   2.267   1.322 -0.2928  0.1534 -0.6081
 7147SOL    HW133074   0.564   2.181   1.321 -0.6937  0.3458 -0.1608
 7147SOL    HW233075   0.591   2.293   1.413 -1.3670  0.2136 -0.8028
 7148SOL     OW33076   0.348   1.827   6.125 -0.4726 -0.3142  0.5689
 7148SOL    HW133077   0.282   1.891   6.100  1.6331  1.8934  0.6484
 7148SOL    HW233078   0.395   1.815   6.042 -1.7978  0.7369 -0.3328
 7149SOL     OW33079   4.160   2.782  11.047  0.8778  0.4710  0.0854
 7149SOL    HW133080   4.106   2.860  11.059 -2.2149 -1.5822 -0.4957
 7149SOL    HW233081   4.146   2.740  11.132 -2.1508 -1.7394 -1.5024
 7150SOL     OW33082   0.966   1.710   2.581 -0.0966 -0.1405  0.1587
 7150SOL    HW133083   0.891   1.736   2.528 -1.4025 -1.2888  1.4249
 7150SOL    HW233084   0.922   1.688   2.664  1.5995  1.5560  1.5240
 7151SOL     OW33085   0.082   0.516   5.926 -0.0049 -0.0135  0.1410
 7151SOL    HW133086   0.104   0.609   5.915  2.4793 -0.8764 -2.4223
 7151SOL    HW233087   4.729   0.512   5.892  0.2591 -1.2375 -0.3912
 7152SOL     OW33088   4.232   1.504   4.389 -0.3099  0.0179  0.4026
 7152SOL    HW133089   4.295   1.524   4.457 -0.3883  1.1813  0.1270
 7152SOL    HW233090   4.245   1.575   4.326 -2.3888 -0.9491 -1.1286
 7153SOL     OW33091   2.239   0.276  14.246 -0.0724 -0.2544 -0.1031
 7153SOL    HW133092   2.334   0.270  14.254  0.0304  1.2413 -0.3078
 7153SOL    HW233093   2.210   0.360  14.282  0.7545 -1.4267  3.2929
 7154SOL     OW33094   1.051   2.381  16.036 -0.3395 -0.1671  0.2584
 7154SOL    HW133095   1.070   2.407  15.946  0.9731 -0.8487  0.3387
 7154SOL    HW233096   1.025   2.463  16.079 -0.3043 -0.2256  0.3892
 7155SOL     OW33097   0.673   0.981   9.361  0.1518 -0.4180  0.7587
 7155SOL    HW133098   0.690   1.064   9.315  1.4477 -1.1532 -0.0790
 7155SOL    HW233099   0.738   0.921   9.324 -1.2531 -0.5332 -1.5585
 7156SOL     OW33100   2.652   2.962  17.036 -0.0673 -0.1333  0.3666
 7156SOL    HW133101   2.661   2.977  16.942  0.9065  0.4378  0.5553
 7156SOL    HW233102   2.692   2.875  17.044  1.2015  0.4519  0.3716
 7157SOL     OW33103   4.244   4.528   7.462  0.5585  0.1817 -0.2879
 7157SOL    HW133104   4.233   4.618   7.430 -0.7766  0.8039  1.9148
 7157SOL    HW233105   4.181   4.533   7.534  0.1384 -0.7913 -0.5787
 7158SOL     OW33106   0.845   2.431   9.988  0.0839 -0.5434  0.3292
 7158SOL    HW133107   0.903   2.456  10.060  1.8310  0.9200 -1.6005
 7158SOL    HW233108   0.839   2.336  10.001  1.6874 -0.5467  1.0643
 7159SOL     OW33109   2.867   4.734  16.447 -0.0767 -0.6074 -0.5492
 7159SOL    HW133110   2.799   4.709  16.385 -2.0013  1.0066  0.8910
 7159SOL    HW233111   2.822   0.056  16.508 -0.1792 -1.2509 -0.0079
 7160SOL     OW33112   3.856   4.681   7.304  0.0046 -0.1404  0.1626
 7160SOL    HW133113   3.834   0.020   7.357 -2.5148  0.3664 -1.5987
 7160SOL    HW233114   3.806   4.612   7.349 -0.7580  0.3296  0.0478
 7161SOL     OW33115   1.757   4.024   6.956  0.5146  0.1512  0.1370
 7161SOL    HW133116   1.730   3.972   6.881  1.8239  0.7671 -0.7588
 7161SOL    HW233117   1.783   4.103   6.909  0.4225  0.7905  1.1564
 7162SOL     OW33118   0.901   2.717   7.175 -0.2678 -0.4029  0.3751
 7162SOL    HW133119   0.827   2.662   7.150 -1.4101  1.7494 -0.8613
 7162SOL    HW233120   0.899   2.793   7.117 -0.3147 -0.4241  0.3493
 7163SOL     OW33121   1.196   0.831  12.185  0.4297  0.3619  0.7283
 7163SOL    HW133122   1.132   0.857  12.252 -1.1789 -3.7229  0.7294
 7163SOL    HW233123   1.281   0.827  12.229 -0.4648  0.1374  2.4213
 7164SOL     OW33124   0.503   0.796  13.245  0.1969  0.2964  0.4193
 7164SOL    HW133125   0.491   0.885  13.278 -1.0542  0.3263 -0.1258
 7164SOL    HW233126   0.566   0.822  13.178  1.5475 -2.2596  0.6956
 7165SOL     OW33127   2.032   3.501   3.717  0.1879  0.0057  0.2480
 7165SOL    HW133128   2.072   3.453   3.644 -0.7662 -0.9653  0.3613
 7165SOL    HW233129   2.094   3.574   3.718 -0.1174  0.2812 -1.6857
 7166SOL     OW33130   4.045   4.411   1.066  0.0367  0.0725  0.0483
 7166SOL    HW133131   3.978   4.463   1.022 -0.0503  0.7995  1.0363
 7166SOL    HW233132   4.002   4.402   1.151  2.1966 -0.0793  1.1311
 7167SOL     OW33133   0.042   2.282   2.972  0.3122 -0.5372  0.3023
 7167SOL    HW133134   0.132   2.310   2.990  0.1706 -0.6080  1.1137
 7167SOL    HW233135   0.004   2.318   3.052 -0.1024 -1.4974  0.5318
 7168SOL     OW33136   2.736   0.906   2.477 -0.2136  0.5829 -0.2544
 7168SOL    HW133137   2.780   0.821   2.484  0.4190  0.9072 -0.3160
 7168SOL    HW233138   2.653   0.874   2.443 -0.2463 -1.6197  1.8828
 7169SOL     OW33139   3.700   1.148   2.239 -0.4550  0.0792  0.0537
 7169SOL    HW133140   3.752   1.126   2.162 -0.5259  0.1425 -0.0119
 7169SOL    HW233141   3.752   1.100   2.303 -1.8233 -0.4016  0.8027
 7170SOL     OW33142   2.129   0.951  12.112 -0.3873 -0.2851  0.2172
 7170SOL    HW133143   2.051   0.915  12.068  0.1403 -3.5341  1.9297
 7170SOL    HW233144   2.131   1.042  12.084  0.5819 -0.2317  0.4850
 7171SOL     OW33145   1.275   3.360   7.858  0.9114 -0.5080  0.2397
 7171SOL    HW133146   1.241   3.281   7.900 -0.5968  0.0135  0.0048
 7171SOL    HW233147   1.259   3.342   7.765  1.0722  0.0992  0.0926
 7172SOL     OW33148   1.794   1.235   7.125  0.0987 -0.2543 -0.2150
 7172SOL    HW133149   1.765   1.248   7.215  0.8450 -1.3491  0.1754
 7172SOL    HW233150   1.736   1.167   7.092 -0.4318 -0.5480  1.3506
 7173SOL     OW33151   1.429   1.121   3.327 -0.3921 -0.4851  0.4782
 7173SOL    HW133152   1.499   1.060   3.350  0.1631  0.2686  0.7984
 7173SOL    HW233153   1.386   1.094   3.246 -0.7452  1.7028 -0.0740
 7174SOL     OW33154   4.571   2.323  14.927 -0.4183 -0.2746  0.6876
 7174SOL    HW133155   4.665   2.334  14.916 -0.7078 -1.7440 -3.3035
 7174SOL    HW233156   4.539   2.412  14.916  2.6526  0.6467 -0.7668
 7175SOL     OW33157   2.266   2.156   4.932 -0.1644 -0.0590  0.1573
 7175SOL    HW133158   2.265   2.176   5.026 -0.1918 -0.6376  0.2756
 7175SOL    HW233159   2.214   2.076   4.922 -1.4821  0.7547  0.4005
 7176SOL     OW33160   0.380   1.676  10.410 -0.4967 -0.2387  0.7907
 7176SOL    HW133161   0.371   1.581  10.418 -0.4801 -0.1920  1.3546
 7176SOL    HW233162   0.332   1.705  10.332  1.7366 -1.9558 -1.2079
 7177SOL     OW33163   2.830   0.957  10.341  0.1437 -0.2176  0.2770
 7177SOL    HW133164   2.800   1.038  10.381  1.2307 -0.0162  0.7019
 7177SOL    HW233165   2.802   0.895  10.408 -0.6024 -1.3920 -1.1169
 7178SOL     OW33166   4.358   2.694   7.580  0.0754 -0.1209  0.5087
 7178SOL    HW133167   4.302   2.771   7.572  1.1198  0.8793  3.0785
 7178SOL    HW233168   4.285   2.635   7.600 -0.1611  0.3538  1.0369
 7179SOL     OW33169   3.391   4.575   4.188 -0.4455  0.0408  0.8653
 7179SOL    HW133170   3.305   4.607   4.213 -0.6754 -0.4213  0.6605
 7179SOL    HW233171   3.365   4.484   4.172 -0.8221  0.0199  1.6168
 7180SOL     OW33172   3.992   1.411   8.174 -0.4108 -0.5250 -0.7171
 7180SOL    HW133173   4.024   1.339   8.120 -3.3816 -1.2516 -1.4692
 7180SOL    HW233174   3.998   1.364   8.256 -0.7771  1.2234  0.3171
 7181SOL     OW33175   3.089   3.812  11.973  0.7095 -0.1032  0.6419
 7181SOL    HW133176   3.078   3.719  11.954 -0.4318 -0.6214  3.7391
 7181SOL    HW233177   3.147   3.800  12.049 -0.1761  0.8634  1.4753
 7182SOL     OW33178   1.767   1.570   5.997  0.7220  0.2607  0.0916
 7182SOL    HW133179   1.728   1.657   5.998 -0.3024 -0.1719 -0.7935
 7182SOL    HW233180   1.697   1.508   5.975  0.2811 -0.0220  2.3308
 7183SOL     OW33181   1.842   3.517   2.977  0.2941 -0.0758  0.4425
 7183SOL    HW133182   1.837   3.606   2.944  0.7408 -0.4895 -0.7389
 7183SOL    HW233183   1.794   3.534   3.058 -0.9222 -2.4491  0.2180
 7184SOL     OW33184   0.417   3.895   8.886  0.6880 -0.6529 -0.1374
 7184SOL    HW133185   0.387   3.811   8.850  0.1829 -1.7927  2.9204
 7184SOL    HW233186   0.358   3.906   8.962 -0.7877 -2.1029 -1.0741
 7185SOL     OW33187   1.874   2.321   5.514 -0.1017 -0.4897 -0.7250
 7185SOL    HW133188   1.919   2.272   5.583 -1.1902  0.2717  0.5233
 7185SOL    HW233189   1.908   2.285   5.432 -0.2051  2.2807 -1.9886
 7186SOL     OW33190   2.199   2.487  11.649  0.5034  0.1268 -0.5286
 7186SOL    HW133191   2.182   2.427  11.576  0.2245  0.8296 -1.0440
 7186SOL    HW233192   2.176   2.427  11.720 -1.6772 -1.0113 -2.2055
 7187SOL     OW33193   2.775   1.503   4.854 -0.0086  0.5924  1.1131
 7187SOL    HW133194   2.859   1.507   4.901  0.9769  1.8377 -0.7554
 7187SOL    HW233195   2.795   1.574   4.793  0.8442  0.7908  1.6057
 7188SOL     OW33196   4.457   2.275   4.526  0.6921 -0.4033  0.7927
 7188SOL    HW133197   4.441   2.365   4.554 -0.6698 -0.6937  0.9736
 7188SOL    HW233198   4.380   2.267   4.469  0.4770 -0.1582  1.0451
 7189SOL     OW33199   0.609   3.534   9.118 -0.6071 -0.4786 -0.1547
 7189SOL    HW133200   0.665   3.457   9.130  1.6045  1.1789  0.0641
 7189SOL    HW233201   0.595   3.529   9.024  1.4972  1.4127 -0.5514
 7190SOL     OW33202   4.597   0.650   6.152 -0.8981 -0.7727  0.5770
 7190SOL    HW133203   4.542   0.573   6.141 -0.0715 -1.3721  0.6121
 7190SOL    HW233204   4.586   0.651   6.247  0.7556  1.7536  0.7472
 7191SOL     OW33205   3.804   0.271   4.229 -0.6536  0.3340  0.7243
 7191SOL    HW133206   3.886   0.268   4.278 -0.2352  1.3065  0.0731
 7191SOL    HW233207   3.834   0.318   4.152 -1.0668  0.7155  0.7940
 7192SOL     OW33208   1.931   3.304   9.897  0.3284  0.4889 -0.5783
 7192SOL    HW133209   1.900   3.349   9.818 -2.1364  1.1067  0.7548
 7192SOL    HW233210   1.987   3.238   9.856 -0.8857 -2.5233  2.6528
 7193SOL     OW33211   2.302   1.743   1.412 -0.1563  0.0998 -0.6026
 7193SOL    HW133212   2.389   1.725   1.447 -0.6553 -0.5833  0.2900
 7193SOL    HW233213   2.313   1.828   1.370  1.0961  0.7279  1.0301
 7194SOL     OW33214   1.543   0.531   1.978 -0.1154  0.6402  0.3064
 7194SOL    HW133215   1.573   0.622   1.976  0.1674  0.5390 -0.2233
 7194SOL    HW233216   1.623   0.493   1.942 -0.4969  1.9545 -1.9298
 7195SOL     OW33217   0.676   4.079  14.720  0.1109  0.3680  0.1754
 7195SOL    HW133218   0.636   3.996  14.746  0.0701 -0.0096 -1.1000
 7195SOL    HW233219   0.760   4.041  14.697 -1.1711 -2.4635  0.2288
 7196SOL     OW33220   0.008   0.349   8.952  0.1315 -0.3899  0.1155
 7196SOL    HW133221   4.726   0.272   8.899 -1.7586 -0.2799  0.6067
 7196SOL    HW233222   0.053   0.299   9.019  0.1504  0.6846  0.9150
 7197SOL     OW33223   4.661   4.326   8.508 -0.2216 -0.0765  0.2114
 7197SOL    HW133224   4.577   4.314   8.463 -0.4604 -0.1830  0.6915
 7197SOL    HW233225   4.636   4.307   8.598 -1.7354  1.9759  0.2233
 7198SOL     OW33226   2.823   2.093   3.637 -0.5103 -0.1724  0.1108
 7198SOL    HW133227   2.744   2.056   3.675  0.1879 -2.0396 -0.2509
 7198SOL    HW233228   2.891   2.058   3.695 -0.8305  0.3656  0.8125
 7199SOL     OW33229   3.155   0.380   8.110 -0.0277  0.3471  0.2662
 7199SOL    HW133230   3.119   0.438   8.044  0.7413  0.7062  0.1666
 7199SOL    HW233231   3.241   0.416   8.132  0.3736  0.7380 -2.0227
 7200SOL     OW33232   0.718   1.363   4.470 -0.5874  0.0056 -0.1145
 7200SOL    HW133233   0.690   1.365   4.379  1.6170  1.1053 -0.7603
 7200SOL    HW233234   0.682   1.442   4.510 -1.9633 -0.4001 -0.5671
 7201SOL     OW33235   1.925   0.587   6.066  0.4485 -0.4910  0.5317
 7201SOL    HW133236   1.884   0.525   6.127  0.0142 -0.9992 -0.2694
 7201SOL    HW233237   2.008   0.539   6.063  0.5424 -0.1268 -2.7517
 7202SOL     OW33238   1.516   0.604  16.095 -0.4120 -0.3053 -0.4187
 7202SOL    HW133239   1.525   0.564  16.009 -1.5442  0.9033 -1.1006
 7202SOL    HW233240   1.471   0.686  16.072  1.1048  0.0548 -2.1366
 7203SOL     OW33241   2.534   3.729   8.039  0.1208 -0.1695  0.1730
 7203SOL    HW133242   2.484   3.721   8.120 -0.8347  2.5725 -0.1706
 7203SOL    HW233243   2.461   3.698   7.985 -0.6127 -1.3610  1.8486
 7204SOL     OW33244   0.371   3.658  13.929  0.3012  0.5280 -0.1304
 7204SOL    HW133245   0.356   3.564  13.936 -1.9570  0.8315 -0.7960
 7204SOL    HW233246   0.444   3.657  13.990 -1.1267  0.2883  1.5639
 7205SOL     OW33247   4.339   3.750   4.791  0.4837  0.4057 -0.0353
 7205SOL    HW133248   4.312   3.712   4.708 -0.7265  1.3770 -0.0805
 7205SOL    HW233249   4.354   3.841   4.765 -0.3436  0.5499  0.0043
 7206SOL     OW33250   1.285   4.687  12.185  0.5842 -0.2700 -0.6449
 7206SOL    HW133251   1.213   4.688  12.248  1.1379 -0.4047 -0.0093
 7206SOL    HW233252   1.256   4.606  12.143  0.3096  0.2369 -1.4226
 7207SOL     OW33253   1.894   1.610  16.989 -0.3385 -0.2424  0.0303
 7207SOL    HW133254   1.884   1.662  16.909 -1.8686  0.3162  0.5705
 7207SOL    HW233255   1.926   1.683  17.042 -1.8551 -1.6076  2.8055
 7208SOL     OW33256   0.092   1.146   2.285  0.2405 -0.8656 -0.2015
 7208SOL    HW133257   0.116   1.184   2.200 -0.6400  0.4135  0.1151
 7208SOL    HW233258   0.042   1.223   2.313  0.6167 -1.1431  1.2222
 7209SOL     OW33259   2.732   2.851   0.618  0.1778  0.4605  0.4752
 7209SOL    HW133260   2.786   2.930   0.627  1.0125  0.0245 -0.7939
 7209SOL    HW233261   2.665   2.863   0.686  0.5635 -0.6726  1.0453
 7210SOL     OW33262   1.114   3.154   2.030  0.7000 -0.2456  0.4370
 7210SOL    HW133263   1.044   3.198   2.078  1.2351  0.8168  0.2411
 7210SOL    HW233264   1.125   3.084   2.094  2.2460 -0.3460  0.0521
 7211SOL     OW33265   4.458   0.684   9.026 -0.3391 -0.0378 -0.1857
 7211SOL    HW133266   4.528   0.743   8.999 -1.0314  1.9456  2.4024
 7211SOL    HW233267   4.468   0.695   9.120  0.1226 -0.1942 -0.2172
 7212SOL     OW33268   2.895   3.173   4.570  0.0331 -0.3592 -0.0444
 7212SOL    HW133269   2.973   3.183   4.625  0.3812  1.2232 -0.8253
 7212SOL    HW233270   2.822   3.194   4.627  1.0575 -0.5885  1.3573
 7213SOL     OW33271   4.290   4.586   8.345 -0.0077  0.4992 -1.2581
 7213SOL    HW133272   4.243   4.552   8.421  2.9571 -1.2119 -0.2228
 7213SOL    HW233273   4.357   4.519   8.332  0.1677  0.6525 -1.1468
 7214SOL     OW33274   1.795   0.227   5.014  0.0704 -0.2146 -0.1188
 7214SOL    HW133275   1.855   0.190   5.079 -1.4157 -0.2198  1.2432
 7214SOL    HW233276   1.785   0.150   4.959 -2.8272  1.6718 -2.2491
 7215SOL     OW33277   0.930   0.205   3.534 -0.6456 -0.6461 -0.2106
 7215SOL    HW133278   0.835   0.218   3.543 -0.3646  1.2301 -0.0630
 7215SOL    HW233279   0.962   0.295   3.528 -1.0852 -0.6294 -2.4717
 7216SOL     OW33280   4.329   2.877   3.659 -0.1364 -0.2143  0.1527
 7216SOL    HW133281   4.283   2.961   3.662 -0.1883 -0.2047 -0.9336
 7216SOL    HW233282   4.298   2.861   3.570  0.2320 -1.6765  0.2822
 7217SOL     OW33283   3.389   2.949  10.158 -0.2512 -0.0004  0.0970
 7217SOL    HW133284   3.395   2.858  10.129  2.0388  0.7431 -1.7243
 7217SOL    HW233285   3.305   2.968  10.117 -1.4691 -2.8030  1.3003
 7218SOL     OW33286   3.224   0.543   7.246  0.1126 -0.4958  0.0755
 7218SOL    HW133287   3.223   0.508   7.157  1.2399 -0.7527  0.1671
 7218SOL    HW233288   3.130   0.551   7.266 -0.0331  0.4588 -0.9767
 7219SOL     OW33289   4.273   3.750   8.566  0.8298 -0.1771  0.5493
 7219SOL    HW133290   4.323   3.697   8.504 -0.8382  0.8682 -1.6958
 7219SOL    HW233291   4.338   3.786   8.626 -0.5581  0.8018  1.4602
 7220SOL     OW33292   1.342   0.785   8.388  0.0376  0.4045  0.2969
 7220SOL    HW133293   1.303   0.824   8.309  0.7224 -0.7685 -0.6119
 7220SOL    HW233294   1.416   0.734   8.355 -0.6339  0.5333 -1.4461
 7221SOL     OW33295   2.853   4.216   9.817  0.2950 -0.3956 -0.0623
 7221SOL    HW133296   2.821   4.199   9.906 -2.0779  1.2298 -0.5745
 7221SOL    HW233297   2.913   4.288   9.837 -0.2751  0.1940 -0.4203
 7222SOL     OW33298   3.889   3.463   2.555 -0.1610  0.1327 -0.1839
 7222SOL    HW133299   3.885   3.454   2.459  0.2094 -2.0652  0.0065
 7222SOL    HW233300   3.934   3.543   2.582 -0.1850 -0.5115  1.7019
 7223SOL     OW33301   0.989   2.434   5.636  0.2032  0.4839  0.2940
 7223SOL    HW133302   1.060   2.471   5.583  0.9025  1.6473  2.0308
 7223SOL    HW233303   0.960   2.514   5.680 -1.6031  0.6460 -1.2101
 7224SOL     OW33304   4.233   2.054   7.573  0.1017  0.5952 -0.3689
 7224SOL    HW133305   4.245   2.148   7.569  0.4360  0.6301  1.6057
 7224SOL    HW233306   4.321   2.025   7.600 -0.1449 -0.4356 -0.6518
 7225SOL     OW33307   0.116   2.020  11.098 -0.3974 -0.0585 -0.3879
 7225SOL    HW133308   0.118   2.111  11.126 -3.0129  0.4589 -1.8080
 7225SOL    HW233309   0.197   1.991  11.057 -0.8007  0.1811 -1.3719
 7226SOL     OW33310   3.825   2.753   2.253  0.5084  0.3896 -0.5304
 7226SOL    HW133311   3.748   2.735   2.307 -0.3064  1.0874 -1.4571
 7226SOL    HW233312   3.782   2.743   2.168  2.0874 -1.0548 -1.1640
 7227SOL     OW33313   3.509   2.337   3.506  0.6311 -0.1200 -0.3199
 7227SOL    HW133314   3.455   2.340   3.427 -0.0176 -0.6245  0.1024
 7227SOL    HW233315   3.591   2.378   3.480  0.5597  0.9204  1.0919
 7228SOL     OW33316   1.739   0.239   4.581  0.0337  0.3689  0.6309
 7228SOL    HW133317   1.823   0.280   4.559 -1.1544  3.5220  1.8966
 7228SOL    HW233318   1.705   0.317   4.626 -2.0740 -0.6489  0.7772
 7229SOL     OW33319   3.336   1.907  11.442  0.4776 -0.2348 -0.1173
 7229SOL    HW133320   3.401   1.946  11.500  3.0310  0.7789 -3.6013
 7229SOL    HW233321   3.289   1.856  11.507  1.0053  1.5633  1.6797
 7230SOL     OW33322   4.705   3.909   4.668 -0.1422 -0.4121  0.5101
 7230SOL    HW133323   4.671   3.990   4.631 -0.4496 -1.0611 -0.6240
 7230SOL    HW233324   0.056   3.913   4.629 -0.6153  0.9679 -0.3807
 7231SOL     OW33325   0.185   3.447   2.350  0.1627  0.8941  0.4072
 7231SOL    HW133326   0.119   3.432   2.418  1.0691 -2.2091  0.5737
 7231SOL    HW233327   0.235   3.366   2.347  0.2936  1.0735 -1.8574
 7232SOL     OW33328   2.229   1.211   3.457 -0.1760  0.0497 -0.1222
 7232SOL    HW133329   2.140   1.176   3.463  0.1864 -1.3615 -2.6766
 7232SOL    HW233330   2.265   1.162   3.530 -0.9231 -1.3070 -0.6649
 7233SOL     OW33331   3.715   1.097   6.346  0.0253 -0.1738  0.0292
 7233SOL    HW133332   3.717   1.190   6.323 -0.3749  0.1038  1.0816
 7233SOL    HW233333   3.733   1.085   6.439  1.0252  2.3159  0.1494
 7234SOL     OW33334   0.285   3.200   5.300  0.1349  0.2573 -0.3317
 7234SOL    HW133335   0.191   3.213   5.284 -0.0133  0.6657  0.8760
 7234SOL    HW233336   0.291   3.111   5.335  1.1368  0.8634  1.0228
 7235SOL     OW33337   1.415   2.929   6.275  0.1183  0.4575  0.6129
 7235SOL    HW133338   1.507   2.952   6.287  0.3142  0.6458 -1.3109
 7235SOL    HW233339   1.403   2.899   6.365  0.5538  0.0575  0.5354
 7236SOL     OW33340   4.040   3.031   1.301  0.4053 -0.1115  0.0917
 7236SOL    HW133341   4.120   3.024   1.352  0.0466  3.0232  1.0915
 7236SOL    HW233342   4.025   2.938   1.285 -0.7782  0.3646 -1.5282
 7237SOL     OW33343   3.924   0.201   3.953  0.4432  0.3745 -0.0734
 7237SOL    HW133344   3.919   0.163   3.865  1.6396  0.3906 -0.1423
 7237SOL    HW233345   3.912   0.127   4.013 -1.4357  0.3343 -0.5052
 7238SOL     OW33346   1.723   1.119  12.658 -0.3431  0.1174 -0.1897
 7238SOL    HW133347   1.738   1.025  12.643  0.2902  0.3071 -0.7387
 7238SOL    HW233348   1.799   1.145  12.606  0.5038  1.5371  1.7492
 7239SOL     OW33349   1.779   1.743   1.566 -0.0250  0.5497  0.2114
 7239SOL    HW133350   1.689   1.772   1.578  0.7453  3.1002 -0.0433
 7239SOL    HW233351   1.789   1.682   1.639 -0.0465  0.6333  0.2835
 7240SOL     OW33352   3.396   0.435   4.352  0.7878 -0.1661 -0.2449
 7240SOL    HW133353   3.437   0.441   4.265 -1.5018 -2.6206 -1.4867
 7240SOL    HW233354   3.360   0.346   4.344 -0.8611  0.3150  1.7422
 7241SOL     OW33355   0.126   0.221   7.368  0.7135 -0.3218  0.1455
 7241SOL    HW133356   0.042   0.265   7.362  1.7239  1.4485 -1.0541
 7241SOL    HW233357   0.158   0.241   7.456  1.1110  1.1076 -0.3131
 7242SOL     OW33358   2.493   4.253   5.752 -0.7338 -0.2998  0.1538
 7242SOL    HW133359   2.401   4.240   5.776 -0.3609 -1.1223  1.1461
 7242SOL    HW233360   2.487   4.339   5.711 -0.9467 -0.4817 -0.1946
 7243SOL     OW33361   1.977   1.326  16.987  0.3197  0.4727  0.0092
 7243SOL    HW133362   1.990   1.416  17.019  2.3463  0.9786 -2.2719
 7243SOL    HW233363   1.977   1.270  17.065  1.7026 -0.9990 -1.0512
 7244SOL     OW33364   2.696   2.331   3.389 -0.4116 -0.0812  0.2022
 7244SOL    HW133365   2.695   2.358   3.480  1.3747 -0.0958  0.2249
 7244SOL    HW233366   2.741   2.247   3.396 -0.0144  0.0411 -0.7867
 7245SOL     OW33367   0.570   3.452   9.508 -0.1305  0.2010 -0.2291
 7245SOL    HW133368   0.478   3.472   9.491 -0.3663 -1.5144 -0.9670
 7245SOL    HW233369   0.567   3.365   9.548 -0.8150  0.4122  0.1786
 7246SOL     OW33370   2.983   4.579   2.065 -0.2047  0.1578  0.2656
 7246SOL    HW133371   2.953   4.668   2.085  3.3208  1.2212  0.7880
 7246SOL    HW233372   2.915   4.553   2.003  0.5308 -1.4535  0.1437
 7247SOL     OW33373   1.200   1.654  11.424 -0.0574  0.2006 -0.3183
 7247SOL    HW133374   1.199   1.565  11.389  2.1773 -0.1303  0.5123
 7247SOL    HW233375   1.223   1.708  11.348  0.3277  0.2533 -0.1624
 7248SOL     OW33376   2.434   2.818   1.257  0.1911  0.1175  0.2663
 7248SOL    HW133377   2.488   2.750   1.298 -1.4261 -1.7946 -0.7473
 7248SOL    HW233378   2.410   2.874   1.330 -4.3767 -1.3379 -0.0983
 7249SOL     OW33379   3.431   0.257   9.781 -0.0695 -0.2242  0.5442
 7249SOL    HW133380   3.439   0.324   9.849 -1.6845  0.5314 -0.0097
 7249SOL    HW233381   3.513   0.280   9.737 -0.8638  0.8210 -0.3990
 7250SOL     OW33382   1.632   4.381   5.211 -0.7672  0.3070  0.0155
 7250SOL    HW133383   1.579   4.342   5.281 -3.1131  1.2048 -1.2438
 7250SOL    HW233384   1.575   4.363   5.135  1.5587  1.7287 -2.0400
 7251SOL     OW33385   0.452   3.919   5.487  0.1921  0.0293 -0.0137
 7251SOL    HW133386   0.444   3.909   5.581 -0.1058 -1.4975 -0.1883
 7251SOL    HW233387   0.445   3.826   5.462  3.6286 -0.0768 -0.6053
 7252SOL     OW33388   0.795   1.468   7.780  0.2278  0.2242  0.0331
 7252SOL    HW133389   0.765   1.558   7.789  0.8320  0.4510 -0.2141
 7252SOL    HW233390   0.880   1.482   7.739 -0.1457  3.1889  0.2805
 7253SOL     OW33391   3.309   4.352   7.339 -0.3164 -0.0188 -0.3035
 7253SOL    HW133392   3.305   4.305   7.256 -2.4574  1.8124 -1.2421
 7253SOL    HW233393   3.240   4.298   7.378 -0.7670  0.2310 -0.7589
 7254SOL     OW33394   1.180   1.356   3.448  0.1166 -0.3514 -0.4742
 7254SOL    HW133395   1.264   1.364   3.493 -1.0395  3.0244  1.0578
 7254SOL    HW233396   1.175   1.437   3.398  0.4929 -0.7316 -1.1241
 7255SOL     OW33397   0.217   1.501  12.917  0.0672 -0.2541  0.5102
 7255SOL    HW133398   0.229   1.406  12.908 -1.5942 -0.1293 -3.0483
 7255SOL    HW233399   0.286   1.537  12.860  0.4849 -1.4296  0.2617
 7256SOL     OW33400   2.881   2.825   6.287  0.2528  0.3944  0.0566
 7256SOL    HW133401   2.858   2.826   6.194  0.3629  0.3661  0.0300
 7256SOL    HW233402   2.961   2.773   6.291 -0.5276 -0.8675 -0.9317
 7257SOL     OW33403   1.990   0.746  15.466 -0.4234 -0.1220 -0.4943
 7257SOL    HW133404   1.958   0.824  15.421 -1.4172 -0.4091 -0.3031
 7257SOL    HW233405   2.058   0.790  15.518  0.7045 -0.1788 -1.9378
 7258SOL     OW33406   4.300   2.605   6.909  0.2277 -0.6163 -0.1325
 7258SOL    HW133407   4.215   2.567   6.884 -0.5080  0.4775  0.7039
 7258SOL    HW233408   4.333   2.632   6.824  1.0563 -1.4061 -0.0650
 7259SOL     OW33409   2.606   1.427   9.170  0.2327 -0.3698  0.5258
 7259SOL    HW133410   2.567   1.418   9.256 -2.3688 -0.4720 -0.6805
 7259SOL    HW233411   2.523   1.436   9.124  0.0938 -0.6913  0.7201
 7260SOL     OW33412   3.890   1.345  11.254  0.4065 -0.5033 -0.6543
 7260SOL    HW133413   3.915   1.339  11.162 -1.4773 -1.8229 -1.0691
 7260SOL    HW233414   3.842   1.427  11.249  0.4790 -0.3616  0.8562
 7261SOL     OW33415   2.593   1.566   7.617 -0.5865  0.0067  0.0496
 7261SOL    HW133416   2.534   1.519   7.558 -0.2205  1.2412 -1.2931
 7261SOL    HW233417   2.528   1.569   7.687 -0.3399  2.8193  0.1630
 7262SOL     OW33418   3.176   0.285   2.506 -0.7962 -0.0222 -0.4433
 7262SOL    HW133419   3.200   0.327   2.423  3.5687  0.7929  1.2037
 7262SOL    HW233420   3.218   0.199   2.504 -1.2441 -0.2258 -1.5478
 7263SOL     OW33421   0.450   2.871   2.328 -0.4656  0.0268  0.1095
 7263SOL    HW133422   0.414   2.815   2.259  1.1351 -1.8664  0.8081
 7263SOL    HW233423   0.377   2.874   2.390 -1.6689  2.7905 -1.4366
 7264SOL     OW33424   4.507   3.673   6.902  0.0047  0.7465  0.1527
 7264SOL    HW133425   4.524   3.753   6.951 -2.0639  1.0330  0.3823
 7264SOL    HW233426   4.589   3.665   6.853  0.0241  3.0883 -0.1926
 7265SOL     OW33427   0.523   0.046  17.510 -0.0600 -0.2899  0.6829
 7265SOL    HW133428   0.490   0.069  17.597  1.5589  0.8172  1.0001
 7265SOL    HW233429   0.535   0.132  17.471  0.0931  0.0084  1.3987
 7266SOL     OW33430   0.837   3.961   2.278 -0.2820  0.1269  0.0904
 7266SOL    HW133431   0.897   3.887   2.269 -0.4208  0.1167 -0.7591
 7266SOL    HW233432   0.866   4.022   2.210 -1.4588  1.2027  0.5516
 7267SOL     OW33433   3.078   0.372   7.660  0.0763 -0.0252  0.0464
 7267SOL    HW133434   3.119   0.298   7.705 -0.4277  0.2758  1.0016
 7267SOL    HW233435   3.087   0.340   7.570 -0.2698  1.4143 -0.4980
 7268SOL     OW33436   4.245   1.384   8.645  0.1647  0.1936 -0.3478
 7268SOL    HW133437   4.232   1.300   8.689 -2.9142  0.2832 -1.1031
 7268SOL    HW233438   4.224   1.455   8.706 -1.9528 -0.0283 -0.8199
 7269SOL     OW33439   2.626   2.871   5.196 -0.2738 -0.3420 -0.4499
 7269SOL    HW133440   2.679   2.905   5.123  1.3230 -1.4154  0.2261
 7269SOL    HW233441   2.650   2.938   5.260  0.9698 -1.0032 -0.2335
 7270SOL     OW33442   3.280   0.697   6.765  0.2918 -0.8479 -0.0694
 7270SOL    HW133443   3.247   0.715   6.678 -3.1982 -1.0310  1.2163
 7270SOL    HW233444   3.218   0.745   6.820  0.2407 -1.2710  0.2499
 7271SOL     OW33445   4.727   0.203   1.512 -0.3413  0.4104  0.4108
 7271SOL    HW133446   0.029   0.288   1.533  2.0029 -0.8524  1.2720
 7271SOL    HW233447   0.052   0.182   1.443  0.6268  0.8848  1.1266
 7272SOL     OW33448   2.285   2.843  11.922 -0.5509 -0.2684 -0.4297
 7272SOL    HW133449   2.192   2.861  11.936 -0.6265 -0.4006 -0.7637
 7272SOL    HW233450   2.319   2.849  12.011  1.4106  2.4671 -1.3419
 7273SOL     OW33451   4.295   1.752   2.629  0.9209  0.1702  0.6623
 7273SOL    HW133452   4.274   1.724   2.719 -2.0754  2.5434  0.7051
 7273SOL    HW233453   4.332   1.840   2.644  1.7782 -0.5427  2.8033
 7274SOL     OW33454   2.946   0.087  15.356  0.2312 -0.8168  0.0459
 7274SOL    HW133455   2.874   0.051  15.408  0.6872 -0.9021  0.6227
 7274SOL    HW233456   2.971   0.011  15.303  0.2202 -0.2770 -0.7233
 7275SOL     OW33457   1.226   4.434   2.747 -0.2553 -0.5305  0.0705
 7275SOL    HW133458   1.170   4.420   2.671  0.7643  0.2059 -0.8137
 7275SOL    HW233459   1.309   4.397   2.717  0.3695  0.6916  0.3095
 7276SOL     OW33460   3.942   0.006   6.328 -0.8189  0.1967 -0.1694
 7276SOL    HW133461   3.898   4.723   6.411 -1.8346  0.3014 -0.6785
 7276SOL    HW233462   3.960   4.653   6.302 -0.2336  0.9978 -2.4883
 7277SOL     OW33463   3.697   4.598  12.906 -0.0511  0.1590 -0.2052
 7277SOL    HW133464   3.772   4.560  12.860 -0.7399 -1.4759  0.0143
 7277SOL    HW233465   3.617   4.564  12.865 -0.9329 -0.1717  1.7686
 7278SOL     OW33466   1.229   3.050  10.836  0.2155  0.6386  0.1631
 7278SOL    HW133467   1.183   3.122  10.879 -0.0765  0.2049  0.5749
 7278SOL    HW233468   1.306   3.030  10.889 -0.6284 -1.1840  0.6960
 7279SOL     OW33469   2.305   2.718   7.223  0.7726  0.2439  0.0745
 7279SOL    HW133470   2.323   2.750   7.312 -1.8103  0.7643  0.4040
 7279SOL    HW233471   2.261   2.796   7.190 -0.0661  0.7518  2.3540
 7280SOL     OW33472   0.174   0.564  12.615  0.4080 -0.4026 -0.1224
 7280SOL    HW133473   0.097   0.522  12.654  1.3017 -1.0941  0.9170
 7280SOL    HW233474   0.245   0.506  12.643  1.6136  0.6349 -1.0126
 7281SOL     OW33475   1.507   2.860   6.995  0.0816  0.3371 -0.3499
 7281SOL    HW133476   1.504   2.911   7.076  3.6099  2.1635 -1.3700
 7281SOL    HW233477   1.437   2.903   6.945  0.5329  1.0879 -0.3400
 7282SOL     OW33478   1.327   3.039   0.594 -0.1352 -0.1264 -0.0835
 7282SOL    HW133479   1.336   3.127   0.556 -0.0473 -1.1212 -2.3122
 7282SOL    HW233480   1.305   3.051   0.687  1.8387 -1.3897  0.5245
 7283SOL     OW33481   4.593   2.378   2.373  0.0817 -0.7252 -0.1935
 7283SOL    HW133482   4.499   2.386   2.356  0.3118 -0.4835 -1.3570
 7283SOL    HW233483   4.593   2.345   2.463 -2.4933  0.3417  0.1975
 7284SOL     OW33484   1.082   2.352   7.290 -0.3225  0.1469 -0.3080
 7284SOL    HW133485   1.021   2.342   7.364 -2.4340 -0.9055 -2.1896
 7284SOL    HW233486   1.144   2.281   7.305  1.3564  1.7650  0.3704
 7285SOL     OW33487   4.315   2.037   1.870 -0.1971  0.0173 -0.1165
 7285SOL    HW133488   4.353   2.025   1.957  0.6004 -4.3166 -1.0660
 7285SOL    HW233489   4.382   2.088   1.825  0.9384 -2.0479 -0.7342
 7286SOL     OW33490   4.548   0.970  15.816 -0.0333 -0.3994 -0.0889
 7286SOL    HW133491   4.531   1.044  15.758  3.0902 -1.3069 -2.2068
 7286SOL    HW233492   4.574   0.904  15.751 -0.2664 -1.4537  0.8934
 7287SOL     OW33493   0.806   0.603   8.225 -0.0844  0.5610 -0.7597
 7287SOL    HW133494   0.713   0.608   8.202 -0.6854 -0.0192  1.5896
 7287SOL    HW233495   0.824   0.697   8.229 -2.3617  0.9181  0.8733
 7288SOL     OW33496   3.071   1.907  11.027 -0.0198 -0.2575  0.0775
 7288SOL    HW133497   3.135   1.947  10.969 -1.2503  1.9479  0.2178
 7288SOL    HW233498   3.103   1.945  11.109  0.1250 -0.0616 -0.0684
 7289SOL     OW33499   0.926   3.071  16.202 -0.2677  0.0331 -0.5129
 7289SOL    HW133500   0.908   3.164  16.208 -0.9025 -0.2463  2.1772
 7289SOL    HW233501   0.980   3.064  16.124 -1.5948  2.7190 -1.6685
 7290SOL     OW33502   2.277   4.114   2.573 -0.3534 -0.0377 -0.3176
 7290SOL    HW133503   2.234   4.190   2.613  1.1494 -0.0147  1.2457
 7290SOL    HW233504   2.235   4.109   2.487 -1.9385  2.1802  0.3255
 7291SOL     OW33505   3.868   2.904  11.747 -0.2724 -1.0238 -0.3129
 7291SOL    HW133506   3.875   2.995  11.775 -1.2309 -0.6077 -1.4448
 7291SOL    HW233507   3.930   2.915  11.675 -0.4053 -0.7171 -0.3814
 7292SOL     OW33508   4.381   3.012   7.898  0.4530 -0.2038 -0.9727
 7292SOL    HW133509   4.432   2.950   7.846 -1.5691 -2.2959 -0.4542
 7292SOL    HW233510   4.295   2.975   7.879  0.4123 -1.0644  0.9222
 7293SOL     OW33511   4.114   2.170   3.654  0.8218 -0.1775  0.2494
 7293SOL    HW133512   4.169   2.104   3.696  1.6020  1.2193  1.4630
 7293SOL    HW233513   4.160   2.172   3.571  2.5897  0.3755  1.2341
 7294SOL     OW33514   2.102   2.604   4.546  0.2070  0.1783  0.4822
 7294SOL    HW133515   2.059   2.658   4.612 -0.5295  0.8140 -0.5096
 7294SOL    HW233516   2.152   2.674   4.503  0.7962  0.0030  0.8838
 7295SOL     OW33517   2.701   3.568   2.209  0.5691 -0.3411 -0.1706
 7295SOL    HW133518   2.740   3.644   2.165  0.8582 -0.1063  0.4985
 7295SOL    HW233519   2.762   3.544   2.279 -2.1620 -1.3512  1.8748
 7296SOL     OW33520   2.911   0.712  12.663  0.3186  0.0421 -0.7028
 7296SOL    HW133521   2.857   0.638  12.635  0.5747 -1.0252  1.5704
 7296SOL    HW233522   2.983   0.670  12.712  0.0516  0.8761  0.4122
 7297SOL     OW33523   2.256   2.682   3.122  0.1115 -0.5561 -0.1018
 7297SOL    HW133524   2.217   2.769   3.116 -0.9120 -1.1661 -2.3864
 7297SOL    HW233525   2.342   2.706   3.086  0.6052  1.9137  2.7625
 7298SOL     OW33526   1.186   2.767   5.455 -0.3908  0.0223 -0.2374
 7298SOL    HW133527   1.194   2.845   5.512 -0.1301 -0.8762  0.9649
 7298SOL    HW233528   1.176   2.810   5.370  2.5024  0.3312 -0.4396
 7299SOL     OW33529   0.900   3.213   2.240 -0.2034  0.4944 -0.5244
 7299SOL    HW133530   0.840   3.143   2.265 -0.5257  0.8387 -0.3461
 7299SOL    HW233531   0.844   3.280   2.200 -0.2499 -0.0698 -1.3940
 7300SOL     OW33532   0.174   0.269   7.615 -0.3518  0.0776  0.5882
 7300SOL    HW133533   0.100   0.244   7.670  0.7122 -1.5652  1.2798
 7300SOL    HW233534   0.241   0.288   7.681  0.1799  2.7523 -0.7321
 7301SOL     OW33535   2.281   1.027   5.868  0.0779  0.2250  0.4197
 7301SOL    HW133536   2.242   1.063   5.788 -0.5956  3.5232  2.2104
 7301SOL    HW233537   2.295   1.101   5.928  2.4188  0.3856 -0.3073
 7302SOL     OW33538   4.540   0.088   6.857 -0.2888  0.4716 -0.4125
 7302SOL    HW133539   4.588   0.010   6.829 -1.4214 -0.7403  0.9795
 7302SOL    HW233540   4.579   0.108   6.942 -1.6629  0.4937  0.2062
 7303SOL     OW33541   2.013   3.904  15.262  0.8604  0.1503  0.4883
 7303SOL    HW133542   1.936   3.873  15.215  1.3859 -1.0548  0.4191
 7303SOL    HW233543   2.089   3.875  15.211 -0.0654  0.2950 -0.9995
 7304SOL     OW33544   1.457   0.063   8.177  0.0216 -0.3253  0.2570
 7304SOL    HW133545   1.452   0.157   8.194  1.1198 -0.0591 -0.8905
 7304SOL    HW233546   1.385   0.030   8.230 -0.1097  1.8364  1.4111
 7305SOL     OW33547   2.541   4.206   1.051 -0.3484 -0.2275  0.0392
 7305SOL    HW133548   2.559   4.190   0.958  0.4400  2.7080 -0.3187
 7305SOL    HW233549   2.446   4.192   1.054 -0.2418 -0.9873  0.0135
 7306SOL     OW33550   3.511   0.634   3.225 -0.1813 -0.2306  0.2382
 7306SOL    HW133551   3.484   0.631   3.316 -1.9133  2.6402 -0.1933
 7306SOL    HW233552   3.436   0.590   3.185 -0.5700 -1.1927  2.0228
 7307SOL     OW33553   4.119   0.375   6.606 -0.3076 -0.1620 -0.4693
 7307SOL    HW133554   4.108   0.303   6.668  1.5148 -0.0949 -0.0788
 7307SOL    HW233555   4.127   0.330   6.522 -3.2267 -2.3761  0.4419
 7308SOL     OW33556   1.887   3.157  14.107  0.3142  0.2257 -0.3861
 7308SOL    HW133557   1.909   3.198  14.023  2.4212  2.7978  1.4493
 7308SOL    HW233558   1.793   3.174  14.095 -0.0236 -0.0826  1.7412
 7309SOL     OW33559   0.543   0.769   1.173  0.0055 -0.3363  0.2168
 7309SOL    HW133560   0.495   0.688   1.157  0.1572 -0.3422 -0.1873
 7309SOL    HW233561   0.586   0.755   1.258 -0.2516 -1.3205  0.1957
 7310SOL     OW33562   3.187   3.884  17.593  0.1730 -0.3582  0.5723
 7310SOL    HW133563   3.186   3.911  17.501  0.4538 -3.2669 -0.2962
 7310SOL    HW233564   3.278   3.857  17.591 -0.6189 -3.0160  0.4265
 7311SOL     OW33565   2.677   0.100   1.042 -0.1535 -0.0372  0.1691
 7311SOL    HW133566   2.663   0.083   1.135 -0.9328 -3.8071 -0.6490
 7311SOL    HW233567   2.667   0.195   1.031  0.2053  0.1535  1.5478
 7312SOL     OW33568   0.613   2.652   1.309  0.6454 -0.3705  0.3257
 7312SOL    HW133569   0.690   2.596   1.296 -0.4525 -1.2416 -2.1802
 7312SOL    HW233570   0.548   2.607   1.256 -0.8079  1.6420  0.4308
 7313SOL     OW33571   1.746   3.608   6.945 -0.5375 -0.0598  0.3669
 7313SOL    HW133572   1.772   3.607   7.037 -2.0078  1.0140  0.7863
 7313SOL    HW233573   1.742   3.513   6.933 -0.5406  0.2064 -1.7023
 7314SOL     OW33574   0.386   0.840   9.880 -0.5876 -0.3001 -0.4754
 7314SOL    HW133575   0.315   0.882   9.929 -0.4821  1.7582 -2.1004
 7314SOL    HW233576   0.333   0.796   9.813 -1.8810  1.1709 -0.4157
 7315SOL     OW33577   0.085   1.248   9.529  0.3030 -0.2255 -0.0699
 7315SOL    HW133578   0.012   1.239   9.468 -0.4391 -0.8042  0.8966
 7315SOL    HW233579   0.037   1.216   9.606 -1.7430 -0.9013 -1.6072
 7316SOL     OW33580   2.409   0.344  14.736  0.1386 -0.1746  0.3958
 7316SOL    HW133581   2.316   0.359  14.746  0.1747 -0.5266  1.2058
 7316SOL    HW233582   2.399   0.248  14.735 -0.4588 -0.1058 -0.1989
 7317SOL     OW33583   1.713   4.607   2.619  0.3109 -0.2094  0.1765
 7317SOL    HW133584   1.681   4.518   2.610  1.0220 -0.2845 -1.8011
 7317SOL    HW233585   1.805   4.607   2.590  0.2853 -0.4670  0.1029
 7318SOL     OW33586   1.905   1.211   8.482 -0.3793  0.0540 -0.6043
 7318SOL    HW133587   1.827   1.250   8.522 -0.4152 -1.2518  0.6043
 7318SOL    HW233588   1.863   1.125   8.480 -0.4569 -0.0117  2.7878
 7319SOL     OW33589   0.366   2.957   2.977  0.5730  0.2457 -0.2072
 7319SOL    HW133590   0.387   3.028   3.038 -0.5614  0.3503  0.0583
 7319SOL    HW233591   0.318   2.912   3.047  2.4849  1.2351  1.7655
 7320SOL     OW33592   4.250   0.275   7.715 -0.0614  0.4959 -0.2766
 7320SOL    HW133593   4.241   0.332   7.639  0.7610 -1.1383 -1.5984
 7320SOL    HW233594   4.295   0.334   7.775 -0.5820  0.8137 -0.2003
 7321SOL     OW33595   2.124   3.438  12.707  0.2131  0.2130  0.1921
 7321SOL    HW133596   2.035   3.414  12.681 -0.4267  3.2108 -0.3784
 7321SOL    HW233597   2.148   3.360  12.758  0.4044  0.3518  0.3121
 7322SOL     OW33598   2.233   0.100   8.648  0.0809 -0.4566 -0.5799
 7322SOL    HW133599   2.247   0.035   8.579  1.0528 -0.7671 -0.0906
 7322SOL    HW233600   2.288   0.172   8.617 -0.7169  0.6210  0.5057
 7323SOL     OW33601   2.057   4.151   3.669 -0.6085  0.7426  0.3322
 7323SOL    HW133602   1.966   4.129   3.649 -0.2088 -0.6511  0.0552
 7323SOL    HW233603   2.058   4.246   3.680 -1.3856  0.8537 -0.6345
 7324SOL     OW33604   1.967   1.511   8.577  0.6953 -0.2613  0.6380
 7324SOL    HW133605   1.913   1.433   8.558 -0.9053  0.9261  0.2870
 7324SOL    HW233606   1.905   1.584   8.581  1.5936  0.4864  0.8532
 7325SOL     OW33607   1.462   0.919  15.161 -0.2581  0.2414  0.0642
 7325SOL    HW133608   1.470   1.010  15.131 -2.2822  0.6043  0.6484
 7325SOL    HW233609   1.553   0.894  15.142 -1.3514 -1.2560 -3.2097
 7326SOL     OW33610   3.409   0.234   5.892  0.4547 -0.1077 -0.2105
 7326SOL    HW133611   3.326   0.196   5.865 -1.1078  2.0919  1.4511
 7326SOL    HW233612   3.413   0.221   5.987  1.2911  1.0957 -0.0850
 7327SOL     OW33613   2.800   2.741  11.152  0.2061 -0.1744  0.3407
 7327SOL    HW133614   2.772   2.722  11.062 -0.5509 -1.6717  0.8929
 7327SOL    HW233615   2.844   2.820  11.120 -2.3490  0.8434 -0.6058
 7328SOL     OW33616   0.928   3.157   7.204  0.3123  0.0432 -0.0287
 7328SOL    HW133617   0.953   3.122   7.289 -1.0952 -1.6594 -0.3047
 7328SOL    HW233618   0.998   3.221   7.190 -0.6152  0.2621 -3.7601
 7329SOL     OW33619   3.060   0.032  11.341 -0.2133  0.1680 -0.4651
 7329SOL    HW133620   3.107   4.733  11.416  2.2113  2.5685 -0.8665
 7329SOL    HW233621   3.102   4.719  11.271 -2.4059 -2.5960  0.1571
 7330SOL     OW33622   1.952   0.197  10.118 -0.3529  0.1248 -1.1929
 7330SOL    HW133623   1.906   0.205  10.202  2.1809 -1.3233  0.3249
 7330SOL    HW233624   2.017   0.129  10.134  0.6062  1.0226 -1.2435
 7331SOL     OW33625   3.968   4.360   7.908  0.5591 -0.0883 -0.7996
 7331SOL    HW133626   3.944   4.322   7.993  0.9642 -1.4281 -1.3014
 7331SOL    HW233627   4.051   4.401   7.934 -1.1224  1.7914  1.7459
 7332SOL     OW33628   2.678   1.292   4.703  0.1084  0.0841  0.0294
 7332SOL    HW133629   2.719   1.363   4.752 -1.5435  1.0467  0.0072
 7332SOL    HW233630   2.760   1.245   4.688  0.3712  0.6261 -0.2447
 7333SOL     OW33631   4.465   4.233   2.927 -0.4703  0.1837 -0.5519
 7333SOL    HW133632   4.504   4.207   2.843 -1.8368 -0.0100 -1.1244
 7333SOL    HW233633   4.496   4.322   2.942 -0.5821  0.3022 -1.0278
 7334SOL     OW33634   4.350   0.712   2.117 -0.7388  0.2470 -0.1933
 7334SOL    HW133635   4.323   0.634   2.068 -1.7141  0.0137  0.7214
 7334SOL    HW233636   4.362   0.779   2.049  1.8517 -0.2558 -0.2458
 7335SOL     OW33637   2.089   1.637   2.628 -0.2489 -0.5550 -0.1672
 7335SOL    HW133638   2.155   1.662   2.563  1.3657 -0.6409  1.4360
 7335SOL    HW233639   2.109   1.691   2.705 -2.0635 -1.5800  1.0154
 7336SOL     OW33640   3.591   1.364   5.687  0.2267  0.2337 -0.3573
 7336SOL    HW133641   3.499   1.370   5.661  0.3433 -2.7501 -1.4624
 7336SOL    HW233642   3.622   1.307   5.616  1.8159  0.8038 -0.1080
 7337SOL     OW33643   3.414   2.313   0.934 -0.3739  0.3251  0.5403
 7337SOL    HW133644   3.331   2.359   0.924 -1.0272 -0.5484  1.8316
 7337SOL    HW233645   3.404   2.297   1.028  3.1950 -0.1632  0.8377
 7338SOL     OW33646   2.007   1.586   7.530 -0.2454 -0.3197 -0.4946
 7338SOL    HW133647   2.056   1.660   7.496 -0.0445 -1.2993 -2.3184
 7338SOL    HW233648   2.037   1.510   7.481 -0.0879  0.0835 -1.0167
 7339SOL     OW33649   4.536   1.135   5.935 -0.8055 -0.2414  0.1218
 7339SOL    HW133650   4.596   1.182   5.992 -0.7202 -1.3787  0.9720
 7339SOL    HW233651   4.548   1.041   5.951  0.8088  0.1108  0.9833
 7340SOL     OW33652   3.044   2.010  12.022 -0.4497 -0.2935  0.2406
 7340SOL    HW133653   3.079   2.060  12.095 -0.0913  1.1686 -0.9372
 7340SOL    HW233654   3.114   2.034  11.961 -1.3532 -1.2548 -1.1971
 7341SOL     OW33655   1.782   2.681   9.772  0.0654  0.5830  0.4209
 7341SOL    HW133656   1.726   2.684   9.694 -1.3538 -1.4436  1.3624
 7341SOL    HW233657   1.809   2.771   9.788  0.8416 -0.3392  4.3766
 7342SOL     OW33658   1.920   1.609   1.048 -0.3316  0.3743  0.0533
 7342SOL    HW133659   1.966   1.682   1.006  0.3116  1.0589  1.9605
 7342SOL    HW233660   1.946   1.546   0.980 -0.5083 -0.7014  0.9855
 7343SOL     OW33661   1.183   4.141   6.783 -0.9561  0.3479  0.1837
 7343SOL    HW133662   1.090   4.121   6.772 -1.5342  2.9312  0.4011
 7343SOL    HW233663   1.219   4.059   6.750 -1.3221  0.6892 -1.0821
 7344SOL     OW33664   3.809   3.518  17.437  0.0482  0.2594  0.3676
 7344SOL    HW133665   3.715   3.522  17.422  0.0428 -0.9855  0.0124
 7344SOL    HW233666   3.833   3.572  17.362 -1.0120  1.3970  0.8402
 7345SOL     OW33667   1.836   1.611   4.722 -0.1964 -0.1650  0.5973
 7345SOL    HW133668   1.882   1.693   4.708 -0.3508 -0.1371  0.2466
 7345SOL    HW233669   1.907   1.553   4.694 -0.0651  0.8471 -1.1527
 7346SOL     OW33670   2.413   3.763   7.727 -0.1280 -0.1293  0.0954
 7346SOL    HW133671   2.495   3.714   7.719 -1.1211 -1.1106 -3.9459
 7346SOL    HW233672   2.356   3.694   7.761  1.0920 -0.5421  1.2916
 7347SOL     OW33673   0.838   3.915   1.981  0.3610 -0.4819 -0.4740
 7347SOL    HW133674   0.762   3.865   2.013 -0.2826  0.9621  0.2621
 7347SOL    HW233675   0.885   3.847   1.932 -0.4797 -2.1092  0.9577
 7348SOL     OW33676   1.217   2.104   4.306 -0.1092  0.2446  0.4254
 7348SOL    HW133677   1.176   2.018   4.314 -1.1629  0.8194  1.2560
 7348SOL    HW233678   1.302   2.073   4.339  0.3269  0.5895 -0.3813
 7349SOL     OW33679   2.800   2.611   8.089 -0.0860  0.2407  0.3468
 7349SOL    HW133680   2.830   2.609   7.998 -3.6574 -0.4312 -0.8104
 7349SOL    HW233681   2.762   2.696   8.108 -0.4716 -0.1954  1.5084
 7350SOL     OW33682   1.131   3.143   8.385 -0.1822 -0.5500 -0.5540
 7350SOL    HW133683   1.074   3.090   8.441  2.0846 -0.1489  2.1002
 7350SOL    HW233684   1.055   3.188   8.347  0.8235 -0.1027 -2.0273
 7351SOL     OW33685   2.395   1.370   1.159 -0.0509  0.1911 -0.3631
 7351SOL    HW133686   2.463   1.366   1.226 -0.1790  0.0868 -0.2377
 7351SOL    HW233687   2.335   1.431   1.201 -0.3634 -0.0346 -0.4772
 7352SOL     OW33688   1.376   1.942   0.788  0.5006  0.4007  0.1721
 7352SOL    HW133689   1.315   1.989   0.732 -1.1565 -1.1422  0.6952
 7352SOL    HW233690   1.401   2.007   0.853  1.1623  0.4606 -0.1446
 7353SOL     OW33691   3.233   2.820   9.254  0.0065  0.0794 -0.4849
 7353SOL    HW133692   3.288   2.865   9.190 -0.6826  1.0390 -0.4022
 7353SOL    HW233693   3.232   2.887   9.323 -0.5637 -0.8135  0.3842
 7354SOL     OW33694   0.630   1.332  10.323 -0.0588  0.2356  0.1369
 7354SOL    HW133695   0.708   1.280  10.342  0.8189  0.7356 -2.1634
 7354SOL    HW233696   0.600   1.295  10.241 -1.7018 -0.0589  0.8682
 7355SOL     OW33697   0.693   3.472   2.149  0.0327  0.4091  0.0513
 7355SOL    HW133698   0.715   3.564   2.132  3.5107 -0.5499 -0.7509
 7355SOL    HW233699   0.686   3.470   2.244 -1.1976 -1.0090 -0.0783
 7356SOL     OW33700   1.884   2.450   8.017 -0.1000 -0.1266  0.2043
 7356SOL    HW133701   1.925   2.364   8.022  1.0146  0.4551  1.0843
 7356SOL    HW233702   1.834   2.458   8.099  0.0305 -0.3006  0.2999
 7357SOL     OW33703   3.037   4.636   2.560  0.4012  0.0909  0.0066
 7357SOL    HW133704   3.079   4.720   2.542 -2.4098  1.3878 -0.6476
 7357SOL    HW233705   3.012   4.648   2.652  2.9775  3.6469  0.2442
 7358SOL     OW33706   4.332   0.015  15.222 -0.1047 -0.0515 -0.0366
 7358SOL    HW133707   4.354   4.670  15.267  2.8962  0.0761 -1.2482
 7358SOL    HW233708   4.251   0.003  15.173 -1.1870  0.9723  1.5402
 7359SOL     OW33709   4.536   2.134   1.735 -0.0244  0.3842  0.0288
 7359SOL    HW133710   4.618   2.167   1.769  0.1001  1.0028 -0.8502
 7359SOL    HW233711   4.520   2.196   1.663 -0.4033 -0.3968 -0.5614
 7360SOL     OW33712   1.865   0.519   8.811 -0.2740 -0.5248 -0.2590
 7360SOL    HW133713   1.839   0.532   8.902  0.5478  1.8761 -0.3696
 7360SOL    HW233714   1.932   0.587   8.800 -0.1922 -0.6935 -0.8160
 7361SOL     OW33715   2.799   0.289   3.818  0.0427 -0.3507 -0.4330
 7361SOL    HW133716   2.874   0.235   3.796  1.5499  1.1716  1.0258
 7361SOL    HW233717   2.783   0.332   3.734 -1.1400  0.0761  0.0105
 7362SOL     OW33718   0.955   1.677  16.188  0.1687  0.6886  0.4133
 7362SOL    HW133719   0.939   1.704  16.097  1.3287 -1.5279 -0.4594
 7362SOL    HW233720   1.008   1.600  16.165 -0.9027  0.1016 -0.0560
 7363SOL     OW33721   2.238   2.517   8.853 -0.5995  0.0337  0.3498
 7363SOL    HW133722   2.327   2.549   8.868  0.0402 -1.3917 -0.4286
 7363SOL    HW233723   2.245   2.493   8.761 -1.3414  0.3052  0.2190
 7364SOL     OW33724   1.797   2.891  17.196 -0.1086  0.0964  0.1463
 7364SOL    HW133725   1.826   2.979  17.170 -0.8866  0.3239  0.0394
 7364SOL    HW233726   1.730   2.906  17.264 -0.6199 -0.7092 -0.1865
 7365SOL     OW33727   2.705   1.219   0.001 -0.5587  0.1224  0.0103
 7365SOL    HW133728   2.626   1.271   0.017 -0.3485  0.2933  0.4945
 7365SOL    HW233729   2.749   1.251   0.080 -1.2343  0.0532  0.4162
 7366SOL     OW33730   2.595   4.315  16.758 -0.3378  0.2155 -0.2209
 7366SOL    HW133731   2.575   4.383  16.693 -1.2438 -0.9682 -1.1778
 7366SOL    HW233732   2.526   4.346  16.817  0.2122  1.4210 -0.2181
 7367SOL     OW33733   1.944   3.131  16.101  0.1700 -0.8378 -0.0250
 7367SOL    HW133734   2.018   3.080  16.133  0.5291 -1.3260 -1.6197
 7367SOL    HW233735   1.877   3.076  16.060 -1.2606  0.4084  0.6250
 7368SOL     OW33736   2.744   2.562   2.344 -0.4227  0.0288 -0.8475
 7368SOL    HW133737   2.726   2.583   2.436 -0.4189  1.0696 -1.0895
 7368SOL    HW233738   2.654   2.564   2.310 -0.2207 -1.6793 -1.5012
 7369SOL     OW33739   2.497   3.101   6.822  0.3982 -0.2422  0.6263
 7369SOL    HW133740   2.501   3.109   6.727 -1.3159 -0.7744  0.5151
 7369SOL    HW233741   2.584   3.064   6.835  0.3550 -0.6119 -0.1311
 7370SOL     OW33742   3.260   1.380  11.776  0.1337 -0.6554 -0.2212
 7370SOL    HW133743   3.311   1.429  11.840 -0.7327 -1.7433  1.2849
 7370SOL    HW233744   3.320   1.374  11.702  0.3700  0.3984 -0.1116
 7371SOL     OW33745   1.076   0.305   8.369 -1.2015 -0.3721  0.1976
 7371SOL    HW133746   1.117   0.391   8.380 -0.1899 -0.4563 -2.9127
 7371SOL    HW233747   0.984   0.331   8.368 -0.6855  1.4333 -0.1035
 7372SOL     OW33748   1.685   4.705   4.540 -0.3412  0.2602  0.7529
 7372SOL    HW133749   1.636   4.645   4.596 -0.1025 -1.1319 -0.5288
 7372SOL    HW233750   1.724   0.030   4.601 -0.0004  1.0702 -0.2833
 7373SOL     OW33751   4.459   0.725  12.923  0.1469  0.5907  0.3514
 7373SOL    HW133752   4.487   0.740  13.013 -0.3007  0.3384  0.5315
 7373SOL    HW233753   4.390   0.791  12.915  0.3547  0.8680  0.8156
 7374SOL     OW33754   4.354   0.065   4.986  0.2121  0.3229  0.4449
 7374SOL    HW133755   4.273   0.029   5.020  0.8475  0.0444  1.6753
 7374SOL    HW233756   4.329   0.156   4.999 -0.1770 -0.2582  3.6867
 7375SOL     OW33757   4.261   3.352   5.321 -0.1100 -0.3062  0.0422
 7375SOL    HW133758   4.266   3.267   5.275 -0.5083  0.3086 -1.1515
 7375SOL    HW233759   4.176   3.344   5.364  0.1576 -1.1666  0.4153
 7376SOL     OW33760   0.443   2.126   5.811 -0.8514 -0.0006 -0.1650
 7376SOL    HW133761   0.458   2.114   5.717  2.1794 -0.7106  0.4129
 7376SOL    HW233762   0.377   2.059   5.828 -1.2511 -0.0200 -1.8642
 7377SOL     OW33763   2.604   2.514  12.755  0.1952  0.1936 -0.2405
 7377SOL    HW133764   2.672   2.547  12.696 -0.3662 -0.1206 -1.0728
 7377SOL    HW233765   2.525   2.521  12.702 -0.0697  1.2728  0.2870
 7378SOL     OW33766   3.576   1.590   3.815 -0.2445 -0.0698  0.3514
 7378SOL    HW133767   3.614   1.504   3.799 -1.3478 -0.7913  1.5826
 7378SOL    HW233768   3.486   1.586   3.782 -0.6653  0.5848  1.3928
 7379SOL     OW33769   0.815   2.505   3.275  0.6488 -0.9724  0.1059
 7379SOL    HW133770   0.886   2.450   3.242  1.7733  1.7519 -2.0273
 7379SOL    HW233771   0.865   2.579   3.309  1.0396 -1.2520  0.1513
 7380SOL     OW33772   4.093   1.489   8.882  0.1153 -0.2770 -0.3515
 7380SOL    HW133773   4.174   1.507   8.928  0.9573 -2.3214 -1.0097
 7380SOL    HW233774   4.056   1.426   8.944  0.2524 -0.0445 -0.0396
 7381SOL     OW33775   1.554   2.390   7.258 -0.2664 -0.3180 -0.3611
 7381SOL    HW133776   1.534   2.457   7.194  3.0037  2.5083  1.5641
 7381SOL    HW233777   1.629   2.350   7.213  0.5991 -0.1833  0.9487
 7382SOL     OW33778   0.753   1.527   6.547 -0.3404  0.9269 -0.1932
 7382SOL    HW133779   0.690   1.457   6.560 -0.2567  0.8780 -0.0614
 7382SOL    HW233780   0.838   1.487   6.565 -0.8555  0.3376  0.8954
 7383SOL     OW33781   0.383   1.746   4.211 -0.0019  0.4534 -0.2091
 7383SOL    HW133782   0.412   1.796   4.135 -1.5543  1.6769  0.0045
 7383SOL    HW233783   0.427   1.796   4.280 -0.3222  0.4962 -0.0356
 7384SOL     OW33784   2.145   0.596   7.978  0.0990 -0.2020 -0.0055
 7384SOL    HW133785   2.200   0.626   8.051  1.5410  1.2264 -1.6643
 7384SOL    HW233786   2.211   0.591   7.908  0.5955 -0.0844  0.4528
 7385SOL     OW33787   0.839   0.153  15.779 -0.6063  0.0807 -0.2770
 7385SOL    HW133788   0.929   0.119  15.777 -0.1509  1.3905 -3.9442
 7385SOL    HW233789   0.820   0.116  15.692  1.7421 -0.7754 -0.4540
 7386SOL     OW33790   1.247   0.914  17.159  0.2151 -1.1011  0.0131
 7386SOL    HW133791   1.337   0.911  17.190  0.5859 -1.2718 -1.0820
 7386SOL    HW233792   1.262   0.872  17.074  0.7292  0.3850 -0.6344
 7387SOL     OW33793   0.210   4.620   5.188 -0.4374  0.4960  0.4907
 7387SOL    HW133794   0.278   4.675   5.227  0.7598 -0.8872  0.3978
 7387SOL    HW233795   0.137   4.673   5.219 -0.4140  1.2316 -0.6981
 7388SOL     OW33796   2.039   2.427   0.101  0.2617 -0.1539  0.2769
 7388SOL    HW133797   2.104   2.420   0.170  0.5493 -1.6059 -0.1456
 7388SOL    HW233798   2.084   2.478   0.033 -1.8398 -0.6148 -1.4787
 7389SOL     OW33799   3.959   3.557   7.469  0.3077 -0.0495  0.3010
 7389SOL    HW133800   3.916   3.497   7.530  3.2501 -1.4100  1.0882
 7389SOL    HW233801   3.968   3.498   7.394  2.2527 -0.0606  0.5245
 7390SOL     OW33802   4.688   0.935  16.582 -0.0508 -0.2681 -0.0082
 7390SOL    HW133803   0.011   0.897  16.517  1.2849  0.8698  0.5348
 7390SOL    HW233804   0.002   0.912  16.660 -0.4362 -0.5161  0.1671
 7391SOL     OW33805   1.066   0.738  10.541  0.2755 -0.3601 -0.6044
 7391SOL    HW133806   1.016   0.774  10.467  0.0561  1.6864  0.5272
 7391SOL    HW233807   1.132   0.806  10.554  0.3706 -0.3501 -1.1551
 7392SOL     OW33808   0.069   1.112  13.780 -0.3705 -0.0995  0.2547
 7392SOL    HW133809   0.072   1.207  13.771 -0.3687 -0.2756 -1.6034
 7392SOL    HW233810   0.155   1.098  13.820  0.8806 -0.0945 -2.4222
 7393SOL     OW33811   1.973   4.431  16.964 -0.1267 -0.1687  0.3719
 7393SOL    HW133812   2.031   4.498  16.999 -1.4933  0.1613  1.9838
 7393SOL    HW233813   2.035   4.358  16.962 -0.3595 -0.4179  2.9067
 7394SOL     OW33814   3.431   1.131   2.010  0.3441  0.0831 -0.0826
 7394SOL    HW133815   3.470   1.164   1.930 -1.7703 -0.6771 -1.4259
 7394SOL    HW233816   3.494   1.066   2.042 -1.6374 -1.3954  0.8467
 7395SOL     OW33817   4.596   2.203   4.870  0.5375 -0.3705  0.4948
 7395SOL    HW133818   4.509   2.167   4.848  0.2808 -0.1037  1.0968
 7395SOL    HW233819   4.572   2.280   4.921  2.8384 -0.3139  1.4820
 7396SOL     OW33820   2.376   1.479  13.923  0.5559 -0.3608 -0.1692
 7396SOL    HW133821   2.327   1.404  13.890 -0.3739 -1.6228  4.0387
 7396SOL    HW233822   2.412   1.521  13.845 -1.5319  1.0331 -0.3890
 7397SOL     OW33823   3.096   4.323  15.947  0.0473 -0.0284  0.3164
 7397SOL    HW133824   3.026   4.388  15.938 -2.3205 -2.8891 -2.1938
 7397SOL    HW233825   3.175   4.368  15.915 -0.3265 -0.2211 -0.9033
 7398SOL     OW33826   0.403   1.513   9.052  0.8768 -0.5873  0.1751
 7398SOL    HW133827   0.472   1.515   8.985 -0.2537 -1.1080 -1.0027
 7398SOL    HW233828   0.423   1.602   9.082  2.4162  0.1216 -2.8907
 7399SOL     OW33829   0.997   3.839   8.782  0.1413 -0.0012 -0.0469
 7399SOL    HW133830   0.905   3.814   8.794 -0.2351  1.6100  0.3991
 7399SOL    HW233831   1.004   3.864   8.874 -0.4499  2.9491 -0.8059
 7400SOL     OW33832   1.994   3.429  12.264  0.4521  0.5014 -0.3658
 7400SOL    HW133833   2.033   3.393  12.343  1.3148  2.6190  0.1850
 7400SOL    HW233834   1.991   3.352  12.207 -0.3372  0.4159 -0.2131
 7401SOL     OW33835   3.479   1.574   5.159  0.7096 -0.1204  0.0490
 7401SOL    HW133836   3.502   1.499   5.105  1.4320 -0.8281  1.3443
 7401SOL    HW233837   3.434   1.550   5.241 -1.8382  1.6325 -0.8156
 7402SOL     OW33838   0.764   3.599   5.775 -0.2298  0.1835 -0.0594
 7402SOL    HW133839   0.684   3.637   5.811  0.9334  0.4153  2.2511
 7402SOL    HW233840   0.758   3.512   5.815  0.0015  0.4441  0.5339
 7403SOL     OW33841   2.482   3.633  12.506 -0.0896  0.8624  0.0586
 7403SOL    HW133842   2.396   3.674  12.504  0.0002  1.1058  1.8908
 7403SOL    HW233843   2.467   3.571  12.576  3.6592 -1.3881 -1.1595
 7404SOL     OW33844   2.010   2.133   1.260 -0.1449 -0.5437  0.0257
 7404SOL    HW133845   1.917   2.153   1.264 -0.1470 -0.5892  0.1985
 7404SOL    HW233846   2.008   2.038   1.252  0.4571 -0.3200 -2.6201
 7405SOL     OW33847   0.816   2.366   2.330 -0.0292  0.0673  0.1078
 7405SOL    HW133848   0.732   2.411   2.331 -0.3366 -0.4943 -1.1429
 7405SOL    HW233849   0.837   2.380   2.423  0.9485 -3.0230  0.3355
 7406SOL     OW33850   0.246   2.833   1.632  0.0571 -0.5039 -0.0205
 7406SOL    HW133851   0.306   2.897   1.592  1.6662 -0.7485  1.9778
 7406SOL    HW233852   0.308   2.765   1.659 -2.5888 -2.1559  1.8713
 7407SOL     OW33853   1.751   4.593   6.925 -0.2996 -0.2568  0.7465
 7407SOL    HW133854   1.694   4.559   6.855  1.3098 -2.3843  0.4980
 7407SOL    HW233855   1.743   4.682   6.889 -1.2597 -0.0500  1.4736
 7408SOL     OW33856   3.139   4.261   1.729  0.4086 -0.1022  0.1114
 7408SOL    HW133857   3.113   4.195   1.664  1.8484  0.7867 -1.3591
 7408SOL    HW233858   3.193   4.329   1.690  1.0343 -1.0301 -0.6444
 7409SOL     OW33859   3.018   0.973   0.727 -0.4404 -0.3248 -0.1805
 7409SOL    HW133860   2.974   0.956   0.644 -2.7147  1.2394  0.7054
 7409SOL    HW233861   3.054   1.061   0.716  0.4185 -1.1032 -3.6073
 7410SOL     OW33862   2.772   1.692   8.739  0.2199  0.2289  0.7086
 7410SOL    HW133863   2.713   1.637   8.688 -1.1317  2.7423 -0.4082
 7410SOL    HW233864   2.721   1.707   8.819  0.2292  1.1669  0.5285
 7411SOL     OW33865   4.638   2.392   3.192  0.2430 -0.1347  0.1907
 7411SOL    HW133866   4.568   2.411   3.254 -0.4288 -3.0867  0.3759
 7411SOL    HW233867   4.713   2.382   3.251 -0.7244 -1.8014  1.1374
 7412SOL     OW33868   2.016   0.580   1.282 -0.0444  0.3366  0.0195
 7412SOL    HW133869   2.087   0.637   1.252 -1.0974  1.6676  0.1077
 7412SOL    HW233870   2.054   0.509   1.334 -3.9273 -0.1674  2.1827
 7413SOL     OW33871   1.308   2.626   6.314 -0.5077  0.2747  0.3760
 7413SOL    HW133872   1.237   2.619   6.378  0.2164  0.4529  1.1915
 7413SOL    HW233873   1.324   2.535   6.292 -0.6622  0.1433  0.8133
 7414SOL     OW33874   3.925   4.569  17.371 -0.3350  0.1205 -0.1901
 7414SOL    HW133875   3.948   4.476  17.367  0.1608  0.2964 -1.5974
 7414SOL    HW233876   3.910   4.587  17.463  2.7814 -0.7199  0.5005
 7415SOL     OW33877   3.639   0.946  13.254  0.4476  0.5817  0.9334
 7415SOL    HW133878   3.604   0.887  13.321  0.7785 -0.7381 -0.0527
 7415SOL    HW233879   3.658   0.892  13.177  1.2208  0.6166  1.1009
 7416SOL     OW33880   0.205   0.630   4.588  0.2860 -0.0991 -0.6202
 7416SOL    HW133881   0.218   0.713   4.543 -1.3775  0.6203  0.2394
 7416SOL    HW233882   0.178   0.577   4.512 -0.1736  0.6816 -0.9963
 7417SOL     OW33883   1.395   3.152   5.771 -0.0351 -0.8098 -0.2186
 7417SOL    HW133884   1.334   3.214   5.809  1.0235  0.5990 -0.7997
 7417SOL    HW233885   1.443   3.111   5.842 -0.3608 -1.0112 -0.1184
 7418SOL     OW33886   0.793   3.361   7.603  0.2827  0.6135  0.2353
 7418SOL    HW133887   0.719   3.390   7.550  0.5394 -2.1189 -1.6445
 7418SOL    HW233888   0.739   3.362   7.682 -2.3373 -1.7929 -1.5461
 7419SOL     OW33889   1.521   3.566   9.874 -0.2485  0.3053  0.0103
 7419SOL    HW133890   1.540   3.473   9.886 -0.9879  0.0608 -0.7523
 7419SOL    HW233891   1.540   3.583   9.782  3.7930 -0.5768  0.6633
 7420SOL     OW33892   0.432   0.543   9.587 -0.2445 -0.5312  1.0858
 7420SOL    HW133893   0.516   0.509   9.618  1.0090 -0.6618 -2.5288
 7420SOL    HW233894   0.469   0.626   9.556 -1.0043 -0.5985  0.0038
 7421SOL     OW33895   3.607   3.497  11.366 -0.4795  0.1524 -0.3052
 7421SOL    HW133896   3.569   3.460  11.286  0.1955 -2.4200  0.5782
 7421SOL    HW233897   3.557   3.455  11.435  0.9861 -3.1674 -1.2593
 7422SOL     OW33898   1.412   0.555   4.509 -0.2958 -0.8163  0.2645
 7422SOL    HW133899   1.469   0.533   4.582  1.3075  0.7868 -0.5094
 7422SOL    HW233900   1.323   0.531   4.536 -0.5307  0.1071  0.3109
 7423SOL     OW33901   1.572   2.518  10.139  0.7433  0.1262  0.0096
 7423SOL    HW133902   1.641   2.582  10.155  0.5568  0.4571 -0.5229
 7423SOL    HW233903   1.568   2.520  10.043 -0.6592 -1.7026  0.0171
 7424SOL     OW33904   2.381   2.719   7.462 -0.0779 -0.4127  0.2067
 7424SOL    HW133905   2.363   2.728   7.556  0.3374 -0.9852  0.3390
 7424SOL    HW233906   2.464   2.766   7.457 -1.6266  2.3204  0.0121
 7425SOL     OW33907   3.891   0.810   6.524  0.0282  0.2515  0.1599
 7425SOL    HW133908   3.983   0.835   6.523 -0.0011  0.4116  1.6419
 7425SOL    HW233909   3.861   0.850   6.606 -1.2599  0.9110 -0.6370
 7426SOL     OW33910   0.907   3.443   1.951 -0.4374 -0.8351  0.2018
 7426SOL    HW133911   0.821   3.436   1.993 -0.7224 -4.5127 -1.0295
 7426SOL    HW233912   0.962   3.441   2.028 -0.4616  0.6217  0.2648
 7427SOL     OW33913   3.794   0.968   3.565 -0.1752 -0.2292 -0.4909
 7427SOL    HW133914   3.725   0.926   3.512 -0.6718 -0.9377  0.7259
 7427SOL    HW233915   3.789   0.898   3.630  1.0901  0.3612  0.2227
 7428SOL     OW33916   0.083   2.439   1.582  0.3027 -0.7756 -0.6658
 7428SOL    HW133917   0.166   2.463   1.542 -0.3287 -0.7207 -1.9305
 7428SOL    HW233918   0.016   2.476   1.525 -1.1606 -0.7735  1.0360
 7429SOL     OW33919   4.078   3.965  13.315  0.2080 -0.3233  0.2167
 7429SOL    HW133920   4.010   3.928  13.371  0.3974  0.9401  1.3078
 7429SOL    HW233921   4.150   3.954  13.378  0.9360  1.1948 -0.3282
 7430SOL     OW33922   4.670   1.101   4.358 -0.4567 -0.6891  0.1017
 7430SOL    HW133923   4.711   1.141   4.282  0.9862 -1.3138  0.5438
 7430SOL    HW233924   4.580   1.133   4.345  0.2543  1.6934  1.1457
 7431SOL     OW33925   3.748   2.816  16.177  0.4630 -0.9625 -0.0734
 7431SOL    HW133926   3.675   2.877  16.189 -2.2888 -3.8133 -2.4905
 7431SOL    HW233927   3.821   2.877  16.164  0.1984 -0.6294  0.0065
 7432SOL     OW33928   4.513   2.033  17.181 -0.1728 -0.1915 -0.0746
 7432SOL    HW133929   4.554   1.964  17.232 -0.1353  1.4652  2.1493
 7432SOL    HW233930   4.505   2.098  17.251  0.9837 -1.8747  1.6179
 7433SOL     OW33931   3.312   4.045   8.859  0.2298  0.2325  0.0795
 7433SOL    HW133932   3.329   4.016   8.769  0.6228 -2.6565  1.0680
 7433SOL    HW233933   3.270   4.128   8.838  1.1167  0.5869 -0.3303
 7434SOL     OW33934   4.352   2.595   6.537  0.0145  0.2029 -0.1116
 7434SOL    HW133935   4.260   2.582   6.512  0.5077 -2.1012 -0.6426
 7434SOL    HW233936   4.401   2.563   6.462  1.8137  0.9469  0.7427
 7435SOL     OW33937   0.690   3.533   4.110  0.2104  0.2026 -0.3907
 7435SOL    HW133938   0.645   3.450   4.096 -0.3933  0.1179  2.0648
 7435SOL    HW233939   0.770   3.499   4.151 -0.7839  2.4999  3.4766
 7436SOL     OW33940   4.259   0.127   4.175  0.3868  0.4650  0.0229
 7436SOL    HW133941   4.354   0.142   4.179  0.3770  0.8681 -1.1858
 7436SOL    HW233942   4.238   0.106   4.084  0.2575  1.4173 -0.1596
 7437SOL     OW33943   2.746   2.837  14.310  0.0634  0.7436 -0.1946
 7437SOL    HW133944   2.732   2.931  14.315  0.5645  0.8483 -0.6274
 7437SOL    HW233945   2.842   2.841  14.317  0.1179  0.5609 -0.7976
 7438SOL     OW33946   4.174   0.332   3.601  0.0931 -0.6248 -0.2128
 7438SOL    HW133947   4.266   0.358   3.605 -0.4447  0.9739  1.6952
 7438SOL    HW233948   4.150   0.355   3.511  0.1363 -0.6456 -0.2299
 7439SOL     OW33949   4.326   3.364  17.539  0.2005 -0.1466 -0.0053
 7439SOL    HW133950   4.392   3.433  17.528 -0.5671  0.3324 -1.6398
 7439SOL    HW233951   4.375   3.283  17.552  3.5293  1.7067 -1.0370
 7440SOL     OW33952   2.619   2.511   2.737  0.2523  0.2172 -0.1561
 7440SOL    HW133953   2.590   2.595   2.703  2.9443  0.5170 -1.7001
 7440SOL    HW233954   2.709   2.527   2.767  0.7935 -0.4976 -1.3969
 7441SOL     OW33955   1.399   4.001   2.992  0.1436 -0.1422 -0.4329
 7441SOL    HW133956   1.335   3.961   2.932  0.2100 -0.4307 -0.3088
 7441SOL    HW233957   1.339   4.049   3.050 -2.5268 -1.1440 -2.3328
 7442SOL     OW33958   2.016   0.954  12.790 -0.2867 -0.9792 -0.0514
 7442SOL    HW133959   1.959   1.014  12.839  0.7593  0.1505 -0.2180
 7442SOL    HW233960   1.989   0.866  12.818 -0.1427  0.0070  3.2395
 7443SOL     OW33961   1.071   3.651   8.473 -0.3727 -0.5094 -0.3795
 7443SOL    HW133962   1.153   3.699   8.481  0.7337 -2.3991 -0.4042
 7443SOL    HW233963   1.083   3.563   8.509  0.4190 -0.5749 -0.8167
 7444SOL     OW33964   3.114   4.234  17.399  0.3443 -0.2709 -0.2673
 7444SOL    HW133965   3.047   4.229  17.330  0.1077  0.1371 -0.0659
 7444SOL    HW233966   3.154   4.320  17.390  0.3734 -0.4440 -1.8672
 7445SOL     OW33967   0.782   2.091   6.171  0.1696  0.1331  0.3456
 7445SOL    HW133968   0.876   2.095   6.156  0.1113  3.1698  0.7750
 7445SOL    HW233969   0.749   2.114   6.084  1.7204 -0.8858 -0.5065
 7446SOL     OW33970   3.231   1.466   3.349 -0.0861 -0.2417 -0.1174
 7446SOL    HW133971   3.145   1.509   3.351  0.5095  0.9669 -0.7395
 7446SOL    HW233972   3.264   1.510   3.427  1.2089 -1.7558  0.1742
 7447SOL     OW33973   1.120   0.331  13.451  0.2446  0.5575 -0.5716
 7447SOL    HW133974   1.074   0.248  13.462  1.1213  0.2308  0.5901
 7447SOL    HW233975   1.073   0.381  13.518 -0.6848 -0.9707 -0.0897
 7448SOL     OW33976   0.560   3.298   5.115 -0.2074 -0.6859 -0.1080
 7448SOL    HW133977   0.472   3.267   5.136 -1.0574  1.2623 -0.7243
 7448SOL    HW233978   0.597   3.329   5.198 -0.0847  0.5910 -0.6355
 7449SOL     OW33979   2.851   2.757  17.029 -0.2510 -0.4915 -0.0278
 7449SOL    HW133980   2.888   2.735  16.943  1.2542 -1.3100  0.8338
 7449SOL    HW233981   2.919   2.716  17.083  0.4025 -0.0225 -0.4935
 7450SOL     OW33982   2.428   0.668  10.981 -0.0179  0.2965  0.2601
 7450SOL    HW133983   2.421   0.583  10.938 -2.9448  0.6119  0.1495
 7450SOL    HW233984   2.512   0.698  10.945 -0.1486 -1.1168 -1.2087
 7451SOL     OW33985   4.455   2.933  10.950 -0.2615 -0.2427  0.1619
 7451SOL    HW133986   4.525   2.870  10.970 -0.0124 -0.1330 -0.3735
 7451SOL    HW233987   4.429   2.899  10.864  0.6371 -3.5122  1.1841
 7452SOL     OW33988   3.066   3.304  16.167  0.2245  0.2555  0.5221
 7452SOL    HW133989   3.119   3.379  16.141 -3.0046  2.1641 -0.5611
 7452SOL    HW233990   3.043   3.323  16.258 -2.2244  1.2110 -0.2815
 7453SOL     OW33991   0.983   2.406  12.593  0.0304 -0.5047 -0.3585
 7453SOL    HW133992   0.891   2.432  12.587  0.1832  0.6243  2.4024
 7453SOL    HW233993   1.023   2.489  12.619 -1.3082 -0.2370  0.8046
 7454SOL     OW33994   2.521   1.660   0.080 -0.1251  0.2420 -0.3312
 7454SOL    HW133995   2.564   1.595   0.024  1.3664  0.6371  0.3628
 7454SOL    HW233996   2.506   1.607   0.159 -0.5835  0.2253 -0.4275
 7455SOL     OW33997   1.529   0.204   9.074 -0.3387 -0.2837  0.1669
 7455SOL    HW133998   1.468   0.181   9.004  0.8314  1.1152 -1.2923
 7455SOL    HW233999   1.579   0.122   9.070  0.9354  0.6310 -2.3398
 7456SOL     OW34000   0.859   3.700   1.610  0.8386 -0.1923 -0.5645
 7456SOL    HW134001   0.855   3.653   1.527 -1.6594  3.1601 -2.3381
 7456SOL    HW234002   0.766   3.720   1.622  0.3296 -1.5681 -2.3302
 7457SOL     OW34003   1.178   0.239  12.189  0.8548 -0.0938  0.4140
 7457SOL    HW134004   1.224   0.262  12.108 -0.0391 -2.0929 -0.6709
 7457SOL    HW234005   1.179   0.144  12.189  1.6951 -0.0791  0.5043
 7458SOL     OW34006   1.780   2.468  17.279  0.2597  0.0114  0.4349
 7458SOL    HW134007   1.724   2.408  17.230  0.0378  0.0372  0.6539
 7458SOL    HW234008   1.703   2.510  17.318  1.3085  3.2455 -0.9757
 7459SOL     OW34009   0.777   1.261  15.543 -0.0154  0.3128  0.5526
 7459SOL    HW134010   0.714   1.202  15.501  1.5591 -1.1655  0.2801
 7459SOL    HW234011   0.732   1.342  15.519 -0.8240  0.0059  1.0008
 7460SOL     OW34012   4.284   2.846   8.504 -0.7272  0.0150  0.1313
 7460SOL    HW134013   4.351   2.877   8.564 -0.6907 -0.6227  0.4193
 7460SOL    HW234014   4.282   2.751   8.516 -1.7886  0.1495  0.9797
 7461SOL     OW34015   0.074   1.459   4.358 -0.2542 -0.0784 -0.0191
 7461SOL    HW134016   4.727   1.423   4.388  0.5233 -2.0626 -0.2835
 7461SOL    HW234017   0.064   1.549   4.390 -1.7073  0.4118 -1.8190
 7462SOL     OW34018   0.458   0.600   2.988  0.1656 -0.4653  0.1407
 7462SOL    HW134019   0.393   0.533   2.968 -1.9656  1.2613  1.1637
 7462SOL    HW234020   0.453   0.661   2.914  0.5478  1.8662  2.0139
 7463SOL     OW34021   1.054   2.689   3.074  0.2705 -0.4103 -0.4487
 7463SOL    HW134022   1.071   2.783   3.081 -1.7324 -0.1557  0.9132
 7463SOL    HW234023   1.064   2.659   3.164 -4.6169  3.1276  1.2428
 7464SOL     OW34024   4.099   4.718   7.999  0.6333 -0.7169 -0.4569
 7464SOL    HW134025   4.057   0.067   7.995  0.1613 -1.0401 -2.3079
 7464SOL    HW234026   4.170   4.714   7.935 -0.7500 -3.2196 -1.8333
 7465SOL     OW34027   2.141   1.137   5.642 -0.0513 -0.5463  0.0465
 7465SOL    HW134028   2.176   1.226   5.646  2.2197 -1.4479 -0.1513
 7465SOL    HW234029   2.127   1.128   5.548  2.1662  0.1968 -0.3533
 7466SOL     OW34030   0.150   0.569   0.583 -0.8337  0.1547 -0.0868
 7466SOL    HW134031   0.088   0.627   0.627 -0.5661  1.0994 -0.9428
 7466SOL    HW234032   0.231   0.619   0.595  0.7674 -1.8620 -2.2626
 7467SOL     OW34033   3.738   3.975   3.267 -0.0026 -0.7001  0.0839
 7467SOL    HW134034   3.708   4.064   3.279 -1.2284 -1.4052  2.1548
 7467SOL    HW234035   3.703   3.939   3.348  0.2731  1.5586  1.1825
 7468SOL     OW34036   3.036   0.529   3.707 -0.3395 -0.5732 -0.5315
 7468SOL    HW134037   3.051   0.438   3.681  0.7258 -1.3212  2.7582
 7468SOL    HW234038   3.063   0.573   3.627  0.7967 -3.0059 -1.4884
 7469SOL     OW34039   4.577   2.975   5.211  0.0521 -0.7426 -0.3379
 7469SOL    HW134040   4.562   2.925   5.131  1.4383 -1.5673 -0.0629
 7469SOL    HW234041   4.600   3.061   5.174  1.8630 -0.4463  1.4919
 7470SOL     OW34042   1.543   1.638   1.988 -0.2277 -0.8375 -0.3607
 7470SOL    HW134043   1.615   1.576   1.991  0.4699  0.0532  1.4885
 7470SOL    HW234044   1.572   1.679   1.907  2.5725 -2.1695  0.0080
 7471SOL     OW34045   2.835   4.332  13.170  0.0958  0.0780  0.5263
 7471SOL    HW134046   2.909   4.338  13.230 -0.8427  1.2331  1.5609
 7471SOL    HW234047   2.802   4.243  13.186  0.4836  0.0587  1.2271
 7472SOL     OW34048   0.536   1.878   4.024  0.6237 -0.4169  0.5491
 7472SOL    HW134049   0.569   1.853   3.937  0.3166  2.5524 -0.4065
 7472SOL    HW234050   0.603   1.941   4.050  0.7150 -0.7656  1.1485
 7473SOL     OW34051   3.293   1.456   5.367  0.0363  0.1260  0.4954
 7473SOL    HW134052   3.249   1.536   5.396 -0.9970  0.0610 -0.9423
 7473SOL    HW234053   3.286   1.399   5.444 -1.1945  0.2701  0.4908
 7474SOL     OW34054   2.228   1.214  13.954 -0.3572  0.1852 -0.5357
 7474SOL    HW134055   2.138   1.240  13.973  0.5853  1.8640  1.6278
 7474SOL    HW234056   2.226   1.129  13.998  4.4117  0.7908  0.7837
 7475SOL     OW34057   1.843   3.053  11.840 -0.5014  0.1103 -0.5051
 7475SOL    HW134058   1.835   3.119  11.909  2.4606  0.9006 -0.8995
 7475SOL    HW234059   1.935   3.046  11.814 -1.2176 -1.2080 -2.6675
 7476SOL     OW34060   0.982   1.844   6.815  0.5426  0.1051 -0.4455
 7476SOL    HW134061   1.077   1.847   6.825  0.5511  0.9032 -0.7465
 7476SOL    HW234062   0.972   1.754   6.781  2.1306 -1.1451  2.4418
 7477SOL     OW34063   1.287   3.670   3.118  0.3050  0.3670  0.2100
 7477SOL    HW134064   1.289   3.598   3.055  1.8282 -0.4036  1.1049
 7477SOL    HW234065   1.227   3.732   3.078 -0.5940  0.1064  1.1339
 7478SOL     OW34066   3.856   1.797   1.974  0.5340  0.3620  0.2147
 7478SOL    HW134067   3.938   1.843   1.953  2.0284 -2.2405  0.2591
 7478SOL    HW234068   3.795   1.864   1.944 -0.1258 -0.3787 -0.0889
 7479SOL     OW34069   3.974   1.637   6.913  0.0917 -0.1599  0.8726
 7479SOL    HW134070   4.034   1.626   6.987  0.4325 -1.7697  0.3590
 7479SOL    HW234071   3.983   1.731   6.898 -2.2045 -0.2752 -1.3133
 7480SOL     OW34072   0.664   2.921   5.822 -0.6739  0.1652  0.0470
 7480SOL    HW134073   0.634   2.830   5.822 -0.4545  0.0960 -0.7067
 7480SOL    HW234074   0.674   2.947   5.914 -0.6776  2.5495 -0.6370
 7481SOL     OW34075   2.761   0.486   7.444 -0.0146  0.4700 -0.3846
 7481SOL    HW134076   2.698   0.498   7.373 -0.0574  0.6506 -0.3143
 7481SOL    HW234077   2.711   0.485   7.526  2.1050  0.5442  0.9218
 7482SOL     OW34078   1.401   0.117  11.860 -0.0844 -0.0126 -0.1319
 7482SOL    HW134079   1.336   0.186  11.877 -3.1694 -2.9060 -0.1368
 7482SOL    HW234080   1.399   0.109  11.764  1.1763 -1.6139 -0.0313
 7483SOL     OW34081   2.870   2.947   8.630 -0.2053 -0.1684  0.2670
 7483SOL    HW134082   2.909   3.015   8.575 -1.0009  1.9735  2.3368
 7483SOL    HW234083   2.907   2.969   8.716 -0.5015  0.8848  0.1332
 7484SOL     OW34084   1.918   0.674  13.839  0.2384  0.1693  0.1933
 7484SOL    HW134085   1.992   0.616  13.858  1.3172  1.9006  1.2411
 7484SOL    HW234086   1.842   0.662  13.895  0.4462 -2.5426 -0.0979
 7485SOL     OW34087   1.958   4.678  14.352 -0.0416  0.2505 -0.7299
 7485SOL    HW134088   1.916   4.672  14.266 -0.3952  0.0748 -0.5473
 7485SOL    HW234089   2.050   4.673  14.327  0.4266 -1.5620  1.3290
 7486SOL     OW34090   3.433   0.001   7.820  0.3598  0.3411 -0.1640
 7486SOL    HW134091   3.508   4.709   7.872  0.9944 -0.3220 -1.4512
 7486SOL    HW234092   3.386   4.658   7.797  2.0704  0.0274 -2.6546
 7487SOL     OW34093   0.090   0.532   7.087  0.4158  0.4600  0.0779
 7487SOL    HW134094   0.176   0.518   7.124 -0.6003 -0.2751  2.1407
 7487SOL    HW234095   0.057   0.448   7.054  0.2445  0.9784 -1.0950
 7488SOL     OW34096   2.335   1.270   3.195 -0.4245 -0.3698 -0.0272
 7488SOL    HW134097   2.327   1.241   3.286 -0.3826 -0.4001 -0.0331
 7488SOL    HW234098   2.411   1.328   3.207  0.0733 -0.6678 -1.7539
 7489SOL     OW34099   1.443   1.899   5.131 -0.1023 -0.4371  0.3361
 7489SOL    HW134100   1.529   1.857   5.129 -0.0060 -0.2402  0.3923
 7489SOL    HW234101   1.385   1.833   5.169 -1.1069 -0.8387 -1.8539
 7490SOL     OW34102   1.542   3.886   2.653 -0.9629  0.1792 -0.5214
 7490SOL    HW134103   1.543   3.794   2.681 -2.7045  0.6694  1.1912
 7490SOL    HW234104   1.633   3.913   2.665 -1.5497  1.5502  0.9079
 7491SOL     OW34105   1.167   0.271   7.701 -0.5557 -0.0376 -0.5663
 7491SOL    HW134106   1.140   0.207   7.766  0.9293  1.8475  1.8817
 7491SOL    HW234107   1.261   0.285   7.713 -0.9821  1.1594  1.2995
 7492SOL     OW34108   1.330   4.177   4.067 -0.0019 -0.0604 -0.1895
 7492SOL    HW134109   1.353   4.260   4.107  0.6360  0.0219 -0.7379
 7492SOL    HW234110   1.251   4.207   4.021  0.9445  1.3795 -0.8549
 7493SOL     OW34111   3.212   3.238   3.387 -0.0557  0.1265  0.0461
 7493SOL    HW134112   3.259   3.315   3.419 -1.5370  0.4415  1.4166
 7493SOL    HW234113   3.119   3.258   3.390  0.1575  1.0296  0.5703
 7494SOL     OW34114   3.339   1.487   9.063 -0.3002  0.6641 -0.5786
 7494SOL    HW134115   3.249   1.456   9.051 -1.2072  2.1403  2.2698
 7494SOL    HW234116   3.345   1.538   8.982 -0.5506  0.9386 -0.4276
 7495SOL     OW34117   3.101   4.266  10.781  0.0778 -0.6101 -0.2245
 7495SOL    HW134118   3.128   4.227  10.865  0.4305 -0.0679 -0.0844
 7495SOL    HW234119   3.066   4.351  10.809  2.0927  0.1231  0.1520
 7496SOL     OW34120   4.430   0.588   7.393 -0.4910 -0.0911  0.2012
 7496SOL    HW134121   4.398   0.571   7.481 -1.2965 -0.7497 -0.2160
 7496SOL    HW234122   4.464   0.502   7.368  1.8847  0.4832  1.4893
 7497SOL     OW34123   3.056   4.054  14.023  0.7625 -0.2623  1.0171
 7497SOL    HW134124   3.069   4.009  13.939 -0.2003  0.7122  0.3481
 7497SOL    HW234125   3.103   4.135  14.006 -3.1181  2.1803  1.8180
 7498SOL     OW34126   4.227   0.787  16.129  0.5543 -0.1405  0.4373
 7498SOL    HW134127   4.221   0.797  16.034 -2.7620  0.4140  0.7135
 7498SOL    HW234128   4.216   0.878  16.159  0.3476  0.0249 -0.1453
 7499SOL     OW34129   0.977   1.058  12.940 -0.5431 -0.1649  0.3515
 7499SOL    HW134130   1.006   1.140  12.980 -0.9649 -0.1251  0.5736
 7499SOL    HW234131   1.013   0.988  12.994 -1.1514  0.5293  1.6606
 7500SOL     OW34132   0.246   1.163   5.879  0.0545  0.6953 -0.4039
 7500SOL    HW134133   0.321   1.175   5.938  0.4284 -1.3009 -0.4607
 7500SOL    HW234134   0.264   1.220   5.805  1.8839  2.3633  1.3086
 7501SOL     OW34135   1.099   3.919  16.421 -0.0524 -0.0013  0.4519
 7501SOL    HW134136   1.147   3.999  16.401 -1.3886  0.4800 -0.8535
 7501SOL    HW234137   1.048   3.947  16.497 -2.8648 -1.0924 -1.0420
 7502SOL     OW34138   0.217   1.843   0.149  0.4011 -0.1148 -0.6678
 7502SOL    HW134139   0.125   1.840   0.123 -0.2762 -0.9793  1.8645
 7502SOL    HW234140   0.245   1.933   0.130 -1.8684  1.1838  2.1805
 7503SOL     OW34141   3.553   4.319   1.298  0.4381 -0.4123  0.1860
 7503SOL    HW134142   3.590   4.408   1.298  2.3234 -1.1705  2.2240
 7503SOL    HW234143   3.632   4.272   1.271  0.3411 -0.5256  0.1014
 7504SOL     OW34144   1.194   2.313   4.628  0.2474  0.1576  0.5714
 7504SOL    HW134145   1.104   2.340   4.647 -0.4447 -0.6614 -1.5905
 7504SOL    HW234146   1.199   2.230   4.675  1.2607  0.7204  1.4689
 7505SOL     OW34147   4.109   4.009   6.451  0.0772 -0.4255  0.0590
 7505SOL    HW134148   4.064   4.074   6.504 -0.3163 -1.6656  1.2501
 7505SOL    HW234149   4.074   4.029   6.365 -0.5596  0.1597  0.4585
 7506SOL     OW34150   1.471   0.723   5.444 -0.4852  0.4327  0.1862
 7506SOL    HW134151   1.488   0.638   5.403  0.9392  0.7830  0.0354
 7506SOL    HW234152   1.384   0.716   5.482 -0.7367 -2.5870 -1.0024
 7507SOL     OW34153   0.720   3.879   4.972  0.0426 -0.2466  0.8206
 7507SOL    HW134154   0.792   3.876   4.909 -1.4087  2.4554 -0.9605
 7507SOL    HW234155   0.751   3.823   5.043 -0.5235 -0.1134  1.1690
 7508SOL     OW34156   2.235   1.038   4.765  0.8759 -0.3597  0.3246
 7508SOL    HW134157   2.273   1.055   4.851 -1.3385 -0.3289  1.3109
 7508SOL    HW234158   2.311   1.077   4.722 -0.2799  0.6177 -0.8180
 7509SOL     OW34159   0.370   3.506  10.887  0.3190 -0.2894 -0.2616
 7509SOL    HW134160   0.432   3.521  10.957 -2.2207 -0.1883  1.9661
 7509SOL    HW234161   0.401   3.421  10.857 -1.3093 -0.6179 -1.0456
 7510SOL     OW34162   3.000   3.465   1.791 -0.3115 -0.2731  0.1532
 7510SOL    HW134163   2.969   3.549   1.825  3.8514  0.7182  1.5468
 7510SOL    HW234164   3.057   3.433   1.861  0.3385 -1.7066 -1.0387
 7511SOL     OW34165   1.278   4.357   8.650 -0.4664  0.1634 -0.6998
 7511SOL    HW134166   1.329   4.370   8.570  1.2523 -2.6030 -0.0463
 7511SOL    HW234167   1.351   4.311   8.692 -1.5102 -1.2796 -0.4642
 7512SOL     OW34168   2.901   1.094  16.250 -0.1035  0.2063  0.4657
 7512SOL    HW134169   2.967   1.048  16.301 -0.1467 -2.6204 -1.9698
 7512SOL    HW234170   2.954   1.153  16.197 -0.0975 -0.7242 -0.5904
 7513SOL     OW34171   4.454   3.992  13.069  0.2034  0.2937 -0.5246
 7513SOL    HW134172   4.383   3.936  13.101  0.0900  1.3077  1.0356
 7513SOL    HW234173   4.478   3.939  12.993 -2.4795 -2.7572  0.7628
 7514SOL     OW34174   3.406   1.995   7.632  0.2536 -0.1578 -0.1507
 7514SOL    HW134175   3.457   2.009   7.712 -1.4183 -1.6312  1.1491
 7514SOL    HW234176   3.326   2.038   7.661  0.5370 -0.3141  0.8537
 7515SOL     OW34177   0.358   3.731   3.299  0.5365 -0.1863  0.5758
 7515SOL    HW134178   0.439   3.781   3.299  0.3009  0.1959 -0.2299
 7515SOL    HW234179   0.359   3.708   3.206 -0.0656 -0.0327  0.5290
 7516SOL     OW34180   1.221   0.735   5.558  0.2540  0.2615 -0.5544
 7516SOL    HW134181   1.131   0.716   5.586 -0.7394  1.7760 -2.6825
 7516SOL    HW234182   1.207   0.814   5.505  1.4928  0.5081 -0.5110
 7517SOL     OW34183   2.324   2.147  16.839 -0.8278 -0.1071  0.1102
 7517SOL    HW134184   2.365   2.109  16.917 -0.5547 -1.4178 -0.6517
 7517SOL    HW234185   2.317   2.240  16.858  2.3968  0.1809 -0.0157
 7518SOL     OW34186   4.538   3.680   5.713 -0.0894  0.2345  0.0242
 7518SOL    HW134187   4.466   3.733   5.748  0.2270  1.4197 -1.1138
 7518SOL    HW234188   4.573   3.739   5.647 -0.7304  1.5572  0.8706
 7519SOL     OW34189   4.032   3.246   7.123  0.2581 -0.3948  0.0112
 7519SOL    HW134190   4.012   3.323   7.070 -0.6744 -0.8992 -0.3697
 7519SOL    HW234191   4.039   3.185   7.050 -0.0689 -0.9262  0.4182
 7520SOL     OW34192   0.772   2.294   3.504  0.4264  0.1624 -0.1313
 7520SOL    HW134193   0.840   2.318   3.441  2.7710  0.1078  2.3710
 7520SOL    HW234194   0.828   2.302   3.581  1.1873 -0.7224 -0.5884
 7521SOL     OW34195   3.113   4.030  13.199  0.1421 -0.5491 -0.5221
 7521SOL    HW134196   3.141   3.971  13.269  0.9321 -0.2862 -0.6191
 7521SOL    HW234197   3.055   3.976  13.145  0.2028 -2.7386  1.6134
 7522SOL     OW34198   0.332   2.950   4.826 -0.0693 -0.0065  0.1630
 7522SOL    HW134199   0.264   3.017   4.827  2.4861  2.5322  2.3607
 7522SOL    HW234200   0.375   2.975   4.744  3.3207 -1.3780  1.5680
 7523SOL     OW34201   0.436   2.742   9.009 -0.5204 -0.0508  0.3207
 7523SOL    HW134202   0.364   2.685   9.037  0.1213  0.2347  2.5469
 7523SOL    HW234203   0.468   2.769   9.095 -0.4251 -0.9261  0.5671
 7524SOL     OW34204   2.089   4.637   6.932  0.1690  0.2593 -0.5536
 7524SOL    HW134205   2.091   4.702   7.002 -0.4981  1.3172 -1.4981
 7524SOL    HW234206   2.184   4.627   6.935  0.4842  2.7909 -1.6042
 7525SOL     OW34207   2.440   4.395   3.769  0.1476  0.0801  0.0483
 7525SOL    HW134208   2.474   4.371   3.683  0.3658 -0.5477  0.3035
 7525SOL    HW234209   2.435   4.490   3.767 -3.3743 -0.1301 -0.4352
 7526SOL     OW34210   1.646   0.305   0.060  0.1909  0.0154 -0.1904
 7526SOL    HW134211   1.633   0.237  17.740  1.0303  0.8427 -1.2033
 7526SOL    HW234212   1.635   0.383   0.005  0.3620 -0.3992 -0.8142
 7527SOL     OW34213   1.030   0.678  17.538 -0.2904  0.0088 -0.0101
 7527SOL    HW134214   1.023   0.732  17.460 -2.7544 -1.2611 -0.6759
 7527SOL    HW234215   1.094   0.731  17.586 -0.8702 -0.5585  1.3953
 7528SOL     OW34216   0.368   4.108   2.851  0.2475 -0.0899  0.3913
 7528SOL    HW134217   0.402   4.090   2.763 -2.7365 -0.1539 -0.7305
 7528SOL    HW234218   0.355   4.202   2.837  2.0447 -0.2358 -2.3098
 7529SOL     OW34219   0.752   4.590   4.087 -0.5084  0.5607 -0.1549
 7529SOL    HW134220   0.828   4.604   4.142 -2.2774 -0.3655  2.5252
 7529SOL    HW234221   0.745   4.677   4.047  1.9430  1.9504  2.4456
 7530SOL     OW34222   3.424   4.447   9.625  0.2299  0.1509 -0.1233
 7530SOL    HW134223   3.468   4.383   9.570 -0.9565 -0.7653 -0.0003
 7530SOL    HW234224   3.488   4.518   9.618  0.8655 -0.4431 -0.2616
 7531SOL     OW34225   2.797   3.154   7.962  0.0925  0.0808 -0.5851
 7531SOL    HW134226   2.883   3.120   7.989  0.0825  1.2498  0.9311
 7531SOL    HW234227   2.753   3.166   8.046  1.0408  0.8486 -0.1990
 7532SOL     OW34228   1.250   3.659   6.404  0.2217  0.3576 -0.3415
 7532SOL    HW134229   1.191   3.606   6.458 -1.5546  0.3621 -2.2901
 7532SOL    HW234230   1.314   3.593   6.377 -0.2953 -0.1574 -0.3108
 7533SOL     OW34231   2.138   2.337   9.023  0.8115  0.3218  0.4075
 7533SOL    HW134232   2.188   2.409   8.984  0.1148 -2.2022 -5.0715
 7533SOL    HW234233   2.212   2.278   9.010 -0.5129 -1.2948  0.1905
 7534SOL     OW34234   1.400   2.873   0.377 -0.0226  0.3310 -0.2878
 7534SOL    HW134235   1.379   2.943   0.439 -3.0718 -1.1535  0.3505
 7534SOL    HW234236   1.398   2.788   0.422  0.4960  1.6965  2.3523
 7535SOL     OW34237   2.403   2.770   5.262 -0.2134 -0.4781 -0.2338
 7535SOL    HW134238   2.395   2.685   5.219  1.5652 -0.0803 -1.3509
 7535SOL    HW234239   2.490   2.796   5.232 -0.7031  1.6332  0.2023
 7536SOL     OW34240   2.447   3.162  17.060  0.8466 -0.4809 -0.1131
 7536SOL    HW134241   2.513   3.094  17.073  1.2406 -0.1456 -0.3640
 7536SOL    HW234242   2.432   3.161  16.966  2.3202  1.6092 -0.3825
 7537SOL     OW34243   4.001   2.891   7.100 -0.9354  0.1986  0.5784
 7537SOL    HW134244   4.081   2.938   7.079  0.0650 -1.9461 -0.3057
 7537SOL    HW234245   3.984   2.835   7.024 -0.9028  1.7324 -0.5486
 7538SOL     OW34246   0.366   2.593   9.309  0.4094  0.2718 -0.4497
 7538SOL    HW134247   0.299   2.594   9.241 -0.3820 -1.3438  0.2934
 7538SOL    HW234248   0.360   2.680   9.348 -0.3696 -0.4033  0.9624
 7539SOL     OW34249   1.872   2.698   7.871 -0.2474  0.7430 -0.2656
 7539SOL    HW134250   1.896   2.621   7.922 -0.9425 -1.1391 -2.8109
 7539SOL    HW234251   1.913   2.678   7.787 -4.2971  0.0649 -2.0490
 7540SOL     OW34252   3.287   2.782   1.351  0.0289 -0.1435  0.4283
 7540SOL    HW134253   3.338   2.721   1.404  0.9291  0.4265  0.2267
 7540SOL    HW234254   3.351   2.853   1.342  1.1744 -1.1105  1.0824
 7541SOL     OW34255   3.667   2.507   7.726 -0.1687  0.0500  1.0244
 7541SOL    HW134256   3.701   2.562   7.797 -2.5098 -1.7142  3.5409
 7541SOL    HW234257   3.595   2.469   7.776 -1.9155  1.4854 -0.4221
 7542SOL     OW34258   0.428   3.025  16.736 -0.4277 -0.1160  0.3293
 7542SOL    HW134259   0.495   3.044  16.670 -0.4104 -0.7971  0.1488
 7542SOL    HW234260   0.482   2.964  16.786  1.1289 -0.2526 -1.5259
 7543SOL     OW34261   1.522   0.831   1.920  0.3174 -0.4443  0.2729
 7543SOL    HW134262   1.544   0.924   1.929 -0.0778 -0.3103 -0.1510
 7543SOL    HW234263   1.543   0.831   1.826  0.6763  0.3680  0.3553
 7544SOL     OW34264   3.338   2.577  17.467 -0.3128  0.0611 -0.5834
 7544SOL    HW134265   3.380   2.661  17.446  0.1863  0.8577  3.6456
 7544SOL    HW234266   3.249   2.612  17.470 -1.2683 -2.5474  0.6925
 7545SOL     OW34267   3.535   1.509   6.263 -0.5793 -0.2753 -0.4839
 7545SOL    HW134268   3.451   1.500   6.218 -2.2039  0.6460  2.3195
 7545SOL    HW234269   3.586   1.569   6.207 -0.9416 -0.5343 -1.0874
 7546SOL     OW34270   0.880   0.304   1.457  0.1370 -0.1556  1.0595
 7546SOL    HW134271   0.801   0.313   1.404  0.2693  0.4288  0.9700
 7546SOL    HW234272   0.847   0.327   1.544 -0.8512  0.5438  0.4988
 7547SOL     OW34273   0.681   3.503   5.400  0.3134 -0.1230 -0.3964
 7547SOL    HW134274   0.762   3.469   5.362 -0.2466 -2.3260  0.3773
 7547SOL    HW234275   0.683   3.454   5.483  0.4033  0.5547  0.0053
 7548SOL     OW34276   2.695   1.062  11.946 -0.4139  0.1969  0.3102
 7548SOL    HW134277   2.610   1.025  11.970  0.0541 -0.8137  0.4487
 7548SOL    HW234278   2.683   1.154  11.968  1.6947  0.6618 -0.5017
 7549SOL     OW34279   0.233   0.828  10.352 -0.1071 -0.3693 -0.3468
 7549SOL    HW134280   0.298   0.768  10.314 -0.3181 -0.5240 -0.4608
 7549SOL    HW234281   0.263   0.917  10.332  0.6765 -1.0416 -2.2061
 7550SOL     OW34282   0.221   1.783   5.707 -0.3136  0.2481 -0.8291
 7550SOL    HW134283   0.130   1.779   5.736  0.2795  1.4806  1.2089
 7550SOL    HW234284   0.271   1.752   5.784 -1.7022  2.3569  0.9155
 7551SOL     OW34285   0.973   2.305   0.463  0.1151  0.5934 -0.1932
 7551SOL    HW134286   0.985   2.383   0.409  0.9243  1.5950  1.4518
 7551SOL    HW234287   1.053   2.299   0.516 -0.3747 -2.6765  0.1721
 7552SOL     OW34288   3.686   1.699   6.113  0.4129 -0.4546  0.1753
 7552SOL    HW134289   3.765   1.731   6.157 -0.0032  1.0696 -0.1790
 7552SOL    HW234290   3.662   1.781   6.069  0.2869 -1.2108 -1.1714
 7553SOL     OW34291   0.927   1.026   4.768 -0.1175 -0.5598 -0.0081
 7553SOL    HW134292   0.852   0.968   4.753  0.1656 -0.7187 -0.7594
 7553SOL    HW234293   0.894   1.111   4.738  0.4197 -0.7232 -1.0648
 7554SOL     OW34294   3.924   3.951  14.384  0.3912  0.2389  0.2514
 7554SOL    HW134295   3.913   3.913  14.297 -1.5298  0.5237  0.3704
 7554SOL    HW234296   4.018   3.961  14.371  0.1987  1.7324 -0.0139
 7555SOL     OW34297   3.160   4.510  17.416  0.3267 -0.1415 -0.4062
 7555SOL    HW134298   3.197   4.598  17.405 -0.4126  0.0935 -1.0152
 7555SOL    HW234299   3.072   4.532  17.447  0.3308  0.2888 -0.6887
 7556SOL     OW34300   4.159   1.658   9.206  0.2674 -0.2843 -0.4401
 7556SOL    HW134301   4.179   1.575   9.162 -0.1961  0.0778 -1.3357
 7556SOL    HW234302   4.064   1.655   9.216  0.2028  1.1610 -0.5536
 7557SOL     OW34303   1.048   3.878  16.146 -0.4299  0.3206  0.7183
 7557SOL    HW134304   0.955   3.866  16.164  0.0171 -0.1282  2.7946
 7557SOL    HW234305   1.088   3.901  16.231  1.8183 -1.9679  0.2882
 7558SOL     OW34306   1.563   2.118  14.212 -0.3338 -0.1792  0.0309
 7558SOL    HW134307   1.623   2.073  14.152  0.9053  0.0220  1.1337
 7558SOL    HW234308   1.537   2.036  14.254  2.5511 -0.0627  1.9749
 7559SOL     OW34309   2.333   2.557  16.827 -0.2815 -0.7015  0.7717
 7559SOL    HW134310   2.293   2.556  16.914 -1.5568 -2.2756  0.1674
 7559SOL    HW234311   2.291   2.484  16.783 -1.2666  0.1095  0.3632
 7560SOL     OW34312   2.324   1.343   4.602  0.0160  0.3409 -0.4455
 7560SOL    HW134313   2.399   1.355   4.545  0.5037  0.3261  0.1962
 7560SOL    HW234314   2.355   1.281   4.668 -1.6639  0.0047  0.0247
 7561SOL     OW34315   3.779   2.387   3.394  0.4475 -0.0411 -0.8818
 7561SOL    HW134316   3.846   2.327   3.428 -3.1543 -2.8839  1.0837
 7561SOL    HW234317   3.736   2.325   3.335 -0.4403  1.3116 -1.6377
 7562SOL     OW34318   2.372   1.382  12.509  0.0896  0.3217  0.4532
 7562SOL    HW134319   2.348   1.474  12.494 -1.6209 -0.0208  1.0489
 7562SOL    HW234320   2.306   1.359  12.575 -0.6585 -3.0766 -1.4837
 7563SOL     OW34321   2.775   3.849   3.897 -0.1345 -0.1346 -0.3012
 7563SOL    HW134322   2.727   3.793   3.836 -2.0113 -1.0644  2.0285
 7563SOL    HW234323   2.860   3.843   3.853  0.1785  2.7092 -0.1152
 7564SOL     OW34324   0.691   3.109   7.995  0.4163  0.3270  0.5086
 7564SOL    HW134325   0.776   3.148   7.974  0.6747 -0.3228  0.3509
 7564SOL    HW234326   0.632   3.181   7.972  0.2162 -0.4002 -1.1664
 7565SOL     OW34327   3.382   3.369  17.578 -0.0888  0.4847 -0.7261
 7565SOL    HW134328   3.454   3.430  17.596  0.1064 -0.5285  2.0215
 7565SOL    HW234329   3.381   3.315  17.657  1.9388 -2.2837 -2.6403
 7566SOL     OW34330   0.137   3.960   5.972  0.0879  0.2951  0.2338
 7566SOL    HW134331   0.051   3.985   6.007 -1.0292 -1.3615 -1.2990
 7566SOL    HW234332   0.129   3.864   5.972  2.3295  0.1129 -1.0534
 7567SOL     OW34333   1.873   3.118   4.294 -0.1046 -0.3872 -0.8807
 7567SOL    HW134334   1.925   3.181   4.244 -0.0868 -0.7618 -1.3359
 7567SOL    HW234335   1.831   3.071   4.223  1.3688 -2.9158 -0.0681
 7568SOL     OW34336   1.854   0.020  12.556  0.0522 -0.3537 -1.3391
 7568SOL    HW134337   1.924   4.712  12.510 -0.6953 -1.8347 -1.0338
 7568SOL    HW234338   1.791   4.687  12.573  0.8421 -1.1758 -1.8231
 7569SOL     OW34339   2.376   3.232  12.491 -0.3213  0.2765 -0.2119
 7569SOL    HW134340   2.437   3.305  12.496 -1.3974  1.1339  0.4554
 7569SOL    HW234341   2.432   3.159  12.464  1.2721  1.0549  1.0028
 7570SOL     OW34342   3.761   0.380   2.387 -0.2603 -0.6530 -0.4951
 7570SOL    HW134343   3.840   0.418   2.351  0.6719  0.5775  2.8534
 7570SOL    HW234344   3.783   0.381   2.480 -1.9073 -0.0047 -0.1102
 7571SOL     OW34345   3.888   4.114   9.172  0.2889 -0.1546  0.1875
 7571SOL    HW134346   3.822   4.072   9.117  0.6189  2.1055 -1.9859
 7571SOL    HW234347   3.934   4.169   9.108 -1.3447  0.9162 -0.0804
 7572SOL     OW34348   0.030   0.911  12.314 -0.7547  0.3806 -0.7144
 7572SOL    HW134349   4.733   0.868  12.393 -0.4243  2.2825  0.4710
 7572SOL    HW234350   0.034   1.003  12.341 -0.3091 -0.0529  0.6966
 7573SOL     OW34351   0.707   1.901   5.092 -0.2879  0.9904  0.3137
 7573SOL    HW134352   0.710   1.813   5.054  0.2345  1.0932  0.1257
 7573SOL    HW234353   0.779   1.890   5.154 -0.6978 -2.5774  0.1417
 7574SOL     OW34354   2.703   0.594  16.240 -0.5286  0.1986 -0.3764
 7574SOL    HW134355   2.731   0.626  16.326  0.8611 -0.9637 -0.3930
 7574SOL    HW234356   2.645   0.664  16.211 -2.4345 -0.9102  0.7682
 7575SOL     OW34357   1.060   1.568   6.773 -0.1432 -0.3649 -0.3690
 7575SOL    HW134358   1.025   1.486   6.739  0.2097 -0.8547  0.4334
 7575SOL    HW234359   1.136   1.586   6.718  0.8129  1.5262  1.5296
 7576SOL     OW34360   3.904   1.269   4.230  0.5777  0.0682 -0.1604
 7576SOL    HW134361   3.935   1.313   4.309  0.1804 -1.5840  0.9264
 7576SOL    HW234362   3.906   1.333   4.159  0.7484 -0.1452 -0.3497
 7577SOL     OW34363   1.208   3.808  12.810 -0.3714  0.1356  0.1102
 7577SOL    HW134364   1.280   3.751  12.836 -0.6076 -0.6118 -0.8664
 7577SOL    HW234365   1.147   3.800  12.883 -1.1476 -1.0697 -0.6671
 7578SOL     OW34366   3.806   4.274   9.389 -0.2498 -0.3705  0.2776
 7578SOL    HW134367   3.716   4.251   9.413  0.5612 -2.7563  0.9361
 7578SOL    HW234368   3.836   4.209   9.326 -0.3587 -1.7076  1.6059
 7579SOL     OW34369   1.576   1.468   7.455  0.3781  0.6749  0.2913
 7579SOL    HW134370   1.653   1.514   7.488  0.5098  0.4535  0.2868
 7579SOL    HW234371   1.585   1.500   7.365  0.1822 -0.4758 -0.1393
 7580SOL     OW34372   1.345   1.661   3.848  0.7155 -0.0065  0.7903
 7580SOL    HW134373   1.336   1.566   3.846  1.5743 -0.0661 -0.1832
 7580SOL    HW234374   1.439   1.674   3.843  0.7990 -1.6188 -2.1573
 7581SOL     OW34375   1.459   0.412   0.215 -0.3028  0.6018  0.4448
 7581SOL    HW134376   1.528   0.367   0.167 -0.8476  0.1828  0.0477
 7581SOL    HW234377   1.393   0.413   0.146 -0.9110 -1.6173  0.9778
 7582SOL     OW34378   2.782   2.679   9.898  0.5351 -0.1882 -0.0507
 7582SOL    HW134379   2.795   2.719   9.812 -0.4749  0.1239 -0.0616
 7582SOL    HW234380   2.855   2.714   9.949 -0.7384 -0.0079  1.6648
 7583SOL     OW34381   2.992   0.784   6.640 -0.0330 -0.9021  0.6001
 7583SOL    HW134382   2.913   0.818   6.598 -1.0338  0.4288  3.5190
 7583SOL    HW234383   3.054   0.818   6.576 -2.6919 -1.2382 -2.1448
 7584SOL     OW34384   2.360   3.794  14.842  0.0974  0.2078  0.6339
 7584SOL    HW134385   2.331   3.707  14.814 -0.7251  1.2978 -1.9259
 7584SOL    HW234386   2.419   3.813  14.770 -1.4327 -0.0431 -0.6969
 7585SOL     OW34387   3.864   3.687  11.589 -0.4840  0.2950  0.5753
 7585SOL    HW134388   3.813   3.645  11.519  0.9557 -3.9401  2.0545
 7585SOL    HW234389   3.850   3.778  11.565  0.9699  0.3694  0.0288
 7586SOL     OW34390   3.024   3.382  10.865  0.3055 -0.4363  0.0750
 7586SOL    HW134391   3.108   3.401  10.908 -1.1193 -0.9752  3.0821
 7586SOL    HW234392   3.029   3.432  10.784 -1.7665 -0.1061  0.1503
 7587SOL     OW34393   2.847   2.398   8.908  0.0758 -0.2682  0.3392
 7587SOL    HW134394   2.773   2.444   8.948 -0.3659  0.2051 -0.9974
 7587SOL    HW234395   2.923   2.429   8.957  1.7547 -2.5402 -0.8576
 7588SOL     OW34396   1.772   0.404   1.835 -0.9029  0.1090  0.8458
 7588SOL    HW134397   1.788   0.435   1.746  1.6781  1.8328  1.9173
 7588SOL    HW234398   1.843   0.341   1.848 -2.6925 -2.5464 -2.0588
 7589SOL     OW34399   1.526   3.007  17.713  0.1255 -0.8589 -0.1363
 7589SOL    HW134400   1.552   3.095  17.740 -2.4233  0.3530 -1.5759
 7589SOL    HW234401   1.597   2.952  17.744  2.3765  0.6245 -2.6828
 7590SOL     OW34402   3.329   4.536  13.929  0.0889 -0.6700  0.2191
 7590SOL    HW134403   3.337   4.515  13.836 -0.6797  4.2390 -0.9426
 7590SOL    HW234404   3.237   4.558  13.943  0.3488  0.4804  0.0746
 7591SOL     OW34405   4.206   3.495   8.221 -0.5539  0.3530 -0.4422
 7591SOL    HW134406   4.252   3.505   8.304  1.7011  1.5140 -1.8426
 7591SOL    HW234407   4.136   3.433   8.244 -0.6834  0.1951 -1.2774
 7592SOL     OW34408   0.835   3.365   5.213  0.5605  0.2324 -0.4981
 7592SOL    HW134409   0.798   3.397   5.131  1.9305  0.3709 -1.0599
 7592SOL    HW234410   0.913   3.315   5.188  0.5889  0.7767 -1.5001
 7593SOL     OW34411   4.506   1.213   3.479 -0.4910  0.0167 -0.2082
 7593SOL    HW134412   4.508   1.265   3.560  1.5893 -1.9778  1.0041
 7593SOL    HW234413   4.434   1.253   3.430  0.3652  0.2744 -1.2558
 7594SOL     OW34414   2.336   0.705   2.675 -0.2221  0.3060  0.8653
 7594SOL    HW134415   2.359   0.654   2.597 -2.2828  2.2372 -0.9680
 7594SOL    HW234416   2.408   0.769   2.677  0.6255 -0.5793 -1.2810
 7595SOL     OW34417   4.329   0.961   9.228 -0.1428 -0.1966 -0.2546
 7595SOL    HW134418   4.234   0.970   9.235  0.1144 -0.8102  3.7840
 7595SOL    HW234419   4.337   0.988   9.137  0.1031 -0.0499 -0.1895
 7596SOL     OW34420   0.302   2.473  12.093 -0.1207 -0.4256 -0.1530
 7596SOL    HW134421   0.245   2.478  12.170  2.1920 -0.0819  1.5330
 7596SOL    HW234422   0.258   2.542  12.044  0.4916 -0.8952 -1.3815
 7597SOL     OW34423   0.105   0.463   2.116 -0.3491 -0.2569 -1.0437
 7597SOL    HW134424   0.056   0.483   2.196  1.4492 -0.0569 -0.0053
 7597SOL    HW234425   0.026   0.441   2.066  0.6487 -1.5566 -2.0496
 7598SOL     OW34426   1.764   0.750   3.683 -0.1295 -0.1076  0.4019
 7598SOL    HW134427   1.671   0.750   3.661  0.0508 -0.1152 -0.3556
 7598SOL    HW234428   1.776   0.845   3.685 -1.8687  0.0924  2.3690
 7599SOL     OW34429   3.335   3.013   4.523  0.2831 -0.1668  0.1482
 7599SOL    HW134430   3.343   3.072   4.598  1.7801 -0.4056  0.1775
 7599SOL    HW234431   3.419   3.027   4.478  0.4402 -1.1675  0.1334
 7600SOL     OW34432   0.892   3.850  15.438 -0.0836 -0.0882 -0.4055
 7600SOL    HW134433   0.974   3.821  15.477 -1.1158  1.5360  3.0299
 7600SOL    HW234434   0.842   3.881  15.514  1.2535  0.3916  0.2805
 7601SOL     OW34435   1.464   4.048  11.743  0.3469 -0.3547  0.0090
 7601SOL    HW134436   1.433   4.133  11.713  0.5777 -0.1122  0.4563
 7601SOL    HW234437   1.475   4.074  11.835  1.3696  1.8535 -0.7394
 7602SOL     OW34438   1.334   1.999  12.471 -0.2819  0.0777  0.5336
 7602SOL    HW134439   1.401   2.054  12.513  1.5207 -0.0250 -2.2270
 7602SOL    HW234440   1.289   1.962  12.547 -1.2175 -0.7193 -0.4079
 7603SOL     OW34441   0.301   3.156   2.321  0.1317 -0.2041  1.0983
 7603SOL    HW134442   0.258   3.172   2.236  1.0405 -1.3658  0.4265
 7603SOL    HW234443   0.273   3.069   2.348 -0.2509  0.6541  3.4103
 7604SOL     OW34444   1.138   3.801   4.986  0.0949 -0.0827  0.4147
 7604SOL    HW134445   1.149   3.894   4.970  2.9345 -0.3422  0.9012
 7604SOL    HW234446   1.070   3.782   4.920 -1.0439  1.8687  1.0258
 7605SOL     OW34447   2.685   3.225   5.492  0.1275 -0.2961 -0.3945
 7605SOL    HW134448   2.675   3.231   5.587  0.6082  2.0856 -0.5077
 7605SOL    HW234449   2.777   3.250   5.485  0.3215 -1.0325 -0.5121
 7606SOL     OW34450   0.507   0.278   6.985  0.1855 -0.2750 -0.3143
 7606SOL    HW134451   0.478   0.364   6.954  2.0709 -0.0696 -1.4837
 7606SOL    HW234452   0.424   0.262   7.030  0.3616  2.0272  0.8001
 7607SOL     OW34453   0.601   0.877  17.435 -0.2352 -0.3386 -0.3934
 7607SOL    HW134454   0.515   0.834  17.433  0.4225 -1.6751  0.4624
 7607SOL    HW234455   0.653   0.797  17.439  0.2987  0.1454  2.0548
 7608SOL     OW34456   4.009   0.634  13.332 -0.0377  0.0519 -0.1624
 7608SOL    HW134457   3.941   0.651  13.267  0.8750  0.3814 -1.0443
 7608SOL    HW234458   4.009   0.539  13.326  1.1780 -0.0340  1.1525
 7609SOL     OW34459   0.391   0.970   5.458  0.4077 -0.3188 -0.2895
 7609SOL    HW134460   0.451   0.970   5.384  0.5094 -0.0180 -0.2062
 7609SOL    HW234461   0.437   1.017   5.528 -0.8645  1.3381 -0.5493
 7610SOL     OW34462   3.832   1.925   5.230  0.1433 -0.1388 -0.7227
 7610SOL    HW134463   3.775   1.850   5.247  1.1026 -0.6574  0.1858
 7610SOL    HW234464   3.902   1.899   5.290  0.2356 -1.1445 -1.2818
 7611SOL     OW34465   4.424   1.628   4.563 -0.8658  0.3421 -0.2174
 7611SOL    HW134466   4.508   1.655   4.524 -0.2342 -0.3627  0.6647
 7611SOL    HW234467   4.440   1.538   4.591 -0.0535  0.2095 -1.1054
 7612SOL     OW34468   0.737   3.710   3.034 -0.4910  0.3159  0.2557
 7612SOL    HW134469   0.718   3.737   3.124 -0.0569 -0.6138  0.6259
 7612SOL    HW234470   0.704   3.782   2.981 -0.1799  0.1826 -0.1182
 7613SOL     OW34471   0.237   4.638   6.304 -0.0082  0.1904  0.5959
 7613SOL    HW134472   0.257   4.663   6.395  0.1187 -2.5303  1.3282
 7613SOL    HW234473   0.323   4.655   6.267 -0.7694 -0.8343 -1.6137
 7614SOL     OW34474   4.355   4.209   1.966 -0.0701 -0.0464  0.2028
 7614SOL    HW134475   4.434   4.263   1.966  0.2760 -0.5446 -1.3621
 7614SOL    HW234476   4.365   4.158   1.885  1.3691  1.6987 -0.7132
 7615SOL     OW34477   1.910   3.258   2.671 -0.1997  0.4682  0.1611
 7615SOL    HW134478   1.863   3.177   2.651 -0.9708  0.6458  1.2629
 7615SOL    HW234479   1.984   3.248   2.610 -1.8969 -0.3185 -1.7819
 7616SOL     OW34480   4.671   4.056   6.444  0.1112  0.1425 -0.4569
 7616SOL    HW134481   4.602   4.081   6.505 -1.6068  0.6581 -2.6155
 7616SOL    HW234482   4.650   3.963   6.449  0.0226  0.1791 -0.1407
 7617SOL     OW34483   0.351   2.193  16.449 -0.0575  0.1009  0.3379
 7617SOL    HW134484   0.341   2.280  16.412 -3.2493  0.8098  2.8246
 7617SOL    HW234485   0.260   2.177  16.475  0.2221  0.1167  1.3195
 7618SOL     OW34486   1.421   3.166   3.596 -0.1163  0.2107 -0.1680
 7618SOL    HW134487   1.466   3.103   3.539  0.0352 -0.1035  0.3010
 7618SOL    HW234488   1.479   3.242   3.593 -1.1386  1.1224  3.3477
 7619SOL     OW34489   1.124   0.415   9.304  0.4735 -0.6518 -0.6359
 7619SOL    HW134490   1.150   0.402   9.213  1.8563  1.1691 -0.5008
 7619SOL    HW234491   1.126   0.328   9.345 -2.0602 -0.6680 -0.5285
 7620SOL     OW34492   2.058   0.106   7.124  0.0243  0.4050 -0.1069
 7620SOL    HW134493   2.139   0.145   7.157  1.0847 -2.2424  0.3881
 7620SOL    HW234494   2.001   0.116   7.200 -0.1593 -2.2536  0.1076
 7621SOL     OW34495   3.825   3.909  12.275 -0.1072  0.0525  0.1801
 7621SOL    HW134496   3.766   3.869  12.211  0.9849 -0.3186 -0.5959
 7621SOL    HW234497   3.760   3.945  12.336 -0.2777  1.4572 -0.8326
 7622SOL     OW34498   1.554   2.603   7.805  0.6310  0.9938 -0.2070
 7622SOL    HW134499   1.649   2.610   7.815  0.4893  0.2697  1.6898
 7622SOL    HW234500   1.537   2.682   7.753  3.4103  1.3302 -0.5753
 7623SOL     OW34501   3.652   1.398   8.352 -0.4289 -0.1947  0.0970
 7623SOL    HW134502   3.627   1.381   8.443  1.7687 -0.1157  0.7313
 7623SOL    HW234503   3.720   1.334   8.331 -1.1692 -1.0766  0.3978
 7624SOL     OW34504   0.147   1.902  15.038 -0.2064 -0.7698 -0.3697
 7624SOL    HW134505   0.085   1.965  15.074 -0.4230 -1.1067 -0.1610
 7624SOL    HW234506   0.132   1.825  15.092 -2.5090  0.9066  1.3672
 7625SOL     OW34507   4.727   2.097  15.675  0.3217  0.5613  0.5282
 7625SOL    HW134508   4.663   2.078  15.744 -1.9594 -0.7868 -1.9743
 7625SOL    HW234509   0.016   2.013  15.638 -0.9846 -0.5147  2.0430
 7626SOL     OW34510   2.870   4.249   7.928  0.2231  0.0068  0.3603
 7626SOL    HW134511   2.905   4.183   7.868  1.5253 -0.3878  1.5725
 7626SOL    HW234512   2.895   4.207   8.010  0.6075 -1.7017 -0.6194
 7627SOL     OW34513   2.403   3.577  16.851 -0.2200  0.0609  0.9703
 7627SOL    HW134514   2.415   3.576  16.946  2.7012  1.3329  0.6011
 7627SOL    HW234515   2.493   3.575  16.819 -0.8062  0.3823 -0.6944
 7628SOL     OW34516   3.503   0.029   7.540 -0.4904  0.7068  0.8607
 7628SOL    HW134517   3.591   0.003   7.512 -1.2554 -0.6539 -0.2611
 7628SOL    HW234518   3.524   0.027   7.634 -0.4858  2.8332  0.9121
 7629SOL     OW34519   1.373   0.116  15.685 -0.1339 -0.1283  0.5750
 7629SOL    HW134520   1.300   0.117  15.623 -0.9732 -1.3523  1.5215
 7629SOL    HW234521   1.404   0.027  15.667 -0.7462 -0.5971  1.8132
 7630SOL     OW34522   1.812   1.788  16.808 -0.0321 -0.4373 -0.3487
 7630SOL    HW134523   1.717   1.776  16.806 -0.1066 -0.1081  1.3350
 7630SOL    HW234524   1.820   1.882  16.821  1.7295 -0.5173 -0.7381
 7631SOL     OW34525   1.772   0.414   6.201  0.5707  0.0670  0.7556
 7631SOL    HW134526   1.845   0.371   6.246  0.7121 -1.1940 -0.6639
 7631SOL    HW234527   1.700   0.380   6.254  0.8105 -0.7442  0.5646
 7632SOL     OW34528   0.274   1.166  11.935  0.8969  0.1449  0.0484
 7632SOL    HW134529   0.211   1.238  11.930 -0.4604 -0.8457  2.6899
 7632SOL    HW234530   0.239   1.103  11.872  0.1107  2.5757 -1.9697
 7633SOL     OW34531   4.360   1.692   5.226  0.1256 -0.5783 -0.4718
 7633SOL    HW134532   4.360   1.596   5.220 -0.5835 -0.5997 -0.1039
 7633SOL    HW234533   4.331   1.728   5.143 -1.8544 -2.0791 -0.4359
 7634SOL     OW34534   3.753   3.829  14.547  0.1113  0.4243 -0.0568
 7634SOL    HW134535   3.814   3.860  14.480  0.7358 -2.1393 -0.6648
 7634SOL    HW234536   3.806   3.822  14.627  1.1971 -0.0938 -0.8289
 7635SOL     OW34537   1.708   4.218   9.014 -0.4484  0.4596 -0.5425
 7635SOL    HW134538   1.730   4.305   8.979  0.8885 -0.2646 -1.5122
 7635SOL    HW234539   1.715   4.233   9.108 -0.2053  0.2654 -0.5307
 7636SOL     OW34540   1.244   1.063   6.833  0.1199 -0.1692  0.5792
 7636SOL    HW134541   1.266   0.983   6.881  0.1458  1.2044  2.8794
 7636SOL    HW234542   1.329   1.102   6.811 -0.3004  0.7519  0.5589
 7637SOL     OW34543   1.237   3.472   6.854 -0.2285  0.1120 -0.1292
 7637SOL    HW134544   1.319   3.508   6.820 -0.9467 -0.3298 -2.3451
 7637SOL    HW234545   1.234   3.378   6.834 -0.3183  0.3224 -1.1134
 7638SOL     OW34546   2.782   1.986  12.665  0.2157 -0.0419 -0.3589
 7638SOL    HW134547   2.772   2.079  12.647  0.0087  0.2113  1.0594
 7638SOL    HW234548   2.799   1.994  12.759  0.7132  0.6422 -0.5106
 7639SOL     OW34549   3.778   2.953   7.208 -0.1018  0.2016  0.0732
 7639SOL    HW134550   3.773   3.044   7.178  1.2015 -0.0565 -0.9276
 7639SOL    HW234551   3.858   2.919   7.170  0.2813 -0.2879  1.3340
 7640SOL     OW34552   1.346   1.952  10.642 -0.5474  0.2026 -0.4601
 7640SOL    HW134553   1.420   1.909  10.600 -1.8431 -1.2051 -1.3103
 7640SOL    HW234554   1.334   2.028  10.585 -1.0691  1.0869  0.8200
 7641SOL     OW34555   2.756   0.212  12.691  0.7745 -0.1212 -0.2859
 7641SOL    HW134556   2.709   0.200  12.608 -0.1390  3.2565 -0.2443
 7641SOL    HW234557   2.719   0.138  12.738  0.0122 -0.7356 -1.8338
 7642SOL     OW34558   4.617   1.292   2.572  0.7565 -0.6241  0.5558
 7642SOL    HW134559   4.600   1.300   2.478  1.4676  2.3637  0.6746
 7642SOL    HW234560   4.697   1.343   2.578 -0.3231  1.1974 -0.5683
 7643SOL     OW34561   2.267   3.409   5.719 -0.2453  0.5276 -0.5754
 7643SOL    HW134562   2.278   3.334   5.778 -1.2458  0.9249  0.1179
 7643SOL    HW234563   2.202   3.372   5.660  2.6884 -1.3065 -2.6690
 7644SOL     OW34564   2.446   1.614   2.317  0.5945 -0.0801 -0.0632
 7644SOL    HW134565   2.464   1.603   2.224 -0.3386  1.1932 -0.4003
 7644SOL    HW234566   2.487   1.541   2.363  1.7108  1.0910  0.7935
 7645SOL     OW34567   3.287   0.860   0.547 -0.3865 -0.1363  0.3649
 7645SOL    HW134568   3.206   0.809   0.552 -0.9017  0.9511  2.9752
 7645SOL    HW234569   3.278   0.909   0.464 -1.6666 -0.0111  0.5768
 7646SOL     OW34570   1.701   2.190   2.926 -0.0031 -0.2367 -0.2710
 7646SOL    HW134571   1.695   2.096   2.906 -0.0139 -0.1115 -0.8561
 7646SOL    HW234572   1.608   2.211   2.934  0.1058  0.1060  0.0881
 7647SOL     OW34573   2.347   2.914  13.167 -0.6300 -0.4085 -0.8358
 7647SOL    HW134574   2.364   2.820  13.182  2.0499  0.2945  0.6589
 7647SOL    HW234575   2.314   2.914  13.077  0.5361  0.1410 -1.2655
 7648SOL     OW34576   2.301   1.040   1.927 -0.5204 -0.6225  0.1556
 7648SOL    HW134577   2.292   1.001   1.840 -1.2995  0.7238 -0.3625
 7648SOL    HW234578   2.228   1.101   1.932  1.0487  1.0824  2.6887
 7649SOL     OW34579   3.274   1.265   2.164 -0.1152 -0.1145  0.1167
 7649SOL    HW134580   3.333   1.262   2.240  0.8388 -0.1252 -0.6231
 7649SOL    HW234581   3.319   1.208   2.102 -1.0222 -1.3366  0.5723
 7650SOL     OW34582   4.646   1.552   1.662  0.3334 -0.4102 -0.1326
 7650SOL    HW134583   4.599   1.494   1.602  0.4817 -0.3475 -0.3090
 7650SOL    HW234584   4.598   1.634   1.671 -0.0964 -0.8066  1.2103
 7651SOL     OW34585   3.005   0.960   9.206 -0.3069 -0.3240 -0.2794
 7651SOL    HW134586   3.083   0.985   9.156  0.8347 -0.0008  1.6411
 7651SOL    HW234587   3.047   0.967   9.292 -0.5687  0.0349 -0.1858
 7652SOL     OW34588   1.944   2.389   5.001  0.0501  0.4270  0.0816
 7652SOL    HW134589   2.025   2.366   4.957 -0.4904  2.5424 -2.0558
 7652SOL    HW234590   1.948   2.485   4.995 -1.6640  0.5439  0.6427
 7653SOL     OW34591   1.641   3.258   3.134 -0.3903 -0.3349  0.5696
 7653SOL    HW134592   1.627   3.352   3.119 -1.6452 -1.1159 -3.0956
 7653SOL    HW234593   1.633   3.232   3.042 -0.1317 -1.3653  0.8414
 7654SOL     OW34594   1.295   0.432  13.286 -0.4781  0.3167  0.1354
 7654SOL    HW134595   1.235   0.405  13.356 -2.0689 -0.7777 -1.6755
 7654SOL    HW234596   1.282   0.363  13.221 -2.3483  0.6338  0.1890
 7655SOL     OW34597   0.235   1.584   6.257 -0.2564 -0.1387  0.1714
 7655SOL    HW134598   0.292   1.572   6.333  0.0005 -0.9215 -0.1486
 7655SOL    HW234599   0.267   1.668   6.223  0.0631 -0.1543  0.4280
 7656SOL     OW34600   3.535   0.286   3.884  0.0042  0.2779 -0.3268
 7656SOL    HW134601   3.492   0.240   3.957 -0.3120  0.3423 -0.4748
 7656SOL    HW234602   3.538   0.212   3.823 -0.0970 -0.2917  0.3452
 7657SOL     OW34603   0.624   1.379   4.198 -0.0682  1.0339  0.3709
 7657SOL    HW134604   0.707   1.380   4.149 -0.4810 -2.3412 -0.4216
 7657SOL    HW234605   0.582   1.437   4.135 -3.0244 -1.6408 -0.1245
 7658SOL     OW34606   1.082   3.514  14.464  0.1486  1.1676 -0.5188
 7658SOL    HW134607   1.154   3.451  14.460 -0.0472  1.0158 -1.5429
 7658SOL    HW234608   1.006   3.456  14.464 -1.8957  3.8505  0.2831
 7659SOL     OW34609   0.072   0.812   6.593 -0.0867  0.1322 -0.4801
 7659SOL    HW134610   0.134   0.823   6.520 -1.7144 -3.2161 -2.3424
 7659SOL    HW234611   0.086   0.900   6.629  1.5845 -0.4828  0.3932
 7660SOL     OW34612   4.470   2.377  12.196 -0.3927 -0.3210  0.0737
 7660SOL    HW134613   4.525   2.317  12.146  0.0003 -0.7953  1.0876
 7660SOL    HW234614   4.412   2.405  12.125 -0.7143 -0.6388  0.2106
 7661SOL     OW34615   4.120   3.857  12.531  0.1827  0.9914 -0.2254
 7661SOL    HW134616   4.091   3.882  12.619 -0.8868  0.7403 -0.4979
 7661SOL    HW234617   4.128   3.942  12.489  1.2411  0.1859 -1.6705
 7662SOL     OW34618   0.607   4.327   5.647 -0.2458  0.1045 -0.4912
 7662SOL    HW134619   0.576   4.269   5.578 -0.1671  0.3675 -0.7487
 7662SOL    HW234620   0.676   4.380   5.607 -1.8348  2.3424 -0.2417
 7663SOL     OW34621   2.675   3.998  11.497  0.5588  0.2492  0.6043
 7663SOL    HW134622   2.659   4.050  11.575  1.7700  0.4379  0.7276
 7663SOL    HW234623   2.754   3.950  11.523  0.4545 -0.4819 -0.4004
 7664SOL     OW34624   1.623   3.321   9.588  0.0498  0.1966  0.2142
 7664SOL    HW134625   1.584   3.408   9.587 -0.7535 -0.1626  0.3653
 7664SOL    HW234626   1.619   3.303   9.682  1.4018  0.4974  0.3318
 7665SOL     OW34627   2.038   1.359   7.364  0.2928  0.0229  0.2795
 7665SOL    HW134628   2.101   1.305   7.316 -0.0360  0.0472 -0.1829
 7665SOL    HW234629   2.010   1.300   7.434  1.4066  0.5317  1.1495
 7666SOL     OW34630   2.561   3.431   4.441  0.2969  0.2859 -0.6260
 7666SOL    HW134631   2.641   3.378   4.445  0.3617  0.5035  1.0033
 7666SOL    HW234632   2.536   3.427   4.349  1.3822 -0.9087 -0.8767
 7667SOL     OW34633   3.925   1.806   8.006  0.7679  0.4557  0.4664
 7667SOL    HW134634   3.948   1.724   8.049  0.0637 -0.9737 -1.9021
 7667SOL    HW234635   3.925   1.803   7.910  0.6793  1.1966  0.4411
 7668SOL     OW34636   4.266   3.748   2.285  0.3774 -0.3104  0.2933
 7668SOL    HW134637   4.230   3.660   2.276 -1.3615  0.2764  1.3927
 7668SOL    HW234638   4.282   3.766   2.193  1.5945  0.7578  0.7128
 7669SOL     OW34639   1.595   0.825   6.501 -0.4276  0.3936 -0.2638
 7669SOL    HW134640   1.666   0.868   6.547 -0.4853  3.4688 -3.0373
 7669SOL    HW234641   1.642   0.796   6.422  0.6996  0.4244  0.3957
 7670SOL     OW34642   3.827   4.276   7.618  0.8492 -0.4290 -0.4701
 7670SOL    HW134643   3.907   4.235   7.652  0.2472 -2.8200 -1.9829
 7670SOL    HW234644   3.792   4.206   7.563 -0.1029 -0.1862 -0.1681
 7671SOL     OW34645   0.362   2.068   9.554 -0.6365  0.3552  0.3931
 7671SOL    HW134646   0.385   2.128   9.484  0.2037 -0.8395 -0.3450
 7671SOL    HW234647   0.286   2.019   9.522 -0.8576  1.0367 -0.1128
 7672SOL     OW34648   3.122   4.725   5.568 -0.1166 -0.4683  0.1392
 7672SOL    HW134649   3.214   4.704   5.585 -0.5234 -1.5841  0.9706
 7672SOL    HW234650   3.090   4.695   5.653 -1.1577  0.2978  0.0200
 7673SOL     OW34651   2.688   3.730   8.797 -0.4037  0.2115  0.9924
 7673SOL    HW134652   2.649   3.749   8.712  1.8456  1.5351  0.2477
 7673SOL    HW234653   2.640   3.776   8.867 -2.1384 -0.7364  0.4024
 7674SOL     OW34654   1.249   4.590  17.263  0.3887 -0.0500  0.6715
 7674SOL    HW134655   1.201   4.547  17.334  0.0274 -0.9635 -0.1278
 7674SOL    HW234656   1.200   4.671  17.250  0.3401 -0.6013 -2.5136
 7675SOL     OW34657   0.633   2.651   6.960  0.1639 -0.1463 -0.8463
 7675SOL    HW134658   0.619   2.558   6.940  0.4284 -0.5479  0.8560
 7675SOL    HW234659   0.589   2.660   7.044  1.0279 -2.9503 -0.0949
 7676SOL     OW34660   1.010   1.403   1.706  0.1392  0.2870 -0.0474
 7676SOL    HW134661   0.978   1.401   1.616 -1.4995  1.0562  0.5045
 7676SOL    HW234662   0.934   1.449   1.743  0.6996  0.3676  1.0051
 7677SOL     OW34663   3.048   1.501   6.606  0.2843  0.6313  0.4406
 7677SOL    HW134664   3.057   1.539   6.693  2.9331 -2.0697  1.3456
 7677SOL    HW234665   2.989   1.428   6.621  0.8473 -0.2810 -1.7713
 7678SOL     OW34666   3.409   2.841  17.451  0.0545 -0.1307 -0.2465
 7678SOL    HW134667   3.496   2.822  17.486 -0.2651 -0.0772  0.5839
 7678SOL    HW234668   3.411   2.936  17.443 -0.6961  0.0875  1.9942
 7679SOL     OW34669   3.047   1.675  11.855 -0.0100  0.1839 -0.1987
 7679SOL    HW134670   3.078   1.589  11.884  0.9598  1.0909  1.3876
 7679SOL    HW234671   2.979   1.712  11.910  0.3995 -0.8249  0.9733
 7680SOL     OW34672   3.131   0.563   9.905  0.6671 -0.3027  0.0551
 7680SOL    HW134673   3.037   0.565   9.886  0.7156 -0.6237 -0.2343
 7680SOL    HW234674   3.136   0.646   9.951  0.3801 -0.7016  0.7966
 7681SOL     OW34675   0.406   3.592   3.882 -0.6252 -0.4302 -0.0073
 7681SOL    HW134676   0.396   3.650   3.807  4.2545  1.7513  1.0624
 7681SOL    HW234677   0.498   3.569   3.866 -0.1329  1.9396 -0.5197
 7682SOL     OW34678   4.296   2.881   4.076 -0.3932  0.2675 -0.2458
 7682SOL    HW134679   4.245   2.865   3.996  1.1322 -2.4291 -0.6844
 7682SOL    HW234680   4.297   2.792   4.110  1.0614 -0.1207 -1.2760
 7683SOL     OW34681   3.082   2.230  16.598  0.1094  0.3237 -0.3061
 7683SOL    HW134682   3.144   2.179  16.546  0.7631  1.7029 -0.8733
 7683SOL    HW234683   3.035   2.282  16.533 -0.1615  0.9033  0.3447
 7684SOL     OW34684   1.445   1.254   9.107 -0.4593 -0.2043  0.1574
 7684SOL    HW134685   1.396   1.182   9.146  1.2253 -1.9662 -0.9407
 7684SOL    HW234686   1.373   1.295   9.060  1.7278 -0.3977 -3.3673
 7685SOL     OW34687   3.219   3.358   6.987  0.2224  0.3101  0.0633
 7685SOL    HW134688   3.202   3.432   7.045 -0.9385  0.8644 -0.9889
 7685SOL    HW234689   3.255   3.283   7.036  1.2022  1.3922  0.9942
 7686SOL     OW34690   3.689   2.314  14.157  0.5892 -0.3788  0.6861
 7686SOL    HW134691   3.611   2.280  14.114  1.8946 -0.1719 -1.8905
 7686SOL    HW234692   3.752   2.313  14.085 -2.0178  2.2217 -1.6256
 7687SOL     OW34693   3.144   3.943   9.042  0.5685 -0.7522  0.9238
 7687SOL    HW134694   3.074   3.936   8.978  2.0814 -1.5096 -0.6302
 7687SOL    HW234695   3.209   3.978   8.981 -0.5045 -2.1470 -1.0189
 7688SOL     OW34696   1.166   1.208   4.668 -0.1182 -0.3558 -0.1856
 7688SOL    HW134697   1.254   1.246   4.678 -0.4638 -0.2310  2.3545
 7688SOL    HW234698   1.158   1.176   4.578 -1.5944 -1.3240  0.2915
 7689SOL     OW34699   3.682   0.371   7.900  0.2013  0.5214  0.7302
 7689SOL    HW134700   3.776   0.386   7.886  0.3154 -0.7927  0.1078
 7689SOL    HW234701   3.664   0.444   7.960 -2.3841  1.2801 -0.9842
 7690SOL     OW34702   2.674   1.707   4.236  0.5591  0.9316 -0.3372
 7690SOL    HW134703   2.740   1.755   4.286  1.0200 -0.8492  0.7609
 7690SOL    HW234704   2.709   1.618   4.238 -2.7896 -0.3399  1.5827
 7691SOL     OW34705   0.226   2.302   4.849 -1.0924  0.2596 -0.4321
 7691SOL    HW134706   0.183   2.220   4.825  1.7825 -0.1977 -3.9160
 7691SOL    HW234707   0.312   2.287   4.811 -0.0872 -0.1423  2.0266
 7692SOL     OW34708   2.117   4.503   6.371 -0.2494 -0.1445 -0.4791
 7692SOL    HW134709   2.210   4.493   6.350  0.6351  0.9535  2.8435
 7692SOL    HW234710   2.083   4.414   6.375  0.9186 -0.6450 -1.8266
 7693SOL     OW34711   1.658   3.346   6.058 -0.3085 -0.4907 -0.7922
 7693SOL    HW134712   1.703   3.265   6.035 -0.4504 -1.1909  1.4677
 7693SOL    HW234713   1.723   3.399   6.105  0.7289  1.3203 -4.2295
 7694SOL     OW34714   2.129   0.217  17.093 -0.0476 -0.8241  0.1801
 7694SOL    HW134715   2.089   0.253  17.014  0.4369  1.5951  1.0422
 7694SOL    HW234716   2.079   0.136  17.080 -1.3382  0.4302 -2.5925
 7695SOL     OW34717   3.637   2.629   6.332 -0.3207 -0.2789  0.5268
 7695SOL    HW134718   3.573   2.579   6.384 -0.3428 -1.2590 -0.4391
 7695SOL    HW234719   3.606   2.598   6.247  0.0920 -0.2013  0.3500
 7696SOL     OW34720   4.074   3.797  16.179  0.3446  0.9875  0.6095
 7696SOL    HW134721   4.053   3.823  16.089 -0.7780 -0.9879  0.2909
 7696SOL    HW234722   3.992   3.759  16.211  0.8103 -0.4629  0.0574
 7697SOL     OW34723   0.309   1.177  13.945 -0.4226  0.1204 -0.1413
 7697SOL    HW134724   0.231   1.200  13.994 -0.3139  1.2898 -0.5268
 7697SOL    HW234725   0.355   1.148  14.024 -0.3746  3.3013  0.9673
 7698SOL     OW34726   3.126   1.986   9.287  0.8070 -0.7570  0.3569
 7698SOL    HW134727   3.153   1.955   9.373 -0.6661 -2.3100  0.2613
 7698SOL    HW234728   3.208   2.029   9.265  0.8922 -0.3529  1.4832
 7699SOL     OW34729   4.070   1.483  14.829  0.3119  0.1595 -0.2719
 7699SOL    HW134730   4.056   1.565  14.781 -0.4052  0.7963  1.0404
 7699SOL    HW234731   4.145   1.447  14.781 -0.6904 -0.7797 -1.1351
 7700SOL     OW34732   4.166   1.039  10.961  0.4882 -0.3553 -0.4261
 7700SOL    HW134733   4.174   1.058  10.868  1.2192 -1.8196 -0.6601
 7700SOL    HW234734   4.081   0.995  10.970  1.0261 -1.3680 -0.2032
 7701SOL     OW34735   3.371   3.499   1.467  0.1147 -0.3513 -0.2323
 7701SOL    HW134736   3.391   3.590   1.491 -0.9652 -0.1661 -0.0553
 7701SOL    HW234737   3.464   3.480   1.455  0.9498  2.0121  2.3156
 7702SOL     OW34738   2.975   1.206   6.585 -0.4863  0.5327 -0.4477
 7702SOL    HW134739   3.051   1.169   6.540 -0.2303  0.0903  0.3511
 7702SOL    HW234740   2.905   1.175   6.527 -0.8513  0.4122  0.0519
 7703SOL     OW34741   0.885   3.908   9.427 -0.0940 -0.2799  0.3022
 7703SOL    HW134742   0.903   3.926   9.520 -0.0191  0.2287  0.1934
 7703SOL    HW234743   0.921   3.821   9.412  1.9306  0.9545 -1.8569
 7704SOL     OW34744   3.190   2.230  12.135 -0.3413 -0.0782 -0.1081
 7704SOL    HW134745   3.271   2.257  12.092 -0.1515 -0.7104 -0.1558
 7704SOL    HW234746   3.212   2.246  12.227  2.4651  1.9162 -1.1609
 7705SOL     OW34747   4.602   3.393   4.766 -0.2544  0.6229 -0.6020
 7705SOL    HW134748   4.579   3.447   4.690 -1.9243 -1.2886 -1.4428
 7705SOL    HW234749   4.521   3.402   4.817  0.5937 -0.8807  1.0019
 7706SOL     OW34750   1.582   4.705   7.662 -0.7871  0.2948  0.5694
 7706SOL    HW134751   1.656   4.711   7.603 -0.1311 -3.2571  1.0159
 7706SOL    HW234752   1.629   4.718   7.744 -1.2506 -1.8217  1.1801
 7707SOL     OW34753   2.670   3.030  11.378 -0.1692 -0.2937  0.3966
 7707SOL    HW134754   2.671   2.959  11.443  3.9057 -0.1387  0.4584
 7707SOL    HW234755   2.709   2.978  11.308 -1.2981  2.5883 -2.3535
 7708SOL     OW34756   1.994   3.017   0.692 -0.1282  0.0033 -0.4760
 7708SOL    HW134757   2.069   2.967   0.659 -0.1535 -0.9761  0.9494
 7708SOL    HW234758   1.922   2.953   0.693  1.4218 -1.7497 -2.2405
 7709SOL     OW34759   3.226   4.488   6.428 -0.4825  0.1340  0.3145
 7709SOL    HW134760   3.251   4.440   6.507 -0.7537  1.0429  0.9671
 7709SOL    HW234761   3.231   4.414   6.368 -1.6510  2.4279 -2.5857
 7710SOL     OW34762   4.481   4.409  13.349  0.2811  0.3195 -0.0135
 7710SOL    HW134763   4.485   4.314  13.340 -0.5838  0.0391  2.3737
 7710SOL    HW234764   4.572   4.435  13.364  0.0652  0.0886  1.6958
 7711SOL     OW34765   0.529   1.208   2.297 -0.2400 -0.0430  0.4769
 7711SOL    HW134766   0.580   1.272   2.249 -1.2914  0.5999  0.2242
 7711SOL    HW234767   0.574   1.210   2.382 -0.6695 -2.5874  0.7849
 7712SOL     OW34768   0.212   3.593   5.730  0.0022 -0.1374  0.4656
 7712SOL    HW134769   0.150   3.640   5.785  0.5340  1.5290 -0.3532
 7712SOL    HW234770   0.148   3.531   5.696 -1.5414  1.8899 -0.3119
 7713SOL     OW34771   2.889   3.503   2.412 -0.1105 -0.7209  0.6625
 7713SOL    HW134772   2.871   3.570   2.477 -0.6841 -0.6426  0.4249
 7713SOL    HW234773   2.981   3.481   2.427 -0.1703 -0.4615  1.3934
 7714SOL     OW34774   0.008   2.739   3.702 -0.0067  0.2435  0.2086
 7714SOL    HW134775   0.066   2.771   3.632  2.2952 -2.9604  0.6487
 7714SOL    HW234776   0.067   2.739   3.778 -0.1310 -1.5063  0.3100
 7715SOL     OW34777   4.618   0.819  16.237  0.6798 -0.1474  0.1516
 7715SOL    HW134778   4.702   0.850  16.270 -0.2675  0.7540  1.7445
 7715SOL    HW234779   4.590   0.892  16.182  0.8461  0.7757  1.2911
 7716SOL     OW34780   0.894   1.439   0.160  0.2011  0.4932  0.0359
 7716SOL    HW134781   0.898   1.386   0.240 -1.0866  0.9091  0.3796
 7716SOL    HW234782   0.820   1.497   0.177  0.6700  0.1183  3.2747
 7717SOL     OW34783   4.462   0.059  12.162  0.0922 -0.0920 -0.0476
 7717SOL    HW134784   4.420   0.080  12.246 -1.0160 -0.8573 -0.3951
 7717SOL    HW234785   4.404   0.110  12.106  1.4761  1.8106  0.2542
 7718SOL     OW34786   2.731   2.826   7.585  0.2266  0.2795 -0.4107
 7718SOL    HW134787   2.678   2.845   7.508 -0.3351  1.2998  0.2306
 7718SOL    HW234788   2.703   2.883   7.657 -0.4164 -0.7148  0.1309
 7719SOL     OW34789   2.714   1.756   1.355  0.0428  0.3979  0.2533
 7719SOL    HW134790   2.648   1.720   1.415  1.7959  1.3951  2.7244
 7719SOL    HW234791   2.679   1.840   1.328 -1.6844 -0.2227  0.5554
 7720SOL     OW34792   3.978   1.115   6.928 -0.0301 -0.0560 -0.0489
 7720SOL    HW134793   4.019   1.103   6.843  1.0466  4.4651 -0.1724
 7720SOL    HW234794   3.929   1.033   6.940  1.5898 -1.0174 -0.0971
 7721SOL     OW34795   1.251   1.386  13.112  0.3749  0.8435  0.6538
 7721SOL    HW134796   1.299   1.438  13.049 -1.9691 -0.4447 -2.2044
 7721SOL    HW234797   1.313   1.314  13.125  0.5015  0.9479  0.6238
 7722SOL     OW34798   4.731   4.034  12.235  0.0890  0.6907  0.1294
 7722SOL    HW134799   0.081   4.005  12.262 -0.2864  1.6644  2.4169
 7722SOL    HW234800   4.723   4.000  12.146 -0.8401 -0.1469  0.5289
 7723SOL     OW34801   0.952   0.039   4.884  0.2159 -0.4208 -0.0482
 7723SOL    HW134802   0.895   0.113   4.865 -1.9086 -1.9553  0.3404
 7723SOL    HW234803   0.928   4.712   4.817  4.0371 -1.4524 -0.4328
 7724SOL     OW34804   1.548   1.625  13.455 -0.2160  0.5306 -0.9853
 7724SOL    HW134805   1.469   1.574  13.437  0.1562 -0.8982  1.2719
 7724SOL    HW234806   1.609   1.590  13.390  1.7830  0.5830  0.8411
 7725SOL     OW34807   4.019   4.427   1.520 -0.2418  0.3165  0.4587
 7725SOL    HW134808   4.089   4.362   1.508 -2.2795 -1.4272 -2.0407
 7725SOL    HW234809   4.047   4.481   1.594 -0.9836  1.3159  0.0022
 7726SOL     OW34810   0.454   2.051  13.623  0.7311  0.0148  0.1653
 7726SOL    HW134811   0.512   2.074  13.696 -0.7501  1.7996  0.7906
 7726SOL    HW234812   0.524   2.042  13.559 -1.8407 -3.6097 -2.1374
 7727SOL     OW34813   3.552   4.664   6.154  0.3047 -0.2819  0.5172
 7727SOL    HW134814   3.584   4.599   6.216  2.5040 -1.5005 -1.8750
 7727SOL    HW234815   3.571   4.736   6.214 -2.2625  0.8521 -0.0527
 7728SOL     OW34816   3.190   4.415  11.263 -0.6584  0.3063 -0.1304
 7728SOL    HW134817   3.236   4.392  11.344  1.2708 -1.3737 -1.7160
 7728SOL    HW234818   3.105   4.372  11.277  0.2234 -1.4747 -0.2587
 7729SOL     OW34819   3.932   3.435  12.137  0.1060 -0.3787  0.2470
 7729SOL    HW134820   3.964   3.502  12.076 -0.4531  0.4513  0.8548
 7729SOL    HW234821   3.903   3.495  12.206 -1.9133  1.3861 -2.1271
 7730SOL     OW34822   4.423   1.416  11.497 -0.0817  0.0068 -0.3271
 7730SOL    HW134823   4.397   1.508  11.493  1.3593  0.5063  1.7464
 7730SOL    HW234824   4.366   1.384  11.428 -1.1450  0.6223  0.2633
 7731SOL     OW34825   3.510   2.516   4.362 -0.1696 -0.4553  0.7428
 7731SOL    HW134826   3.462   2.529   4.444  1.1648  1.6226  1.1946
 7731SOL    HW234827   3.596   2.555   4.378  0.3807 -0.8176 -1.3721
 7732SOL     OW34828   1.675   2.548  14.552 -0.1596  0.4846 -0.0452
 7732SOL    HW134829   1.617   2.488  14.504 -1.4829  0.4347  1.6040
 7732SOL    HW234830   1.755   2.542  14.501 -0.1337 -0.2666  0.0918
 7733SOL     OW34831   0.792   0.994  15.646  0.2961  0.2224  0.3097
 7733SOL    HW134832   0.831   1.009  15.733 -0.2691  2.8699  0.1088
 7733SOL    HW234833   0.825   1.063  15.588  2.3803 -1.6182 -0.6955
 7734SOL     OW34834   1.970   1.196   6.764 -0.0401  0.4481 -0.0414
 7734SOL    HW134835   1.959   1.119   6.708  0.6975 -0.2727  0.8078
 7734SOL    HW234836   2.037   1.249   6.722  1.4706 -0.5532  1.0775
 7735SOL     OW34837   2.884   0.289   7.978 -1.1455  0.6430  1.0395
 7735SOL    HW134838   2.897   0.217   7.916  2.3538  2.9615 -0.9194
 7735SOL    HW234839   2.871   0.364   7.919  0.6630  1.8849  2.2185
 7736SOL     OW34840   1.036   0.314   6.741 -0.3423 -0.4918  0.3881
 7736SOL    HW134841   1.053   0.255   6.815  0.4459  1.4931  1.7902
 7736SOL    HW234842   1.079   0.394   6.770 -1.1256  0.2037 -0.4208
 7737SOL     OW34843   1.041   1.062   8.178  0.0957 -0.6879  0.4683
 7737SOL    HW134844   1.132   1.066   8.209  0.5483 -1.9467 -0.7429
 7737SOL    HW234845   1.026   1.156   8.182 -2.5027 -1.1191  0.8708
 7738SOL     OW34846   3.010   1.410   4.579  0.3587  0.1389  0.0896
 7738SOL    HW134847   2.974   1.346   4.641  1.6827 -0.2850  0.4263
 7738SOL    HW234848   3.097   1.372   4.572  0.1203 -0.8525  2.4011
 7739SOL     OW34849   2.885   2.613   6.498  0.3271 -0.2193 -0.0945
 7739SOL    HW134850   2.845   2.700   6.491  0.5289 -0.1381 -0.2433
 7739SOL    HW234851   2.966   2.626   6.449  0.3199 -0.6319 -0.2184
 7740SOL     OW34852   1.657   0.726   4.082 -0.1948  0.3813  0.2234
 7740SOL    HW134853   1.688   0.639   4.056 -0.8330  0.4000 -0.5946
 7740SOL    HW234854   1.594   0.720   4.155 -0.2185  1.5015  0.2975
 7741SOL     OW34855   2.131   4.306   4.031 -0.7286 -0.1123  0.0984
 7741SOL    HW134856   2.168   4.394   4.021 -1.3137 -0.1359 -2.4724
 7741SOL    HW234857   2.208   4.251   4.018  0.1339  0.6594  1.9192
 7742SOL     OW34858   1.674   2.153   6.104  0.3349  0.2079  0.9529
 7742SOL    HW134859   1.615   2.147   6.179 -2.2244  0.6187 -1.0159
 7742SOL    HW234860   1.638   2.233   6.066  0.3838 -0.9564 -1.5725
 7743SOL     OW34861   0.974   0.704   9.108  0.1131  0.1138  0.4373
 7743SOL    HW134862   0.998   0.695   9.016  0.2156 -2.9729  0.7791
 7743SOL    HW234863   1.035   0.775   9.130  0.4892 -0.3419  0.8585
 7744SOL     OW34864   1.310   2.032   8.815  0.3836  0.3598  0.0876
 7744SOL    HW134865   1.229   2.049   8.767 -0.0781 -0.8840  0.4330
 7744SOL    HW234866   1.379   2.008   8.752  1.5751  0.6831  1.2723
 7745SOL     OW34867   4.575   1.788  11.848  0.4327 -0.1278  0.0214
 7745SOL    HW134868   4.610   1.864  11.894  0.2827 -1.3932  2.2467
 7745SOL    HW234869   4.623   1.716  11.890 -1.2627 -0.0824  2.0256
 7746SOL     OW34870   2.071   2.189   2.382 -0.0265 -0.5090 -0.6992
 7746SOL    HW134871   2.059   2.116   2.443 -1.8901  0.1493 -0.2785
 7746SOL    HW234872   2.041   2.156   2.298  0.6444 -2.9568  0.0279
 7747SOL     OW34873   1.291   3.322   9.643 -0.1176  0.7028  0.0696
 7747SOL    HW134874   1.285   3.254   9.710  0.3633 -0.3226 -0.9350
 7747SOL    HW234875   1.380   3.355   9.655 -0.2520  1.1064 -0.0257
 7748SOL     OW34876   4.442   3.030   5.684  0.2968  0.4385 -0.2498
 7748SOL    HW134877   4.381   2.964   5.716  0.6911  0.4300  0.4987
 7748SOL    HW234878   4.435   3.092   5.757  1.2711 -0.4690  0.6206
 7749SOL     OW34879   1.131   1.660   7.323  0.1247  1.1377  0.1706
 7749SOL    HW134880   1.226   1.658   7.329  0.1489  1.0191 -0.2954
 7749SOL    HW234881   1.108   1.634   7.234  0.9171  0.2994  0.2198
 7750SOL     OW34882   2.408   1.501   8.974 -0.1710  0.1829 -0.6238
 7750SOL    HW134883   2.403   1.596   8.977 -0.6568  0.1769 -1.3951
 7750SOL    HW234884   2.317   1.475   8.986  0.2593 -1.4080 -0.7384
 7751SOL     OW34885   1.601   2.511   2.440  0.5515  0.6836 -0.1123
 7751SOL    HW134886   1.556   2.558   2.371  0.7831 -1.9591 -2.0775
 7751SOL    HW234887   1.526   2.474   2.487  0.6334 -0.5441 -0.9473
 7752SOL     OW34888   2.767   4.006   5.608 -0.4965 -0.5011  0.5916
 7752SOL    HW134889   2.832   4.069   5.639  1.1442 -2.8886  2.0398
 7752SOL    HW234890   2.699   4.003   5.675 -0.9953  1.7380  0.1810
 7753SOL     OW34891   3.359   0.509   7.789  0.7564  0.2854  0.5756
 7753SOL    HW134892   3.421   0.580   7.805  0.1565  0.5507  1.7009
 7753SOL    HW234893   3.405   0.454   7.726  1.4741  1.4566  0.0854
 7754SOL     OW34894   3.077   1.276  11.108  0.4413 -0.3893 -0.7110
 7754SOL    HW134895   3.019   1.292  11.183  0.9232 -1.1119 -0.1867
 7754SOL    HW234896   3.093   1.181  11.107  0.4704 -0.4020  0.7345
 7755SOL     OW34897   3.586   3.537  16.756  0.1520 -0.1095 -0.4072
 7755SOL    HW134898   3.612   3.588  16.833 -0.0447 -0.1983 -0.2798
 7755SOL    HW234899   3.508   3.579  16.719 -2.1475 -3.0379  1.0859
 7756SOL     OW34900   0.102   3.705   2.296  0.0691  0.3717  0.5708
 7756SOL    HW134901   0.145   3.620   2.306 -2.0864 -0.8352 -0.3185
 7756SOL    HW234902   0.115   3.740   2.384  0.8582 -1.1947  1.0680
 7757SOL     OW34903   0.794   4.130   8.883 -1.0829 -0.0436 -0.3145
 7757SOL    HW134904   0.867   4.079   8.918 -1.3077  1.0917  1.8320
 7757SOL    HW234905   0.794   4.106   8.791  1.6855  1.8324 -0.7900
 7758SOL     OW34906   0.160   1.879   8.990 -0.5597  0.0837  0.7808
 7758SOL    HW134907   0.141   1.904   9.080 -1.1869 -2.1906  1.2846
 7758SOL    HW234908   0.077   1.907   8.951 -0.6295 -1.1879 -0.0149
 7759SOL     OW34909   2.880   1.407   2.249 -0.1985  0.0227  0.6164
 7759SOL    HW134910   2.958   1.381   2.300  1.1722 -0.9424 -1.9890
 7759SOL    HW234911   2.830   1.325   2.248  2.5911 -1.7003  0.1259
 7760SOL     OW34912   2.541   1.935   5.226 -0.1222 -0.1146 -0.3197
 7760SOL    HW134913   2.501   1.857   5.266 -0.6179  0.9619  1.2594
 7760SOL    HW234914   2.462   1.988   5.216 -0.6207 -0.7210  0.4123
 7761SOL     OW34915   2.705   0.211   4.755 -0.5577 -0.9539 -0.3879
 7761SOL    HW134916   2.794   0.175   4.758  0.6017  1.9054 -0.7090
 7761SOL    HW234917   2.687   0.222   4.848 -1.0199  0.2705 -0.6233
 7762SOL     OW34918   3.185   0.635   8.610  0.1112  0.5605 -0.4117
 7762SOL    HW134919   3.164   0.559   8.556  0.1866  1.4386 -1.6681
 7762SOL    HW234920   3.204   0.591   8.693  1.2475  1.3911 -0.2309
 7763SOL     OW34921   3.708   4.065  17.125  0.9396  0.3139  0.3351
 7763SOL    HW134922   3.667   4.079  17.040  0.1457  1.0027  0.8250
 7763SOL    HW234923   3.766   3.992  17.108  0.0969 -0.3879  0.4807
 7764SOL     OW34924   2.829   2.636   7.828  0.0102  0.1279  0.0286
 7764SOL    HW134925   2.865   2.695   7.762 -2.0531 -0.3217 -1.4836
 7764SOL    HW234926   2.880   2.561   7.799 -0.2296  0.3990 -1.0965
 7765SOL     OW34927   1.056   3.766   8.238 -0.5506 -0.0024  0.0346
 7765SOL    HW134928   1.090   3.682   8.208  0.1872 -0.4886  2.2705
 7765SOL    HW234929   1.054   3.742   8.331 -1.0784  0.2595  0.0892
 7766SOL     OW34930   1.445   1.322  12.338  0.1027 -0.1911  0.1920
 7766SOL    HW134931   1.356   1.301  12.308 -0.6171  1.1969  1.4046
 7766SOL    HW234932   1.453   1.400  12.283 -1.9759 -0.4949 -0.5659
 7767SOL     OW34933   0.751   1.339   2.204  0.0855 -0.0795  0.3525
 7767SOL    HW134934   0.845   1.332   2.217 -0.0134  1.6427  1.8736
 7767SOL    HW234935   0.717   1.401   2.267  0.1143  1.3063 -0.9911
 7768SOL     OW34936   2.127   0.696   2.966 -0.1839 -0.2829  0.6284
 7768SOL    HW134937   2.082   0.620   3.005  0.7465 -0.0701  2.1149
 7768SOL    HW234938   2.202   0.659   2.919 -0.0989 -2.4132  2.4379
 7769SOL     OW34939   3.398   1.614   7.145 -0.0682 -0.1253 -0.2598
 7769SOL    HW134940   3.302   1.614   7.138 -0.1063 -2.5788  0.3970
 7769SOL    HW234941   3.406   1.534   7.197  0.2330  0.1074  0.0517
 7770SOL     OW34942   4.735   1.787   6.471 -0.3128  0.0562  0.7271
 7770SOL    HW134943   4.728   1.883   6.474 -0.2662  0.0152  2.2152
 7770SOL    HW234944   0.070   1.779   6.409  0.0279  1.2304  0.9540
 7771SOL     OW34945   1.294   2.229   9.021  0.1723  0.3695 -0.5022
 7771SOL    HW134946   1.275   2.173   8.946 -0.6445 -1.3640  0.9784
 7771SOL    HW234947   1.226   2.200   9.083 -0.6060 -0.0558 -1.5507
 7772SOL     OW34948   3.946   2.262  17.658 -0.2680 -0.2124 -0.0803
 7772SOL    HW134949   4.021   2.243  17.601  0.9363  4.8651 -0.1877
 7772SOL    HW234950   3.938   2.352  17.628  2.6771  0.0818  0.0347
 7773SOL     OW34951   3.919   0.981   5.958 -1.0731  0.2579 -0.4329
 7773SOL    HW134952   3.943   1.070   5.981  0.3324  0.0058 -0.8832
 7773SOL    HW234953   3.946   0.940   6.040  0.8621  1.9903 -0.2055
 7774SOL     OW34954   0.845   4.054   2.547 -0.2249 -0.0589 -0.5372
 7774SOL    HW134955   0.790   4.120   2.589  0.6665  1.4025 -1.6581
 7774SOL    HW234956   0.827   4.076   2.455 -2.5211  1.3310  0.2405
 7775SOL     OW34957   2.278   2.009   7.245  0.0464 -0.1450  0.2048
 7775SOL    HW134958   2.346   2.071   7.220 -0.0149 -0.7538 -1.4601
 7775SOL    HW234959   2.252   1.964   7.165  0.0551  0.2149 -0.0014
 7776SOL     OW34960   3.051   1.294  11.638  0.0072 -0.4413  0.1041
 7776SOL    HW134961   3.009   1.236  11.701 -1.4728 -1.9772 -2.3035
 7776SOL    HW234962   3.112   1.350  11.687 -0.9918  2.1643 -1.5757
 7777SOL     OW34963   3.808   4.347  15.918  0.0406 -0.1632  0.1098
 7777SOL    HW134964   3.747   4.330  15.990 -0.3328  0.2478 -0.1114
 7777SOL    HW234965   3.843   4.433  15.943 -0.8771  0.3564 -0.4006
 7778SOL     OW34966   4.481   2.301   9.050  0.8454 -0.0700  0.0292
 7778SOL    HW134967   4.575   2.296   9.031  0.6880 -3.5123  0.2594
 7778SOL    HW234968   4.440   2.274   8.968  0.4540  4.3623 -1.2592
 7779SOL     OW34969   3.190   0.571   3.944 -0.2868  0.1295 -0.1778
 7779SOL    HW134970   3.165   0.521   4.022 -0.3046 -0.2113 -0.4040
 7779SOL    HW234971   3.153   0.518   3.874  0.4452 -0.8711  0.1991
 7780SOL     OW34972   0.045   1.203  12.386 -0.5679  0.0096  0.3040
 7780SOL    HW134973   0.093   1.250  12.455 -0.0932  0.5909 -0.4221
 7780SOL    HW234974   0.087   1.223  12.302 -0.5762 -1.1250  0.0321
 7781SOL     OW34975   2.889   0.520  16.059 -0.0967  0.7686  0.1033
 7781SOL    HW134976   2.943   0.589  16.097 -0.1392  1.4452 -1.0698
 7781SOL    HW234977   2.816   0.537  16.119  0.2457  2.0454  0.1601
 7782SOL     OW34978   4.672   2.041  10.660 -0.2457 -0.1828  0.4623
 7782SOL    HW134979   0.000   2.111  10.654  0.9880 -1.5731 -2.1601
 7782SOL    HW234980   4.636   2.042  10.749 -0.5736 -0.7137  0.3344
 7783SOL     OW34981   4.085   4.349   2.770  0.4932 -0.2308 -1.2240
 7783SOL    HW134982   4.109   4.266   2.811  0.5723 -0.2519 -1.3134
 7783SOL    HW234983   4.084   4.413   2.841 -1.5863  0.2597 -1.6936
 7784SOL     OW34984   4.327   2.464   2.287  0.7764 -0.2088 -0.1250
 7784SOL    HW134985   4.245   2.509   2.310 -0.5597 -1.8338 -1.7493
 7784SOL    HW234986   4.296   2.380   2.256  0.9181 -0.2872 -0.0537
 7785SOL     OW34987   1.533   0.428   9.591  0.5078 -0.2119  0.5244
 7785SOL    HW134988   1.523   0.418   9.497  4.2161 -0.6960  0.1788
 7785SOL    HW234989   1.616   0.381   9.602  1.6976  1.6087 -0.7753
 7786SOL     OW34990   0.176   0.775   3.786 -0.1042  0.3022  0.4265
 7786SOL    HW134991   0.269   0.752   3.796 -0.0203 -0.1828 -1.4825
 7786SOL    HW234992   0.176   0.867   3.813  0.1253  0.6402 -0.7086
 7787SOL     OW34993   2.379   1.589   5.415 -0.3941 -0.6843  0.9614
 7787SOL    HW134994   2.310   1.561   5.475 -0.6559 -2.6488 -0.2408
 7787SOL    HW234995   2.371   1.530   5.340 -0.8729  1.5629 -0.7165
 7788SOL     OW34996   0.284   3.476   7.325  0.5118  0.3120 -0.2200
 7788SOL    HW134997   0.322   3.437   7.403  2.6305  1.2837 -0.7607
 7788SOL    HW234998   0.236   3.549   7.363  0.4197  0.3810 -0.4659
 7789SOL     OW34999   1.015   2.370   1.714  0.0499 -0.4347  0.4381
 7789SOL    HW135000   0.940   2.409   1.759 -0.5904  0.7323 -1.6563
 7789SOL    HW235001   1.037   2.297   1.773 -0.1842 -1.7341 -1.1109
 7790SOL     OW35002   4.518   1.645   7.249  0.1204  0.1723 -0.1420
 7790SOL    HW135003   4.477   1.570   7.207  0.5920  0.1306 -0.5197
 7790SOL    HW235004   4.573   1.677   7.177 -0.6603  1.5873 -0.1129
 7791SOL     OW35005   2.930   3.879  17.109 -0.1191  0.2709 -0.0140
 7791SOL    HW135006   2.881   3.851  17.187 -1.0913  1.6393 -0.1312
 7791SOL    HW235007   2.930   3.974  17.105 -1.0815  0.3176  1.2202
 7792SOL     OW35008   1.145   3.922   4.141 -0.2417  0.0668  0.6399
 7792SOL    HW135009   1.144   4.012   4.175 -0.3193  0.3431 -0.0778
 7792SOL    HW235010   1.199   3.877   4.205  1.3874  0.8327 -0.1910
 7793SOL     OW35011   1.176   1.248  12.245 -0.7014 -0.0922 -0.0589
 7793SOL    HW135012   1.138   1.242  12.157 -2.8300  0.4263  0.8303
 7793SOL    HW235013   1.155   1.164  12.286 -0.5108 -0.2629 -0.3079
 7794SOL     OW35014   1.696   1.196   7.388  0.5532 -0.3164 -0.3281
 7794SOL    HW135015   1.631   1.128   7.405  1.3359 -0.9028  0.3222
 7794SOL    HW235016   1.645   1.275   7.407  0.9900  0.0094 -0.5076
 7795SOL     OW35017   0.081   4.587   3.409 -0.0658  0.4332 -0.5352
 7795SOL    HW135018   0.174   4.570   3.429  0.0097  1.4495 -0.0559
 7795SOL    HW235019   0.037   4.524   3.466  1.7190 -0.0549  0.3213
 7796SOL     OW35020   3.375   0.210   6.170 -0.0738  0.1115 -0.1311
 7796SOL    HW135021   3.325   0.135   6.203  1.0715 -1.5195 -2.1473
 7796SOL    HW235022   3.421   0.251   6.243  1.3178 -2.1943  0.2902
 7797SOL     OW35023   1.050   0.142   6.953  0.4950  0.1559 -0.4036
 7797SOL    HW135024   0.968   0.116   6.996  0.9791  0.2372  0.5602
 7797SOL    HW235025   1.088   0.060   6.921  2.0108  0.8426 -0.3652
 7798SOL     OW35026   3.097   2.267   1.852 -0.0133  0.2033  0.0832
 7798SOL    HW135027   3.024   2.250   1.793  0.8966 -0.7731 -0.7387
 7798SOL    HW235028   3.067   2.347   1.896  0.1683 -0.9619  2.3322
 7799SOL     OW35029   3.083   3.655   9.018  0.5434  0.2159  0.2791
 7799SOL    HW135030   3.114   3.724   9.076  2.9842  1.0881 -2.0537
 7799SOL    HW235031   3.104   3.575   9.067  1.4423 -0.3292 -1.0018
 7800SOL     OW35032   3.801   4.206   6.062 -0.4762  0.3590  0.1919
 7800SOL    HW135033   3.715   4.174   6.034  0.3453  0.6802 -2.6481
 7800SOL    HW235034   3.803   4.275   5.995 -1.8688 -0.3661 -0.5847
 7801SOL     OW35035   2.096   1.515  17.219 -0.7278 -0.4777  0.0089
 7801SOL    HW135036   2.059   1.604  17.217  1.0225  0.2276 -1.2617
 7801SOL    HW235037   2.191   1.525  17.226 -0.7299 -0.6191  0.2627
 7802SOL     OW35038   3.169   2.628   3.943 -0.1193 -0.2111 -0.2668
 7802SOL    HW135039   3.088   2.578   3.933  0.3865 -0.9639 -0.5558
 7802SOL    HW235040   3.192   2.651   3.853 -0.4323  1.2166  0.0067
 7803SOL     OW35041   0.756   4.714  16.694  0.2790 -0.0694  0.1521
 7803SOL    HW135042   0.740   4.676  16.781 -0.3200 -1.6309 -0.6301
 7803SOL    HW235043   0.829   0.035  16.717  1.3641 -1.8090  1.0938
 7804SOL     OW35044   3.702   3.187   5.908 -0.2323 -0.1358 -0.0454
 7804SOL    HW135045   3.750   3.104   5.901  3.1821  1.5587  3.5446
 7804SOL    HW235046   3.729   3.229   5.826  0.3322  0.3495  0.3873
 7805SOL     OW35047   4.084   3.191   7.695 -0.4572  0.2947  0.1570
 7805SOL    HW135048   4.023   3.160   7.628  0.4262  0.0047 -0.5154
 7805SOL    HW235049   4.038   3.194   7.779 -0.3592  1.4992  0.1689
 7806SOL     OW35050   2.140   3.072  15.391  0.1581  0.5123  0.0329
 7806SOL    HW135051   2.048   3.070  15.418  0.3771  3.7498  1.0772
 7806SOL    HW235052   2.149   2.981  15.362  0.8718  0.0746  1.5850
 7807SOL     OW35053   2.293   1.191   6.267  0.0113 -0.0459  0.2786
 7807SOL    HW135054   2.319   1.216   6.179  1.6413 -0.8477  0.5343
 7807SOL    HW235055   2.226   1.126   6.245  1.9092 -1.6431 -0.7921
 7808SOL     OW35056   1.645   1.005   8.739  0.3620  0.0535 -0.8544
 7808SOL    HW135057   1.695   1.027   8.661  2.6047  0.3197  0.6390
 7808SOL    HW235058   1.600   0.930   8.701 -0.5330 -0.1794  0.6570
 7809SOL     OW35059   3.125   2.405   2.623  0.7994 -0.2152 -0.1749
 7809SOL    HW135060   3.148   2.495   2.598 -0.3474  0.5627  1.5607
 7809SOL    HW235061   3.205   2.355   2.607  1.9154  1.9502 -1.4978
 7810SOL     OW35062   3.624   1.343   3.716  0.6938  0.6912  0.2755
 7810SOL    HW135063   3.567   1.268   3.700  1.5353  0.5578 -2.0872
 7810SOL    HW235064   3.688   1.296   3.770 -0.1256  0.9662  1.4911
 7811SOL     OW35065   3.152   2.375   0.981  0.3188  0.5453 -0.3642
 7811SOL    HW135066   3.133   2.283   1.000 -0.2809  0.8987  0.7445
 7811SOL    HW235067   3.181   2.401   1.068  1.0893  0.0996 -0.4853
 7812SOL     OW35068   2.738   0.102   3.424  0.0121 -0.0236  0.0417
 7812SOL    HW135069   2.744   0.132   3.333 -1.6698  0.0782 -0.0314
 7812SOL    HW235070   2.796   0.026   3.421  0.0721  0.0890 -1.6297
 7813SOL     OW35071   0.026   0.127   7.809  0.2889 -0.1101 -0.1380
 7813SOL    HW135072   0.036   0.172   7.892 -1.3295 -0.0910  0.0289
 7813SOL    HW235073   0.011   0.036   7.836 -0.5805  0.2321  0.5236
 7814SOL     OW35074   3.518   3.140   0.285 -0.0045 -0.0684 -0.6457
 7814SOL    HW135075   3.501   3.080   0.357  1.4423  0.7122  0.3403
 7814SOL    HW235076   3.595   3.090   0.256 -0.8264 -1.0289 -1.1663
 7815SOL     OW35077   2.359   2.809   1.939 -0.0481  0.1027 -0.9232
 7815SOL    HW135078   2.416   2.885   1.953  0.6015 -0.5064 -0.2433
 7815SOL    HW235079   2.421   2.739   1.959 -0.3844 -0.0515 -0.4056
 7816SOL     OW35080   2.111   1.798   7.131  0.0001 -0.5842  0.2076
 7816SOL    HW135081   2.018   1.823   7.129  0.0753 -0.1514  1.6794
 7816SOL    HW235082   2.135   1.838   7.048  0.0806 -1.3279 -0.1325
 7817SOL     OW35083   2.359   1.476   9.277 -0.3019 -0.1112  0.1776
 7817SOL    HW135084   2.299   1.405   9.253 -2.4612  1.3386  1.2589
 7817SOL    HW235085   2.309   1.556   9.262 -0.8747 -0.4176  0.4438
 7818SOL     OW35086   4.238   2.786   4.397  0.5891 -0.2310  0.0017
 7818SOL    HW135087   4.243   2.690   4.403 -1.7191 -0.2860  0.9667
 7818SOL    HW235088   4.319   2.815   4.439  0.3904  1.8602 -1.1122
 7819SOL     OW35089   1.592   2.254   5.281 -0.1273  0.1773  0.3483
 7819SOL    HW135090   1.617   2.311   5.355 -1.2145  0.1762  0.7171
 7819SOL    HW235091   1.674   2.252   5.232 -1.1732 -0.9539 -1.3520
 7820SOL     OW35092   0.396   0.715  14.060  0.1342  0.7646 -0.1069
 7820SOL    HW135093   0.418   0.783  14.124  0.0547  0.0145  0.7178
 7820SOL    HW235094   0.437   0.755  13.984  0.3534 -0.7569 -0.7908
 7821SOL     OW35095   1.127   4.645  10.826  0.5551 -0.1239  0.2805
 7821SOL    HW135096   1.037   4.640  10.792  0.1388 -2.2502  1.6726
 7821SOL    HW235097   1.161   4.555  10.825 -1.8675 -1.0350 -1.5791
 7822SOL     OW35098   3.507   1.404  12.350  0.6318  0.2675 -0.6273
 7822SOL    HW135099   3.509   1.389  12.256  0.7316 -0.3739 -0.5186
 7822SOL    HW235100   3.555   1.487  12.348 -1.5301  1.5916  1.8368
 7823SOL     OW35101   2.763   0.552   8.460  0.1989  0.0323 -0.6525
 7823SOL    HW135102   2.673   0.532   8.433  0.1395 -0.7583  0.1487
 7823SOL    HW235103   2.753   0.643   8.488  1.7754 -0.0655  0.1934
 7824SOL     OW35104   0.268   3.011   3.730 -0.0026 -0.1698  0.2763
 7824SOL    HW135105   0.250   2.954   3.655 -0.5069  0.9945 -0.4799
 7824SOL    HW235106   0.267   2.948   3.802 -1.5058  1.3850  1.6147
 7825SOL     OW35107   2.451   3.516   7.237  0.1616 -0.0806 -0.1656
 7825SOL    HW135108   2.407   3.538   7.155  0.3005 -1.2264 -0.5363
 7825SOL    HW235109   2.526   3.575   7.230 -0.4488  0.8873  1.3158
 7826SOL     OW35110   4.691   0.111   1.164 -0.0055 -0.1828 -0.2398
 7826SOL    HW135111   0.036   0.095   1.117 -0.6255 -0.8023 -1.1183
 7826SOL    HW235112   4.637   0.033   1.150  0.1372 -0.7130  2.2442
 7827SOL     OW35113   4.619   3.006  16.541 -0.1381  0.3466 -0.9268
 7827SOL    HW135114   4.679   2.932  16.530 -1.5117 -0.9452  0.2270
 7827SOL    HW235115   4.684   3.072  16.564 -0.0125 -0.1183  0.0518
 7828SOL     OW35116   3.429   4.346  13.114  0.1774  0.2707 -0.4528
 7828SOL    HW135117   3.354   4.296  13.082 -0.9015  1.0198  0.9179
 7828SOL    HW235118   3.497   4.305  13.060 -1.4949 -1.5395 -1.1875
 7829SOL     OW35119   0.340   1.648   9.359 -0.2388  0.3055  0.2524
 7829SOL    HW135120   0.338   1.677   9.450  0.5756 -0.2236  0.4405
 7829SOL    HW235121   0.379   1.728   9.323 -0.8680  1.1855  1.5380
 7830SOL     OW35122   0.012   1.772   0.591  0.1510  0.6848  0.4782
 7830SOL    HW135123   0.019   1.716   0.514 -3.7294  0.6955  0.1232
 7830SOL    HW235124   0.091   1.742   0.637 -0.5433 -3.9604 -1.4769
 7831SOL     OW35125   4.082   1.166  13.626  0.3284  0.4635  0.5576
 7831SOL    HW135126   4.063   1.259  13.639 -3.1322 -0.1286 -0.1194
 7831SOL    HW235127   4.175   1.175  13.608  0.2831 -1.8277 -0.7742
 7832SOL     OW35128   2.596   3.778  13.411  0.1847 -0.0883  0.1043
 7832SOL    HW135129   2.664   3.837  13.379  0.1979  0.1453  0.5750
 7832SOL    HW235130   2.536   3.851  13.421  1.8308  1.2380  0.3108
 7833SOL     OW35131   2.159   0.544   2.452  0.0281  0.0040 -0.5279
 7833SOL    HW135132   2.147   0.548   2.357 -0.0505 -1.3848 -0.5694
 7833SOL    HW235133   2.112   0.619   2.490  0.6180  1.0534 -1.8523
 7834SOL     OW35134   0.296   0.776   8.505  0.2459  0.4811 -0.2665
 7834SOL    HW135135   0.279   0.682   8.496 -1.5280  0.8153 -0.4949
 7834SOL    HW235136   0.227   0.812   8.450 -0.5876  0.3061  0.6613
 7835SOL     OW35137   0.908   1.883  12.645 -0.1630 -0.2385 -0.1447
 7835SOL    HW135138   0.887   1.850  12.558 -1.7225 -2.2155  0.9544
 7835SOL    HW235139   0.857   1.964  12.642  1.6334  0.7586 -3.2658
 7836SOL     OW35140   4.352   1.497   0.860 -0.2404  0.0554 -0.2816
 7836SOL    HW135141   4.402   1.569   0.823  0.8072 -0.5538 -0.0647
 7836SOL    HW235142   4.417   1.435   0.893 -1.1160 -0.7094  0.0156
 7837SOL     OW35143   3.081   3.342   8.503 -0.0412 -0.0374 -0.6660
 7837SOL    HW135144   3.016   3.281   8.537 -1.2620  1.1688 -0.8532
 7837SOL    HW235145   3.107   3.281   8.433 -2.1520 -0.1130 -1.3866
 7838SOL     OW35146   4.726   3.602   9.567 -0.1777  0.2015 -0.0399
 7838SOL    HW135147   4.683   3.570   9.487  2.6538  2.3548 -2.4302
 7838SOL    HW235148   4.732   3.532   9.633 -0.2790  0.3790  0.1560
 7839SOL     OW35149   1.875   1.304   1.770  0.2553 -0.5087 -0.4317
 7839SOL    HW135150   1.921   1.340   1.694 -0.5165  0.2964 -0.5056
 7839SOL    HW235151   1.790   1.348   1.764  1.6808  2.2234 -0.6910
 7840SOL     OW35152   0.498   3.240  15.056 -0.1530 -0.1510  0.0498
 7840SOL    HW135153   0.437   3.311  15.077  0.9599  1.7873 -3.3437
 7840SOL    HW235154   0.485   3.228  14.962  0.5387  2.9036 -0.4413
 7841SOL     OW35155   1.618   3.266   8.797  0.6795  0.1243  0.3958
 7841SOL    HW135156   1.689   3.212   8.763  0.1214  0.0891 -0.7417
 7841SOL    HW235157   1.638   3.259   8.890 -0.4046 -1.9869  0.4533
 7842SOL     OW35158   3.274   4.257   3.609 -0.0885 -0.6679 -0.1553
 7842SOL    HW135159   3.199   4.310   3.636 -0.0289  0.2598 -1.7983
 7842SOL    HW235160   3.258   4.260   3.514  4.4995  1.8636 -0.8894
 7843SOL     OW35161   1.214   0.234   1.673  0.1025 -0.2533 -0.6807
 7843SOL    HW135162   1.147   0.276   1.728  0.7623 -0.3143  0.1716
 7843SOL    HW235163   1.296   0.273   1.704 -0.3474 -1.8192  2.4384
 7844SOL     OW35164   1.212   1.614   8.065 -0.7243 -0.2882  0.0679
 7844SOL    HW135165   1.166   1.615   8.149 -2.5785 -0.8211 -0.9457
 7844SOL    HW235166   1.298   1.577   8.082 -1.9764 -3.3201 -0.1567
 7845SOL     OW35167   4.163   2.358   1.629  0.1341  0.4107  0.1926
 7845SOL    HW135168   4.140   2.273   1.591  0.1694  0.8555 -0.8127
 7845SOL    HW235169   4.113   2.363   1.710  0.3637  0.5537  0.3249
 7846SOL     OW35170   2.454   0.929   3.059  0.0516  0.2986 -0.0032
 7846SOL    HW135171   2.386   0.889   3.114  1.2724  1.0006  2.0054
 7846SOL    HW235172   2.525   0.923   3.122  1.4364 -1.0467 -1.6950
 7847SOL     OW35173   1.102   2.324  13.728 -0.1404  0.0932 -0.1989
 7847SOL    HW135174   1.165   2.294  13.793 -0.2924 -0.2792 -0.2240
 7847SOL    HW235175   1.137   2.410  13.705 -0.8668  0.1488 -1.0993
 7848SOL     OW35176   2.138   3.069   4.636  0.1493  0.4642 -0.0835
 7848SOL    HW135177   2.171   3.097   4.722 -2.2935  1.7769  0.4525
 7848SOL    HW235178   2.222   3.069   4.591  0.9872 -1.3938  1.4716
 7849SOL     OW35179   2.610   2.823   2.371  0.0285 -0.1648 -0.1789
 7849SOL    HW135180   2.643   2.894   2.427 -1.7239  1.3143 -1.0052
 7849SOL    HW235181   2.641   2.844   2.283  1.3090  0.4847  0.4175
 7850SOL     OW35182   3.604   1.368   4.417 -0.9005  0.4088 -0.6331
 7850SOL    HW135183   3.645   1.368   4.330  1.1234  1.1996  0.3391
 7850SOL    HW235184   3.601   1.461   4.438  2.7159  0.1773  0.8406
 7851SOL     OW35185   4.289   1.771  11.798  0.0317 -0.6077  0.0949
 7851SOL    HW135186   4.263   1.854  11.760  0.9412  0.5596  2.0311
 7851SOL    HW235187   4.381   1.788  11.818  0.6588 -2.6609 -0.9563
 7852SOL     OW35188   4.418   4.572  14.927 -0.2424 -0.0511 -0.1228
 7852SOL    HW135189   4.414   4.548  14.835  1.6082 -1.3041  0.1139
 7852SOL    HW235190   4.336   4.620  14.940  0.1358  0.7509 -0.8049
 7853SOL     OW35191   3.557   1.206   8.990 -0.4815  0.0515 -0.2693
 7853SOL    HW135192   3.536   1.202   8.897  1.0885 -0.9941 -0.5868
 7853SOL    HW235193   3.550   1.112   9.002 -1.5781  0.2519  0.7120
 7854SOL     OW35194   4.464   3.457   3.180 -0.3668  0.1337  0.0334
 7854SOL    HW135195   4.522   3.423   3.112 -0.6988  0.3295 -0.3483
 7854SOL    HW235196   4.387   3.487   3.131 -0.5703  1.0543  0.9155
 7855SOL     OW35197   0.731   4.216   5.199  0.1107  0.3224 -0.3030
 7855SOL    HW135198   0.726   4.131   5.242  1.0411  0.7904  0.7399
 7855SOL    HW235199   0.686   4.195   5.118  0.0829 -0.3671 -0.1059
 7856SOL     OW35200   1.138   3.137  12.461 -0.0993  0.2006  0.3919
 7856SOL    HW135201   1.148   3.133  12.366 -0.8615 -0.7306  0.3526
 7856SOL    HW235202   1.143   3.230  12.484  1.9055  0.4598 -1.0872
 7857SOL     OW35203   4.258   4.259   6.731  0.0705  0.1843  0.2815
 7857SOL    HW135204   4.188   4.263   6.666  0.5886 -0.9180 -0.3439
 7857SOL    HW235205   4.304   4.341   6.710 -1.6735  1.0036 -0.3176
 7858SOL     OW35206   3.829   3.646   3.689 -0.0112 -0.2714 -0.1167
 7858SOL    HW135207   3.759   3.694   3.733  0.9328  0.7657  0.2438
 7858SOL    HW235208   3.839   3.578   3.756  0.3110 -0.1288 -0.0177
 7859SOL     OW35209   2.558   0.747   7.398  0.5854  0.2213  0.0773
 7859SOL    HW135210   2.484   0.705   7.354  0.1371  1.7272 -0.6177
 7859SOL    HW235211   2.595   0.796   7.325  1.0137 -1.4786 -0.8354
 7860SOL     OW35212   2.384   4.465   6.348 -0.4112  0.1398 -0.0752
 7860SOL    HW135213   2.390   4.376   6.313 -0.7608  0.7201 -1.6300
 7860SOL    HW235214   2.451   4.463   6.416 -0.1257 -1.4531 -0.3983
 7861SOL     OW35215   1.236   3.560  17.374 -0.6580  0.5288 -0.1193
 7861SOL    HW135216   1.245   3.558  17.469 -1.7463 -2.4043 -0.0812
 7861SOL    HW235217   1.316   3.609  17.356 -0.8538  1.5981  1.9385
 7862SOL     OW35218   3.181   2.041   3.577  0.6746  0.4452 -0.4436
 7862SOL    HW135219   3.151   2.131   3.587 -0.8357 -0.0362 -0.6916
 7862SOL    HW235220   3.107   2.010   3.525  0.8603 -1.8426  0.6408
 7863SOL     OW35221   2.226   1.219   8.149  0.1008 -0.0819  0.3503
 7863SOL    HW135222   2.161   1.219   8.218 -0.9905  0.2445 -0.6828
 7863SOL    HW235223   2.173   1.216   8.069 -2.3396 -0.4641  1.9869
 7864SOL     OW35224   3.362   0.688   9.771 -0.0638 -0.5191  0.1735
 7864SOL    HW135225   3.433   0.623   9.777  1.0884  0.6822 -0.4844
 7864SOL    HW235226   3.303   0.647   9.708 -0.9955  0.4458  0.4189
 7865SOL     OW35227   1.762   0.785   9.076 -0.6607  0.1710  0.1465
 7865SOL    HW135228   1.801   0.791   9.163  1.2252 -1.0947 -0.6204
 7865SOL    HW235229   1.776   0.690   9.070 -3.5916 -0.4496  3.2486
 7866SOL     OW35230   3.523   2.077  10.587 -0.0439 -0.4301  0.2469
 7866SOL    HW135231   3.524   2.048  10.678 -2.4484  1.8168  0.9855
 7866SOL    HW235232   3.431   2.082  10.562  0.0852 -1.6217 -0.4496
 7867SOL     OW35233   4.715   4.543   6.391 -0.2627 -0.3947  0.4352
 7867SOL    HW135234   0.069   4.551   6.362 -0.3547 -0.2011  0.1970
 7867SOL    HW235235   4.719   4.545   6.486  0.7671  0.2298  0.3814
 7868SOL     OW35236   3.405   0.912  16.734  0.4108 -0.2475  0.0113
 7868SOL    HW135237   3.359   0.828  16.739 -1.0577  0.6296  0.9699
 7868SOL    HW235238   3.407   0.935  16.641 -0.4780 -0.5848 -0.0891
 7869SOL     OW35239   1.171   1.428   2.339 -0.3712  0.2655 -0.0536
 7869SOL    HW135240   1.159   1.399   2.430  1.1899  0.5075  0.2358
 7869SOL    HW235241   1.163   1.523   2.346  0.7350  0.3161  0.5006
 7870SOL     OW35242   4.316   4.123   5.499  0.4230  0.4932  0.7189
 7870SOL    HW135243   4.319   4.161   5.588  0.8968  2.3358 -0.0738
 7870SOL    HW235244   4.386   4.059   5.502  1.1383  1.1404 -2.5019
 7871SOL     OW35245   4.696   0.880  12.603  0.2842 -0.3407  0.6049
 7871SOL    HW135246   4.680   0.795  12.645  1.5449 -0.0328  1.7180
 7871SOL    HW235247   4.669   0.945  12.668  1.4343  0.0086  0.7264
 7872SOL     OW35248   0.162   1.667   8.388  0.4229 -0.4201  0.2170
 7872SOL    HW135249   0.207   1.748   8.365 -0.8043  0.0740 -0.4618
 7872SOL    HW235250   0.230   1.615   8.430  0.4489 -2.5038 -2.4199
 7873SOL     OW35251   0.213   2.954   3.209  0.3600 -0.0590 -0.2662
 7873SOL    HW135252   0.228   3.034   3.260 -0.6745 -0.1085  0.1160
 7873SOL    HW235253   0.119   2.963   3.195  0.1991 -0.7219  0.3797
 7874SOL     OW35254   0.786   0.848   6.836 -0.4084  0.7875 -0.7495
 7874SOL    HW135255   0.773   0.906   6.760 -2.7810 -1.3690 -1.9904
 7874SOL    HW235256   0.691   0.848   6.850 -0.4093  3.1459 -0.7560
 7875SOL     OW35257   1.375   2.385   3.541 -0.2203  0.2072  0.2956
 7875SOL    HW135258   1.304   2.388   3.606 -0.9672  0.5298 -0.5345
 7875SOL    HW235259   1.434   2.327   3.589 -2.3363 -1.9958  0.3024
 7876SOL     OW35260   4.186   1.149   4.428 -0.4024 -0.4097  0.1206
 7876SOL    HW135261   4.111   1.209   4.429  0.6604  0.9104 -1.0661
 7876SOL    HW235262   4.168   1.076   4.488  0.9412  0.0038  1.0230
 7877SOL     OW35263   4.361   3.773  11.698 -0.4731 -0.4166 -0.1496
 7877SOL    HW135264   4.285   3.799  11.645 -1.6712 -0.8883  1.3601
 7877SOL    HW235265   4.380   3.849  11.753  0.3078  0.8238 -2.1145
 7878SOL     OW35266   2.923   4.216   4.432  0.2638 -0.2070 -0.5079
 7878SOL    HW135267   2.954   4.127   4.414 -0.1540 -0.7891  1.6333
 7878SOL    HW235268   2.983   4.250   4.499  0.6536  0.0489 -0.9921
 7879SOL     OW35269   2.553   2.797   3.989  0.4123  0.0245  0.1602
 7879SOL    HW135270   2.481   2.857   3.969 -0.4705 -0.5576  1.6923
 7879SOL    HW235271   2.568   2.745   3.910 -0.4084  0.6831 -0.4274
 7880SOL     OW35272   3.006   3.194   6.072  0.4979 -0.2025  0.0090
 7880SOL    HW135273   3.077   3.130   6.072  0.0548 -0.6990 -0.5753
 7880SOL    HW235274   3.039   3.272   6.115 -0.1307 -0.1942  0.4797
 7881SOL     OW35275   2.530   0.991   3.829  0.1768 -0.4631 -0.5898
 7881SOL    HW135276   2.603   1.041   3.865 -1.0100 -0.3194  1.5613
 7881SOL    HW235277   2.465   1.060   3.819  1.0701  0.7650  2.2948
 7882SOL     OW35278   0.849   3.277   5.872 -0.8850 -0.0931  0.1292
 7882SOL    HW135279   0.850   3.199   5.928 -1.3371 -2.9101 -3.8178
 7882SOL    HW235280   0.834   3.345   5.938 -2.1477 -0.7765  0.5554
 7883SOL     OW35281   1.539   4.305   7.737  0.2738  0.2084 -0.1739
 7883SOL    HW135282   1.505   4.233   7.684 -0.1780  0.6407 -0.4677
 7883SOL    HW235283   1.632   4.288   7.723  0.7444  3.0144 -0.4261
 7884SOL     OW35284   3.119   4.678   7.225 -0.0316 -0.2484  0.0571
 7884SOL    HW135285   3.030   4.713   7.232 -0.4515 -1.5438  1.2200
 7884SOL    HW235286   3.147   4.662   7.315 -2.1562 -4.0549  0.0238
 7885SOL     OW35287   2.004   4.066   2.771 -0.2421  0.2132  0.1050
 7885SOL    HW135288   2.078   4.022   2.812  1.7113  2.1285 -1.3383
 7885SOL    HW235289   2.020   4.153   2.807  1.2078 -0.4934  1.1649
 7886SOL     OW35290   4.011   1.878   6.762  0.1420 -0.1530  0.6403
 7886SOL    HW135291   4.079   1.942   6.784 -0.6746  0.8341  0.2923
 7886SOL    HW235292   3.937   1.937   6.746  0.4528  0.2042  0.5181
 7887SOL     OW35293   2.257   4.179   4.978 -0.4232  0.0772 -0.0423
 7887SOL    HW135294   2.352   4.190   4.969 -0.1992  0.3792  2.5778
 7887SOL    HW235295   2.241   4.269   4.953 -0.8258  0.5295  1.8593
 7888SOL     OW35296   3.835   0.110   3.404 -0.0484 -0.4198 -0.5382
 7888SOL    HW135297   3.783   0.081   3.329 -1.4935  1.8434 -0.4006
 7888SOL    HW235298   3.875   0.189   3.368 -1.2890  0.7066  0.5767
 7889SOL     OW35299   3.272   1.402  15.067  0.1609 -0.5454  0.2371
 7889SOL    HW135300   3.297   1.403  15.159 -1.0219  1.3631  0.5397
 7889SOL    HW235301   3.345   1.455  15.035  0.0297 -1.2372 -1.2235
 7890SOL     OW35302   1.819   1.478   9.315  0.4852  0.0397  0.1391
 7890SOL    HW135303   1.868   1.397   9.301 -0.0557 -0.0214 -1.3957
 7890SOL    HW235304   1.782   1.455   9.400  1.3033 -2.4953 -0.1852
 7891SOL     OW35305   2.446   3.352   4.915  0.3550 -0.0268 -0.1621
 7891SOL    HW135306   2.507   3.404   4.967 -0.0029  1.3653 -1.1450
 7891SOL    HW235307   2.449   3.410   4.838 -0.0910 -0.4928 -0.5314
 7892SOL     OW35308   1.809   4.531   3.014  0.3593  0.5258 -0.0642
 7892SOL    HW135309   1.787   4.491   3.098  1.2915 -0.6395 -0.3735
 7892SOL    HW235310   1.853   4.455   2.977  0.0518 -0.1553  0.9730
 7893SOL     OW35311   2.970   0.920   8.422 -0.5062 -0.0554  0.0657
 7893SOL    HW135312   3.028   0.944   8.350  2.4986 -2.9206  1.5908
 7893SOL    HW235313   3.037   0.910   8.489  0.7550  0.6807 -1.0857
 7894SOL     OW35314   1.267   3.443   4.329 -0.0894 -0.2467 -0.3275
 7894SOL    HW135315   1.342   3.488   4.292  0.3651  0.1373  1.0585
 7894SOL    HW235316   1.283   3.463   4.421  1.7428  1.2188 -0.9702
 7895SOL     OW35317   1.082   2.423   8.749  0.5071 -0.4832  0.3159
 7895SOL    HW135318   0.990   2.395   8.752  0.3295  0.0863  0.1531
 7895SOL    HW235319   1.094   2.446   8.842  0.4348 -0.2730  0.2741
 7896SOL     OW35320   1.112   0.073   2.366  0.1374  0.2536  0.2171
 7896SOL    HW135321   1.187   0.062   2.423 -0.9921 -0.9051  1.4707
 7896SOL    HW235322   1.047   0.023   2.415 -0.5590 -0.0206 -0.9636
 7897SOL     OW35323   0.088   0.393   3.078  0.1501  0.3126 -0.2197
 7897SOL    HW135324   0.076   0.483   3.050  1.5308  0.7763  0.6700
 7897SOL    HW235325   0.173   0.377   3.039 -0.1386 -1.1375 -0.2845
 7898SOL     OW35326   3.120   0.529   5.037  0.3095 -0.3237  0.1535
 7898SOL    HW135327   3.179   0.571   4.975  1.6171  1.5115  2.6017
 7898SOL    HW235328   3.069   0.471   4.981  1.3194 -0.5237 -0.5651
 7899SOL     OW35329   0.374   3.322  10.521 -0.1860  0.0742 -0.4459
 7899SOL    HW135330   0.458   3.340  10.477 -0.6027  1.5475 -0.6229
 7899SOL    HW235331   0.406   3.316  10.611  1.0491  1.4005 -0.7846
 7900SOL     OW35332   4.540   1.539   4.953 -0.1978 -0.0297 -0.6060
 7900SOL    HW135333   4.595   1.590   5.013 -0.8665 -0.2136  0.1475
 7900SOL    HW235334   4.596   1.463   4.936  0.2401 -0.5686  3.4065
 7901SOL     OW35335   2.860   3.473   0.263  0.4416  0.2955 -1.0935
 7901SOL    HW135336   2.899   3.542   0.316 -2.2427  0.9800 -0.0403
 7901SOL    HW235337   2.923   3.464   0.191  0.8664  0.7403 -0.7803
 7902SOL     OW35338   1.864   2.433   0.968  0.1083  0.6614  0.0665
 7902SOL    HW135339   1.801   2.386   0.913 -0.7528  0.6814  1.0244
 7902SOL    HW235340   1.858   2.392   1.055  0.0893  1.7294  0.5698
 7903SOL     OW35341   0.319   2.452  15.028 -0.1142  0.8767  0.1246
 7903SOL    HW135342   0.377   2.376  15.033 -1.1835  0.1554  1.5574
 7903SOL    HW235343   0.326   2.491  15.115 -0.9005 -0.3720  0.7492
 7904SOL     OW35344   0.524   1.032   7.110  0.1509 -0.1049 -0.0511
 7904SOL    HW135345   0.474   1.069   7.183  1.8677 -1.2882  1.7373
 7904SOL    HW235346   0.613   1.054   7.138  0.4168 -0.1286 -0.8909
 7905SOL     OW35347   3.851   3.788   9.593  0.3699  0.0286 -0.0162
 7905SOL    HW135348   3.926   3.738   9.559 -0.9462 -0.4133 -2.2563
 7905SOL    HW235349   3.832   3.838   9.513 -1.9994 -1.1115 -0.1533
 7906SOL     OW35350   3.198   1.207   1.705  0.3160  0.1202 -0.0824
 7906SOL    HW135351   3.176   1.155   1.628  0.6046  0.1469 -0.1827
 7906SOL    HW235352   3.207   1.295   1.669  0.1396 -0.8900 -2.5428
 7907SOL     OW35353   4.542   0.689  11.311  0.0450  0.3552  0.8401
 7907SOL    HW135354   4.518   0.616  11.369  0.2796 -0.3745  0.0146
 7907SOL    HW235355   4.601   0.644  11.251 -3.0363  0.5445 -2.3138
 7908SOL     OW35356   0.623   1.053   2.850 -0.4566  0.0919 -0.3213
 7908SOL    HW135357   0.587   1.040   2.763 -0.0236 -1.1947 -0.3082
 7908SOL    HW235358   0.631   1.149   2.854 -0.6273  0.0649  0.7929
 7909SOL     OW35359   2.981   3.595   3.566 -0.0985 -0.3673 -0.8543
 7909SOL    HW135360   2.957   3.563   3.480 -0.9019  0.0591 -0.7955
 7909SOL    HW235361   3.071   3.561   3.568  0.1019  0.1238 -2.0377
 7910SOL     OW35362   4.649   1.002   5.115 -0.0907 -0.4248  0.1842
 7910SOL    HW135363   4.699   0.994   5.033 -2.0888 -1.9764 -0.8948
 7910SOL    HW235364   4.572   1.049   5.083  0.1195  1.0964  1.9728
 7911SOL     OW35365   4.585   1.994   5.399 -0.3470  0.3381  0.5115
 7911SOL    HW135366   4.675   1.977   5.372 -0.6983 -0.5849 -0.0672
 7911SOL    HW235367   4.562   2.028   5.313 -0.6373 -1.4840 -0.1372
 7912SOL     OW35368   3.630   0.266   4.489 -0.0966 -0.6053  0.4982
 7912SOL    HW135369   3.653   0.261   4.396  0.9842  0.9773  0.6718
 7912SOL    HW235370   3.594   0.181   4.512  0.4271 -1.2104 -0.9210
 7913SOL     OW35371   3.100   3.723  16.535  0.5438 -0.0012  0.3235
 7913SOL    HW135372   3.123   3.635  16.504  1.9837 -0.2757  2.2082
 7913SOL    HW235373   3.061   3.771  16.462  1.6377  1.0939  0.4616
 7914SOL     OW35374   3.706   0.124   9.009  0.0872  0.8016  0.3431
 7914SOL    HW135375   3.712   0.030   9.022 -2.3339  0.4302 -1.1488
 7914SOL    HW235376   3.626   0.126   8.956 -0.1118 -1.1202  0.5731
 7915SOL     OW35377   0.936   1.441   2.957 -0.5145 -0.2706  0.5460
 7915SOL    HW135378   0.893   1.437   3.042  0.0961  2.3554  1.0093
 7915SOL    HW235379   1.017   1.394   2.978 -0.4807 -0.3960  0.1336
 7916SOL     OW35380   0.634   3.892   2.750 -0.2742 -0.0593  0.4192
 7916SOL    HW135381   0.586   3.826   2.800 -0.7478 -0.2512 -0.2845
 7916SOL    HW235382   0.579   3.946   2.693  0.2118  0.0787  0.0793
 7917SOL     OW35383   1.582   0.573  17.719  0.0947 -0.1218 -0.5348
 7917SOL    HW135384   1.638   0.618   0.036  1.2122 -0.8723 -1.0091
 7917SOL    HW235385   1.504   0.629  17.725  0.5420  0.2464  1.5088
 7918SOL     OW35386   1.050   1.712  10.891 -0.6356  0.3222 -0.0781
 7918SOL    HW135387   1.139   1.743  10.909 -0.5098  0.4062 -0.8498
 7918SOL    HW235388   1.037   1.741  10.801 -0.0651 -0.5021 -0.4249
 7919SOL     OW35389   0.249   1.746   1.228  0.0414  0.4214  0.8258
 7919SOL    HW135390   0.159   1.760   1.198  0.1088  1.8812  1.3070
 7919SOL    HW235391   0.234   1.751   1.322  0.0885 -1.2944  0.9157
 7920SOL     OW35392   2.941   0.658  10.950 -0.0363  0.1853  0.0029
 7920SOL    HW135393   2.915   0.657  10.858  0.6144  0.9923 -0.1902
 7920SOL    HW235394   3.036   0.663  10.941 -0.0322  0.0884 -0.0088
 7921SOL     OW35395   1.834   0.372  12.982 -0.5462  0.0094 -0.1993
 7921SOL    HW135396   1.869   0.421  13.057  0.1117 -0.0824 -0.4466
 7921SOL    HW235397   1.885   0.290  12.982 -1.2098 -0.4248  2.8992
 7922SOL     OW35398   3.266   0.338   9.280 -0.0771 -0.3527 -0.1573
 7922SOL    HW135399   3.270   0.288   9.362 -0.6258  1.1692  0.8121
 7922SOL    HW235400   3.270   0.426   9.318 -1.2995  0.4578 -1.9434
 7923SOL     OW35401   4.309   3.872   3.052 -0.0651 -0.5613  0.5442
 7923SOL    HW135402   4.384   3.872   2.994 -0.4428 -0.9769  0.0606
 7923SOL    HW235403   4.335   3.952   3.099 -0.5688  0.2122 -0.5088
 7924SOL     OW35404   4.555   4.260   4.042 -0.0586  0.5997 -0.0802
 7924SOL    HW135405   4.574   4.179   3.994  0.4555 -0.9496  2.7927
 7924SOL    HW235406   4.643   4.283   4.071  0.2186 -0.1763 -0.3095
 7925SOL     OW35407   1.637   3.439   1.870 -0.1442 -0.4603 -0.0918
 7925SOL    HW135408   1.660   3.382   1.796 -1.2879  0.3820 -1.1021
 7925SOL    HW235409   1.625   3.373   1.938  0.2785 -0.6176 -0.1680
 7926SOL     OW35410   4.214   1.620   7.893 -0.0029 -0.7767  0.6761
 7926SOL    HW135411   4.277   1.657   7.831  0.5961 -2.8682  0.0470
 7926SOL    HW235412   4.178   1.555   7.832  0.7351 -1.3233  0.8302
 7927SOL     OW35413   2.354   2.937  16.635 -0.1608  0.2215 -0.1142
 7927SOL    HW135414   2.273   2.889  16.624 -0.1026 -0.4364  2.2469
 7927SOL    HW235415   2.411   2.868  16.670 -0.9490 -0.5976 -0.4633
 7928SOL     OW35416   2.957   2.398  10.170  0.0020  0.3763 -0.5397
 7928SOL    HW135417   2.871   2.376  10.132 -0.9672 -0.4117  2.1130
 7928SOL    HW235418   2.974   2.318  10.220  0.1204  0.0012 -1.1798
 7929SOL     OW35419   3.312   3.261   5.262 -0.0872 -0.5136 -0.2070
 7929SOL    HW135420   3.395   3.298   5.292 -0.6841 -0.4795  1.3979
 7929SOL    HW235421   3.241   3.320   5.285 -0.0957 -0.3530 -0.6476
 7930SOL     OW35422   1.855   2.067   8.647 -0.1110 -0.4592 -0.3689
 7930SOL    HW135423   1.799   2.078   8.724  0.6151  0.7309 -0.0065
 7930SOL    HW235424   1.942   2.064   8.686  0.4932  0.6402 -1.6604
 7931SOL     OW35425   4.139   0.957   2.819  0.0426 -0.5500 -0.6511
 7931SOL    HW135426   4.090   0.895   2.765  2.4828 -1.9936 -1.1961
 7931SOL    HW235427   4.130   1.030   2.758 -0.7122 -0.0210  0.0954
 7932SOL     OW35428   0.626   3.111  16.577  0.1356  0.3436  0.4329
 7932SOL    HW135429   0.599   3.164  16.502 -0.4274  0.0914  0.4548
 7932SOL    HW235430   0.721   3.110  16.568 -0.0311 -4.3365 -0.9664
 7933SOL     OW35431   1.848   1.621   2.509  0.0243 -0.4016 -0.4159
 7933SOL    HW135432   1.917   1.635   2.574 -1.0748 -0.3606  0.7183
 7933SOL    HW235433   1.910   1.619   2.435 -0.5513 -0.7219 -0.8868
 7934SOL     OW35434   1.932   1.201   1.070 -0.2785 -0.4508  0.4414
 7934SOL    HW135435   1.860   1.142   1.090  0.4960 -1.6457 -0.3074
 7934SOL    HW235436   1.972   1.135   1.013  1.5966  2.0101 -1.1437
 7935SOL     OW35437   4.545   0.222  11.161  0.2944  0.5348  0.2631
 7935SOL    HW135438   4.595   0.255  11.236 -0.6398 -0.1835  1.2144
 7935SOL    HW235439   4.471   0.186  11.211 -0.4191  1.3875 -0.1663
 7936SOL     OW35440   1.971   4.432   6.811  0.6873 -0.0349  0.1791
 7936SOL    HW135441   2.022   4.507   6.840  1.2766  0.4440 -2.1269
 7936SOL    HW235442   1.884   4.452   6.847 -0.2547 -1.4703 -1.2849
 7937SOL     OW35443   3.231   3.601   3.288  0.0949  0.0249  0.3234
 7937SOL    HW135444   3.297   3.576   3.352  2.2717  0.1163 -1.8838
 7937SOL    HW235445   3.285   3.644   3.222  2.1354 -2.1265  0.6205
 7938SOL     OW35446   4.282   2.415  15.845  0.6053 -0.0589  0.0899
 7938SOL    HW135447   4.352   2.390  15.784 -0.1093 -1.1394 -0.3034
 7938SOL    HW235448   4.302   2.346  15.908  1.7406  0.0871 -0.1126
 7939SOL     OW35449   4.234   1.759   4.677  0.2264  0.7384 -0.3527
 7939SOL    HW135450   4.208   1.828   4.617  0.9164 -0.1501 -1.6586
 7939SOL    HW235451   4.312   1.723   4.636 -0.3439  0.6591 -1.3572
 7940SOL     OW35452   2.555   3.847   9.432 -0.4427 -0.3184 -0.4666
 7940SOL    HW135453   2.472   3.809   9.459 -0.7584 -0.6237 -1.9071
 7940SOL    HW235454   2.541   3.939   9.454 -0.9628 -0.3928 -0.4970
 7941SOL     OW35455   2.678   2.028   7.866  0.3949  0.8088  0.9234
 7941SOL    HW135456   2.661   1.937   7.842  0.3383  0.4888  2.2095
 7941SOL    HW235457   2.749   2.013   7.927  1.1515  0.5361 -0.0178
 7942SOL     OW35458   4.545   0.172  15.162  0.0847 -0.3478 -0.9087
 7942SOL    HW135459   4.465   0.131  15.196  0.5199  0.8983  1.6232
 7942SOL    HW235460   4.511   0.203  15.078 -1.0923 -0.7179 -0.5795
 7943SOL     OW35461   1.940   4.329   2.487  0.3377  0.4803 -0.0327
 7943SOL    HW135462   1.898   4.249   2.518  0.8138 -0.2004 -1.1171
 7943SOL    HW235463   2.003   4.343   2.558  0.1236 -0.8281  0.4119
 7944SOL     OW35464   4.025   1.230   6.262  0.2436 -0.3178 -0.0099
 7944SOL    HW135465   3.991   1.302   6.316  0.9182 -1.0644  1.3998
 7944SOL    HW235466   3.997   1.258   6.174  1.9671  0.7715 -0.2059
 7945SOL     OW35467   4.356   4.614   8.714  0.8596 -0.0152  0.2201
 7945SOL    HW135468   4.269   4.577   8.694  0.7782  0.6121 -0.5575
 7945SOL    HW235469   4.373   4.563   8.793 -1.6253 -0.5134  0.4522
 7946SOL     OW35470   3.113   0.640   3.431 -0.1566  0.4644 -0.4256
 7946SOL    HW135471   3.047   0.597   3.377 -0.7568  1.8500 -0.8086
 7946SOL    HW235472   3.079   0.729   3.438  1.0268  1.1006 -2.5540
 7947SOL     OW35473   3.125   4.678   4.233 -0.3726  0.3016  0.0268
 7947SOL    HW135474   3.076   4.601   4.203 -0.9366 -0.7843  3.8087
 7947SOL    HW235475   3.062   4.717   4.294 -0.7720 -0.2470 -0.0345
 7948SOL     OW35476   0.385   3.997  13.211  0.7565  0.0927  0.7120
 7948SOL    HW135477   0.467   4.003  13.162  0.6708  2.1020  0.8014
 7948SOL    HW235478   0.400   3.928  13.276  3.0690  0.2292  0.3463
 7949SOL     OW35479   2.380   1.799   8.960 -0.3584 -0.2621  0.0625
 7949SOL    HW135480   2.332   1.842   9.031 -1.9128  2.4868 -2.6647
 7949SOL    HW235481   2.314   1.796   8.891 -1.6756  1.0925  1.2509
 7950SOL     OW35482   1.402   4.229   6.916  0.0032  0.2682 -0.2360
 7950SOL    HW135483   1.388   4.173   6.992 -1.7500  1.6721  0.4963
 7950SOL    HW235484   1.317   4.211   6.876 -0.2437  0.9581 -0.0241
 7951SOL     OW35485   3.974   2.193   4.798  0.0633 -0.1670  0.0456
 7951SOL    HW135486   4.001   2.279   4.831 -0.5169 -0.1056  0.3731
 7951SOL    HW235487   3.986   2.127   4.867  1.4836  1.3563  1.2708
 7952SOL     OW35488   2.209   1.546   1.253 -0.2767  0.2640  1.0984
 7952SOL    HW135489   2.118   1.529   1.276 -0.0470 -0.9880  1.0723
 7952SOL    HW235490   2.235   1.617   1.311 -0.9811 -0.5705  2.4524
 7953SOL     OW35491   3.476   4.277   8.000  0.0684  0.5666 -0.4734
 7953SOL    HW135492   3.555   4.312   7.960 -1.0306  3.5504 -0.0163
 7953SOL    HW235493   3.514   4.205   8.051  0.6609  2.2317  1.4342
 7954SOL     OW35494   2.258   3.097   3.144 -0.5810 -0.2789 -0.6503
 7954SOL    HW135495   2.163   3.084   3.149 -0.5064 -0.4158  0.2599
 7954SOL    HW235496   2.262   3.164   3.075 -1.9729 -0.2534 -0.7086
 7955SOL     OW35497   1.678   2.822   0.991 -0.2822  0.0216  0.6640
 7955SOL    HW135498   1.687   2.914   0.966 -0.5519  0.1677  1.0993
 7955SOL    HW235499   1.728   2.815   1.073  0.6103 -0.0812  0.1072
 7956SOL     OW35500   3.934   4.300  17.382  0.2733 -1.0373  0.2664
 7956SOL    HW135501   3.929   4.307  17.477  1.0051 -1.1941  0.3181
 7956SOL    HW235502   3.926   4.204  17.381  0.0103 -1.0217  1.0295
 7957SOL     OW35503   3.354   4.562   2.900  0.0742 -0.9180  0.7706
 7957SOL    HW135504   3.339   4.549   2.806  0.2168  2.0262  0.3355
 7957SOL    HW235505   3.429   4.620   2.886 -0.1972 -0.3645  1.6350
 7958SOL     OW35506   1.481   4.305   9.246  0.0997  0.1828 -0.2346
 7958SOL    HW135507   1.568   4.266   9.251  0.7872  1.9309  1.4888
 7958SOL    HW235508   1.428   4.227   9.231  2.4802 -1.4449 -0.1166
 7959SOL     OW35509   1.279   3.849   5.948 -0.1730 -0.3836  0.0093
 7959SOL    HW135510   1.217   3.787   5.988 -2.8679  1.4858 -1.2543
 7959SOL    HW235511   1.297   3.907   6.021 -1.5218 -0.0288  0.0696
 7960SOL     OW35512   1.149   0.284   2.706  0.2578 -0.2156 -0.6954
 7960SOL    HW135513   1.056   0.290   2.727 -0.0782 -0.3113 -2.1586
 7960SOL    HW235514   1.193   0.271   2.790  0.8138 -0.3465 -1.0046
 7961SOL     OW35515   1.161   1.849   3.840  0.0849 -0.5127 -0.2483
 7961SOL    HW135516   1.089   1.789   3.822 -1.1794  1.4588 -1.6655
 7961SOL    HW235517   1.227   1.779   3.836  0.8145  0.0610  2.1508
 7962SOL     OW35518   2.012   4.469  10.672  0.0382  0.1210  0.3458
 7962SOL    HW135519   1.984   4.424  10.752  1.2374  1.3480  1.4593
 7962SOL    HW235520   1.940   4.439  10.617 -1.1567  0.6734  1.5994
 7963SOL     OW35521   0.023   3.379   5.047  0.3928  0.3287  0.7622
 7963SOL    HW135522   4.704   3.450   5.016 -1.3919 -0.7911  1.4015
 7963SOL    HW235523   0.067   3.427   5.117  3.5812 -0.7216 -0.5168
 7964SOL     OW35524   1.426   1.513   3.372 -0.3805  0.1500  0.5323
 7964SOL    HW135525   1.510   1.540   3.334 -0.6701  0.4463  0.1007
 7964SOL    HW235526   1.386   1.600   3.374 -0.3315  0.1316  1.9703
 7965SOL     OW35527   1.214   0.541   6.753 -0.2507 -0.5396  0.1379
 7965SOL    HW135528   1.245   0.587   6.675  2.6098 -2.5821  0.0667
 7965SOL    HW235529   1.144   0.592   6.793  1.3401  2.1034 -0.4046
 7966SOL     OW35530   3.402   3.839   8.283 -0.1719  0.0405  0.4936
 7966SOL    HW135531   3.415   3.929   8.253 -0.1170 -0.6293 -1.5026
 7966SOL    HW235532   3.339   3.806   8.219 -0.8692 -0.2634  1.3407
 7967SOL     OW35533   1.148   0.344   9.032 -0.1319  0.0380 -0.0943
 7967SOL    HW135534   1.123   0.252   9.018 -0.2773  0.1289 -0.4271
 7967SOL    HW235535   1.150   0.380   8.943  1.1542 -2.2081 -0.9899
 7968SOL     OW35536   1.505   2.735   1.401  0.0644 -0.4829 -0.4009
 7968SOL    HW135537   1.559   2.665   1.438  1.4249 -1.0129 -3.3903
 7968SOL    HW235538   1.559   2.810   1.376  1.8775 -1.6233  0.0470
 7969SOL     OW35539   1.903   3.188   6.664  0.1174  0.2930 -0.8651
 7969SOL    HW135540   1.926   3.265   6.612  3.0436 -0.5987 -0.9386
 7969SOL    HW235541   1.899   3.121   6.596  0.3022  1.2103 -1.7847
 7970SOL     OW35542   2.665   0.902   3.565  0.2145 -0.1998  0.5606
 7970SOL    HW135543   2.747   0.950   3.568 -0.0179  0.2721 -0.4235
 7970SOL    HW235544   2.645   0.914   3.657  0.4806  0.6005  0.5126
 7971SOL     OW35545   1.953   1.879   8.441 -0.1050  0.4211 -0.8330
 7971SOL    HW135546   1.889   1.830   8.493 -0.9311  0.3033 -1.9350
 7971SOL    HW235547   1.925   1.968   8.462  0.4812  0.2947  0.4734
 7972SOL     OW35548   4.004   3.663   6.143  0.4817  0.4361 -0.4376
 7972SOL    HW135549   3.943   3.669   6.070 -1.2408 -0.4842  0.9287
 7972SOL    HW235550   3.959   3.689   6.224 -1.1569 -1.8152 -0.6217
 7973SOL     OW35551   0.983   1.833   7.891 -0.4890 -0.3182  0.3458
 7973SOL    HW135552   0.950   1.744   7.902 -0.1117 -0.5409 -0.3217
 7973SOL    HW235553   0.980   1.852   7.798  0.4873 -2.1790 -0.0591
 7974SOL     OW35554   1.914   0.531   2.831  0.2958  0.3465 -0.4222
 7974SOL    HW135555   1.910   0.493   2.919  0.3280  0.4933 -0.3577
 7974SOL    HW235556   1.935   0.617   2.866 -2.3759  0.6637  0.4179
 7975SOL     OW35557   0.701   4.245  16.121 -0.1004 -0.1474  0.1391
 7975SOL    HW135558   0.645   4.285  16.188 -0.3942 -0.4913  0.0982
 7975SOL    HW235559   0.783   4.227  16.167  2.0784  3.2655 -2.4417
 7976SOL     OW35560   2.491   0.653  13.680 -0.9655  0.2356  0.8260
 7976SOL    HW135561   2.503   0.594  13.754 -1.2068 -0.4517  0.3141
 7976SOL    HW235562   2.570   0.628  13.633 -1.0293 -3.2705  2.5904
 7977SOL     OW35563   3.767   2.711  16.898  0.2315  0.1410  0.6100
 7977SOL    HW135564   3.788   2.759  16.818 -2.4458  0.7064  0.2533
 7977SOL    HW235565   3.671   2.714  16.897  0.2534  0.4828 -0.5335
 7978SOL     OW35566   1.466   1.750   8.558  0.2734 -0.0473 -0.3636
 7978SOL    HW135567   1.381   1.734   8.598 -0.7127  1.2645 -1.8815
 7978SOL    HW235568   1.488   1.838   8.588 -0.8907  0.3147 -0.5689
 7979SOL     OW35569   2.557   3.737   0.921 -0.1051  0.0322  0.3990
 7979SOL    HW135570   2.649   3.763   0.922 -0.7129  2.1378  0.0146
 7979SOL    HW235571   2.519   3.815   0.959  1.9442  1.5897 -0.7554
 7980SOL     OW35572   0.486   3.988   2.205  0.2274  0.4349  0.2578
 7980SOL    HW135573   0.495   3.970   2.299  0.5978  2.6082  0.6546
 7980SOL    HW235574   0.571   4.023   2.179 -0.1122 -0.0565 -1.5080
 7981SOL     OW35575   4.324   4.207   6.370 -0.2560  0.3624 -0.3354
 7981SOL    HW135576   4.272   4.287   6.367 -0.4777  0.1579 -1.8086
 7981SOL    HW235577   4.269   4.139   6.408 -0.2687  1.4245  1.5879
 7982SOL     OW35578   1.076   2.402  10.491  0.2538  0.8141  0.4902
 7982SOL    HW135579   1.146   2.337  10.497 -0.6792 -0.2322  0.0594
 7982SOL    HW235580   1.098   2.476  10.547 -1.0398  2.9932 -1.8902
 7983SOL     OW35581   2.046   3.218   6.324 -0.7295 -0.1725  0.2144
 7983SOL    HW135582   2.055   3.127   6.297 -0.0108  0.4897 -1.7878
 7983SOL    HW235583   2.015   3.244   6.237  0.2616  1.3283  0.3229
 7984SOL     OW35584   2.161   2.416   0.323  0.0667  0.1284 -0.1210
 7984SOL    HW135585   2.151   2.330   0.364  0.9993  1.7646  3.5176
 7984SOL    HW235586   2.165   2.473   0.399  2.4083 -0.7992  0.4310
 7985SOL     OW35587   2.676   1.285   2.948 -0.3207 -0.4226  0.5125
 7985SOL    HW135588   2.767   1.258   2.935 -0.6476 -1.5688  0.5122
 7985SOL    HW235589   2.677   1.295   3.043 -0.6605  3.4589  0.0802
 7986SOL     OW35590   1.163   1.125   7.130  0.1758 -0.0670  0.4005
 7986SOL    HW135591   1.152   1.070   7.052  0.0311 -0.2951  0.5811
 7986SOL    HW235592   1.126   1.068   7.197  1.2636 -2.1249 -0.7420
 7987SOL     OW35593   2.824   4.606   1.603  0.2896  0.0435  0.1317
 7987SOL    HW135594   2.787   4.607   1.515 -0.6889 -1.0150  0.5315
 7987SOL    HW235595   2.843   4.699   1.616  2.3773 -0.3207 -0.3872
 7988SOL     OW35596   3.237   1.566  12.177 -0.5069  0.3258 -0.6557
 7988SOL    HW135597   3.165   1.513  12.211  1.2793 -1.2104  0.7134
 7988SOL    HW235598   3.214   1.655  12.203  0.5301  0.0897  1.0717
 7989SOL     OW35599   3.286   4.213   4.448  0.7149  0.1415  0.5353
 7989SOL    HW135600   3.247   4.219   4.361 -0.0107  2.4957  1.0379
 7989SOL    HW235601   3.374   4.190   4.419 -0.2610 -2.3955 -0.3916
 7990SOL     OW35602   4.571   1.433   7.645  0.0228 -0.4178  0.1221
 7990SOL    HW135603   4.536   1.427   7.556 -0.7643  0.1172  0.3986
 7990SOL    HW235604   4.503   1.399   7.703  0.0068  0.3707  0.5660
 7991SOL     OW35605   1.105   4.264   8.464  0.2252  0.5924  0.3170
 7991SOL    HW135606   1.103   4.186   8.519  1.7100  0.3680  0.0589
 7991SOL    HW235607   1.146   4.320   8.531  0.6305 -1.1359  1.5283
 7992SOL     OW35608   4.236   3.645   8.934 -0.2241  0.0105 -0.3985
 7992SOL    HW135609   4.171   3.711   8.955 -1.3188 -0.7422 -1.4535
 7992SOL    HW235610   4.181   3.571   8.909 -2.9407  1.9815 -0.2849
 7993SOL     OW35611   1.295   1.118   0.106 -0.3259  0.2623  0.2430
 7993SOL    HW135612   1.310   1.061   0.031 -0.3793  0.1786  0.2958
 7993SOL    HW235613   1.223   1.171   0.070  0.7115  1.3907 -0.1522
 7994SOL     OW35614   3.543   3.811   6.670 -0.1074  0.2799 -0.2363
 7994SOL    HW135615   3.482   3.751   6.627  0.9942 -1.2801  0.3536
 7994SOL    HW235616   3.622   3.757   6.674  0.0111  0.3215 -1.8941
 7995SOL     OW35617   1.203   2.050   7.129 -0.1509  0.4136  0.3819
 7995SOL    HW135618   1.232   1.962   7.104 -0.9034  0.3458 -0.2564
 7995SOL    HW235619   1.121   2.019   7.167  0.6775 -0.1930  1.6582
 7996SOL     OW35620   4.504   2.306   2.879  0.3043 -0.0346 -0.0835
 7996SOL    HW135621   4.486   2.237   2.944 -1.1619 -0.5355 -1.0159
 7996SOL    HW235622   4.546   2.371   2.935 -0.9183 -0.4077  1.2722
 7997SOL     OW35623   0.691   3.359  14.722  0.7477  0.3283  0.6084
 7997SOL    HW135624   0.677   3.390  14.812  0.4332  0.8723  0.3684
 7997SOL    HW235625   0.633   3.285  14.708  1.0124  0.0979  0.7319
 7998SOL     OW35626   0.461   1.600   1.186  0.2936  0.0263  0.5091
 7998SOL    HW135627   0.392   1.667   1.183  2.3720  2.0795 -1.2341
 7998SOL    HW235628   0.401   1.526   1.200 -1.1317  0.6848 -2.2553
 7999SOL     OW35629   1.695   3.803   5.131 -0.6447  0.1604 -0.0861
 7999SOL    HW135630   1.678   3.896   5.113  2.8926  0.4661 -1.8470
 7999SOL    HW235631   1.785   3.785   5.103  0.3603  1.2960  2.3818
 8000SOL     OW35632   3.536   3.206   9.334  0.5792  0.1704 -0.5841
 8000SOL    HW135633   3.589   3.152   9.276  1.0080  0.7108 -0.6933
 8000SOL    HW235634   3.603   3.212   9.402  0.0878 -1.3165  0.0301
 8001SOL     OW35635   0.577   1.188  16.835  0.4857 -0.4662  0.7131
 8001SOL    HW135636   0.658   1.222  16.799  0.5862  1.0095  2.3671
 8001SOL    HW235637   0.567   1.235  16.917 -3.1028  0.4840 -0.2639
 8002SOL     OW35638   3.125   4.152   7.325 -0.0712  0.5853 -0.7647
 8002SOL    HW135639   3.173   4.125   7.246 -1.5696 -0.4637 -1.3185
 8002SOL    HW235640   3.152   4.085   7.387  0.4740  1.8793  0.4075
 8003SOL     OW35641   2.014   2.654   1.652 -0.3965 -0.3520 -0.1152
 8003SOL    HW135642   1.990   2.744   1.669  0.0172  0.0198 -1.5079
 8003SOL    HW235643   1.986   2.605   1.729  1.0200  1.5980  1.6198
 8004SOL     OW35644   0.641   1.029  13.048  0.6990 -0.0025 -0.1427
 8004SOL    HW135645   0.691   0.991  12.977 -0.8883  1.2873 -1.9705
 8004SOL    HW235646   0.702   1.009  13.119 -0.6219 -1.0897  0.6827
 8005SOL     OW35647   0.289   1.211   3.049 -0.2124  0.1866 -0.2474
 8005SOL    HW135648   0.367   1.173   3.090  0.0244  0.3398 -0.5539
 8005SOL    HW235649   0.228   1.221   3.122 -0.7587 -0.0444 -0.6735
 8006SOL     OW35650   3.019   4.441   4.184 -0.1607  0.0459 -0.2620
 8006SOL    HW135651   2.961   4.462   4.111  0.9106 -0.7592 -1.3220
 8006SOL    HW235652   2.957   4.413   4.252  0.6078 -1.6109 -0.2555
 8007SOL     OW35653   1.949   2.526   1.424 -0.3732  0.0078  0.0472
 8007SOL    HW135654   2.032   2.478   1.421  1.3026  2.7850  2.0297
 8007SOL    HW235655   1.956   2.583   1.500 -0.1431 -0.6139  0.4902
 8008SOL     OW35656   4.444   0.837   4.736  0.1115  0.3247 -0.0373
 8008SOL    HW135657   4.427   0.892   4.660 -0.5535  2.1959  1.4598
 8008SOL    HW235658   4.426   0.756   4.689 -0.2228  0.0357  0.5966
 8009SOL     OW35659   1.362   0.485   7.024  0.1923 -0.1201 -0.1476
 8009SOL    HW135660   1.301   0.432   7.077 -0.7239  1.3826  0.3156
 8009SOL    HW235661   1.304   0.498   6.949  1.4702  0.0042 -1.1002
 8010SOL     OW35662   3.833   4.389   8.901  0.3482  0.6014  0.0699
 8010SOL    HW135663   3.867   4.478   8.913 -0.2253  0.4755  2.6157
 8010SOL    HW235664   3.891   4.336   8.956  0.9733  2.3764  1.1533
 8011SOL     OW35665   1.806   4.318   7.376 -0.6789 -0.0354  0.5114
 8011SOL    HW135666   1.818   4.256   7.304 -1.8119  1.9148 -1.3555
 8011SOL    HW235667   1.826   4.399   7.328 -1.4229 -0.3759 -0.3649
 8012SOL     OW35668   3.380   4.280   9.063 -0.4517  0.4010 -0.0297
 8012SOL    HW135669   3.306   4.232   9.026  1.0312  0.7788 -3.4660
 8012SOL    HW235670   3.413   4.334   8.991  2.1830 -1.2204 -0.0349
 8013SOL     OW35671   3.810   3.976  14.910 -0.2049  0.2686 -0.4158
 8013SOL    HW135672   3.893   4.021  14.922 -0.7286  1.4285 -1.2531
 8013SOL    HW235673   3.815   3.912  14.982 -0.5944  2.9342  1.9620
 8014SOL     OW35674   0.506   3.849   6.635  0.5126  0.0683 -0.0052
 8014SOL    HW135675   0.444   3.801   6.580  0.8936  0.5395 -0.8507
 8014SOL    HW235676   0.490   3.939   6.607  0.8391 -0.4428 -1.8143
 8015SOL     OW35677   4.549   4.695  13.961  0.4704 -0.1307  0.2371
 8015SOL    HW135678   4.505   4.611  13.964  0.4958 -0.1518  0.0153
 8015SOL    HW235679   4.616   4.691  14.029 -0.1860  0.3932  0.9101
 8016SOL     OW35680   4.233   1.282  11.044  0.0661 -0.0846 -0.2380
 8016SOL    HW135681   4.174   1.344  11.000 -0.8435  0.7005  2.1114
 8016SOL    HW235682   4.193   1.200  11.016 -0.2729 -0.5158  1.5032
 8017SOL     OW35683   4.115   1.267  10.505  0.2660  0.6837 -0.0702
 8017SOL    HW135684   4.047   1.314  10.553 -0.8365 -1.1613  0.1748
 8017SOL    HW235685   4.078   1.231  10.424 -1.3477  0.5357  0.7320
 8018SOL     OW35686   4.108   3.326   5.855 -0.1775  0.5228 -0.1966
 8018SOL    HW135687   4.082   3.283   5.936  3.0330 -1.9993 -0.5211
 8018SOL    HW235688   4.043   3.292   5.793  0.9423  0.8081 -1.5339
 8019SOL     OW35689   4.341   0.727   3.720  0.1944  0.9458  0.1021
 8019SOL    HW135690   4.432   0.725   3.751  0.3068  0.5509 -0.2571
 8019SOL    HW235691   4.352   0.774   3.637 -1.5506  0.1113 -0.6020
 8020SOL     OW35692   4.732   2.435   3.790  0.1198 -0.3703 -0.1042
 8020SOL    HW135693   0.040   2.494   3.730 -1.2134  0.7344 -0.0419
 8020SOL    HW235694   4.650   2.483   3.807  0.4621  0.6764 -1.3934
 8021SOL     OW35695   0.415   1.889  14.133  0.1132 -0.5341  0.3315
 8021SOL    HW135696   0.464   1.817  14.172 -1.0197 -1.8204 -0.6316
 8021SOL    HW235697   0.337   1.877  14.187 -0.9757 -0.1015 -1.1683
 8022SOL     OW35698   0.151   0.737   4.924  0.1165  0.2384  0.2614
 8022SOL    HW135699   0.127   0.689   4.845 -4.7542  0.1785  1.7681
 8022SOL    HW235700   0.083   0.802   4.906  0.9662  1.2373  0.6999
 8023SOL     OW35701   3.658   0.699  15.432 -0.1425 -0.4130  0.1801
 8023SOL    HW135702   3.649   0.644  15.355  0.0266  0.0628 -0.1806
 8023SOL    HW235703   3.754   0.707  15.432 -0.2372  0.6615  1.3069
 8024SOL     OW35704   1.560   1.745   5.926 -0.1361  0.0881 -0.2927
 8024SOL    HW135705   1.543   1.693   5.848 -1.4893  2.9320 -1.8988
 8024SOL    HW235706   1.471   1.733   5.959  0.2230  1.0461  1.0197
 8025SOL     OW35707   2.714   4.185   3.879  0.3298  0.9487 -0.8037
 8025SOL    HW135708   2.735   4.132   3.803  0.8773 -0.7878  0.5590
 8025SOL    HW235709   2.650   4.126   3.918  0.7176  2.2715  1.8376
 8026SOL     OW35710   4.111   2.981   6.378 -0.2386  0.2389 -0.4496
 8026SOL    HW135711   4.124   2.933   6.296  1.5067 -1.0795  0.5926
 8026SOL    HW235712   4.017   2.984   6.395 -0.4295  1.2098 -1.6564
 8027SOL     OW35713   1.683   3.897   5.430  0.3353 -0.3155  0.0280
 8027SOL    HW135714   1.727   3.981   5.444 -1.2245  0.5819 -0.4395
 8027SOL    HW235715   1.684   3.877   5.336  0.1544  1.2651 -0.3039
 8028SOL     OW35716   3.708   0.907   8.463  0.2702 -0.8511  0.1840
 8028SOL    HW135717   3.695   0.820   8.501  1.2866 -1.6830 -1.3911
 8028SOL    HW235718   3.621   0.941   8.486  0.8539  1.5350 -1.2569
 8029SOL     OW35719   3.259   4.104  15.546 -0.2654 -0.2805 -0.3084
 8029SOL    HW135720   3.274   4.107  15.640  1.0155 -0.9342 -0.4916
 8029SOL    HW235721   3.314   4.176  15.514 -1.6091 -0.3024 -2.7093
 8030SOL     OW35722   2.395   3.780   1.919 -0.8677  0.3507 -0.1883
 8030SOL    HW135723   2.428   3.853   1.868  1.7926  1.9410  3.7940
 8030SOL    HW235724   2.381   3.819   2.005 -0.2247 -0.3261  0.2183
 8031SOL     OW35725   3.187   0.063   8.019 -0.2509 -0.3137 -0.3030
 8031SOL    HW135726   3.200   0.083   7.926  0.5220 -1.1464 -0.3732
 8031SOL    HW235727   3.168   0.154   8.043 -0.0664 -0.6975  1.2779
 8032SOL     OW35728   1.821   2.959   7.970  0.4453  0.4591 -0.3922
 8032SOL    HW135729   1.850   2.871   7.945 -1.4368 -0.3856  0.3359
 8032SOL    HW235730   1.818   2.950   8.066 -2.4237  1.0958 -0.4134
 8033SOL     OW35731   3.649   4.664  15.123 -0.3217  0.2008 -0.1886
 8033SOL    HW135732   3.616   4.735  15.179  0.5044  1.0213 -0.7458
 8033SOL    HW235733   3.652   4.713  15.042  0.3689 -2.3960 -1.7306
 8034SOL     OW35734   0.965   0.705   5.612 -0.4012 -0.3758 -0.0035
 8034SOL    HW135735   0.935   0.767   5.545  1.8702 -1.6012 -2.1625
 8034SOL    HW235736   0.883   0.693   5.659 -0.4250  0.9942  0.3077
 8035SOL     OW35737   2.412   3.819   0.320  0.7167  0.1527 -0.5183
 8035SOL    HW135738   2.390   3.762   0.394 -1.5895 -0.4554 -1.6768
 8035SOL    HW235739   2.506   3.829   0.338  0.0424  2.1904  1.8622
 8036SOL     OW35740   3.422   0.551   1.724  0.5055  0.1049  0.4146
 8036SOL    HW135741   3.464   0.633   1.751  0.1597  1.0370 -1.9071
 8036SOL    HW235742   3.342   0.545   1.777  1.9978 -1.6346  2.4723
 8037SOL     OW35743   0.974   0.699   3.483  0.2144 -0.1410  0.2130
 8037SOL    HW135744   0.944   0.789   3.468  4.0060  1.4549  2.1371
 8037SOL    HW235745   1.028   0.691   3.404  0.3525  0.5881  0.2396
 8038SOL     OW35746   2.240   3.749   4.280  0.4534  0.3336  0.3118
 8038SOL    HW135747   2.309   3.747   4.214  0.4791 -1.1849  0.3702
 8038SOL    HW235748   2.198   3.663   4.275  0.7130  0.1751  0.8244
 8039SOL     OW35749   0.641   1.624  11.497  0.0509  0.1343  0.3211
 8039SOL    HW135750   0.670   1.712  11.522  0.1649 -0.3265  1.8161
 8039SOL    HW235751   0.649   1.577  11.580 -1.7161  0.4658  0.6888
 8040SOL     OW35752   2.701   4.614   2.209  0.1178  0.3847 -0.8405
 8040SOL    HW135753   2.705   4.524   2.242 -1.7984  0.2321 -0.9903
 8040SOL    HW235754   2.650   4.614   2.128 -0.1992 -2.0023 -0.6640
 8041SOL     OW35755   0.938   3.748   4.223  0.0935 -0.1621  0.1855
 8041SOL    HW135756   0.932   3.807   4.298  2.2309 -1.0541  1.0581
 8041SOL    HW235757   0.994   3.798   4.163  0.4886  0.0242  0.7122
 8042SOL     OW35758   4.129   4.680   5.389 -0.2346  0.0884 -0.4882
 8042SOL    HW135759   4.177   0.002   5.330 -0.1939  0.6021  0.0610
 8042SOL    HW235760   4.197   4.612   5.389  1.4620  1.7597 -0.9346
 8043SOL     OW35761   1.651   1.889   2.210 -0.4336 -0.3635  0.1862
 8043SOL    HW135762   1.630   1.797   2.228 -0.4848 -0.2229  0.8373
 8043SOL    HW235763   1.744   1.893   2.230 -0.5761 -0.7216  0.9374
 8044SOL     OW35764   4.695   1.697   9.470  0.5081 -0.0325 -0.3742
 8044SOL    HW135765   4.656   1.629   9.415 -1.2610  0.1733  0.6409
 8044SOL    HW235766   4.632   1.692   9.542  1.5897 -1.0585  0.4891
 8045SOL     OW35767   4.077   1.093  17.579  0.2562 -0.7433  0.7510
 8045SOL    HW135768   4.011   1.118  17.515  1.1505 -1.4001 -0.4240
 8045SOL    HW235769   4.147   1.147  17.542  0.7062 -1.7382  0.1369
 8046SOL     OW35770   2.463   3.455   2.312  0.0313  0.0675  0.5400
 8046SOL    HW135771   2.421   3.447   2.226  0.5167 -0.1645  0.3262
 8046SOL    HW235772   2.544   3.499   2.286 -0.0491 -1.8560 -2.9746
 8047SOL     OW35773   2.215   2.466   7.399  0.2187  0.3927 -0.3381
 8047SOL    HW135774   2.292   2.523   7.400  0.1048  0.5307  0.7201
 8047SOL    HW235775   2.157   2.511   7.461  1.7816 -0.4057  1.6999
 8048SOL     OW35776   2.678   1.562   0.328  0.3797  0.1974  0.4333
 8048SOL    HW135777   2.675   1.612   0.410  1.5429  1.4305 -0.2823
 8048SOL    HW235778   2.591   1.525   0.346  0.8695 -0.5336  1.3082
 8049SOL     OW35779   3.785   3.366   3.645 -0.0354  0.4628  0.4687
 8049SOL    HW135780   3.798   3.305   3.719  0.2867  0.9334  0.8023
 8049SOL    HW235781   3.875   3.364   3.611 -0.7309 -0.4053 -1.2953
 8050SOL     OW35782   3.414   2.789   3.852 -0.3324  0.0825  0.5582
 8050SOL    HW135783   3.419   2.701   3.815 -0.1696  0.5292 -0.5052
 8050SOL    HW235784   3.468   2.781   3.930 -1.5698  2.7045  1.6914
 8051SOL     OW35785   1.396   2.585  16.393 -0.1883  0.1325 -0.3837
 8051SOL    HW135786   1.427   2.498  16.369 -1.2238 -0.3116 -0.1405
 8051SOL    HW235787   1.417   2.571  16.486 -1.0131  0.9457 -0.0701
 8052SOL     OW35788   2.371   4.153  17.185  0.8175  0.3994 -0.1631
 8052SOL    HW135789   2.341   4.169  17.274 -0.6923 -1.0795 -0.3973
 8052SOL    HW235790   2.381   4.058  17.186  3.3946  0.6816 -0.1895
 8053SOL     OW35791   0.136   2.875   2.853 -0.2938  0.5623  0.6201
 8053SOL    HW135792   0.205   2.933   2.886 -0.9607  1.7325 -0.0351
 8053SOL    HW235793   0.066   2.896   2.915 -0.4689 -1.0324  0.9727
 8054SOL     OW35794   1.866   0.486   4.961  0.1631 -0.0748  0.1773
 8054SOL    HW135795   1.794   0.542   4.993  0.4448  0.6758 -0.5090
 8054SOL    HW235796   1.826   0.400   4.953  0.4066 -0.0747 -1.0369
 8055SOL     OW35797   1.795   1.993   6.665  0.1467 -0.3969  0.2928
 8055SOL    HW135798   1.798   1.911   6.716 -0.5504  0.1000  1.1506
 8055SOL    HW235799   1.886   2.020   6.658 -0.5134  1.8345  0.3869
 8056SOL     OW35800   1.094   1.509   6.409 -0.2228  0.3393  0.6192
 8056SOL    HW135801   1.140   1.434   6.446  0.0696  1.0924  1.7912
 8056SOL    HW235802   1.077   1.565   6.485  1.4696  2.7967 -0.7949
 8057SOL     OW35803   1.882   3.142   7.243 -0.3977 -0.5660 -0.1967
 8057SOL    HW135804   1.789   3.155   7.259 -0.7632 -0.8146 -2.1472
 8057SOL    HW235805   1.918   3.171   7.327 -0.9431  2.7331 -1.0963
 8058SOL     OW35806   4.258   4.234   8.680  0.0761  0.6158  0.8252
 8058SOL    HW135807   4.276   4.190   8.763  1.3218  1.1670  0.8528
 8058SOL    HW235808   4.298   4.176   8.615 -0.4474 -1.1757  2.1226
 8059SOL     OW35809   4.095   3.709   3.021 -0.5508  0.4317 -0.0132
 8059SOL    HW135810   4.129   3.620   3.033  0.5694  0.5039 -2.6550
 8059SOL    HW235811   4.167   3.771   3.027  0.8982 -1.5993  3.2347
 8060SOL     OW35812   1.927   4.309   1.630 -0.6993 -0.2323  0.3834
 8060SOL    HW135813   1.833   4.288   1.631 -1.1408  1.7306  0.1374
 8060SOL    HW235814   1.922   4.400   1.601 -0.5894 -1.0260 -2.1343
 8061SOL     OW35815   1.574   3.226   2.424 -0.1886 -0.9859 -0.3283
 8061SOL    HW135816   1.597   3.138   2.395  2.6424 -0.7262  1.1035
 8061SOL    HW235817   1.486   3.254   2.399  1.4712  1.7921 -3.0110
 8062SOL     OW35818   0.071   1.957   9.505  0.1471  0.6520  0.0047
 8062SOL    HW135819   0.008   2.004   9.559 -0.8634  1.3045 -1.7556
 8062SOL    HW235820   0.035   1.868   9.507  2.1157 -0.0801  2.2957
 8063SOL     OW35821   0.336   4.320  16.386  0.1643  0.0266  0.3822
 8063SOL    HW135822   0.363   4.392  16.444 -1.2061  0.1570  0.8491
 8063SOL    HW235823   0.245   4.307  16.412  0.0141 -1.0679 -0.7023
 8064SOL     OW35824   2.854   3.094   5.868  0.3585  0.1525  0.2972
 8064SOL    HW135825   2.795   3.163   5.836  1.4941 -0.4013 -3.0982
 8064SOL    HW235826   2.896   3.139   5.941 -1.0809  0.3228  1.0087
 8065SOL     OW35827   3.981   3.688  12.336 -0.1543  0.3077 -0.2502
 8065SOL    HW135828   4.009   3.711  12.425 -0.1702 -0.4416 -0.0563
 8065SOL    HW235829   3.933   3.766  12.307  0.6173  1.0162  0.3369
 8066SOL     OW35830   4.229   1.749   6.662 -0.0561 -0.3345 -0.1269
 8066SOL    HW135831   4.185   1.746   6.577 -0.8644 -1.0831  0.3103
 8066SOL    HW235832   4.154   1.768   6.719  0.8845 -2.4105  1.7924
 8067SOL     OW35833   3.519   0.349   6.358 -0.6619  0.0279  1.0246
 8067SOL    HW135834   3.570   0.274   6.326  2.4659  2.4746  0.2708
 8067SOL    HW235835   3.576   0.395   6.420 -1.0185 -0.1811  1.5011
 8068SOL     OW35836   4.672   0.374  15.346  0.9834  0.4115  0.0608
 8068SOL    HW135837   4.725   0.443  15.305  3.0405 -1.9984 -1.3342
 8068SOL    HW235838   4.644   0.328  15.268 -0.5433  0.6631  0.4702
 8069SOL     OW35839   1.553   2.935   3.807  0.3206  0.8637 -0.6287
 8069SOL    HW135840   1.564   2.895   3.893 -2.0497  0.9265 -0.3041
 8069SOL    HW235841   1.625   2.897   3.755  0.6232  0.6851 -0.0801
 8070SOL     OW35842   2.605   0.629   3.504  0.1439 -0.2628 -0.3557
 8070SOL    HW135843   2.577   0.694   3.568 -1.2686 -0.9373 -0.2943
 8070SOL    HW235844   2.571   0.559   3.558  0.5787  0.1698  0.4727
 8071SOL     OW35845   0.014   0.003  14.173 -0.2940  0.1076 -0.3162
 8071SOL    HW135846   0.102   0.040  14.173 -0.1180 -0.3168 -0.5557
 8071SOL    HW235847   0.024   4.663  14.228  0.9895  1.6780  1.6429
 8072SOL     OW35848   2.563   1.977  16.949 -0.4916  0.0747  0.5485
 8072SOL    HW135849   2.612   1.918  16.890 -0.8845 -0.1680  0.4618
 8072SOL    HW235850   2.627   2.011  17.011  0.6732 -0.4340 -0.3694
 8073SOL     OW35851   0.659   0.361   6.289 -0.0248  0.2771 -0.0887
 8073SOL    HW135852   0.751   0.385   6.290 -0.4576  1.9799 -1.0761
 8073SOL    HW235853   0.644   0.319   6.204  1.1353 -1.5734  0.6347
 8074SOL     OW35854   0.335   2.558   3.967  0.3415 -0.1192 -0.0703
 8074SOL    HW135855   0.387   2.573   3.888 -0.3706  0.3383 -0.4591
 8074SOL    HW235856   0.403   2.554   4.034 -0.0693  0.0124  0.3567
 8075SOL     OW35857   1.633   4.276   4.228  0.2338  0.1199 -0.1704
 8075SOL    HW135858   1.684   4.216   4.173  0.5322 -1.0064  1.3684
 8075SOL    HW235859   1.705   4.322   4.270  0.3769 -0.5016  0.2607
 8076SOL     OW35860   1.065   3.103   6.580 -0.1797  0.0723 -0.1290
 8076SOL    HW135861   0.973   3.128   6.588 -0.7486 -2.9794  2.6763
 8076SOL    HW235862   1.055   3.008   6.589 -2.3592  0.0736 -2.5446
 8077SOL     OW35863   2.928   3.970   8.897 -0.0868 -0.1252 -0.3202
 8077SOL    HW135864   2.855   4.031   8.890 -1.1465 -1.6814 -2.5279
 8077SOL    HW235865   2.955   3.952   8.807  0.6735 -0.3676 -0.0475
 8078SOL     OW35866   0.134   0.131   9.691 -0.1447 -0.2473  0.3103
 8078SOL    HW135867   0.068   0.123   9.760  1.8985 -4.2218  1.7927
 8078SOL    HW235868   0.168   0.219   9.708 -0.6386 -0.3282  1.6798
 8079SOL     OW35869   3.518   4.025  10.084 -0.5652 -0.2951 -0.2023
 8079SOL    HW135870   3.508   4.100  10.025  0.8015 -1.1704 -1.5405
 8079SOL    HW235871   3.552   3.966  10.017  0.0025 -1.7199  1.3328
 8080SOL     OW35872   2.919   1.587  17.223  0.1879  0.7024 -0.6627
 8080SOL    HW135873   2.831   1.591  17.184 -0.7102 -1.7245  1.0648
 8080SOL    HW235874   2.969   1.603  17.144 -1.5043 -0.6647 -2.0240
 8081SOL     OW35875   0.621   1.560   8.604  0.7624  0.5134  0.3638
 8081SOL    HW135876   0.659   1.525   8.523 -0.4557  1.0092 -0.4371
 8081SOL    HW235877   0.693   1.613   8.638  0.7074  0.8141  0.0169
 8082SOL     OW35878   2.199   2.253   1.662 -0.0730 -0.2611  0.0037
 8082SOL    HW135879   2.240   2.243   1.748 -0.1043 -0.8699 -0.0553
 8082SOL    HW235880   2.109   2.273   1.690 -0.2841 -2.0509  0.6480
 8083SOL     OW35881   1.224   2.876  10.610  0.5330  0.2683  0.0204
 8083SOL    HW135882   1.316   2.849  10.616  0.1305 -1.0023  0.5404
 8083SOL    HW235883   1.215   2.940  10.681 -0.4876 -1.4405  1.4413
 8084SOL     OW35884   0.826   4.343   6.786 -0.2362 -0.2319 -0.6061
 8084SOL    HW135885   0.880   4.345   6.865 -1.3470 -1.0584  0.1686
 8084SOL    HW235886   0.830   4.437   6.766 -0.7989 -0.4824 -1.9028
 8085SOL     OW35887   2.898   1.915   7.107 -0.1116  0.2301 -0.3592
 8085SOL    HW135888   2.936   2.002   7.110 -0.7826  0.5377 -0.6070
 8085SOL    HW235889   2.945   1.869   7.176  0.6372  0.6805 -0.5718
 8086SOL     OW35890   0.341   2.824   7.400  0.8165  0.1013 -0.7395
 8086SOL    HW135891   0.265   2.850   7.348 -0.2833  1.5757  1.5905
 8086SOL    HW235892   0.372   2.763   7.333 -0.4974 -0.6594 -0.6582
 8087SOL     OW35893   2.078   2.978   8.413  0.4052 -0.1669 -0.0173
 8087SOL    HW135894   1.993   2.983   8.457 -1.1938  1.4043 -3.3231
 8087SOL    HW235895   2.074   2.915   8.341 -0.1113  0.7983 -0.8263
 8088SOL     OW35896   1.162   2.756   6.937 -0.6401  0.3955  1.0085
 8088SOL    HW135897   1.137   2.712   7.018 -3.0850  2.0119  1.1254
 8088SOL    HW235898   1.082   2.794   6.901 -1.0570 -1.2253  0.2450
 8089SOL     OW35899   2.192   1.046  16.336 -0.4887  0.2819 -0.5691
 8089SOL    HW135900   2.148   1.040  16.421 -1.0546  1.2258 -0.7965
 8089SOL    HW235901   2.277   1.006  16.355 -0.9236 -1.2634 -1.8896
 8090SOL     OW35902   1.486   4.103   7.570  0.1234  0.2724  0.2319
 8090SOL    HW135903   1.431   4.027   7.551 -0.7089  1.5500 -2.5210
 8090SOL    HW235904   1.509   4.133   7.482  1.6830  0.2469  0.6324
 8091SOL     OW35905   2.090   2.816   8.870  0.4672 -0.5924  0.0486
 8091SOL    HW135906   2.138   2.749   8.822 -0.7839 -2.4809  1.4918
 8091SOL    HW235907   2.127   2.798   8.956  1.2335 -1.9104 -0.5561
 8092SOL     OW35908   3.732   4.665  14.407 -0.1808  0.1492  0.1314
 8092SOL    HW135909   3.650   4.634  14.445 -0.1444 -0.5417 -0.3575
 8092SOL    HW235910   3.724   0.024  14.407  0.6277  0.2212  0.3824
 8093SOL     OW35911   3.956   3.960   8.754  0.7947 -0.7708 -0.1574
 8093SOL    HW135912   3.973   4.019   8.681  1.6352 -1.1583 -0.2723
 8093SOL    HW235913   3.864   3.975   8.775  0.8240  0.7417 -1.1272
 8094SOL     OW35914   3.493   4.624  14.595  0.5517  0.0367 -0.0195
 8094SOL    HW135915   3.558   4.597  14.661  0.0246  1.4075  1.0462
 8094SOL    HW235916   3.423   4.563  14.617  0.9229 -0.2077  0.4987
 8095SOL     OW35917   3.576   3.197   9.992  0.2079  0.0181  0.3268
 8095SOL    HW135918   3.524   3.137  10.044  1.4767 -0.9437  0.4879
 8095SOL    HW235919   3.644   3.141   9.956  0.5601  0.4450  0.3240
 8096SOL     OW35920   2.420   2.473   1.476 -0.5374  0.1666 -0.2179
 8096SOL    HW135921   2.339   2.432   1.446 -1.0469  0.9615  0.0807
 8096SOL    HW235922   2.389   2.510   1.559 -0.0410  0.6020 -0.2233
 8097SOL     OW35923   0.668   4.304  14.929 -0.7538 -0.2709  0.0093
 8097SOL    HW135924   0.633   4.387  14.898 -2.2679 -1.0253 -0.2739
 8097SOL    HW235925   0.692   4.256  14.850  1.1045  1.5634 -0.5675
 8098SOL     OW35926   4.310   0.620   5.475  0.3403  0.2544  0.5660
 8098SOL    HW135927   4.297   0.702   5.426 -0.1630  0.4927  1.1026
 8098SOL    HW235928   4.313   0.649   5.566 -1.2788 -0.7382  0.9480
 8099SOL     OW35929   3.693   2.806   2.880  0.1652  0.2213  0.0395
 8099SOL    HW135930   3.710   2.811   2.785 -2.2534 -2.0238 -0.5104
 8099SOL    HW235931   3.608   2.850   2.882  0.6308  1.1384 -0.0453
 8100SOL     OW35932   2.404   4.617   6.652  0.3792  0.0321  0.0478
 8100SOL    HW135933   2.325   4.651   6.610 -0.2883 -0.9884  0.4670
 8100SOL    HW235934   2.462   4.687   6.622 -1.1255  1.0969 -0.3516
 8101SOL     OW35935   1.849   4.400   4.348 -0.1107 -0.5607 -0.0448
 8101SOL    HW135936   1.935   4.359   4.342 -0.0553 -0.3583 -0.6045
 8101SOL    HW235937   1.865   4.494   4.344  0.9415 -0.7465 -0.2762
 8102SOL     OW35938   1.463   4.472  15.820  0.0241 -0.1974  0.2744
 8102SOL    HW135939   1.378   4.441  15.850  0.0276  0.2004  0.6859
 8102SOL    HW235940   1.506   4.480  15.905  1.8679 -2.8867 -0.4121
 8103SOL     OW35941   1.031   2.573   6.477 -0.0175  0.1250 -0.7430
 8103SOL    HW135942   0.983   2.504   6.432 -1.4374 -1.2763  2.9765
 8103SOL    HW235943   1.078   2.531   6.548  0.1113 -0.3844 -1.1271
 8104SOL     OW35944   2.962   0.927   9.829  0.6234 -0.0333  0.5755
 8104SOL    HW135945   2.902   0.939   9.755  2.0450  0.0016 -0.5706
 8104SOL    HW235946   3.029   0.991   9.808 -1.4084  1.8411 -0.2364
 8105SOL     OW35947   0.575   1.342  13.084  0.3734 -0.3734  0.3305
 8105SOL    HW135948   0.634   1.371  13.014 -0.1052 -1.2474 -0.4400
 8105SOL    HW235949   0.578   1.248  13.066 -0.2925 -0.4124  0.4303
 8106SOL     OW35950   4.488   3.025  12.012  0.3032 -0.3014  0.2482
 8106SOL    HW135951   4.467   2.995  11.924  1.2712 -0.2546  0.0015
 8106SOL    HW235952   4.423   2.982  12.068  0.8654 -0.1403  1.0367
 8107SOL     OW35953   0.170   2.117  12.220  0.1481  0.0431 -0.5434
 8107SOL    HW135954   0.211   2.069  12.149  1.0873 -0.9254  0.6465
 8107SOL    HW235955   0.100   2.160  12.171  0.6792  2.5464  0.9190
 8108SOL     OW35956   0.763   3.464   8.611 -0.1417  0.1033  0.2147
 8108SOL    HW135957   0.672   3.491   8.625 -0.0397  0.5685 -0.0033
 8108SOL    HW235958   0.781   3.389   8.667  0.2576 -1.6852 -2.3073
 8109SOL     OW35959   2.130   3.610   2.184 -0.2887  0.2145  0.5231
 8109SOL    HW135960   2.161   3.693   2.146  0.6531 -0.0803  0.6406
 8109SOL    HW235961   2.119   3.554   2.107  1.7914  0.2236  0.2125
 8110SOL     OW35962   1.702   4.014   4.733 -0.1564  0.7225 -0.3495
 8110SOL    HW135963   1.745   4.100   4.732 -0.0188  0.7014  1.8266
 8110SOL    HW235964   1.774   3.968   4.776 -1.4092  0.1052  1.1139
 8111SOL     OW35965   1.797   1.617   3.820  0.0786 -0.0409 -0.4637
 8111SOL    HW135966   1.731   1.658   3.877 -0.2598  0.2748 -1.0791
 8111SOL    HW235967   1.741   1.595   3.746  0.8219 -0.3457 -0.9254
 8112SOL     OW35968   1.426   2.800   4.309  0.2320  0.2490 -0.0268
 8112SOL    HW135969   1.444   2.829   4.399  0.0039  0.9511 -0.2008
 8112SOL    HW235970   1.405   2.708   4.322 -1.2684  0.3290 -1.8798
 8113SOL     OW35971   0.871   1.383   4.075 -0.5274 -0.3108 -0.4729
 8113SOL    HW135972   0.948   1.433   4.048 -0.6324 -0.0190 -0.2320
 8113SOL    HW235973   0.888   1.295   4.043  2.1761 -0.3001  0.9629
 8114SOL     OW35974   1.209   4.173  16.338  0.9308 -0.5177 -0.2816
 8114SOL    HW135975   1.283   4.159  16.279  1.1894  0.1731 -0.1218
 8114SOL    HW235976   1.238   4.253  16.383  2.1125 -0.7154 -0.6884
 8115SOL     OW35977   0.507   4.315  16.720 -0.4568 -0.2818 -0.5839
 8115SOL    HW135978   0.493   4.401  16.680 -1.0087  1.2366  2.9162
 8115SOL    HW235979   0.600   4.320  16.743 -0.8665  1.3631  0.6900
 8116SOL     OW35980   0.238   3.961   3.498  0.2027 -0.6062 -0.1539
 8116SOL    HW135981   0.242   3.885   3.440  0.8948  0.8739 -2.0567
 8116SOL    HW235982   0.276   3.921   3.577  0.6492  0.7047  0.2881
 8117SOL     OW35983   3.298   2.308   4.927  0.5531  0.2921  0.6518
 8117SOL    HW135984   3.251   2.266   5.000  1.3252  0.2088  1.1006
 8117SOL    HW235985   3.342   2.227   4.903  1.7814  0.2485  2.9937
 8118SOL     OW35986   1.757   2.056  14.899  0.0152 -0.1452  0.0142
 8118SOL    HW135987   1.684   2.080  14.841  0.8908  0.1703 -0.9463
 8118SOL    HW235988   1.780   1.968  14.871  1.5066  0.2394  0.0720
 8119SOL     OW35989   3.951   0.427   7.831  0.2696  0.4272  0.2176
 8119SOL    HW135990   3.982   0.517   7.827  0.9760  0.1741 -0.0217
 8119SOL    HW235991   3.954   0.412   7.737 -0.0594  3.6610 -0.2888
 8120SOL     OW35992   0.405   0.050  12.935  0.1892 -0.6723 -0.3037
 8120SOL    HW135993   0.382   0.134  12.976  0.0886  0.4002 -2.5784
 8120SOL    HW235994   0.380   0.052  12.843 -1.6648  0.8264  0.2302
 8121SOL     OW35995   0.581   4.653   9.128  0.4478 -0.0851  0.4476
 8121SOL    HW135996   0.546   4.637   9.216  0.6329 -0.0272  0.5320
 8121SOL    HW235997   0.517   4.718   9.098 -0.4489 -1.2358 -0.1451
 8122SOL     OW35998   1.020   3.574   8.013  0.1247 -0.1701  0.2696
 8122SOL    HW135999   1.099   3.608   7.971  0.6495 -1.0402  0.5594
 8122SOL    HW236000   0.974   3.656   7.995  1.3010  0.0909 -1.4908
 8123SOL     OW36001   0.233   4.261   6.183 -0.5001 -0.0903 -0.0777
 8123SOL    HW136002   0.264   4.245   6.094  1.3437  0.2419  0.5044
 8123SOL    HW236003   0.187   4.343   6.163 -0.5407 -0.8049 -2.8082
 8124SOL     OW36004   1.156   1.776  16.718  0.1081  0.1461 -0.1931
 8124SOL    HW136005   1.141   1.781  16.813 -0.2675 -0.8553 -0.1965
 8124SOL    HW236006   1.105   1.847  16.679  0.2126  0.9749  1.1812
 8125SOL     OW36007   3.506   2.980   2.984 -0.6329  0.3747  0.2820
 8125SOL    HW136008   3.516   2.965   3.078  1.6030  1.7546  0.2463
 8125SOL    HW236009   3.571   3.046   2.964  0.9562 -1.0894  0.6593
 8126SOL     OW36010   4.591   3.697  11.537  0.8328 -0.3433  0.3167
 8126SOL    HW136011   4.530   3.693  11.463 -1.1735  0.1018  1.9407
 8126SOL    HW236012   4.536   3.723  11.611  1.6082 -0.3150  0.8796
 8127SOL     OW36013   0.992   2.659   3.562  0.1646 -0.4127  0.5200
 8127SOL    HW136014   1.056   2.723   3.593  0.6426  0.1160 -1.5728
 8127SOL    HW236015   0.907   2.692   3.592  0.6779 -1.0119  2.6448
 8128SOL     OW36016   4.672   4.357   6.782 -0.0119 -0.0493 -0.0751
 8128SOL    HW136017   4.696   4.265   6.771  2.0459  0.2752  1.7341
 8128SOL    HW236018   4.660   4.364   6.876  1.5534  0.3395  0.0929
 8129SOL     OW36019   3.417   0.250   5.568 -0.3119 -0.2913  0.4153
 8129SOL    HW136020   3.352   0.180   5.559  0.3415 -0.9126  0.4687
 8129SOL    HW236021   3.481   0.217   5.505 -0.1805  2.5049 -0.9331
 8130SOL     OW36022   3.510   2.878   3.252  0.6451  0.1225 -0.3411
 8130SOL    HW136023   3.447   2.806   3.258  1.9726 -1.3184 -3.4727
 8130SOL    HW236024   3.566   2.872   3.330  0.9864 -0.1651 -0.6038
 8131SOL     OW36025   3.434   0.974   9.771  0.2130  0.4176  0.3745
 8131SOL    HW136026   3.493   0.987   9.846  1.4303  0.1014 -0.5255
 8131SOL    HW236027   3.383   0.896   9.794 -1.3958  1.5322  0.5554
 8132SOL     OW36028   0.334   2.741  10.331 -0.5479  0.7298 -0.1465
 8132SOL    HW136029   0.405   2.796  10.365  1.0407  0.1827 -2.6003
 8132SOL    HW236030   0.290   2.723  10.415  0.5474  0.7847  0.4379
 8133SOL     OW36031   0.007   0.295   8.468 -0.1094  0.2048 -0.0457
 8133SOL    HW136032   4.662   0.247   8.482  1.1903 -2.0252 -0.1412
 8133SOL    HW236033   0.045   0.273   8.553  0.5778  0.2653 -0.3395
 8134SOL     OW36034   3.797   0.205   7.399 -0.0737 -0.1490 -0.7623
 8134SOL    HW136035   3.740   0.274   7.435  0.1259  0.2344 -1.1760
 8134SOL    HW236036   3.821   0.239   7.313 -1.8181  1.5109 -0.6013
 8135SOL     OW36037   0.704   0.290   5.585  0.4807  0.3983 -0.5538
 8135SOL    HW136038   0.663   0.372   5.556  0.3917  0.8522  0.8540
 8135SOL    HW236039   0.690   0.309   5.678 -0.3114  1.5832 -0.9150
 8136SOL     OW36040   0.828   2.953   7.040 -0.1747 -0.2643 -0.0088
 8136SOL    HW136041   0.859   3.031   7.087  2.5591  0.9236 -3.7971
 8136SOL    HW236042   0.737   2.946   7.066 -0.5426 -2.1340 -1.7751
 8137SOL     OW36043   2.739   2.224  17.590  0.2741 -0.0033  0.2890
 8137SOL    HW136044   2.772   2.145  17.633  1.5849  1.2008  1.5414
 8137SOL    HW236045   2.770   2.290  17.652 -1.5155  1.2452 -0.1596
 8138SOL     OW36046   4.215   3.390   9.164  0.1379  0.4882  0.5723
 8138SOL    HW136047   4.165   3.336   9.225 -1.7931  1.1666 -0.4112
 8138SOL    HW236048   4.307   3.365   9.174  0.7461  1.4908 -2.4069
 8139SOL     OW36049   2.720   0.673   4.416 -0.1720 -0.1807 -0.0120
 8139SOL    HW136050   2.689   0.583   4.406  1.6573 -1.0662  2.2238
 8139SOL    HW236051   2.748   0.700   4.329 -0.5694  0.7850  0.1645
 8140SOL     OW36052   0.648   3.066   2.278  0.7975  0.2055  0.2395
 8140SOL    HW136053   0.639   3.098   2.188  3.1737 -1.7495 -0.6723
 8140SOL    HW236054   0.569   3.012   2.283  0.3211  0.7068 -1.6790
 8141SOL     OW36055   4.613   4.058   6.158 -0.0739 -0.7503 -0.1739
 8141SOL    HW136056   4.581   4.148   6.154 -0.0449 -0.7875 -1.0536
 8141SOL    HW236057   4.669   4.063   6.236 -0.5130 -1.2264  0.1717
 8142SOL     OW36058   0.244   0.112  11.557 -0.3028  0.2416  0.7167
 8142SOL    HW136059   0.192   0.112  11.637 -0.0282  0.3936  0.8926
 8142SOL    HW236060   0.285   0.199  11.560  2.0435 -0.8253 -0.8668
 8143SOL     OW36061   3.734   3.759   6.928  0.7497  0.0900 -0.2677
 8143SOL    HW136062   3.738   3.689   6.863  1.3340  0.5016 -0.6760
 8143SOL    HW236063   3.824   3.785   6.904  1.1934  0.0895  1.4042
 8144SOL     OW36064   3.562   2.038   9.071 -0.3892 -0.8301 -0.4323
 8144SOL    HW136065   3.513   2.036   8.989 -2.2665  1.5349  0.6599
 8144SOL    HW236066   3.601   2.125   9.075 -1.2456 -0.4334 -0.7527
 8145SOL     OW36067   0.543   3.850   2.434  0.1786  0.2315 -0.7350
 8145SOL    HW136068   0.496   3.802   2.502  1.0621 -0.0665 -0.3443
 8145SOL    HW236069   0.616   3.795   2.406  1.4534  0.7654  1.6127
 8146SOL     OW36070   4.081   1.035  12.033 -0.0290  0.0540  0.3041
 8146SOL    HW136071   4.097   1.122  11.997 -1.3683  1.2782  2.6445
 8146SOL    HW236072   4.022   0.996  11.969 -1.4603  2.4141  0.1882
 8147SOL     OW36073   3.033   3.413   7.422 -0.4946 -0.2761  0.1879
 8147SOL    HW136074   2.945   3.422   7.458 -0.3786  0.2397  0.3339
 8147SOL    HW236075   3.076   3.379   7.500  3.4985  1.9280 -1.0508
 8148SOL     OW36076   2.888   0.953   6.181 -0.2457 -1.0880 -0.1715
 8148SOL    HW136077   2.978   0.918   6.180  0.3891  0.6106 -2.5784
 8148SOL    HW236078   2.867   0.963   6.274  2.0230 -1.3344  0.3650
 8149SOL     OW36079   4.625   1.330   3.716 -0.6473  0.0831 -0.6499
 8149SOL    HW136080   4.618   1.309   3.809  0.9377  0.0451 -0.5354
 8149SOL    HW236081   4.623   1.426   3.721 -0.4327  0.0035  0.9068
 8150SOL     OW36082   2.551   1.426   8.099 -0.4744  0.1030  0.6224
 8150SOL    HW136083   2.520   1.398   8.185  1.7524  0.0636  1.4233
 8150SOL    HW236084   2.482   1.487   8.073  0.3354  0.3956 -0.8442
 8151SOL     OW36085   4.629   4.415   1.332 -0.0553  0.3624 -0.4142
 8151SOL    HW136086   4.675   4.410   1.249 -1.3153 -1.8428 -0.9863
 8151SOL    HW236087   4.699   4.444   1.390 -0.4688  0.3980  0.0718
 8152SOL     OW36088   0.340   2.081   0.142 -0.0361  0.0562  0.2731
 8152SOL    HW136089   0.400   2.076   0.216 -0.0196  0.0014  0.2555
 8152SOL    HW236090   0.314   2.173   0.151  1.5310  0.6252 -0.8563
 8153SOL     OW36091   1.981   2.265  10.910 -0.0555  0.4150  0.3769
 8153SOL    HW136092   1.899   2.281  10.957  0.7630  0.8899  1.6577
 8153SOL    HW236093   1.951   2.179  10.883  0.7520 -0.0233  0.8767
 8154SOL     OW36094   3.154   3.773   9.330  0.5125  0.3946  0.2015
 8154SOL    HW136095   3.126   3.840   9.268 -1.9645  0.3051  1.2225
 8154SOL    HW236096   3.104   3.808   9.404 -0.6383 -1.7159  0.4300
 8155SOL     OW36097   2.331   0.818   4.230  0.3486 -0.0891 -0.0725
 8155SOL    HW136098   2.297   0.729   4.225 -0.3486  0.0164  3.0711
 8155SOL    HW236099   2.398   0.812   4.162 -0.1496 -1.8543 -0.4129
 8156SOL     OW36100   0.324   2.765   8.764 -0.0056 -0.1639 -0.5565
 8156SOL    HW136101   0.265   2.839   8.775  1.8853  0.9668  2.1126
 8156SOL    HW236102   0.375   2.757   8.845  0.8510  1.9447 -0.8930
 8157SOL     OW36103   2.630   3.747  15.740 -0.2599  0.3086  0.3170
 8157SOL    HW136104   2.649   3.803  15.665  0.7434 -0.6186 -0.1113
 8157SOL    HW236105   2.633   3.809  15.813  0.2589 -0.0981  0.6382
 8158SOL     OW36106   1.383   0.823   6.883  0.5270  0.1419  0.0460
 8158SOL    HW136107   1.467   0.867   6.868  0.3762  0.6659  0.7474
 8158SOL    HW236108   1.407   0.733   6.905 -0.7524  0.3750  2.4134
 8159SOL     OW36109   3.321   4.230   7.110  0.1065 -0.1598 -0.0830
 8159SOL    HW136110   3.397   4.200   7.059 -0.6369 -3.1796  0.5707
 8159SOL    HW236111   3.291   4.300   7.052  1.7387 -0.2244 -1.0282
 8160SOL     OW36112   3.609   1.827   1.638 -0.3286 -0.2006  0.3392
 8160SOL    HW136113   3.587   1.764   1.706 -0.7308  0.0691  0.4567
 8160SOL    HW236114   3.625   1.776   1.558 -1.5377  0.6810 -0.4662
 8161SOL     OW36115   3.674   2.262   8.875  0.1944 -0.4227  0.1675
 8161SOL    HW136116   3.663   2.348   8.916 -2.0218 -0.2336 -0.8444
 8161SOL    HW236117   3.609   2.263   8.806  0.8070 -1.3361 -0.4314
 8162SOL     OW36118   0.988   0.743   8.473  0.5039 -0.0271 -0.2325
 8162SOL    HW136119   0.896   0.728   8.450  0.2434  0.8019  0.2576
 8162SOL    HW236120   0.974   0.741   8.567  1.6368  1.2966 -0.0344
 8163SOL     OW36121   0.016   0.460   3.507 -0.4442 -0.2993 -0.0349
 8163SOL    HW136122   0.085   0.408   3.548 -2.5777 -1.1534  2.4707
 8163SOL    HW236123   4.731   0.400   3.436  1.3360  0.6506 -1.3906
 8164SOL     OW36124   1.208   1.898  15.017 -0.1756  0.1129 -0.1053
 8164SOL    HW136125   1.252   1.982  15.003  0.1645  0.5679  3.5663
 8164SOL    HW236126   1.165   1.870  14.936 -1.0707  1.8130 -0.2112
 8165SOL     OW36127   2.337   4.429   4.934  0.1070  0.3529  0.4041
 8165SOL    HW136128   2.393   4.393   5.002  1.0693  0.2723 -0.4365
 8165SOL    HW236129   2.405   4.463   4.877 -0.6049 -1.2460 -1.4050
 8166SOL     OW36130   4.582   3.108   2.139 -0.3068  0.7535  0.1594
 8166SOL    HW136131   4.546   3.182   2.091  0.0448  0.5638 -0.4031
 8166SOL    HW236132   4.547   3.123   2.226 -1.3675 -2.2783  0.2663
 8167SOL     OW36133   3.288   1.961   0.819 -0.4483  0.5511 -0.2116
 8167SOL    HW136134   3.230   1.980   0.746 -2.1281 -0.4899  0.8498
 8167SOL    HW236135   3.254   2.025   0.882  0.9374  1.2694 -0.1821
 8168SOL     OW36136   3.564   0.670  13.354 -0.1391 -0.1588 -0.4127
 8168SOL    HW136137   3.497   0.660  13.422  0.4471 -0.5306  0.1078
 8168SOL    HW236138   3.601   0.582  13.344 -0.4455 -0.3971  0.5956
 8169SOL     OW36139   4.350   3.363   4.885  1.0490  0.1580  0.5068
 8169SOL    HW136140   4.292   3.381   4.812  0.7150  0.2608  0.7961
 8169SOL    HW236141   4.363   3.268   4.893  3.4962  0.6730  2.6286
 8170SOL     OW36142   1.320   0.615   9.891  0.7075  0.1283  0.1604
 8170SOL    HW136143   1.339   0.669   9.967 -0.1691  0.8469 -0.1387
 8170SOL    HW236144   1.225   0.615   9.884  0.6208 -0.8751  1.1855
 8171SOL     OW36145   2.534   0.116   7.073  0.6626  0.6610 -0.3746
 8171SOL    HW136146   2.530   0.149   7.162 -1.1298  1.3466 -0.6912
 8171SOL    HW236147   2.441   0.099   7.056  0.8461 -0.1587 -0.5783
 8172SOL     OW36148   3.034   3.117  13.066  0.0459  0.4039 -0.3681
 8172SOL    HW136149   3.058   3.188  13.126 -1.0969  0.6176 -0.1590
 8172SOL    HW236150   3.013   3.040  13.120  0.5737  0.3985 -0.1695
 8173SOL     OW36151   0.772   3.202   1.621  0.4660 -0.2258  0.0341
 8173SOL    HW136152   0.734   3.284   1.590  0.2049 -0.9470 -1.5780
 8173SOL    HW236153   0.813   3.171   1.540 -0.3467 -2.3091  0.4277
 8174SOL     OW36154   3.249   3.069   6.058 -0.4562  0.4176 -0.4456
 8174SOL    HW136155   3.260   3.121   5.978  0.2388  1.1424  0.1240
 8174SOL    HW236156   3.326   3.084   6.113 -1.3763 -1.3358  1.3226
 8175SOL     OW36157   0.699   4.722   2.626  0.5022 -0.0444 -0.5134
 8175SOL    HW136158   0.769   0.011   2.687 -0.4057 -3.3520  1.9513
 8175SOL    HW236159   0.750   4.673   2.562  0.4505  1.1291 -1.4570
 8176SOL     OW36160   0.852   1.157   5.420  0.6333 -0.1536  0.2521
 8176SOL    HW136161   0.879   1.197   5.337  0.9002  1.2551  1.0350
 8176SOL    HW236162   0.798   1.224   5.462 -1.5878 -2.0665  0.4527
 8177SOL     OW36163   3.107   3.440   1.459  0.1778 -0.1417 -0.5407
 8177SOL    HW136164   3.097   3.390   1.540  0.6397  0.0446 -0.3682
 8177SOL    HW236165   3.202   3.445   1.455  0.2868 -1.6524  0.0083
 8178SOL     OW36166   4.691   3.261   7.961  0.9246 -0.3736  0.3747
 8178SOL    HW136167   0.033   3.315   7.954  1.4711 -1.1383  0.5993
 8178SOL    HW236168   4.658   3.254   7.872  0.6818 -0.7457  0.4943
 8179SOL     OW36169   3.504   4.439  15.066 -0.2064  0.0759 -0.2547
 8179SOL    HW136170   3.545   4.393  14.992  1.3538  0.1788  0.5533
 8179SOL    HW236171   3.558   4.518  15.064 -1.0432  0.6074 -1.9027
 8180SOL     OW36172   2.909   2.513   3.410 -0.1208  0.2650  0.5392
 8180SOL    HW136173   2.822   2.483   3.381 -0.0490  0.9968 -0.4350
 8180SOL    HW236174   2.903   2.585   3.472  0.7372 -0.0437  0.9737
 8181SOL     OW36175   0.326   2.174   6.410  0.2474 -0.2032  0.1764
 8181SOL    HW136176   0.379   2.110   6.362  0.9206 -0.4922  1.3029
 8181SOL    HW236177   0.347   2.148   6.500 -0.5686  0.7956  0.6455
 8182SOL     OW36178   3.613   1.411   2.247  0.0203  0.2808 -0.6198
 8182SOL    HW136179   3.619   1.316   2.256 -1.5907  0.3123  0.7395
 8182SOL    HW236180   3.628   1.438   2.337  0.9627  1.2269 -1.0558
 8183SOL     OW36181   3.022   4.628   4.631  0.5348  0.8324 -0.2930
 8183SOL    HW136182   3.011   4.705   4.687 -0.0368  1.0695 -0.7276
 8183SOL    HW236183   2.934   4.622   4.594  0.1920 -1.4920  0.9513
 8184SOL     OW36184   0.526   2.617   4.565 -0.4694 -0.0915 -0.1517
 8184SOL    HW136185   0.478   2.596   4.645 -0.4704  1.3757  0.2290
 8184SOL    HW236186   0.567   2.702   4.581 -2.2408  0.4953  1.2238
 8185SOL     OW36187   2.444   3.853  11.600  0.0771  0.2166 -0.2224
 8185SOL    HW136188   2.406   3.784  11.547 -0.6091  0.3205  0.1303
 8185SOL    HW236189   2.506   3.894  11.541  2.0787 -3.2354 -0.5131
 8186SOL     OW36190   2.229   0.769   9.611 -0.5119  0.2096  0.2383
 8186SOL    HW136191   2.279   0.726   9.542 -0.0815 -0.7562  1.1500
 8186SOL    HW236192   2.145   0.729   9.589  0.0872 -2.1387  2.1739
 8187SOL     OW36193   2.551   1.508   2.834 -0.0864  0.4558 -0.6309
 8187SOL    HW136194   2.602   1.440   2.879 -0.2938  1.6936  1.4854
 8187SOL    HW236195   2.622   1.552   2.787  0.5941 -1.3812 -1.3329
 8188SOL     OW36196   4.405   2.415   8.236 -0.2059  0.5320 -0.2231
 8188SOL    HW136197   4.328   2.462   8.204  1.3195  3.0673 -0.1298
 8188SOL    HW236198   4.455   2.410   8.155 -1.0826  1.2411 -0.8065
 8189SOL     OW36199   4.504   2.550   4.363 -0.0313 -0.2021 -0.1346
 8189SOL    HW136200   4.548   2.529   4.445 -0.9628  1.2997  0.7498
 8189SOL    HW236201   4.569   2.604   4.317 -1.7191  1.5775 -0.4541
 8190SOL     OW36202   3.894   2.293   5.924  0.3288 -0.2987 -0.0299
 8190SOL    HW136203   3.975   2.247   5.943  1.1785  0.0957 -2.7621
 8190SOL    HW236204   3.939   2.371   5.892 -1.2863  0.1647 -1.1820
 8191SOL     OW36205   3.152   0.392   8.468 -0.3416 -0.4645 -0.2762
 8191SOL    HW136206   3.222   0.328   8.481 -0.4404  0.1353  3.2964
 8191SOL    HW236207   3.166   0.410   8.375  0.7030 -1.5899 -0.3372
 8192SOL     OW36208   4.575   0.531   5.463 -0.3472 -0.0321  0.2585
 8192SOL    HW136209   4.500   0.508   5.518 -0.8814  2.2366  0.4553
 8192SOL    HW236210   4.535   0.537   5.376  0.5345  0.4704 -0.1153
 8193SOL     OW36211   0.686   1.155   7.450 -0.2258 -0.1887 -0.0216
 8193SOL    HW136212   0.685   1.061   7.468 -1.3525 -0.3589 -0.9783
 8193SOL    HW236213   0.752   1.196   7.506  1.0902 -1.3466 -0.7343
 8194SOL     OW36214   4.382   2.301   9.312  0.1516 -0.2048 -0.1242
 8194SOL    HW136215   4.298   2.287   9.267 -0.9615  2.0363  1.2282
 8194SOL    HW236216   4.441   2.277   9.241  1.8990 -0.1590  1.3141
 8195SOL     OW36217   3.479   4.097   9.604  0.1085 -0.5842  0.8239
 8195SOL    HW136218   3.491   4.017   9.655 -1.4284 -1.5501 -0.3268
 8195SOL    HW236219   3.391   4.124   9.630 -0.3844 -0.8181 -0.6331
 8196SOL     OW36220   0.981   1.378   8.771 -0.4701  0.6697 -0.2323
 8196SOL    HW136221   0.939   1.430   8.703 -1.0004 -0.7938 -1.0084
 8196SOL    HW236222   1.020   1.447   8.825  0.4857 -1.6316  2.0375
 8197SOL     OW36223   3.721   3.192   4.230  0.3072  0.0406  0.0240
 8197SOL    HW136224   3.668   3.256   4.181  1.0237 -1.6199 -2.9347
 8197SOL    HW236225   3.728   3.118   4.170 -1.4872 -0.7242  0.7595
 8198SOL     OW36226   2.174   2.828  15.308  0.0385  0.6694 -0.0949
 8198SOL    HW136227   2.132   2.766  15.249 -0.6213  0.5441  0.5167
 8198SOL    HW236228   2.265   2.798  15.302  0.0200  0.9453 -1.7951
 8199SOL     OW36229   2.938   1.157  11.880 -0.1689 -0.3610 -0.4402
 8199SOL    HW136230   3.002   1.098  11.921  0.7855  0.6748 -0.4476
 8199SOL    HW236231   2.865   1.096  11.877 -1.1532  0.8699 -1.2870
 8200SOL     OW36232   1.098   1.607   4.072  0.1012  0.7696 -0.5419
 8200SOL    HW136233   1.133   1.560   3.996 -0.4846  3.0712 -2.2657
 8200SOL    HW236234   1.180   1.638   4.111  0.4373 -1.9933  0.9325
 8201SOL     OW36235   4.428   4.374  10.916  0.4137 -0.2967  0.1039
 8201SOL    HW136236   4.411   4.429  10.993  4.2342 -0.4068  1.0204
 8201SOL    HW236237   4.368   4.302  10.935  0.2288  0.3612  2.0096
 8202SOL     OW36238   1.320   1.953   9.184 -0.5403  0.0837  0.4872
 8202SOL    HW136239   1.238   1.999   9.200  0.1398  1.3947  0.2447
 8202SOL    HW236240   1.346   1.922   9.271 -0.8888  1.2484  1.0102
 8203SOL     OW36241   3.743   0.539   1.197 -0.4112 -0.7528 -0.0394
 8203SOL    HW136242   3.678   0.568   1.133  1.6973  0.8959 -1.4296
 8203SOL    HW236243   3.817   0.570   1.145  0.9357 -2.5656  0.8142
 8204SOL     OW36244   2.362   3.655  11.429 -0.7648  0.7216 -0.4556
 8204SOL    HW136245   2.340   3.585  11.490  1.1457  0.6977  0.2145
 8204SOL    HW236246   2.357   3.613  11.344  2.4934 -0.3251 -0.1263
 8205SOL     OW36247   1.564   2.136  14.728 -0.6780  0.1111 -0.1030
 8205SOL    HW136248   1.506   2.070  14.691 -2.0114  0.6649  0.9901
 8205SOL    HW236249   1.590   2.190  14.653 -0.2139  0.1471  0.0876
 8206SOL     OW36250   1.556   1.472   5.810 -0.5268  0.4202 -0.0698
 8206SOL    HW136251   1.569   1.473   5.715  0.3134  1.0670  0.0537
 8206SOL    HW236252   1.519   1.384   5.822  0.1112  0.2632  0.7581
 8207SOL     OW36253   3.845   4.717   9.493  0.8229  0.3133 -0.0706
 8207SOL    HW136254   3.914   0.018   9.548 -0.3781  0.7326  1.1516
 8207SOL    HW236255   3.858   0.019   9.407  0.8646 -1.7769 -0.9911
 8208SOL     OW36256   4.288   3.122  10.870  0.2646  0.2037 -0.6069
 8208SOL    HW136257   4.319   3.059  10.935 -1.6280  0.5022  0.5906
 8208SOL    HW236258   4.325   3.091  10.787  1.7143 -1.8626  0.8150
 8209SOL     OW36259   0.494   2.088   8.562 -0.3548 -0.2705  0.1903
 8209SOL    HW136260   0.401   2.074   8.544 -0.8164  0.2501  2.1673
 8209SOL    HW236261   0.524   2.013   8.614 -1.1248 -1.2247 -0.7441
 8210SOL     OW36262   4.394   1.846   5.991 -0.3327  0.3807  0.1386
 8210SOL    HW136263   4.436   1.851   6.077 -0.3124  1.5410  0.0543
 8210SOL    HW236264   4.419   1.757   5.963 -0.1013  0.7630 -0.8720
 8211SOL     OW36265   0.601   1.592   0.874  0.2452 -0.1602  0.1987
 8211SOL    HW136266   0.581   1.683   0.851  0.8201 -0.5504 -1.7927
 8211SOL    HW236267   0.662   1.599   0.947 -1.4670 -0.8118  1.7025
 8212SOL     OW36268   3.613   0.500   9.841  1.0168 -0.3584  0.3931
 8212SOL    HW136269   3.663   0.581   9.849 -0.7165  0.8600 -0.9077
 8212SOL    HW236270   3.631   0.451   9.920 -1.1657  0.6823  1.5429
 8213SOL     OW36271   1.306   2.015   0.412 -0.4262  0.0283  0.1395
 8213SOL    HW136272   1.267   2.017   0.499  1.0098 -1.4951  0.8197
 8213SOL    HW236273   1.237   2.059   0.362  0.2184  0.3847 -0.4309
 8214SOL     OW36274   0.768   0.562  11.382 -0.3430  0.3785 -0.3680
 8214SOL    HW136275   0.702   0.516  11.434 -1.1935  1.0559 -0.8510
 8214SOL    HW236276   0.753   0.511  11.303 -3.6083  1.7952 -0.6539
 8215SOL     OW36277   1.059   1.098   5.594  0.0441  0.6826 -0.1210
 8215SOL    HW136278   0.996   1.122   5.526  0.8704 -0.6231 -1.3307
 8215SOL    HW236279   1.123   1.058   5.536  0.3803 -1.3282  1.6217
 8216SOL     OW36280   1.605   3.263   0.967  0.4431  0.1004  0.1908
 8216SOL    HW136281   1.569   3.201   1.031 -1.4115  1.5976  0.5988
 8216SOL    HW236282   1.674   3.202   0.941 -0.7797 -1.9388  1.6737
 8217SOL     OW36283   4.652   3.209   7.674  0.3892  0.0991 -0.1157
 8217SOL    HW136284   4.559   3.230   7.667  0.5186  0.0191 -2.0002
 8217SOL    HW236285   4.688   3.279   7.620  0.5054 -0.0223 -0.1945
 8218SOL     OW36286   0.177   2.666   5.978 -0.2934  0.1017 -0.4553
 8218SOL    HW136287   0.200   2.655   5.886  0.2535 -0.5918 -0.2345
 8218SOL    HW236288   0.253   2.711   6.015 -2.0485  1.4812  1.4655
 8219SOL     OW36289   4.558   0.981   9.357  0.7768 -0.1038 -0.1876
 8219SOL    HW136290   4.480   0.986   9.303  0.0182  0.7422  0.9907
 8219SOL    HW236291   4.562   1.077   9.358  2.1211 -0.1598  0.9568
 8220SOL     OW36292   1.519   0.771   8.643 -0.5641  0.5566  0.5611
 8220SOL    HW136293   1.488   0.787   8.554  0.5794 -0.5414 -0.0402
 8220SOL    HW236294   1.434   0.756   8.684 -0.2907 -2.8438 -0.1256
 8221SOL     OW36295   3.167   3.531  10.079  0.1754 -0.7798 -0.0956
 8221SOL    HW136296   3.238   3.501  10.136 -0.4980 -1.3610  0.4255
 8221SOL    HW236297   3.184   3.622  10.105  0.7813 -1.6940  2.7252
 8222SOL     OW36298   2.430   0.854  13.522  0.3153 -0.1358  0.0673
 8222SOL    HW136299   2.457   0.938  13.559 -2.0483  0.3101  0.7788
 8222SOL    HW236300   2.454   0.799  13.597  1.7299  0.8041  0.3104
 8223SOL     OW36301   4.477   3.778   2.624  0.0162  0.2255  0.5685
 8223SOL    HW136302   4.572   3.766   2.628  0.1441  1.4878  1.4380
 8223SOL    HW236303   4.470   3.842   2.554  3.9439 -0.2103 -0.2241
 8224SOL     OW36304   3.975   3.836   6.859 -0.3457 -0.6149  0.3278
 8224SOL    HW136305   4.049   3.896   6.846 -0.8774  0.2994  1.4885
 8224SOL    HW236306   4.010   3.757   6.819  0.3041  0.2507 -0.8316
 8225SOL     OW36307   0.657   1.029   6.412 -0.2582  0.0566  0.0092
 8225SOL    HW136308   0.698   0.952   6.452 -1.0415 -1.2444 -1.7147
 8225SOL    HW236309   0.591   1.054   6.476  0.7059  1.8687  0.2911
 8226SOL     OW36310   0.582   4.255  14.515  0.1465  0.6822 -0.0667
 8226SOL    HW136311   0.496   4.224  14.544  1.5566 -1.9462  1.2635
 8226SOL    HW236312   0.631   4.196  14.572 -0.4586  0.6673  0.4396
 8227SOL     OW36313   1.893   0.672   2.498  0.3986 -0.2980  0.2912
 8227SOL    HW136314   1.835   0.736   2.456  1.0987 -1.1748 -2.0458
 8227SOL    HW236315   1.948   0.731   2.549  1.2926 -0.5787 -0.3452
 8228SOL     OW36316   4.490   1.718   0.654  0.0724 -0.1212  0.2134
 8228SOL    HW136317   4.453   1.755   0.574  0.3486  0.2883  0.2793
 8228SOL    HW236318   4.579   1.751   0.658  0.0983  0.2956 -4.1892
 8229SOL     OW36319   2.994   3.989  15.532  0.3963 -0.0316 -0.3289
 8229SOL    HW136320   3.087   4.007  15.547  0.3939 -0.8835  0.7106
 8229SOL    HW236321   2.992   4.016  15.440  2.1877 -1.1191 -0.6847
 8230SOL     OW36322   1.121   3.789   5.249 -0.6189 -0.0324 -0.0755
 8230SOL    HW136323   1.131   3.778   5.154 -0.2994  0.0192 -0.0478
 8230SOL    HW236324   1.070   3.867   5.271 -1.2344 -0.3830 -0.2351
 8231SOL     OW36325   2.219   0.651  12.006 -0.2038  0.1835  0.3540
 8231SOL    HW136326   2.295   0.672  11.951  0.4368 -1.7638  0.4742
 8231SOL    HW236327   2.197   0.738  12.039  1.1887  0.3867  0.7891
 8232SOL     OW36328   2.024   2.038   2.144 -0.0913 -0.2871  0.1104
 8232SOL    HW136329   2.018   1.966   2.207  1.8335  0.3612  1.0293
 8232SOL    HW236330   2.106   2.013   2.103 -0.6925 -0.9321 -0.6872
 8233SOL     OW36331   2.309   3.232  12.137 -0.0086  0.4300  0.4585
 8233SOL    HW136332   2.260   3.267  12.063 -0.5508  0.1819  0.6983
 8233SOL    HW236333   2.316   3.304  12.200  1.6665  1.2229 -0.6198
 8234SOL     OW36334   0.040   0.191  10.006  0.6527  0.2041  0.5150
 8234SOL    HW136335   0.059   0.282  10.029 -0.0328  0.6540 -0.7028
 8234SOL    HW236336   0.123   0.145  10.019  0.7132  0.4423  0.9881
 8235SOL     OW36337   0.627   4.477  16.327  0.4682 -0.0374 -0.1524
 8235SOL    HW136338   0.722   4.479  16.330  0.5925 -3.5052 -1.7946
 8235SOL    HW236339   0.596   4.547  16.386 -0.3039 -0.2242 -0.3325
 8236SOL     OW36340   2.900   0.543   8.716  0.0621  0.6492 -0.3916
 8236SOL    HW136341   2.867   0.491   8.644  0.9168 -1.3913  0.6985
 8236SOL    HW236342   2.961   0.475   8.744 -0.0983  1.1859  1.3229
 8237SOL     OW36343   1.441   1.643   2.535  0.3375  0.1393  0.1856
 8237SOL    HW136344   1.498   1.711   2.571 -1.1851  1.2346  0.5172
 8237SOL    HW236345   1.382   1.706   2.493  0.3351  0.3883  0.5602
 8238SOL     OW36346   1.851   1.280   4.144 -0.2822  0.1610  0.0023
 8238SOL    HW136347   1.904   1.208   4.177 -3.0207 -2.2742 -0.9141
 8238SOL    HW236348   1.923   1.331   4.106 -1.1894  2.0716  0.8643
 8239SOL     OW36349   1.769   2.831   0.582  0.1250  0.3395 -0.0685
 8239SOL    HW136350   1.782   2.762   0.517  1.3300  1.8160 -1.3965
 8239SOL    HW236351   1.726   2.774   0.645  0.3414 -0.7918 -0.9409
 8240SOL     OW36352   0.268   3.732   6.440 -0.3711 -0.5531  0.4105
 8240SOL    HW136353   0.256   3.658   6.380  0.5484  0.1740 -0.6642
 8240SOL    HW236354   0.272   3.806   6.380 -1.3793  0.0357  1.0708
 8241SOL     OW36355   0.739   3.526   7.312  0.4773 -0.3554  0.0239
 8241SOL    HW136356   0.673   3.511   7.245  0.5286  0.1003 -0.1284
 8241SOL    HW236357   0.739   3.433   7.333 -1.9503 -0.1889  0.8016
 8242SOL     OW36358   1.193   2.175  12.338  0.2780  0.0140  0.1407
 8242SOL    HW136359   1.266   2.238  12.341 -0.4198  0.9425 -2.5492
 8242SOL    HW236360   1.227   2.108  12.397 -0.8627  0.6452  1.5121
 8243SOL     OW36361   0.614   4.320   8.960  0.4837 -0.1933  1.4097
 8243SOL    HW136362   0.685   4.259   8.942  0.6382  0.8214 -1.3689
 8243SOL    HW236363   0.577   4.265   9.029 -1.5340  0.2673  0.7121
 8244SOL     OW36364   4.638   3.810  13.696  0.1710  0.5172  0.3169
 8244SOL    HW136365   4.620   3.883  13.756 -0.5833  0.2928  0.3694
 8244SOL    HW236366   4.713   3.843  13.648 -0.4919  2.1942  0.4124
 8245SOL     OW36367   0.136   0.054  11.100 -0.3467 -0.5632  0.0069
 8245SOL    HW136368   0.220   0.053  11.053 -1.0897 -2.1251 -1.2867
 8245SOL    HW236369   0.143   0.133  11.153 -1.0058 -0.7595  0.3898
 8246SOL     OW36370   3.098   2.901   1.534  0.7025 -0.4360  0.1646
 8246SOL    HW136371   3.098   2.830   1.598  2.4341  0.6489  1.4023
 8246SOL    HW236372   3.136   2.864   1.455 -0.8151  3.2493 -2.2676
 8247SOL     OW36373   2.939   1.458   5.791 -0.5977  0.0214  0.3964
 8247SOL    HW136374   3.017   1.511   5.803  0.3513 -1.2159 -0.3056
 8247SOL    HW236375   2.903   1.486   5.707 -2.0031  0.3332  1.1024
 8248SOL     OW36376   1.754   2.782  16.218  0.3546  0.6576 -0.5112
 8248SOL    HW136377   1.808   2.830  16.282 -0.4019  1.3999 -0.4284
 8248SOL    HW236378   1.665   2.805  16.244  0.4884  0.2355  0.3220
 8249SOL     OW36379   0.503   2.371   6.952 -0.2001  0.3448 -0.2119
 8249SOL    HW136380   0.425   2.341   6.999  0.9070  0.0838  1.4811
 8249SOL    HW236381   0.471   2.440   6.895  2.0422  0.4779 -1.3140
 8250SOL     OW36382   1.026   1.007   9.017  0.6785 -0.3436 -0.4141
 8250SOL    HW136383   1.039   0.972   9.105  1.9645 -0.4585 -0.6548
 8250SOL    HW236384   1.067   1.092   9.030  1.7780 -0.5293 -2.6247
 8251SOL     OW36385   2.032   3.944   6.118 -0.3716 -0.1188 -0.5714
 8251SOL    HW136386   2.079   3.882   6.063 -2.0581 -2.4478  0.6286
 8251SOL    HW236387   2.093   4.007   6.157  0.1447 -2.3571  2.2742
 8252SOL     OW36388   4.584   2.409   4.073  0.0374 -0.1469  0.3527
 8252SOL    HW136389   4.672   2.441   4.056 -0.2475  1.4123  1.7909
 8252SOL    HW236390   4.606   2.349   4.144 -2.0756  2.7189  3.4096
 8253SOL     OW36391   0.390   2.568   4.791 -0.1931  0.1013  0.4101
 8253SOL    HW136392   0.339   2.496   4.828  0.3250 -0.9726 -0.9945
 8253SOL    HW236393   0.321   2.628   4.760 -0.8638  0.7911  3.1971
 8254SOL     OW36394   1.426   3.970  15.966  0.3957  0.1093  0.8519
 8254SOL    HW136395   1.455   3.924  16.045 -2.3418 -1.6140  0.8652
 8254SOL    HW236396   1.459   4.056  15.991  0.7631  0.2945 -0.2709
 8255SOL     OW36397   3.193   1.205   7.548  0.1991 -0.3626 -0.0771
 8255SOL    HW136398   3.134   1.137   7.582  0.1221 -1.4956 -2.4450
 8255SOL    HW236399   3.159   1.287   7.585  1.0354 -0.0328 -0.0514
 8256SOL     OW36400   4.281   0.089   1.639 -0.0168  0.5467  0.8657
 8256SOL    HW136401   4.248   0.148   1.571 -2.2226 -1.8161 -0.0929
 8256SOL    HW236402   4.307   0.021   1.577 -3.5150 -1.2863  1.4061
 8257SOL     OW36403   1.347   2.260  11.554 -0.2831 -0.2780  0.1067
 8257SOL    HW136404   1.388   2.346  11.542 -0.6673 -0.1847 -0.5218
 8257SOL    HW236405   1.352   2.240  11.648  0.4785 -1.3130 -0.1498
 8258SOL     OW36406   2.461   2.367   2.495  0.8363 -0.0443  0.0773
 8258SOL    HW136407   2.468   2.418   2.576  4.8595  3.7011 -2.5965
 8258SOL    HW236408   2.437   2.440   2.438  1.2461  0.0487  0.0240
 8259SOL     OW36409   4.168   0.532  14.536 -0.2552  0.4568 -0.6021
 8259SOL    HW136410   4.142   0.622  14.554 -2.3078 -0.6280  1.8232
 8259SOL    HW236411   4.110   0.508  14.463 -0.5122  0.3654 -0.3695
 8260SOL     OW36412   2.056   0.783   4.386 -0.0252  0.3521  0.1678
 8260SOL    HW136413   2.004   0.777   4.305 -0.9064  0.4551  0.7287
 8260SOL    HW236414   2.085   0.873   4.386 -3.0605  1.3211  3.4910
 8261SOL     OW36415   3.193   1.023   7.343  0.7308  0.3106 -0.3586
 8261SOL    HW136416   3.215   1.075   7.420 -2.3640 -0.5460  1.1291
 8261SOL    HW236417   3.178   1.088   7.275  3.7844 -0.8309 -2.1294
 8262SOL     OW36418   2.608   2.074  14.589 -0.5788 -0.2284  0.5724
 8262SOL    HW136419   2.588   2.027  14.670 -1.0132  0.8476  1.0780
 8262SOL    HW236420   2.658   2.012  14.536 -3.1980 -1.5400 -0.3521
 8263SOL     OW36421   4.021   1.730   7.355  0.3139  0.3686 -1.0253
 8263SOL    HW136422   4.044   1.694   7.440  1.8409 -1.9834 -2.4345
 8263SOL    HW236423   3.931   1.752   7.382  0.3505  0.6263 -1.1138
 8264SOL     OW36424   1.405   2.600   0.568 -0.4991  0.3833 -0.0950
 8264SOL    HW136425   1.357   2.521   0.544  0.4131  0.3403 -1.8150
 8264SOL    HW236426   1.493   2.566   0.583 -1.7123 -3.1613 -0.9886
 8265SOL     OW36427   4.615   3.358  11.746 -0.1217 -0.1643  0.4737
 8265SOL    HW136428   4.622   3.269  11.783 -2.6613 -0.2682  0.7087
 8265SOL    HW236429   4.687   3.363  11.684 -0.4824  2.3463  0.2715
 8266SOL     OW36430   1.753   4.579   0.144  0.3855  0.5819 -0.1417
 8266SOL    HW136431   1.827   4.519   0.132  1.0588  1.8173 -1.9715
 8266SOL    HW236432   1.677   4.539   0.102  0.1867 -0.5488  1.2599
 8267SOL     OW36433   4.722   1.596   2.377 -0.1416  0.2607 -0.3873
 8267SOL    HW136434   0.047   1.565   2.443 -0.1272  0.3257 -0.3702
 8267SOL    HW236435   0.003   1.527   2.313  0.6431 -1.4469  1.6519
 8268SOL     OW36436   2.907   3.584   3.091  0.6036 -0.4253 -0.3677
 8268SOL    HW136437   2.977   3.574   3.027  1.0089  2.2312 -0.3542
 8268SOL    HW236438   2.884   3.677   3.099  1.6313 -0.3792  1.9435
 8269SOL     OW36439   0.535   0.674   8.280 -0.1009 -0.2532  0.2254
 8269SOL    HW136440   0.501   0.590   8.311 -2.1605  0.1653 -0.9545
 8269SOL    HW236441   0.458   0.728   8.264  1.3098  1.6952  0.0116
 8270SOL     OW36442   3.842   3.009   1.080 -0.2579 -0.2743 -0.2499
 8270SOL    HW136443   3.890   3.045   1.155 -1.0997  0.0473  0.1402
 8270SOL    HW236444   3.906   2.975   1.018 -2.3096 -2.2297 -1.2911
 8271SOL     OW36445   4.206   3.734  13.746 -0.1513  0.1873  0.1832
 8271SOL    HW136446   4.213   3.655  13.800 -2.0592  0.6909  1.1690
 8271SOL    HW236447   4.211   3.806  13.809  1.5668 -0.4508  0.7825
 8272SOL     OW36448   1.101   0.308  10.308 -0.0387  0.3494 -0.3583
 8272SOL    HW136449   1.125   0.390  10.351  0.5599 -0.1906  0.3299
 8272SOL    HW236450   1.009   0.312  10.336  0.1862  0.8436  0.3157
 8273SOL     OW36451   4.372   3.241   7.728 -0.3326  0.4639 -0.3360
 8273SOL    HW136452   4.278   3.253   7.715 -0.2563  0.4246 -0.9621
 8273SOL    HW236453   4.384   3.157   7.771  2.8833 -0.9792 -4.0129
 8274SOL     OW36454   1.364   3.151  16.614 -0.2761 -0.0150 -0.4766
 8274SOL    HW136455   1.459   3.159  16.608 -0.2360 -0.7701 -0.8235
 8274SOL    HW236456   1.358   3.094  16.690 -1.2571  1.5002  0.5818
 8275SOL     OW36457   0.466   1.473   2.577 -0.2395  0.0985 -0.2380
 8275SOL    HW136458   0.455   1.425   2.659  0.4841  0.5874  0.1452
 8275SOL    HW236459   0.425   1.554   2.608 -2.5201 -0.8046 -0.8576
 8276SOL     OW36460   0.988   3.227   2.561  0.3133 -0.0658  0.1391
 8276SOL    HW136461   0.896   3.211   2.540 -0.0836  1.8172  0.4780
 8276SOL    HW236462   1.004   3.156   2.623  1.3411  1.1821  1.3145
 8277SOL     OW36463   1.151   2.707   7.346  0.8146  0.1299  0.2999
 8277SOL    HW136464   1.186   2.650   7.278  0.6948 -0.9637  1.1545
 8277SOL    HW236465   1.058   2.700   7.323  0.4929  1.4246  1.2229
 8278SOL     OW36466   0.654   3.267   7.279  0.1783  0.3500  0.6705
 8278SOL    HW136467   0.734   3.233   7.240 -1.0398  0.5462 -1.9955
 8278SOL    HW236468   0.586   3.201   7.267  1.2528 -0.5656 -0.3220
 8279SOL     OW36469   4.307   1.503   9.407 -0.7431 -0.1828  0.4159
 8279SOL    HW136470   4.263   1.585   9.386  1.3395  0.8603  0.1306
 8279SOL    HW236471   4.254   1.437   9.361 -0.7014  0.8857 -1.1706
 8280SOL     OW36472   3.161   4.288  13.975  0.6448  0.2068 -0.0729
 8280SOL    HW136473   3.207   4.322  13.898  1.8700  0.8287  0.9493
 8280SOL    HW236474   3.223   4.333  14.032 -0.2529  1.7306 -0.2885
 8281SOL     OW36475   1.166   2.097   0.659 -0.4767 -0.1736  0.0976
 8281SOL    HW136476   1.117   2.155   0.717  1.7897  2.0431 -0.2129
 8281SOL    HW236477   1.105   2.029   0.629 -1.1807  0.2728  0.5287
 8282SOL     OW36478   3.867   0.521   9.557 -0.1933  0.3133  0.1841
 8282SOL    HW136479   3.930   0.452   9.537  2.2622  2.2605  1.2980
 8282SOL    HW236480   3.911   0.600   9.527  1.0864  0.1342  1.5902
 8283SOL     OW36481   2.151   1.488   5.551 -0.1132 -0.0474 -0.0358
 8283SOL    HW136482   2.062   1.453   5.544 -1.0302  1.6509  3.2484
 8283SOL    HW236483   2.139   1.575   5.589 -1.2427  0.0333 -0.5728
 8284SOL     OW36484   2.288   1.159  17.387  0.1804 -0.0917  0.5202
 8284SOL    HW136485   2.340   1.132  17.463  0.5038 -1.0937 -0.0643
 8284SOL    HW236486   2.336   1.239  17.364 -1.1795  0.5943  0.1082
 8285SOL     OW36487   0.294   1.810  11.214 -0.7162 -0.1987 -0.4895
 8285SOL    HW136488   0.233   1.843  11.280 -0.9038 -0.4085 -0.5579
 8285SOL    HW236489   0.263   1.722  11.195 -0.1399 -0.0487 -2.1583
 8286SOL     OW36490   0.376   1.251   1.877 -0.0178 -0.1140 -0.5039
 8286SOL    HW136491   0.375   1.251   1.781 -1.2933  0.3496 -0.4918
 8286SOL    HW236492   0.454   1.200   1.898 -0.6437 -1.6365 -1.8792
 8287SOL     OW36493   4.450   2.131  14.777  0.0215 -0.4805  0.4556
 8287SOL    HW136494   4.493   2.184  14.844 -2.1676  0.8923  0.7831
 8287SOL    HW236495   4.499   2.049  14.781  1.9282  0.5452 -1.8100
 8288SOL     OW36496   0.042   4.137   7.748  0.5893 -0.4051 -0.0289
 8288SOL    HW136497   0.020   4.223   7.712  1.8845 -1.2625 -2.8007
 8288SOL    HW236498   0.025   4.086   7.669 -0.4576  0.5205 -0.4116
 8289SOL     OW36499   0.451   0.779   3.975 -0.0084 -0.6019 -0.1007
 8289SOL    HW136500   0.463   0.872   3.961  0.0734 -0.8467 -1.6329
 8289SOL    HW236501   0.464   0.746   3.886 -2.1381  0.7813 -0.9364
 8290SOL     OW36502   3.495   0.400   5.111  0.6493  0.0707  0.1238
 8290SOL    HW136503   3.401   0.392   5.126  1.0036  0.3293  2.4168
 8290SOL    HW236504   3.504   0.412   5.016  3.3519  1.1911  0.5001
 8291SOL     OW36505   0.752   2.116  11.078 -0.0204 -0.3064  0.0517
 8291SOL    HW136506   0.825   2.058  11.055 -0.2573  0.0218 -1.5551
 8291SOL    HW236507   0.773   2.122  11.171 -0.4297  0.8470  0.0729
 8292SOL     OW36508   4.230   4.472   6.312  0.2859 -0.0204  0.4829
 8292SOL    HW136509   4.187   4.506   6.233 -0.5610  0.7102  1.2708
 8292SOL    HW236510   4.309   4.526   6.315 -0.0061  0.4591 -0.6589
 8293SOL     OW36511   4.438   3.145  17.357  0.4577  0.2179  0.3165
 8293SOL    HW136512   4.431   3.056  17.321  2.1196  0.7389 -1.2656
 8293SOL    HW236513   4.477   3.135  17.444  0.4130 -1.9310  0.1051
 8294SOL     OW36514   0.336   0.867   2.827  0.0071 -0.6516 -0.7518
 8294SOL    HW136515   0.256   0.901   2.869 -0.4395 -0.5779 -1.6611
 8294SOL    HW236516   0.357   0.936   2.765 -1.1758 -0.5161 -1.0129
 8295SOL     OW36517   1.055   0.059   9.576 -0.7345  0.6372 -0.2118
 8295SOL    HW136518   1.084   0.098   9.494 -0.6367 -2.5772 -1.7274
 8295SOL    HW236519   1.051   0.134   9.635  1.1110  1.4294 -1.1018
 8296SOL     OW36520   4.180   0.177  11.532 -0.8062  0.3814 -0.7622
 8296SOL    HW136521   4.155   0.107  11.592  1.2875  1.1885  1.0443
 8296SOL    HW236522   4.098   0.191  11.485 -0.4736  1.8135 -0.9079
 8297SOL     OW36523   1.781   3.482   7.934 -0.1368  0.0858 -0.0962
 8297SOL    HW136524   1.772   3.474   7.839  2.0696  1.8989 -0.4539
 8297SOL    HW236525   1.788   3.390   7.959 -0.2859 -0.2818 -1.3900
 8298SOL     OW36526   2.157   1.919   9.087  0.3198 -0.4181 -0.0289
 8298SOL    HW136527   2.128   1.993   9.140 -1.8653 -0.8916 -0.5753
 8298SOL    HW236528   2.090   1.936   9.021 -1.8820 -0.0973  2.2837
 8299SOL     OW36529   0.608   3.888   4.082  0.9474  0.0388 -0.0326
 8299SOL    HW136530   0.641   3.861   3.996 -0.7824  0.5033 -0.8335
 8299SOL    HW236531   0.532   3.943   4.065  1.0046 -0.3665 -1.5763
 8300SOL     OW36532   2.565   0.439   7.254 -0.2245  0.8140  0.0221
 8300SOL    HW136533   2.616   0.473   7.180  0.0341 -1.2592 -0.7602
 8300SOL    HW236534   2.493   0.502   7.250 -2.8927 -2.2571 -0.6283
 8301SOL     OW36535   3.186   0.663   4.670 -0.7415 -0.7694  0.2654
 8301SOL    HW136536   3.250   0.689   4.736 -0.8727  1.1851 -0.3847
 8301SOL    HW236537   3.207   0.570   4.658 -0.6532 -1.0972  2.8919
 8302SOL     OW36538   1.685   2.767   9.515 -0.0738  0.4132  0.1212
 8302SOL    HW136539   1.755   2.751   9.452 -0.0577  0.0149  0.2448
 8302SOL    HW236540   1.613   2.777   9.453 -0.6653  0.7275  0.8545
 8303SOL     OW36541   0.646   1.280   3.404  0.0793  0.4316  0.1923
 8303SOL    HW136542   0.650   1.345   3.474 -1.3323  0.1330  0.5439
 8303SOL    HW236543   0.621   1.201   3.452  1.7576 -1.2895 -1.7753
 8304SOL     OW36544   4.136   2.941  13.295  0.3767 -0.9888 -0.4757
 8304SOL    HW136545   4.088   3.015  13.256 -0.1082 -0.7577  0.5640
 8304SOL    HW236546   4.188   2.984  13.363  1.2137  1.8984 -2.9030
 8305SOL     OW36547   0.126   0.622  17.178  0.1259 -0.1593 -0.6546
 8305SOL    HW136548   0.034   0.645  17.161  0.3205 -1.4282 -3.3946
 8305SOL    HW236549   0.116   0.538  17.223 -1.2090  0.2986 -0.0708
 8306SOL     OW36550   4.499   4.710   7.626 -0.0075  0.7103  0.2751
 8306SOL    HW136551   4.548   4.651   7.570  0.4478  1.5029 -0.1517
 8306SOL    HW236552   4.437   0.022   7.572 -0.6919  1.1920  1.4699
 8307SOL     OW36553   4.034   1.593  13.909  0.3639 -0.2838  0.2301
 8307SOL    HW136554   4.069   1.682  13.915  0.9574 -0.5905  1.4900
 8307SOL    HW236555   4.027   1.583  13.815  0.8572 -0.3590  0.2007
 8308SOL     OW36556   4.100   4.425   5.726 -0.0664  0.3650 -0.1131
 8308SOL    HW136557   4.067   4.447   5.639 -1.4148  2.2085  0.8756
 8308SOL    HW236558   4.017   4.379   5.741 -0.6069  1.8727  1.5124
 8309SOL     OW36559   0.379   3.279  14.815  0.2851  0.0209  0.0834
 8309SOL    HW136560   0.380   3.374  14.806 -0.8471  0.0717  0.6220
 8309SOL    HW236561   0.345   3.254  14.729 -0.8005  0.4554  0.3864
 8310SOL     OW36562   2.201   2.465  15.885 -0.4440 -0.1310  0.2976
 8310SOL    HW136563   2.196   2.543  15.941 -1.2706 -1.5751  2.2453
 8310SOL    HW236564   2.138   2.404  15.922  1.4670 -0.4213  3.1321
 8311SOL     OW36565   3.797   3.847   4.128  0.0769  0.7649  0.1973
 8311SOL    HW136566   3.843   3.793   4.064 -0.0117 -1.4133  1.9454
 8311SOL    HW236567   3.749   3.779   4.174  2.7298 -0.0458  1.7972
 8312SOL     OW36568   4.507   0.309  12.578  0.2956 -0.3431 -0.1744
 8312SOL    HW136569   4.599   0.301  12.551 -0.2887 -0.0367 -2.2497
 8312SOL    HW236570   4.503   0.398  12.612 -0.4550 -1.1601  1.8732
 8313SOL     OW36571   3.469   1.054  16.200 -0.1379  0.5957  0.6171
 8313SOL    HW136572   3.552   1.101  16.202  0.2369  0.0057 -0.8316
 8313SOL    HW236573   3.464   1.052  16.104  1.0188  0.1058  0.5719
 8314SOL     OW36574   2.633   0.235  14.499 -0.2105  0.1056 -0.1016
 8314SOL    HW136575   2.630   0.184  14.580  2.1187  0.7282  0.3734
 8314SOL    HW236576   2.709   0.193  14.460  0.2324  1.3810 -0.5972
 8315SOL     OW36577   1.956   3.665   7.980  0.0935  0.8292 -0.1736
 8315SOL    HW136578   1.879   3.616   7.950 -0.6016  2.0647 -0.4063
 8315SOL    HW236579   2.005   3.676   7.899  0.4451 -3.0368 -0.5135
 8316SOL     OW36580   0.037   1.525  11.730  0.5929  0.3836  0.4086
 8316SOL    HW136581   0.053   1.434  11.755 -1.2555 -1.0357 -3.4642
 8316SOL    HW236582   0.054   1.581  11.805  0.4227  0.2905  0.5164
 8317SOL     OW36583   4.391   3.914  12.101 -0.1172 -0.1126 -0.3402
 8317SOL    HW136584   4.394   3.925  12.006 -0.0450  0.0339 -0.3210
 8317SOL    HW236585   4.481   3.881  12.110  0.5713  2.3864  1.8730
 8318SOL     OW36586   1.161   2.863   6.186 -0.4456  0.4042  0.3193
 8318SOL    HW136587   1.168   2.955   6.210  3.1225  0.2006  0.0572
 8318SOL    HW236588   1.253   2.839   6.177 -0.9350 -1.8370  1.2948
 8319SOL     OW36589   0.771   0.398  10.673  0.0627  0.0134  0.2297
 8319SOL    HW136590   0.765   0.471  10.611  0.1484 -0.2620 -0.0983
 8319SOL    HW236591   0.695   0.346  10.647 -0.6937  1.5344 -0.6351
 8320SOL     OW36592   1.597   2.251  14.470 -0.0198  0.3186 -0.0787
 8320SOL    HW136593   1.543   2.319  14.429  0.0981  0.0849 -0.6224
 8320SOL    HW236594   1.622   2.211  14.387 -0.3675 -0.7934  0.3485
 8321SOL     OW36595   2.461   0.447   6.250  0.1538 -0.3350 -0.1041
 8321SOL    HW136596   2.512   0.437   6.330 -0.6767 -0.6833  0.3831
 8321SOL    HW236597   2.493   0.521   6.197 -0.5683  0.0343 -0.0280
 8322SOL     OW36598   3.178   2.408   6.430 -0.1343 -0.7059  0.1047
 8322SOL    HW136599   3.167   2.343   6.500  1.6167  1.4066  2.3355
 8322SOL    HW236600   3.129   2.368   6.359 -1.2347 -1.6380  1.3827
 8323SOL     OW36601   0.616   1.511   2.370  0.2616 -0.1284 -0.2741
 8323SOL    HW136602   0.677   1.582   2.392  0.1389 -1.2182  3.7411
 8323SOL    HW236603   0.550   1.510   2.440 -0.1592 -1.2447 -0.6826
 8324SOL     OW36604   1.096   4.520  16.583  0.8534  0.1890  0.0373
 8324SOL    HW136605   1.084   4.452  16.649  0.1890  0.2445 -0.0290
 8324SOL    HW236606   1.172   4.477  16.545  2.9649  3.3912  0.6288
 8325SOL     OW36607   3.662   2.615   5.847  0.3706  0.3544 -0.4442
 8325SOL    HW136608   3.655   2.587   5.939  0.8129 -0.3902 -0.6358
 8325SOL    HW236609   3.617   2.536   5.815  0.6305 -0.8532  2.1310
 8326SOL     OW36610   2.416   4.234   6.219 -0.1240  0.0223  0.3522
 8326SOL    HW136611   2.400   4.153   6.170 -1.5191  1.3435 -1.3616
 8326SOL    HW236612   2.509   4.221   6.238 -0.0955  0.4574  0.5259
 8327SOL     OW36613   2.645   1.176   9.692 -0.3695 -0.5632 -0.2705
 8327SOL    HW136614   2.721   1.232   9.707 -0.8647 -0.4390  1.8608
 8327SOL    HW236615   2.594   1.176   9.773  0.6909 -0.9118  0.3970
 8328SOL     OW36616   2.133   2.669   6.875 -0.1372 -0.2288 -0.3348
 8328SOL    HW136617   2.194   2.734   6.841 -0.0177 -0.1367  0.0558
 8328SOL    HW236618   2.197   2.602   6.896  0.2415  0.4506  0.6684
 8329SOL     OW36619   3.048   1.681   8.854 -0.1600  0.0543 -0.5081
 8329SOL    HW136620   2.961   1.707   8.823 -1.4020 -0.5866  2.4616
 8329SOL    HW236621   3.080   1.768   8.878 -1.3187  0.4656 -0.4644
 8330SOL     OW36622   3.647   4.505   9.289 -0.2267 -0.1936 -0.1008
 8330SOL    HW136623   3.560   4.545   9.292 -1.1173 -1.9661 -1.6394
 8330SOL    HW236624   3.623   4.420   9.326 -1.4147 -0.1324 -0.7291
 8331SOL     OW36625   3.552   0.208   1.138 -0.2678  0.0811  0.0229
 8331SOL    HW136626   3.538   0.303   1.144  1.1473  0.1842  1.8042
 8331SOL    HW236627   3.636   0.197   1.183 -1.3501  0.3086  2.1327
 8332SOL     OW36628   2.957   0.735  15.359  0.0632 -0.7666 -0.2935
 8332SOL    HW136629   2.927   0.645  15.370 -0.6618 -0.6916 -1.7273
 8332SOL    HW236630   2.961   0.751  15.265  0.5152  0.8169 -0.0041
 8333SOL     OW36631   3.585   2.910   6.362 -0.6516 -0.6709  0.0343
 8333SOL    HW136632   3.638   2.836   6.333 -3.5552 -4.4022  4.2328
 8333SOL    HW236633   3.501   2.885   6.324 -1.2325  0.2873  0.6617
 8334SOL     OW36634   0.728   3.146   2.532  0.3708  0.3374 -0.3789
 8334SOL    HW136635   0.705   3.118   2.443  0.8751 -0.3533 -0.2951
 8334SOL    HW236636   0.695   3.073   2.584 -0.2121  0.3393 -0.7522
 8335SOL     OW36637   1.666   0.735   5.636 -0.4864 -0.2451 -0.0012
 8335SOL    HW136638   1.599   0.733   5.568 -0.7532 -1.3664  0.2955
 8335SOL    HW236639   1.658   0.644   5.665  0.4022 -0.4615 -0.4144
 8336SOL     OW36640   4.625   0.877   3.390 -0.1460 -0.6732 -0.3526
 8336SOL    HW136641   4.613   0.822   3.312  2.5025 -0.9175 -0.5710
 8336SOL    HW236642   4.692   0.825   3.434 -0.1417 -0.3223  0.0562
 8337SOL     OW36643   0.557   1.858   1.127  0.3286 -1.1883 -0.1290
 8337SOL    HW136644   0.511   1.775   1.120 -0.3778 -1.0408  2.6891
 8337SOL    HW236645   0.648   1.827   1.122  0.7155  0.1700 -1.7740
 8338SOL     OW36646   4.181   2.519   8.089  0.6956 -0.4482  0.3338
 8338SOL    HW136647   4.095   2.519   8.131 -0.3699 -0.4232 -1.8586
 8338SOL    HW236648   4.178   2.596   8.033  0.4288 -1.2636 -0.7902
 8339SOL     OW36649   1.887   2.675  16.592 -0.8061 -0.1531  0.0913
 8339SOL    HW136650   1.867   2.768  16.593 -0.8704 -0.1430 -2.1594
 8339SOL    HW236651   1.827   2.646  16.661 -0.5833 -0.6799  0.0660
 8340SOL     OW36652   1.513   1.144   6.825 -0.4346  0.4061 -0.8688
 8340SOL    HW136653   1.570   1.067   6.828  1.6375  1.9723 -0.6083
 8340SOL    HW236654   1.579   1.212   6.823  0.9474 -0.8897  1.2573
 8341SOL     OW36655   0.032   3.812   2.661 -0.7319  0.3247 -0.0529
 8341SOL    HW136656   0.106   3.761   2.693 -0.0511  0.5562 -1.2929
 8341SOL    HW236657   0.074   3.897   2.649 -1.4932  0.3970 -2.1114
 8342SOL     OW36658   3.979   1.678   8.384 -0.6237 -0.3680 -0.0272
 8342SOL    HW136659   3.886   1.697   8.368 -1.1471 -1.9892  1.0335
 8342SOL    HW236660   3.974   1.604   8.445  1.4869 -0.8263 -0.4023
 8343SOL     OW36661   3.683   4.501   2.707 -0.1356 -0.7027 -0.1640
 8343SOL    HW136662   3.623   4.539   2.771  0.6751  0.7410 -0.2789
 8343SOL    HW236663   3.745   4.457   2.766  1.6485  1.5194 -0.3996
 8344SOL     OW36664   4.392   2.953   2.911  0.0461  0.4610 -0.1027
 8344SOL    HW136665   4.378   2.861   2.887  2.3906  1.0855 -3.8430
 8344SOL    HW236666   4.306   2.971   2.950  1.4672  3.1145  1.8109
 8345SOL     OW36667   3.730   0.801   2.544  0.2850  0.0651  0.2574
 8345SOL    HW136668   3.677   0.738   2.591  1.1902 -1.5169 -0.8506
 8345SOL    HW236669   3.657   0.831   2.489 -0.2349 -1.4462  0.1283
 8346SOL     OW36670   1.295   1.484   9.251  0.5744 -0.1255 -0.0044
 8346SOL    HW136671   1.264   1.468   9.162 -1.0878  0.1077  0.5364
 8346SOL    HW236672   1.382   1.445   9.247  0.1651 -1.0047 -0.3436
 8347SOL     OW36673   3.373   2.759  14.858 -0.2824  0.2339  0.2042
 8347SOL    HW136674   3.419   2.690  14.810 -1.2274  0.3769 -0.9174
 8347SOL    HW236675   3.313   2.708  14.912 -1.5959  0.2482 -1.2297
 8348SOL     OW36676   1.310   2.921   6.809  0.0868  0.0661  0.2367
 8348SOL    HW136677   1.252   2.871   6.865 -0.2069 -0.4391 -0.5204
 8348SOL    HW236678   1.339   2.860   6.741  0.8130  0.0180  0.5923
 8349SOL     OW36679   0.955   0.483   7.994 -0.1398  0.0935  0.0440
 8349SOL    HW136680   0.898   0.524   8.058 -0.7445 -1.2308  0.3547
 8349SOL    HW236681   0.905   0.405   7.969  1.0643 -0.7542  0.2462
 8350SOL     OW36682   1.574   0.253   6.306  0.2839 -0.3006 -0.0308
 8350SOL    HW136683   1.555   0.196   6.380 -1.3878  0.7184  0.3112
 8350SOL    HW236684   1.509   0.248   6.236  0.5949  0.7182 -0.3898
 8351SOL     OW36685   2.337   3.851  17.216 -0.1897 -0.5048 -0.2461
 8351SOL    HW136686   2.288   3.857  17.298  1.1776  0.2131  0.5165
 8351SOL    HW236687   2.384   3.771  17.240 -0.4664 -0.5881  0.0309
 8352SOL     OW36688   0.539   2.789   4.923  0.1949 -0.1892  0.4295
 8352SOL    HW136689   0.485   2.716   4.892  0.7664 -0.0038 -0.9924
 8352SOL    HW236690   0.480   2.858   4.892 -0.8849 -1.4691 -0.3826
 8353SOL     OW36691   3.943   2.207   3.989  0.4939 -0.0287  0.7067
 8353SOL    HW136692   3.958   2.292   4.030  1.3597 -0.4881  1.3447
 8353SOL    HW236693   4.025   2.190   3.942  0.6188  0.4047  0.7673
 8354SOL     OW36694   3.643   4.560   1.368 -0.6176  0.0191  0.0387
 8354SOL    HW136695   3.688   4.632   1.414 -3.2904  0.9281  1.2147
 8354SOL    HW236696   3.550   4.569   1.388 -0.0005  0.8738  2.5127
 8355SOL     OW36697   4.027   3.674   1.379  0.0906  0.2466  0.3581
 8355SOL    HW136698   4.013   3.591   1.425 -1.5884 -1.0525 -2.5373
 8355SOL    HW236699   4.109   3.656   1.334 -0.4788 -1.2526 -0.0460
 8356SOL     OW36700   0.361   0.493   7.189  0.1083 -0.0795  0.1196
 8356SOL    HW136701   0.397   0.546   7.118 -0.3365  1.8357  1.3207
 8356SOL    HW236702   0.410   0.533   7.262 -0.3601  0.3771  0.1822
 8357SOL     OW36703   3.461   1.065  14.147  0.3859  0.3208 -0.7384
 8357SOL    HW136704   3.506   1.143  14.181 -1.3698  1.5056 -1.1393
 8357SOL    HW236705   3.417   1.034  14.226  0.0784  1.5798 -0.4105
 8358SOL     OW36706   0.766   3.167   2.851  0.5883  0.4355 -0.1319
 8358SOL    HW136707   0.752   3.173   2.756  1.5881  1.6291 -0.2187
 8358SOL    HW236708   0.696   3.219   2.890  0.1615  1.0264 -1.6744
 8359SOL     OW36709   3.269   3.721   5.767  0.2919 -0.2454  0.3152
 8359SOL    HW136710   3.357   3.719   5.806  0.8899  0.0595 -1.0116
 8359SOL    HW236711   3.258   3.816   5.764  1.1858 -0.0834  1.9740
 8360SOL     OW36712   0.977   0.546   4.875  0.4488 -0.8089  0.5467
 8360SOL    HW136713   1.034   0.471   4.889  0.6892 -0.9654 -1.1878
 8360SOL    HW236714   1.020   0.609   4.932 -2.7103 -0.1806  2.2593
 8361SOL     OW36715   2.606   1.913   9.324  0.0259 -0.3215  0.4228
 8361SOL    HW136716   2.521   1.896   9.284 -0.0886  0.1954  0.4381
 8361SOL    HW236717   2.579   1.892   9.413 -2.6362  0.7361 -0.1443
 8362SOL     OW36718   0.232   0.354   4.486  0.2340  0.8377 -0.2742
 8362SOL    HW136719   0.162   0.345   4.550 -0.5057  1.2014 -1.0258
 8362SOL    HW236720   0.300   0.295   4.518 -0.5372 -0.1114 -0.3950
 8363SOL     OW36721   2.963   4.638   5.786  0.4014 -0.1147 -0.3054
 8363SOL    HW136722   2.919   4.703   5.842  0.7328 -0.1865  0.0396
 8363SOL    HW236723   2.899   4.567   5.774 -0.8881  0.8570  0.7690
 8364SOL     OW36724   1.088   3.422   3.843  0.9930  0.2348 -0.6107
 8364SOL    HW136725   1.113   3.347   3.788  0.0723 -0.1670 -0.4869
 8364SOL    HW236726   0.997   3.405   3.868  0.6625  3.4026  0.3504
 8365SOL     OW36727   1.450   4.200  16.132  0.6612 -0.3582 -0.3355
 8365SOL    HW136728   1.545   4.215  16.131  0.9960 -2.1056  3.2165
 8365SOL    HW236729   1.423   4.292  16.128 -2.3085 -1.3318 -1.8935
 8366SOL     OW36730   2.142   3.664   2.454  0.0766  0.3166 -0.6327
 8366SOL    HW136731   2.132   3.640   2.362  0.4786  0.8653 -0.8230
 8366SOL    HW236732   2.051   3.666   2.482  0.1614  1.9265 -0.4294
 8367SOL     OW36733   0.076   3.133   4.063  0.0719  0.2463 -0.1848
 8367SOL    HW136734   0.082   3.160   3.971 -0.9342 -2.6370 -1.0936
 8367SOL    HW236735   0.043   3.046   4.042  0.7099  0.3018 -1.4490
 8368SOL     OW36736   4.713   1.263   6.092 -0.1317  0.5740  0.6814
 8368SOL    HW136737   0.031   1.309   6.029  0.4072  0.7726  1.2915
 8368SOL    HW236738   4.701   1.329   6.160  2.9852  1.5277  0.2811
 8369SOL     OW36739   3.912   3.922   7.354  0.0331 -0.2129  0.5690
 8369SOL    HW136740   3.929   3.864   7.280  0.3389  0.7924 -0.1431
 8369SOL    HW236741   3.816   3.920   7.358  0.0711  1.7834  2.5384
 8370SOL     OW36742   2.995   1.092   2.642  0.2679 -0.0630  0.0238
 8370SOL    HW136743   2.995   1.072   2.735 -1.9375  0.3353  0.1052
 8370SOL    HW236744   2.904   1.072   2.618 -0.1133  1.8593 -0.1737
 8371SOL     OW36745   4.552   1.034   2.560  0.0621 -0.4005  0.3134
 8371SOL    HW136746   4.641   1.000   2.553 -0.0206 -0.4352 -0.5454
 8371SOL    HW236747   4.579   1.113   2.606  0.0759  1.3790 -2.7275
 8372SOL     OW36748   4.089   0.976   4.612  0.2827 -0.0641 -0.1891
 8372SOL    HW136749   4.075   0.881   4.618 -4.1079  0.6190  0.3189
 8372SOL    HW236750   4.106   0.990   4.705  1.1638  0.6950 -0.4750
 8373SOL     OW36751   0.580   3.967  16.113  0.1741  0.3833 -0.1062
 8373SOL    HW136752   0.594   4.050  16.067  0.3251  0.3061 -0.1988
 8373SOL    HW236753   0.552   4.006  16.196 -0.0925 -0.8502  0.3836
 8374SOL     OW36754   4.694   4.633   8.835 -0.3403 -0.5800  0.6623
 8374SOL    HW136755   4.623   4.698   8.832  1.1702  0.9535 -2.2504
 8374SOL    HW236756   0.032   4.692   8.826 -1.8665  1.0321 -1.4607
 8375SOL     OW36757   0.922   0.780  11.303 -0.0023  0.0344 -0.1458
 8375SOL    HW136758   0.912   0.842  11.376 -1.1935 -0.1746 -0.1273
 8375SOL    HW236759   0.876   0.708  11.345 -0.9663 -0.4600 -2.0659
 8376SOL     OW36760   4.572   2.042   7.454  0.5102 -0.4656  0.0599
 8376SOL    HW136761   4.562   2.025   7.548  1.1048  0.4566  0.2870
 8376SOL    HW236762   4.523   1.966   7.422  0.4665  0.7325 -2.7445
 8377SOL     OW36763   0.082   4.468   0.206 -0.3207  0.1607  0.7715
 8377SOL    HW136764   0.144   4.490   0.136 -0.4207 -0.4231  0.5018
 8377SOL    HW236765   0.010   4.450   0.146  1.2185  0.4240 -1.1503
 8378SOL     OW36766   2.983   0.220  11.544  0.3074  0.1004 -0.5697
 8378SOL    HW136767   2.887   0.225  11.549  0.4161 -0.0587  1.6272
 8378SOL    HW236768   3.003   0.175  11.462 -0.0030  1.3061 -1.2993
 8379SOL     OW36769   3.990   0.030   9.249 -0.3136 -0.8576  0.2381
 8379SOL    HW136770   4.024   0.119   9.257 -1.5036  0.0161 -4.1342
 8379SOL    HW236771   4.072   4.722   9.226 -0.0661  0.0271 -0.6098
 8380SOL     OW36772   1.476   3.539   9.533  0.6294 -0.0617 -0.0258
 8380SOL    HW136773   1.400   3.574   9.581  0.0004  0.4871 -1.4284
 8380SOL    HW236774   1.488   3.605   9.466  0.5168 -1.0148 -0.9769
 8381SOL     OW36775   4.382   4.343   1.354 -0.3176 -0.0040  0.0134
 8381SOL    HW136776   4.470   4.382   1.349 -0.0220 -0.5044  1.2309
 8381SOL    HW236777   4.370   4.304   1.267  1.9192  1.4224 -0.9322
 8382SOL     OW36778   3.904   2.889   7.753  1.0457 -0.5416  0.5435
 8382SOL    HW136779   3.905   2.928   7.665  1.1306 -5.0392 -1.4840
 8382SOL    HW236780   3.994   2.910   7.777  1.3549  1.3641 -2.2616
 8383SOL     OW36781   2.157   0.618  16.600 -0.0957  0.0474  0.2509
 8383SOL    HW136782   2.165   0.705  16.639  1.2137  0.3922 -0.7671
 8383SOL    HW236783   2.252   0.613  16.584 -0.0326 -0.1763  0.6979
 8384SOL     OW36784   1.227   3.009  12.808  0.4744 -0.6633 -0.2415
 8384SOL    HW136785   1.170   2.982  12.736  1.4323 -0.0714 -1.2272
 8384SOL    HW236786   1.284   3.069  12.760 -1.6243  2.3047  0.9021
 8385SOL     OW36787   0.617   3.709   5.244  0.4815  0.1017 -0.4165
 8385SOL    HW136788   0.692   3.695   5.186  1.3108  2.6433  0.0167
 8385SOL    HW236789   0.632   3.651   5.318  0.2699  0.5983  0.0118
 8386SOL     OW36790   2.799   4.661   2.839 -0.0542  0.0007 -0.1349
 8386SOL    HW136791   2.804   0.018   2.856  0.7668 -0.0834  0.0712
 8386SOL    HW236792   2.892   4.646   2.853 -0.2954 -0.1902  1.2448
 8387SOL     OW36793   0.994   3.982   6.199  0.2469  0.0648 -0.3615
 8387SOL    HW136794   1.065   4.046   6.195  0.5474 -0.2698 -0.5160
 8387SOL    HW236795   0.981   3.991   6.293 -0.4327 -1.4069 -0.3084
 8388SOL     OW36796   0.361   1.107  10.518 -0.3025 -0.5869  0.2192
 8388SOL    HW136797   0.326   1.047  10.584 -0.9104 -1.5368 -0.9821
 8388SOL    HW236798   0.420   1.144  10.584  2.0156 -1.9883 -1.0711
 8389SOL     OW36799   0.142   1.707   3.910  0.2818  0.0011 -0.7351
 8389SOL    HW136800   0.133   1.801   3.926  1.5628 -0.0323  0.1676
 8389SOL    HW236801   0.148   1.655   3.990  2.2220  0.9026 -0.2994
 8390SOL     OW36802   2.594   4.023   5.143  0.2694 -0.5081 -0.7285
 8390SOL    HW136803   2.590   3.992   5.233  0.1710  0.7870 -0.2907
 8390SOL    HW236804   2.648   4.095   5.175  2.4969 -2.0084 -1.1477
 8391SOL     OW36805   1.338   3.597   3.622 -0.1856 -0.1702  0.1613
 8391SOL    HW136806   1.324   3.629   3.533  0.9263  1.4134  0.5563
 8391SOL    HW236807   1.254   3.615   3.663  1.0014  0.5734  2.2961
 8392SOL     OW36808   0.117   3.685  15.810  0.1496  0.0899  0.3374
 8392SOL    HW136809   0.079   3.712  15.727  0.9665  1.2524  0.3504
 8392SOL    HW236810   0.153   3.768  15.841 -1.5734  0.3540  1.6640
 8393SOL     OW36811   4.104   1.053   5.739 -0.5783  0.6868  0.1473
 8393SOL    HW136812   4.194   1.046   5.770 -0.2347  0.6123 -0.8406
 8393SOL    HW236813   4.057   1.004   5.806 -1.9672 -0.1249 -1.4217
 8394SOL     OW36814   1.351   1.432   9.575  0.4612  0.5954  0.4801
 8394SOL    HW136815   1.289   1.384   9.629  0.9520 -0.6842 -0.0796
 8394SOL    HW236816   1.288   1.485   9.526  1.7692  0.7371 -1.0414
 8395SOL     OW36817   3.966   0.334  11.806 -0.0156  0.0711  0.2788
 8395SOL    HW136818   3.958   0.412  11.752  0.0321  0.2132  0.4810
 8395SOL    HW236819   3.890   0.347  11.864 -1.0822 -0.0883 -1.0835
 8396SOL     OW36820   2.411   0.241   8.481 -0.3777  0.8126 -0.1713
 8396SOL    HW136821   2.395   0.273   8.392  2.1263 -2.3342 -1.7678
 8396SOL    HW236822   2.460   0.161   8.461  0.1484  1.4135 -1.2966
 8397SOL     OW36823   4.447   4.648   4.525  0.3044  0.4478 -0.1582
 8397SOL    HW136824   4.397   4.717   4.568  0.5363  2.6256 -3.4306
 8397SOL    HW236825   4.384   4.576   4.530  3.1057 -2.0980 -1.6232
 8398SOL     OW36826   0.940   0.202   6.081 -0.8681 -0.3730 -0.2858
 8398SOL    HW136827   0.915   0.112   6.105 -1.8140 -0.3485 -1.1812
 8398SOL    HW236828   0.975   0.190   5.993 -0.3612 -3.5016  0.3257
 8399SOL     OW36829   0.123   2.346  14.882 -0.0992  0.3068 -0.4694
 8399SOL    HW136830   0.190   2.392  14.932 -0.9144  0.0354  0.8709
 8399SOL    HW236831   0.185   2.287  14.839  1.0183  0.4822  0.9141
 8400SOL     OW36832   0.266   2.544   5.168 -0.2681 -0.5362  0.3548
 8400SOL    HW136833   0.347   2.495   5.187  0.0489 -0.4235 -0.7015
 8400SOL    HW236834   0.269   2.605   5.242  1.9763  1.0279 -1.0192
 8401SOL     OW36835   2.938   0.662   6.000  0.1297 -0.2033 -0.3052
 8401SOL    HW136836   2.966   0.571   6.014 -0.4522 -0.6831 -2.2526
 8401SOL    HW236837   3.014   0.702   5.957  1.5004 -0.9689  1.3884
 8402SOL     OW36838   3.446   1.870   3.335 -0.2696  0.2112  0.2370
 8402SOL    HW136839   3.379   1.900   3.273  0.5740  0.1790 -0.6926
 8402SOL    HW236840   3.511   1.936   3.313 -1.5388  0.6035 -2.3116
 8403SOL     OW36841   2.468   4.371   0.019 -0.2894 -0.3260  0.0574
 8403SOL    HW136842   2.427   4.449   0.058 -0.9479 -0.2243 -0.8484
 8403SOL    HW236843   2.460   4.302   0.085  0.6802  1.6639  2.2382
 8404SOL     OW36844   2.358   0.772   4.745 -0.0714 -0.2966  0.0867
 8404SOL    HW136845   2.449   0.777   4.716  0.2061 -1.1174  0.8259
 8404SOL    HW236846   2.324   0.853   4.707  0.4512 -0.5160 -0.8407
 8405SOL     OW36847   0.438   2.407   5.857  0.0633 -0.2903 -0.0414
 8405SOL    HW136848   0.378   2.409   5.931 -0.1734  1.4800 -0.2752
 8405SOL    HW236849   0.421   2.320   5.822  2.1705 -1.0106  0.7115
 8406SOL     OW36850   3.467   0.393  15.665  0.4036  0.0601  0.0511
 8406SOL    HW136851   3.461   0.302  15.696  0.4954  0.0530  0.0475
 8406SOL    HW236852   3.374   0.415  15.676  0.3401  0.2130 -0.8107
 8407SOL     OW36853   3.841   2.009   2.987  0.4675 -0.2429  0.1519
 8407SOL    HW136854   3.761   1.966   3.016  0.5559 -0.2759  0.3451
 8407SOL    HW236855   3.888   2.018   3.070 -3.3098  1.0393  2.1383
 8408SOL     OW36856   0.136   3.314  11.986  0.3394 -0.1640  0.4106
 8408SOL    HW136857   0.209   3.319  11.924  1.2206 -0.3509  1.4374
 8408SOL    HW236858   0.077   3.255  11.939  0.9117  0.7340 -1.4684
 8409SOL     OW36859   0.699   1.938   8.318 -0.0571 -0.7440  0.3253
 8409SOL    HW136860   0.694   1.909   8.409 -1.7996  0.5364  0.6367
 8409SOL    HW236861   0.611   1.921   8.286 -0.1346 -0.7324  0.5298
 8410SOL     OW36862   1.686   4.525  11.462  0.2043  0.1869 -0.1800
 8410SOL    HW136863   1.627   4.547  11.534 -1.0284 -2.2029 -0.4455
 8410SOL    HW236864   1.730   4.606  11.435 -0.2237  1.6407  3.5166
 8411SOL     OW36865   4.467   1.114   2.298 -0.3581  0.0947  0.0352
 8411SOL    HW136866   4.505   1.082   2.380  1.2918  1.9130 -0.0278
 8411SOL    HW236867   4.374   1.123   2.316 -0.9142 -0.3833 -2.6781
 8412SOL     OW36868   1.993   4.281   2.967  0.4311  0.0166 -0.2750
 8412SOL    HW136869   2.048   4.339   2.914 -0.9006  0.9886 -0.5929
 8412SOL    HW236870   2.052   4.261   3.040  1.0117 -0.3727 -0.8437
 8413SOL     OW36871   1.474   3.674  14.766 -0.0096 -0.2313  0.4682
 8413SOL    HW136872   1.420   3.748  14.738 -0.6319 -1.3129 -1.2035
 8413SOL    HW236873   1.410   3.609  14.797  0.2222 -1.1757 -1.0462
 8414SOL     OW36874   4.401   1.847   4.211  0.3538  0.4566  0.0846
 8414SOL    HW136875   4.447   1.904   4.273 -1.6464  1.0287  1.0308
 8414SOL    HW236876   4.317   1.850   4.257 -0.2992  0.2665 -1.0882
 8415SOL     OW36877   4.325   1.828   0.844 -0.1791 -0.8511 -0.2725
 8415SOL    HW136878   4.369   1.906   0.877 -0.0170 -0.9271 -0.3028
 8415SOL    HW236879   4.378   1.814   0.765  0.3202 -1.5656  0.1864
 8416SOL     OW36880   1.772   0.663   1.210  0.1597  0.8496 -0.1003
 8416SOL    HW136881   1.763   0.585   1.155  0.5460  1.2458 -0.7240
 8416SOL    HW236882   1.853   0.637   1.254 -0.3908  0.6537  0.7974
 8417SOL     OW36883   3.511   1.349   6.502 -0.1032 -0.2142 -0.3172
 8417SOL    HW136884   3.443   1.381   6.443  2.1975  2.6056 -1.4398
 8417SOL    HW236885   3.579   1.408   6.470 -0.2806  0.6965  1.0161
 8418SOL     OW36886   4.232   4.011   2.646 -0.7549  0.6179 -0.7039
 8418SOL    HW136887   4.239   3.919   2.618 -0.3608  0.5372 -0.3467
 8418SOL    HW236888   4.175   3.994   2.721 -0.1620 -1.4996 -0.7148
 8419SOL     OW36889   2.231   0.303   2.941  0.7309 -0.4034 -0.0827
 8419SOL    HW136890   2.295   0.244   2.901  1.9719  0.6380  0.4064
 8419SOL    HW236891   2.277   0.386   2.941  0.2584 -0.1438  0.8360
 8420SOL     OW36892   2.765   1.541   6.078  0.0790 -0.1971  0.0794
 8420SOL    HW136893   2.755   1.609   6.011 -1.5698  0.1520  0.6896
 8420SOL    HW236894   2.842   1.501   6.038 -0.7774 -1.9979  0.2316
 8421SOL     OW36895   1.307   2.318  15.418  0.2025 -0.2287 -0.6135
 8421SOL    HW136896   1.292   2.225  15.438  0.9583 -0.1361  0.3491
 8421SOL    HW236897   1.387   2.335  15.467 -0.8779 -2.0796  1.8386
 8422SOL     OW36898   0.708   4.035   8.618  0.1515  0.2664  0.5927
 8422SOL    HW136899   0.761   4.036   8.538 -1.0550 -1.2106 -0.2236
 8422SOL    HW236900   0.627   3.987   8.601  1.6566 -2.8187  2.4066
 8423SOL     OW36901   1.901   1.015   2.430  0.1992  0.1365 -0.1410
 8423SOL    HW136902   1.945   1.098   2.450  1.3507 -0.1324 -1.5567
 8423SOL    HW236903   1.956   0.978   2.361  0.1793 -0.8009  0.3380
 8424SOL     OW36904   0.580   1.087  15.470  1.0926  0.0402 -0.5865
 8424SOL    HW136905   0.489   1.061  15.478  0.8641  0.5186 -1.6213
 8424SOL    HW236906   0.621   1.027  15.532 -2.2852 -1.6841 -0.0819
 8425SOL     OW36907   3.124   3.583   9.524  0.3893 -0.2875  0.2735
 8425SOL    HW136908   3.155   3.639   9.453 -0.8923  1.6712  1.2494
 8425SOL    HW236909   3.041   3.551   9.489 -0.8896  1.2245  1.8899
 8426SOL     OW36910   3.971   2.216   8.482  0.4975  0.5657 -0.1650
 8426SOL    HW136911   4.040   2.220   8.549 -0.2580  0.5786  0.6163
 8426SOL    HW236912   4.017   2.247   8.404  0.5890  0.2194 -0.2487
 8427SOL     OW36913   4.099   3.591  11.732  0.0312  0.5953  0.6374
 8427SOL    HW136914   4.109   3.623  11.822 -1.4093 -0.2481  1.1048
 8427SOL    HW236915   4.025   3.640  11.695  1.9124  1.4994 -1.9055
 8428SOL     OW36916   0.814   2.058   8.076  0.5536 -0.2649 -0.1952
 8428SOL    HW136917   0.856   1.987   8.027  1.2788  0.3978 -0.5295
 8428SOL    HW236918   0.769   2.008   8.144  0.2239  0.6454  0.2462
 8429SOL     OW36919   4.517   3.935   2.864  0.2080  0.3892 -0.0784
 8429SOL    HW136920   4.514   3.906   2.772 -0.8978 -0.7085  0.3088
 8429SOL    HW236921   4.605   3.973   2.866  0.2120  0.2745  1.3963
 8430SOL     OW36922   2.598   4.519  16.586 -0.8254 -0.1029  0.4676
 8430SOL    HW136923   2.578   4.584  16.653  1.9648  0.6385  0.5767
 8430SOL    HW236924   2.602   4.574  16.507 -0.7648 -0.0198  0.5290
 8431SOL     OW36925   2.657   3.250   2.316 -0.3570 -0.4002 -0.0690
 8431SOL    HW136926   2.667   3.345   2.308 -1.2820 -0.2325  0.7183
 8431SOL    HW236927   2.564   3.244   2.296 -0.6011 -0.5790  1.0984
 8432SOL     OW36928   0.036   0.304  13.620  0.2252  0.0854 -0.2642
 8432SOL    HW136929   0.092   0.245  13.671  0.6188 -0.2036 -1.0268
 8432SOL    HW236930   0.038   0.381  13.677 -0.6091  0.9200 -1.3646
 8433SOL     OW36931   3.765   0.045   1.451 -0.2937 -0.6766  0.1971
 8433SOL    HW136932   3.742   0.135   1.429 -1.6568 -1.1064 -0.1651
 8433SOL    HW236933   3.860   0.046   1.462 -0.2055  2.3861 -0.9188
 8434SOL     OW36934   2.392   3.133  16.462 -0.5143 -0.1981 -0.7247
 8434SOL    HW136935   2.460   3.091  16.410  2.0394 -0.6590  2.9390
 8434SOL    HW236936   2.365   3.066  16.525  0.8076  0.1059  0.1876
 8435SOL     OW36937   4.143   3.992   8.094  0.0389  0.8358 -0.5047
 8435SOL    HW136938   4.187   4.076   8.107  0.1039  0.8052 -0.5262
 8435SOL    HW236939   4.218   3.944   8.059 -0.1737 -0.3595  0.6702
 8436SOL     OW36940   4.477   0.117   9.203 -0.5659 -0.1757 -0.3394
 8436SOL    HW136941   4.476   0.207   9.234 -1.3102 -1.0570  2.2361
 8436SOL    HW236942   4.533   0.075   9.269  0.2780  1.2829 -0.1233
 8437SOL     OW36943   0.060   1.863  11.607 -0.5798 -0.2437  0.0462
 8437SOL    HW136944   0.092   1.877  11.518 -0.6431 -0.5083 -0.0191
 8437SOL    HW236945   0.021   1.775  11.603 -0.2704 -0.2857 -2.0564
 8438SOL     OW36946   3.661   2.937   3.787 -0.2425  0.6881  0.2548
 8438SOL    HW136947   3.650   2.999   3.715 -3.6025  3.1058  2.8798
 8438SOL    HW236948   3.576   2.893   3.782 -0.3107  0.7659  0.7613
 8439SOL     OW36949   2.897   1.740  12.987 -0.0874 -0.4184 -0.1802
 8439SOL    HW136950   2.854   1.669  13.034  1.7721 -1.3808  0.0770
 8439SOL    HW236951   2.987   1.707  12.987  0.4546  1.0912 -0.3857
 8440SOL     OW36952   4.114   1.850   8.674 -0.0946 -0.2282  0.1571
 8440SOL    HW136953   4.115   1.829   8.580  2.0541 -0.3461  0.2058
 8440SOL    HW236954   4.111   1.945   8.668  0.3329 -0.1866  0.6295
 8441SOL     OW36955   4.098   4.618   0.726  0.5357  0.5555 -0.4044
 8441SOL    HW136956   4.178   4.654   0.765  0.0346  1.7688 -0.4677
 8441SOL    HW236957   4.034   4.606   0.796  1.1397 -0.2177  0.0087
 8442SOL     OW36958   3.175   3.096  17.629  0.5087 -1.1769 -0.2177
 8442SOL    HW136959   3.137   3.167  17.680  0.3988 -0.0128 -1.9058
 8442SOL    HW236960   3.237   3.061  17.693  0.4385 -0.7602  0.0786
 8443SOL     OW36961   1.999   1.321   1.491  0.4411 -0.0925 -0.0231
 8443SOL    HW136962   2.092   1.310   1.475  0.3809  0.3583 -0.6665
 8443SOL    HW236963   1.957   1.237   1.469 -0.4707  0.8391 -1.7987
 8444SOL     OW36964   4.577   1.297   3.980 -0.4970 -0.2356  0.3059
 8444SOL    HW136965   4.505   1.240   4.007 -0.2892 -0.2824  0.7540
 8444SOL    HW236966   4.660   1.276   4.021  0.4270  0.7708 -1.0498
 8445SOL     OW36967   4.260   2.848   5.833  0.5664 -0.0865 -0.0089
 8445SOL    HW136968   4.168   2.861   5.810  0.5244  0.7051  0.5827
 8445SOL    HW236969   4.276   2.754   5.838  0.9819  0.0179  0.6783
 8446SOL     OW36970   2.809   2.425   2.103 -0.6467  0.5163  0.0809
 8446SOL    HW136971   2.790   2.457   2.191 -0.1960 -1.4302  0.8878
 8446SOL    HW236972   2.841   2.336   2.120 -1.9058  0.5925  2.8334
 8447SOL     OW36973   4.313   0.005   7.816 -0.5462 -0.2731  0.1547
 8447SOL    HW136974   4.282   0.081   7.767 -0.6130 -1.2864 -1.3776
 8447SOL    HW236975   4.395   4.730   7.768 -0.7328 -1.1930  0.0600
 8448SOL     OW36976   4.238   1.051  11.469 -0.1606 -0.1106 -0.0309
 8448SOL    HW136977   4.176   1.112  11.429  0.3634 -0.4794 -1.3980
 8448SOL    HW236978   4.270   1.009  11.389 -0.1715 -0.6317  0.2391
 8449SOL     OW36979   2.845   3.261   7.058 -0.7187 -0.3496  0.0342
 8449SOL    HW136980   2.898   3.215   7.124  0.1718 -1.3521 -1.3652
 8449SOL    HW236981   2.837   3.349   7.093  0.8126 -0.0676 -0.3064
 8450SOL     OW36982   2.388   3.044   4.007 -0.4700 -0.2637 -0.1428
 8450SOL    HW136983   2.356   3.134   3.998 -0.1155 -0.1005  0.2685
 8450SOL    HW236984   2.338   3.011   4.082 -0.2031  0.6872  0.4439
 8451SOL     OW36985   1.232   0.921   6.219  0.5539 -0.2467 -0.2050
 8451SOL    HW136986   1.304   0.976   6.250 -0.0033  1.2133 -1.5098
 8451SOL    HW236987   1.257   0.829   6.226  1.1954 -0.1853 -1.5331
 8452SOL     OW36988   4.230   3.620   2.029 -0.2059  0.3202  0.4251
 8452SOL    HW136989   4.243   3.601   1.936  1.7532 -3.2311  1.4415
 8452SOL    HW236990   4.280   3.550   2.071 -1.6709 -2.9058 -3.2098
 8453SOL     OW36991   1.676   3.508   7.295 -0.0116  0.0431 -0.0647
 8453SOL    HW136992   1.753   3.543   7.250 -0.7857  0.5733 -0.9793
 8453SOL    HW236993   1.666   3.574   7.363 -0.4924  0.1948 -0.2804
 8454SOL     OW36994   0.451   4.155   9.129 -0.1023 -0.1972 -0.3633
 8454SOL    HW136995   0.393   4.081   9.148  1.1973 -0.8233  1.1398
 8454SOL    HW236996   0.530   4.133   9.178 -0.8113 -0.1175  0.8235
 8455SOL     OW36997   1.842   3.060   2.505 -0.5828 -0.3725  0.5257
 8455SOL    HW136998   1.798   2.975   2.512  2.2772 -1.8568  0.2392
 8455SOL    HW236999   1.863   3.046   2.413 -1.0158 -0.6672  0.4708
 8456SOL     OW37000   0.392   3.925   0.591  0.3083  0.0032  0.4002
 8456SOL    HW137001   0.317   3.983   0.576  0.8377 -0.0514 -2.4498
 8456SOL    HW237002   0.470   3.980   0.596 -0.1053  0.4098  2.4291
 8457SOL     OW37003   2.564   2.568   5.088  0.0984 -0.2828 -0.6378
 8457SOL    HW137004   2.603   2.542   5.171 -1.9174  1.2091  0.7731
 8457SOL    HW237005   2.592   2.659   5.094 -1.4666  0.2354 -1.0902
 8458SOL     OW37006   2.312   2.055   5.566 -0.2962 -0.3747  0.0042
 8458SOL    HW137007   2.236   2.029   5.514  1.5332 -1.0130 -2.3146
 8458SOL    HW237008   2.373   1.991   5.529 -0.4564  0.8888 -2.4051
 8459SOL     OW37009   1.341   3.650   4.866  0.1524  0.0844 -0.0253
 8459SOL    HW137010   1.268   3.705   4.896 -0.7988 -1.2394  0.1070
 8459SOL    HW237011   1.370   3.622   4.953 -1.0144  2.0573  0.9888
 8460SOL     OW37012   1.726   0.187   3.516 -0.1761 -0.0498  0.1878
 8460SOL    HW137013   1.804   0.217   3.563  1.1478 -0.0467 -1.9829
 8460SOL    HW237014   1.776   0.144   3.446  0.6733 -0.3304  0.9764
 8461SOL     OW37015   3.018   4.468   6.063 -1.1435  0.0810  0.4283
 8461SOL    HW137016   3.052   4.381   6.086  1.2430  1.7438  3.1678
 8461SOL    HW237017   3.046   4.488   5.974 -2.6756  1.3860  0.2509
 8462SOL     OW37018   2.420   0.696   7.851 -0.3976  0.3890 -0.0762
 8462SOL    HW137019   2.496   0.678   7.907 -1.2631  0.8945  1.2419
 8462SOL    HW237020   2.461   0.682   7.765  0.0719  3.3240 -0.3391
 8463SOL     OW37021   1.640   3.397   2.629  0.2130  0.0021 -0.1041
 8463SOL    HW137022   1.728   3.366   2.649  0.8585 -0.0680 -3.1406
 8463SOL    HW237023   1.613   3.337   2.559 -0.1072 -1.5855  1.3691
 8464SOL     OW37024   2.521   1.214   2.433  0.6405 -0.9074 -0.0030
 8464SOL    HW137025   2.536   1.308   2.446  0.8026 -0.7326 -1.4305
 8464SOL    HW237026   2.603   1.197   2.385  0.4000  0.6038 -0.9224
 8465SOL     OW37027   0.083   3.045  17.682 -0.0219 -0.6281  0.2219
 8465SOL    HW137028   0.164   3.087  17.710 -0.3262 -0.7606  1.2971
 8465SOL    HW237029   0.022   3.112  17.713 -0.3102 -0.4722 -0.6559
 8466SOL     OW37030   3.395   1.784   4.898  0.0920  0.6836  0.7088
 8466SOL    HW137031   3.417   1.707   4.845 -3.0433  0.6844 -0.5685
 8466SOL    HW237032   3.303   1.768   4.916 -0.1469  1.3754  0.1057
 8467SOL     OW37033   0.983   1.679  10.626  0.3950  0.2700 -0.9296
 8467SOL    HW137034   0.957   1.711  10.540 -0.1872 -1.7255 -1.5080
 8467SOL    HW237035   0.920   1.609  10.647  2.0202 -0.6473  0.9918
 8468SOL     OW37036   4.636   2.770   9.462 -0.1300  0.2651 -0.6826
 8468SOL    HW137037   4.609   2.683   9.432  1.5221  0.5140 -2.8370
 8468SOL    HW237038   4.669   2.754   9.550 -0.4098 -0.2308 -0.6621
 8469SOL     OW37039   3.897   2.141   3.483 -0.5427  0.4727  0.2503
 8469SOL    HW137040   3.947   2.060   3.471 -2.1169  0.0038 -3.0153
 8469SOL    HW237041   3.958   2.186   3.542  0.9195  1.2617 -1.8832
 8470SOL     OW37042   0.034   3.692   3.565 -0.0004  0.6831  0.1608
 8470SOL    HW137043   4.735   3.640   3.636  1.2403  1.9901  1.7267
 8470SOL    HW237044   4.731   3.776   3.585  0.8541  0.8755  1.0362
 8471SOL     OW37045   1.791   4.329  10.585  0.3051  0.6577 -0.4900
 8471SOL    HW137046   1.759   4.240  10.570 -0.8187  1.5529 -3.3827
 8471SOL    HW237047   1.742   4.355  10.663  2.0637  0.7116  0.5937
 8472SOL     OW37048   3.946   0.369   8.646  0.3472 -0.1709  0.1996
 8472SOL    HW137049   3.903   0.426   8.583 -1.7794  0.9730  2.6546
 8472SOL    HW237050   4.019   0.420   8.681 -0.8404  2.0916 -0.6088
 8473SOL     OW37051   0.564   3.433   6.266  0.1289 -0.0639 -0.2348
 8473SOL    HW137052   0.643   3.383   6.246  1.1332  2.1750 -1.8653
 8473SOL    HW237053   0.515   3.423   6.185 -0.5387  0.0528  0.1536
 8474SOL     OW37054   2.814   0.558   3.349 -0.5001 -0.2996 -0.0685
 8474SOL    HW137055   2.746   0.491   3.339 -1.6137  1.0534 -1.4089
 8474SOL    HW237056   2.775   0.609   3.419  1.0558 -2.1801  2.1654
 8475SOL     OW37057   2.155   2.875  17.174 -0.5586 -0.2528 -0.4058
 8475SOL    HW137058   2.239   2.831  17.163 -0.3661  0.3114 -1.1571
 8475SOL    HW237059   2.090   2.820  17.130 -2.0095  2.4641 -1.6816
 8476SOL     OW37060   2.865   3.693   4.586 -0.4488  0.4615  0.2342
 8476SOL    HW137061   2.866   3.648   4.502  2.2204 -1.5461  1.3592
 8476SOL    HW237062   2.773   3.708   4.607 -0.4166 -1.5852  1.8640
 8477SOL     OW37063   1.294   3.349  14.209  0.1815 -0.3678  0.0968
 8477SOL    HW137064   1.388   3.335  14.216  0.4316  1.0309 -0.5046
 8477SOL    HW237065   1.277   3.289  14.282 -1.4941 -0.1777 -0.1412
 8478SOL     OW37066   1.068   2.061   6.068 -0.1624  0.3904  0.4944
 8478SOL    HW137067   1.124   2.049   6.144  0.3223 -0.6893 -0.0290
 8478SOL    HW237068   1.118   2.129   6.023  0.9558 -0.3164  0.6462
 8479SOL     OW37069   4.049   2.811   8.871  0.1981  0.1952 -0.2254
 8479SOL    HW137070   4.079   2.730   8.830  1.1533  1.0299 -1.1651
 8479SOL    HW237071   4.118   2.875   8.858  1.6912 -1.1627  1.1117
 8480SOL     OW37072   1.534   3.032  12.327  0.5320 -0.3225 -0.3624
 8480SOL    HW137073   1.553   3.047  12.235 -2.3248  2.3352 -0.5341
 8480SOL    HW237074   1.594   3.085  12.378 -2.2317  2.0380  0.4682
 8481SOL     OW37075   4.185   3.557   9.922 -0.4100 -0.4160 -0.4336
 8481SOL    HW137076   4.161   3.601   9.840 -0.5142  1.4658  0.5954
 8481SOL    HW237077   4.277   3.579   9.932 -0.3843 -0.2808 -0.9338
 8482SOL     OW37078   1.364   2.439   3.282 -0.2359 -0.3043  0.2293
 8482SOL    HW137079   1.459   2.441   3.275 -0.1423 -0.0642  1.6324
 8482SOL    HW237080   1.364   2.398   3.368 -1.2986 -2.7489 -0.9158
 8483SOL     OW37081   1.351   2.670   9.866 -0.1704  1.2036 -0.2466
 8483SOL    HW137082   1.336   2.667   9.960  1.5858  4.4375  0.1309
 8483SOL    HW237083   1.440   2.636   9.865 -0.5157  0.2990  0.3062
 8484SOL     OW37084   2.092   3.564  12.946  0.4947 -0.2196  0.4835
 8484SOL    HW137085   2.125   3.522  12.867  1.9259  0.4295  0.7370
 8484SOL    HW237086   2.092   3.654  12.914  0.7589  0.2518  1.8086
 8485SOL     OW37087   1.645   0.110  13.741 -0.8471  0.2981 -0.1200
 8485SOL    HW137088   1.575   0.121  13.677 -0.2065  0.2988 -0.8222
 8485SOL    HW237089   1.698   0.185  13.715 -0.8222 -0.2063 -1.4824
 8486SOL     OW37090   3.054   2.821   5.592  0.2023 -0.2981  0.0942
 8486SOL    HW137091   3.069   2.731   5.562 -0.1788  0.3555 -1.9999
 8486SOL    HW237092   3.027   2.855   5.507 -2.1244  0.5405  1.1796
 8487SOL     OW37093   0.645   4.520   6.161  0.7625  0.8161 -0.1132
 8487SOL    HW137094   0.700   4.475   6.097  1.3689  1.7766 -0.2800
 8487SOL    HW237095   0.612   4.444   6.209 -1.0060  1.3167 -0.5248
 8488SOL     OW37096   4.351   0.869   5.014  0.3054  0.0302  0.2804
 8488SOL    HW137097   4.369   0.845   4.923  0.6499 -3.5591  1.3307
 8488SOL    HW237098   4.257   0.858   5.020 -0.0594  2.1481 -1.3981
 8489SOL     OW37099   1.863   4.205  14.091  0.2609  0.4863  0.0741
 8489SOL    HW137100   1.855   4.110  14.094 -0.8497  0.5752  0.1482
 8489SOL    HW237101   1.943   4.227  14.139  2.7830 -0.6433 -3.5676
 8490SOL     OW37102   1.487   3.447   3.391  0.2381 -0.6339  0.1534
 8490SOL    HW137103   1.501   3.536   3.424 -2.4029  0.9196 -2.9410
 8490SOL    HW237104   1.550   3.393   3.438  2.9362  1.1553 -1.3801
 8491SOL     OW37105   3.399   0.660   3.468 -0.5627  0.2860 -0.2995
 8491SOL    HW137106   3.428   0.591   3.528  0.3980  0.6276 -0.3731
 8491SOL    HW237107   3.305   0.656   3.481 -0.6841 -1.5846 -1.7626
 8492SOL     OW37108   2.057   3.312  16.680 -0.3458  0.1936 -0.0958
 8492SOL    HW137109   2.082   3.338  16.769 -1.3045 -0.3372  0.3191
 8492SOL    HW237110   2.141   3.340  16.643 -0.3481  1.3132  0.7413
 8493SOL     OW37111   4.212   3.440   3.041 -0.0038  0.3026 -0.1613
 8493SOL    HW137112   4.258   3.462   2.960  1.7315 -1.6327  0.2767
 8493SOL    HW237113   4.182   3.349   3.046 -0.6319  0.5794  1.0360
 8494SOL     OW37114   0.247   4.498   5.492  0.2164 -0.5691  0.4593
 8494SOL    HW137115   0.165   4.456   5.466 -0.5775  1.8918 -1.0295
 8494SOL    HW237116   0.293   4.489   5.409  0.8670 -0.9276  0.8621
 8495SOL     OW37117   1.695   1.607   4.964  0.3189  0.1298  0.6282
 8495SOL    HW137118   1.616   1.584   4.917  0.3437 -0.1684  0.7318
 8495SOL    HW237119   1.744   1.614   4.883 -2.2741  2.4205 -0.7372
 8496SOL     OW37120   3.698   2.980   0.744 -0.4410 -0.5907 -0.0558
 8496SOL    HW137121   3.765   2.969   0.812  0.4849 -3.9747 -1.4948
 8496SOL    HW237122   3.749   3.007   0.668 -0.8980  2.1825  0.6175
 8497SOL     OW37123   0.129   1.871   2.590 -0.3146 -0.3508 -0.5326
 8497SOL    HW137124   0.091   1.957   2.605  0.8605 -0.1325  1.0749
 8497SOL    HW237125   0.117   1.874   2.495 -0.1425 -0.9696 -0.5760
 8498SOL     OW37126   2.529   3.630   5.356 -0.2275  0.5875 -0.1732
 8498SOL    HW137127   2.470   3.691   5.313  0.0668  1.7507  1.0605
 8498SOL    HW237128   2.595   3.694   5.384 -0.4912  0.9247 -0.3325
 8499SOL     OW37129   0.005   4.404   2.441 -0.0380 -0.3646 -0.1092
 8499SOL    HW137130   4.685   4.375   2.370 -1.1799  2.0671 -0.1660
 8499SOL    HW237131   0.089   4.363   2.420 -1.2067 -2.1160 -1.4150
 8500SOL     OW37132   4.379   3.340   7.020 -0.0746  0.9703 -0.4614
 8500SOL    HW137133   4.416   3.403   7.081  1.8667 -0.6365  0.0140
 8500SOL    HW237134   4.444   3.299   6.963  0.0695  1.8527 -0.9371
 8501SOL     OW37135   2.862   0.600   9.810 -0.2218 -0.1057  0.1102
 8501SOL    HW137136   2.888   0.634   9.724  0.3301  0.3530  0.4529
 8501SOL    HW237137   2.767   0.605   9.806 -0.1041 -0.4231 -2.6020
 8502SOL     OW37138   1.031   3.163   4.578  0.3678  0.1165 -0.4449
 8502SOL    HW137139   1.013   3.173   4.484 -0.3961  0.0905 -0.3040
 8502SOL    HW237140   0.946   3.187   4.615  0.0944 -1.9402  0.2562
 8503SOL     OW37141   0.367   1.085  10.259  0.0677  0.3575  0.5987
 8503SOL    HW137142   0.385   1.093  10.353 -2.9662 -3.1398  1.4658
 8503SOL    HW237143   0.330   1.171  10.237  1.6374  0.7566 -0.4345
 8504SOL     OW37144   3.728   3.992   1.996 -0.1049  0.0078  0.4525
 8504SOL    HW137145   3.646   3.954   2.029 -0.6437  0.7266 -0.0750
 8504SOL    HW237146   3.715   4.081   2.028 -1.3426  0.7929 -2.2834
 8505SOL     OW37147   0.354   4.510   3.480 -0.9028  0.3760  0.2249
 8505SOL    HW137148   0.407   4.518   3.401  0.1006 -1.4302  0.7004
 8505SOL    HW237149   0.409   4.451   3.531 -1.4829 -1.0614 -0.8070
 8506SOL     OW37150   2.025   2.055   0.901  0.4142 -0.4067  0.0072
 8506SOL    HW137151   1.932   2.033   0.899 -0.1458  2.0444 -1.0186
 8506SOL    HW237152   2.054   1.978   0.950  1.2335 -1.9555 -2.8875
 8507SOL     OW37153   0.575   1.062   3.550 -0.0507  0.5533  0.1685
 8507SOL    HW137154   0.564   1.043   3.643 -1.5151  0.3230 -0.0425
 8507SOL    HW237155   0.505   1.018   3.502 -1.2031  1.1148  1.3385
 8508SOL     OW37156   3.095   3.830   8.723  0.0431  0.1466 -0.1961
 8508SOL    HW137157   3.111   3.736   8.724 -0.8070 -0.0004 -1.1807
 8508SOL    HW237158   3.175   3.870   8.688  0.6899 -3.1630 -2.4719
 8509SOL     OW37159   2.405   2.523   0.839  0.0173 -0.2164  0.6026
 8509SOL    HW137160   2.351   2.602   0.849  1.0695  0.3889  1.5411
 8509SOL    HW237161   2.493   2.549   0.865  1.1346  0.4090 -3.8941
 8510SOL     OW37162   2.569   2.004   4.272  0.4736  0.5571 -0.4796
 8510SOL    HW137163   2.572   1.916   4.311  3.4879  0.8524 -0.0588
 8510SOL    HW237164   2.643   2.056   4.303  0.7238 -2.6499  4.2819
 8511SOL     OW37165   4.604   2.195   5.571 -0.4607  0.2780  0.2110
 8511SOL    HW137166   4.692   2.217   5.602 -0.5119  0.4825  0.2068
 8511SOL    HW237167   4.616   2.116   5.518  1.6860  1.3191 -0.8686
 8512SOL     OW37168   4.574   0.153  15.862  0.0384 -0.0073 -0.1652
 8512SOL    HW137169   4.603   0.197  15.942 -0.7704  0.5040 -0.1536
 8512SOL    HW237170   4.653   0.116  15.823 -0.7642  0.9664 -2.7256
 8513SOL     OW37171   1.903   4.666   5.919  0.1414 -0.4898  0.2589
 8513SOL    HW137172   1.851   4.587   5.932 -0.4111 -0.2032 -0.1838
 8513SOL    HW237173   1.853   4.718   5.856 -0.2131 -1.2034 -0.0516
 8514SOL     OW37174   3.052   0.688  16.192 -1.0221  0.3209 -0.4088
 8514SOL    HW137175   3.135   0.664  16.233 -0.3685  0.8098 -1.4396
 8514SOL    HW237176   2.998   0.711  16.267 -2.3678 -3.1840 -0.2698
 8515SOL     OW37177   4.644   4.661  12.015  0.9351  0.2651  0.5324
 8515SOL    HW137178   4.574   4.695  12.070 -0.2221 -1.3644  0.0874
 8515SOL    HW237179   4.667   4.582  12.064 -0.8236 -1.9344 -2.0911
 8516SOL     OW37180   0.021   1.578   2.857  0.3125  0.1638 -0.7965
 8516SOL    HW137181   4.695   1.551   2.923  0.4417  2.2662  0.1819
 8516SOL    HW237182   4.704   1.637   2.804 -0.9951 -0.2021  0.1478
 8517SOL     OW37183   2.944   3.317   5.471  0.4444 -0.3238  0.6627
 8517SOL    HW137184   2.987   3.387   5.519  1.2849 -0.0747 -0.4516
 8517SOL    HW237185   2.988   3.240   5.507  1.4587 -1.6427 -3.3372
 8518SOL     OW37186   0.722   3.712  11.266  0.1384 -0.2276 -0.2382
 8518SOL    HW137187   0.664   3.689  11.338 -1.6316  1.6804 -1.0605
 8518SOL    HW237188   0.787   3.767  11.309 -0.8895  1.4560 -0.8448
 8519SOL     OW37189   1.161   2.738   8.759  0.1003 -0.0539  0.0753
 8519SOL    HW137190   1.210   2.772   8.833  0.7115 -0.0139 -0.3478
 8519SOL    HW237191   1.227   2.677   8.726 -0.8338 -1.3325  0.5895
 8520SOL     OW37192   2.981   2.423   7.777 -0.3300  0.1846 -0.8285
 8520SOL    HW137193   3.051   2.474   7.817  1.0800 -2.2657 -0.1599
 8520SOL    HW237194   3.041   2.358   7.741 -0.8856 -1.8661  1.9229
 8521SOL     OW37195   2.742   4.260   5.253  0.0628 -0.4952 -0.3679
 8521SOL    HW137196   2.819   4.254   5.197 -0.5165 -1.4849 -1.0525
 8521SOL    HW237197   2.754   4.349   5.286  0.8904 -1.0749  0.9148
 8522SOL     OW37198   1.735   1.368   2.443 -0.0549 -0.1785 -0.8939
 8522SOL    HW137199   1.772   1.427   2.509  1.7305  0.8669 -2.8058
 8522SOL    HW237200   1.815   1.319   2.424  0.1046 -0.3512  0.2078
 8523SOL     OW37201   1.156   2.296   7.980  0.2486 -0.3170  0.4647
 8523SOL    HW137202   1.158   2.307   8.075  2.2044  1.4342  0.2157
 8523SOL    HW237203   1.060   2.291   7.982  0.1288  1.6556 -0.2779
 8524SOL     OW37204   1.014   3.686   0.858 -0.3997  0.2601 -1.2492
 8524SOL    HW137205   0.952   3.701   0.930 -1.9394  0.9956 -2.7321
 8524SOL    HW237206   0.973   3.740   0.791 -2.3097  0.9565  0.4541
 8525SOL     OW37207   2.107   3.685  16.902 -0.1866  0.3168  0.0203
 8525SOL    HW137208   2.047   3.643  16.841  0.4297  0.3544 -0.6106
 8525SOL    HW237209   2.191   3.679  16.857 -0.6435 -4.6390 -0.1784
 8526SOL     OW37210   4.618   3.874   8.569 -0.2359  0.0643 -0.0058
 8526SOL    HW137211   4.699   3.902   8.610 -0.1323  0.3168 -0.3856
 8526SOL    HW237212   4.553   3.920   8.624 -1.4304  0.9180 -2.1347
 8527SOL     OW37213   3.552   4.207   6.969  0.0796 -0.0983 -0.0767
 8527SOL    HW137214   3.572   4.241   6.882 -0.5048 -1.4995 -0.7550
 8527SOL    HW237215   3.549   4.113   6.950  1.5859 -0.6538  2.4406
 8528SOL     OW37216   3.524   2.794   8.498  0.3112  0.2651  0.2883
 8528SOL    HW137217   3.468   2.831   8.566 -1.6668  0.6813 -1.5971
 8528SOL    HW237218   3.519   2.861   8.430  1.6553  1.5732  1.4727
 8529SOL     OW37219   0.713   4.585  17.443 -0.3956  0.0328  0.5541
 8529SOL    HW137220   0.711   4.510  17.501  2.7395  0.1449  0.7971
 8529SOL    HW237221   0.675   4.651  17.501 -2.2647 -0.6756  0.1358
 8530SOL     OW37222   3.761   2.230   6.460 -0.0561 -0.5794 -0.5037
 8530SOL    HW137223   3.829   2.214   6.525 -0.9633 -0.8895  0.3753
 8530SOL    HW237224   3.680   2.192   6.495  0.9332 -0.3631  1.9949
 8531SOL     OW37225   4.150   0.887   6.477 -0.3589  0.9378 -0.1668
 8531SOL    HW137226   4.176   0.795   6.484  0.7655  1.3415  1.0210
 8531SOL    HW237227   4.235   0.926   6.500 -1.5115  2.6229  1.1941
 8532SOL     OW37228   2.132   0.797   3.545 -0.2364  0.2508 -0.1790
 8532SOL    HW137229   2.157   0.735   3.613  1.4505  0.2569 -0.7753
 8532SOL    HW237230   2.086   0.731   3.493 -1.7811  0.6008  0.7606
 8533SOL     OW37231   2.577   1.434   4.491  0.1132  0.3711 -0.5134
 8533SOL    HW137232   2.635   1.388   4.551 -0.9740 -0.0845  0.1974
 8533SOL    HW237233   2.578   1.521   4.530  1.7336  0.5087 -0.8675
 8534SOL     OW37234   2.663   1.017  17.224 -0.2378  0.3246  0.4885
 8534SOL    HW137235   2.733   1.041  17.286  2.8185  0.6654 -3.1299
 8534SOL    HW237236   2.702   0.939  17.185 -1.1190  0.3331 -0.3900
 8535SOL     OW37237   3.166   4.691   8.742  0.2870 -0.6196  0.5140
 8535SOL    HW137238   3.220   4.658   8.814 -0.5822 -0.5744  1.1899
 8535SOL    HW237239   3.076   4.694   8.773 -0.7953 -1.7831 -2.5298
 8536SOL     OW37240   1.993   4.034   2.015 -0.1708 -0.6572  0.4065
 8536SOL    HW137241   1.904   4.061   2.038 -0.3048 -1.9922  1.5076
 8536SOL    HW237242   2.008   4.068   1.927 -0.4494  1.7679  1.2898
 8537SOL     OW37243   0.662   2.085   4.860  0.0466  0.1069 -0.2019
 8537SOL    HW137244   0.668   2.159   4.920 -2.2084  0.6155 -0.6219
 8537SOL    HW237245   0.667   2.004   4.911 -1.6050  0.8663  1.1241
 8538SOL     OW37246   1.664   2.505   4.736  0.0864 -0.3157 -0.0239
 8538SOL    HW137247   1.573   2.503   4.710 -0.3746 -0.6014  1.5845
 8538SOL    HW237248   1.666   2.448   4.813 -0.8119  0.5386  0.6308
 8539SOL     OW37249   3.645   4.247   2.091  0.0576 -0.1405 -0.2007
 8539SOL    HW137250   3.569   4.304   2.082 -1.6395 -2.7040 -2.4743
 8539SOL    HW237251   3.674   4.263   2.180 -1.6380  2.0080 -0.0467
 8540SOL     OW37252   0.494   0.896   5.847 -0.4302 -0.4236 -0.2564
 8540SOL    HW137253   0.583   0.880   5.879  0.2269 -0.4276 -2.1310
 8540SOL    HW237254   0.462   0.973   5.894  2.1127  1.0180 -0.8431
 8541SOL     OW37255   2.170   3.413   6.861  0.1364 -0.3445  0.5343
 8541SOL    HW137256   2.092   3.468   6.858 -0.1850 -0.8083  0.3675
 8541SOL    HW237257   2.221   3.437   6.783 -2.0451  2.3282 -0.0638
 8542SOL     OW37258   4.698   0.895  11.334 -0.5779  0.5301 -0.2454
 8542SOL    HW137259   4.624   0.834  11.327  0.6991 -1.0864  0.2531
 8542SOL    HW237260   4.646   0.973  11.354  0.0367  1.3020 -1.7040
 8543SOL     OW37261   1.483   2.475  14.356  0.1689 -0.5140  0.1907
 8543SOL    HW137262   1.388   2.483  14.346  0.3995  1.5856 -0.2726
 8543SOL    HW237263   1.510   2.542  14.294 -0.0302  1.6751  2.5124
 8544SOL     OW37264   3.327   3.589  16.739  0.2303 -0.3917 -1.1344
 8544SOL    HW137265   3.267   3.554  16.672 -2.2109  1.9037 -0.1101
 8544SOL    HW237266   3.332   3.524  16.809 -1.2462 -0.1353 -0.7956
 8545SOL     OW37267   2.477   4.657   4.074 -0.3829 -0.2567  0.3798
 8545SOL    HW137268   2.467   4.701   4.158 -0.6836 -0.6972  0.5737
 8545SOL    HW237269   2.507   4.724   4.012 -0.2329  0.1478  0.8941
 8546SOL     OW37270   4.155   3.271   6.837 -0.0419  0.1183  0.5043
 8546SOL    HW137271   4.206   3.310   6.908  3.6036 -3.3618 -0.2184
 8546SOL    HW237272   4.225   3.269   6.772 -1.0808  3.3220 -0.7009
 8547SOL     OW37273   1.094   0.673   8.791 -0.1095 -0.1195 -0.0551
 8547SOL    HW137274   1.099   0.578   8.788  1.8656 -0.0723  1.6234
 8547SOL    HW237275   1.187   0.689   8.806 -0.0578 -1.7502  1.3671
 8548SOL     OW37276   4.445   4.651   6.295  0.3889 -0.6206  0.3221
 8548SOL    HW137277   4.528   4.603   6.296  2.3380  2.7642  2.6471
 8548SOL    HW237278   4.475   4.731   6.251 -0.9773 -0.0161  0.4941
 8549SOL     OW37279   2.185   1.351   0.073  0.2531  0.0261  0.4064
 8549SOL    HW137280   2.219   1.417   0.134 -0.8157 -0.3710  1.4217
 8549SOL    HW237281   2.197   1.393  17.732 -1.2656  1.8287  1.0686
 8550SOL     OW37282   0.688   4.392  14.283  0.8115  0.3969 -0.1292
 8550SOL    HW137283   0.682   4.329  14.355  0.7643  2.2394  1.4667
 8550SOL    HW237284   0.780   4.371  14.266 -0.1281 -3.5040 -0.4810
 8551SOL     OW37285   1.204   3.493   8.199  0.0954 -0.3236  0.3840
 8551SOL    HW137286   1.233   3.410   8.237 -0.2039 -0.0793  1.1398
 8551SOL    HW237287   1.130   3.476   8.141  2.6731  1.1818 -3.3891
 8552SOL     OW37288   1.573   4.160   2.874 -0.0877  0.2360 -0.4633
 8552SOL    HW137289   1.530   4.076   2.888  0.0925  0.3797  0.9906
 8552SOL    HW237290   1.507   4.214   2.917 -0.1099 -0.8214  0.8139
 8553SOL     OW37291   2.377   0.730   1.724  0.3118  0.0710 -0.0674
 8553SOL    HW137292   2.359   0.820   1.695  0.8958  0.6863  1.5227
 8553SOL    HW237293   2.456   0.746   1.775  0.8305 -2.5343 -0.0425
 8554SOL     OW37294   4.593   3.140   5.514 -0.8965 -0.1199 -0.0315
 8554SOL    HW137295   4.539   3.118   5.591  0.2359  0.6688  0.9852
 8554SOL    HW237296   4.546   3.217   5.483 -0.1065  0.9950  1.5676
 8555SOL     OW37297   4.049   4.120   7.688 -0.2792 -0.6130 -0.0633
 8555SOL    HW137298   4.052   4.032   7.725  0.3038 -0.2599  0.7316
 8555SOL    HW237299   4.027   4.161   7.772 -1.5246 -1.6398  0.1187
 8556SOL     OW37300   2.664   2.677   5.676 -0.3455  0.0965  0.0901
 8556SOL    HW137301   2.643   2.605   5.734 -1.3757 -0.8864 -1.5097
 8556SOL    HW237302   2.759   2.689   5.687 -0.4087  1.0067 -0.2868
 8557SOL     OW37303   3.456   3.551   4.762 -0.3103 -0.2016 -0.1154
 8557SOL    HW137304   3.535   3.535   4.711  0.0683  1.8314 -0.1751
 8557SOL    HW237305   3.386   3.511   4.710 -1.4140  2.5706 -0.7885
 8558SOL     OW37306   1.519   4.098  11.997 -0.1562  0.0345 -0.1277
 8558SOL    HW137307   1.449   4.047  12.037  1.5166 -1.3827  0.9772
 8558SOL    HW237308   1.520   4.173  12.056 -1.0826 -0.3418  0.3577
 8559SOL     OW37309   4.623   1.014   3.888 -0.2077  0.2496  0.1339
 8559SOL    HW137310   4.569   0.968   3.824 -1.0102 -1.6460  2.1627
 8559SOL    HW237311   4.710   1.010   3.847  1.0369 -2.3434  2.9706
 8560SOL     OW37312   4.203   0.396  13.461  0.2242 -0.3490 -0.1119
 8560SOL    HW137313   4.191   0.392  13.366  0.4880  0.3923 -0.1698
 8560SOL    HW237314   4.192   0.302  13.478 -0.7049 -0.6011 -2.1599
 8561SOL     OW37315   3.467   2.503   6.479  0.1982  0.7015 -0.5629
 8561SOL    HW137316   3.373   2.517   6.471  0.1786  0.4071 -0.8224
 8561SOL    HW237317   3.463   2.453   6.561  0.7117  0.9159 -0.4057
 8562SOL     OW37318   4.687   2.661   3.073 -0.5558  0.6605 -0.0756
 8562SOL    HW137319   4.637   2.584   3.101  0.5022 -0.2429 -0.6457
 8562SOL    HW237320   4.659   2.668   2.982 -0.2251 -3.1434 -0.4885
 8563SOL     OW37321   3.387   2.334   6.682  0.3108 -0.1600  0.5886
 8563SOL    HW137322   3.393   2.244   6.649 -2.6276  0.4396 -1.5526
 8563SOL    HW237323   3.329   2.320   6.757 -0.8608  0.0284 -0.2843
 8564SOL     OW37324   0.023   0.112  17.138 -0.8921  0.1945 -0.2120
 8564SOL    HW137325   4.702   0.088  17.210  0.2226 -1.1942  0.2179
 8564SOL    HW237326   4.731   0.203  17.134  1.2155  0.7971 -2.0785
 8565SOL     OW37327   3.443   1.094   3.675 -0.1000  0.2260 -0.0315
 8565SOL    HW137328   3.467   1.043   3.753  0.5214  1.9386  0.8825
 8565SOL    HW237329   3.464   1.030   3.608 -0.9740 -1.1442  0.9815
 8566SOL     OW37330   0.071   4.693  11.406  0.2170 -0.7330  0.4269
 8566SOL    HW137331   0.109   0.013  11.473 -1.2044 -1.0815  1.5434
 8566SOL    HW237332   0.084   0.000  11.322  0.0478 -2.8099 -0.6845
 8567SOL     OW37333   2.816   3.457   7.856  0.2289  0.6855  0.0024
 8567SOL    HW137334   2.790   3.395   7.924 -1.5967  1.7098  0.2412
 8567SOL    HW237335   2.825   3.403   7.777 -0.5104  0.3085  0.1719
 8568SOL     OW37336   2.523   4.576  11.669  0.3696  0.0323  0.2787
 8568SOL    HW137337   2.546   4.532  11.750  2.5457  0.3694 -0.1638
 8568SOL    HW237338   2.607   4.621  11.660 -0.4549  0.6498 -4.4604
 8569SOL     OW37339   4.376   3.255   3.857 -0.1901 -0.6163 -0.2470
 8569SOL    HW137340   4.437   3.290   3.921 -0.2141 -0.5493 -0.2611
 8569SOL    HW237341   4.386   3.313   3.782 -2.0757 -1.1456 -0.9334
 8570SOL     OW37342   4.017   1.082   0.850 -0.2982  0.3070 -0.5825
 8570SOL    HW137343   4.059   1.060   0.933  0.5941  2.2255 -0.5355
 8570SOL    HW237344   4.064   1.162   0.829 -1.0892  1.3117  1.4933
 8571SOL     OW37345   1.309   1.702   6.036 -0.6050  0.0361  0.4627
 8571SOL    HW137346   1.235   1.693   6.096 -1.4640 -0.2436 -0.6357
 8571SOL    HW237347   1.320   1.610   6.012 -0.8357  0.8424 -2.6892
 8572SOL     OW37348   1.752   2.515   8.305 -0.4452  0.2345 -0.5611
 8572SOL    HW137349   1.719   2.600   8.334 -0.4627  0.0778 -0.1167
 8572SOL    HW237350   1.751   2.459   8.382  0.2870  0.7513 -0.1734
 8573SOL     OW37351   0.588   3.192   3.681  0.2179 -0.3165  0.2803
 8573SOL    HW137352   0.570   3.102   3.655  0.5444 -0.2991 -0.0041
 8573SOL    HW237353   0.563   3.232   3.598 -2.3948 -0.5033  0.9966
 8574SOL     OW37354   3.638   0.864   2.127 -0.3862 -0.1006  0.2450
 8574SOL    HW137355   3.683   0.903   2.051 -0.0522 -1.0050 -0.0236
 8574SOL    HW237356   3.676   0.776   2.121 -3.7036 -1.3411 -2.9377
 8575SOL     OW37357   3.803   3.277   4.465  0.2239 -0.0342 -0.1489
 8575SOL    HW137358   3.785   3.242   4.378 -0.3362  1.5119 -0.6487
 8575SOL    HW237359   3.896   3.299   4.463  0.1867  0.2367  1.1318
 8576SOL     OW37360   1.664   2.266   1.961 -0.4903  0.0942  0.0182
 8576SOL    HW137361   1.748   2.252   2.005 -1.5580 -2.0823  1.3683
 8576SOL    HW237362   1.658   2.362   1.962 -1.6893  0.0184 -2.1812
 8577SOL     OW37363   3.649   1.508   2.493  0.4537  0.1096 -0.6298
 8577SOL    HW137364   3.583   1.575   2.510  0.4706 -0.6631  2.4140
 8577SOL    HW237365   3.725   1.546   2.539 -0.9080  1.7569  0.2763
 8578SOL     OW37366   3.987   2.871   8.386  0.1770 -0.5956 -0.4735
 8578SOL    HW137367   4.080   2.852   8.399  0.2220 -0.2625 -0.3081
 8578SOL    HW237368   3.948   2.789   8.357 -0.7144  0.7531 -3.0176
 8579SOL     OW37369   0.602   3.764  13.422  0.4057 -0.4591 -0.2449
 8579SOL    HW137370   0.518   3.772  13.467  0.0157  2.0476 -1.4274
 8579SOL    HW237371   0.583   3.723  13.338 -1.9406 -0.1534  0.1436
 8580SOL     OW37372   4.009   1.394   0.540  0.0512 -0.6311 -0.3251
 8580SOL    HW137373   4.051   1.347   0.612  0.4339 -0.7826 -0.6475
 8580SOL    HW237374   3.969   1.465   0.590  2.8542  1.7524 -1.5202
 8581SOL     OW37375   4.050   4.020   2.397  0.2496  0.5704  0.5202
 8581SOL    HW137376   4.065   4.111   2.375  1.3805  0.2551 -0.0384
 8581SOL    HW237377   4.140   4.003   2.425  0.3184 -0.3447 -0.2230
 8582SOL     OW37378   1.048   4.006  11.202 -0.3251  0.2314 -0.0121
 8582SOL    HW137379   0.996   3.936  11.163  0.2052 -0.8663  1.2792
 8582SOL    HW237380   1.002   4.083  11.167  0.1985  0.8467  0.6461
 8583SOL     OW37381   0.419   0.381   1.418 -0.8480 -0.1325 -0.5545
 8583SOL    HW137382   0.410   0.448   1.350  1.5828 -0.7536 -1.4870
 8583SOL    HW237383   0.377   0.308   1.374  0.2960  0.5618 -2.7794
 8584SOL     OW37384   2.773   2.007   9.649 -0.1258  0.5480 -0.7747
 8584SOL    HW137385   2.756   2.020   9.556  1.0963  2.8018 -0.6650
 8584SOL    HW237386   2.715   1.932   9.666  1.4127 -0.1716  1.2132
 8585SOL     OW37387   1.339   3.816   7.059 -0.1049  0.1050 -0.0409
 8585SOL    HW137388   1.364   3.760   6.986  0.8150  1.3795 -0.7140
 8585SOL    HW237389   1.357   3.749   7.125  0.0301  0.6361  0.4645
 8586SOL     OW37390   2.883   3.811   9.168  0.1719 -0.1885 -0.3861
 8586SOL    HW137391   2.883   3.740   9.104 -0.8226  0.1502 -0.7678
 8586SOL    HW237392   2.902   3.887   9.113  0.3489 -0.7200 -1.0503
 8587SOL     OW37393   4.628   4.134   5.824  0.3646 -0.4068 -0.3487
 8587SOL    HW137394   4.641   4.105   5.914 -1.4374  0.7836  0.2849
 8587SOL    HW237395   4.591   4.217   5.852  3.2969 -0.0068  2.4104
 8588SOL     OW37396   4.585   0.717   3.816  0.1538  0.5001  0.1322
 8588SOL    HW137397   4.668   0.670   3.816  1.6511  3.1051 -0.4523
 8588SOL    HW237398   4.570   0.737   3.908 -0.0706 -0.5139  0.3102
 8589SOL     OW37399   2.066   1.446   9.510 -0.4103 -0.4395  0.6187
 8589SOL    HW137400   2.121   1.372   9.487 -1.7273 -1.3899  0.5434
 8589SOL    HW237401   2.101   1.512   9.450 -1.4059 -0.8970 -0.4535
 8590SOL     OW37402   3.771   1.584   0.965 -0.1317  0.1683  0.1174
 8590SOL    HW137403   3.851   1.617   1.005  0.1563  1.0198 -1.1410
 8590SOL    HW237404   3.792   1.586   0.871  2.0297 -0.8388  0.5682
 8591SOL     OW37405   2.245   1.757   0.313 -0.2226  0.4988  1.0721
 8591SOL    HW137406   2.244   1.810   0.233  0.4220  2.4235  2.3528
 8591SOL    HW237407   2.271   1.816   0.384  2.7154 -0.8087  1.1065
 8592SOL     OW37408   0.019   4.565   0.784 -0.1577  0.0135 -0.3548
 8592SOL    HW137409   4.725   4.532   0.869 -1.4357 -0.2001 -0.9032
 8592SOL    HW237410   0.068   4.642   0.812  1.6204 -0.8195 -1.2395
 8593SOL     OW37411   3.398   1.061   6.570 -0.6606  0.1740  0.4729
 8593SOL    HW137412   3.473   1.096   6.523 -0.3851 -0.6377  0.3077
 8593SOL    HW237413   3.365   1.140   6.613 -0.1578  0.0215  1.1239
 8594SOL     OW37414   1.334   2.695   7.535 -0.1550 -0.3464 -0.1054
 8594SOL    HW137415   1.261   2.687   7.474 -1.1994 -1.4740  1.3134
 8594SOL    HW237416   1.305   2.646   7.611 -0.4282  1.4066  0.9154
 8595SOL     OW37417   2.752   2.849   9.673 -0.3648  0.0641  0.2906
 8595SOL    HW137418   2.761   2.944   9.670  0.7408 -0.0885 -1.1327
 8595SOL    HW237419   2.660   2.832   9.657  0.3219 -0.7874 -2.6717
 8596SOL     OW37420   3.275   0.069   1.968  0.0845  0.1422 -0.3215
 8596SOL    HW137421   3.263   4.733   1.907 -0.8277  1.1512 -1.3418
 8596SOL    HW237422   3.184   0.101   1.971 -0.1594 -0.4929 -1.0832
 8597SOL     OW37423   4.649   2.664   8.425 -0.0184  0.0216  0.0156
 8597SOL    HW137424   4.592   2.742   8.419 -0.4089 -0.3326 -0.8688
 8597SOL    HW237425   4.644   2.638   8.517 -0.9327 -2.2373 -0.6937
 8598SOL     OW37426   3.943   3.662   8.649  0.1306  0.0722  0.2979
 8598SOL    HW137427   4.036   3.670   8.626  0.2340 -1.0733  0.3092
 8598SOL    HW237428   3.939   3.747   8.692  1.4274  0.6186 -0.6548
 8599SOL     OW37429   0.210   0.731   9.326 -0.5174  0.3313 -0.5112
 8599SOL    HW137430   0.208   0.682   9.244 -2.6673  0.7875 -0.7272
 8599SOL    HW237431   0.245   0.665   9.386  0.5835 -0.8371 -2.4206
 8600SOL     OW37432   2.684   1.518  17.407 -0.1766 -0.0685  0.5828
 8600SOL    HW137433   2.778   1.526  17.419  0.1027 -0.1345 -1.6252
 8600SOL    HW237434   2.658   1.607  17.383 -1.3782  0.0401  2.2557
 8601SOL     OW37435   4.434   1.418   1.523 -0.1451 -0.3814 -0.0303
 8601SOL    HW137436   4.400   1.460   1.444  0.1895 -2.9411 -1.5362
 8601SOL    HW237437   4.353   1.423   1.574 -1.0192 -0.9229 -1.3630
 8602SOL     OW37438   2.065   3.919   7.050  0.0842  0.5927  0.1068
 8602SOL    HW137439   1.973   3.922   7.075  0.0092  2.8159 -0.3781
 8602SOL    HW237440   2.091   3.829   7.069 -3.5764 -0.7399 -1.1814
 8603SOL     OW37441   2.624   2.810  11.539  0.4851 -0.3366  0.2093
 8603SOL    HW137442   2.588   2.757  11.468 -1.2089 -0.6092  1.2500
 8603SOL    HW237443   2.694   2.754  11.574  0.4644 -1.6367 -1.8265
 8604SOL     OW37444   2.124   0.944  16.962 -0.1254 -0.4256 -0.4188
 8604SOL    HW137445   2.144   0.889  17.038  0.5250  1.0504  0.4717
 8604SOL    HW237446   2.043   0.988  16.989  0.9355  1.3207 -0.1536
 8605SOL     OW37447   1.256   3.944   7.751 -0.3448  0.7059 -0.1381
 8605SOL    HW137448   1.346   3.963   7.778  0.5206 -1.0221 -1.8464
 8605SOL    HW237449   1.265   3.962   7.658  0.8701  0.7681 -0.0069
 8606SOL     OW37450   3.366   4.492   9.866 -0.4278  0.0494 -0.4531
 8606SOL    HW137451   3.400   4.581   9.870 -1.0694  0.2087  1.2629
 8606SOL    HW237452   3.371   4.483   9.770 -2.5452  2.5580 -0.8177
 8607SOL     OW37453   3.750   1.207   7.959 -0.1204  0.6020 -0.0827
 8607SOL    HW137454   3.721   1.171   8.042  0.0793  1.7560  0.4903
 8607SOL    HW237455   3.670   1.186   7.910  0.1691  1.4989 -0.9435
 8608SOL     OW37456   0.472   4.591   2.618  0.7322  0.2481 -0.0266
 8608SOL    HW137457   0.426   4.675   2.621 -0.1636 -0.1684 -2.4251
 8608SOL    HW237458   0.556   4.632   2.641  1.0671 -0.5375  0.1491
 8609SOL     OW37459   2.300   0.985   1.645  1.0042  0.1679  0.0872
 8609SOL    HW137460   2.290   1.076   1.614  0.7240  0.3920  0.8309
 8609SOL    HW237461   2.208   0.963   1.630  0.4594  1.7578  1.0463
 8610SOL     OW37462   1.867   3.645   7.188 -0.3226  0.4170  0.4821
 8610SOL    HW137463   1.961   3.653   7.202 -0.1785  1.6897 -1.2437
 8610SOL    HW237464   1.850   3.739   7.189 -0.1757  0.4740 -3.8825
 8611SOL     OW37465   0.285   0.366  10.076  0.2894 -0.2686  0.1522
 8611SOL    HW137466   0.305   0.273  10.083 -2.7719 -0.8468  0.8944
 8611SOL    HW237467   0.363   0.402  10.119  0.3082  2.3474 -2.0552
 8612SOL     OW37468   0.724   0.091   3.951 -0.0266 -0.7879 -0.4971
 8612SOL    HW137469   0.671   0.113   3.874  0.1646 -0.7975 -0.6298
 8612SOL    HW237470   0.765   0.175   3.972  0.4261 -1.0433 -0.3665
 8613SOL     OW37471   1.674   2.265   9.220 -0.0449 -0.2690  1.2395
 8613SOL    HW137472   1.749   2.275   9.162  0.9969  1.1561  2.8565
 8613SOL    HW237473   1.631   2.187   9.186  1.0165  0.8881 -2.8307
 8614SOL     OW37474   2.483   0.666   3.252 -0.0476  0.7729  0.1493
 8614SOL    HW137475   2.531   0.676   3.335 -1.1687 -0.4383  0.9625
 8614SOL    HW237476   2.403   0.708   3.284  0.7017  0.5453  2.3648
 8615SOL     OW37477   1.912   3.785   4.743  0.7049  0.3645 -0.7284
 8615SOL    HW137478   1.842   3.729   4.775  0.3456 -0.7732 -3.5228
 8615SOL    HW237479   1.997   3.751   4.771 -1.3547 -2.2040  2.3481
 8616SOL     OW37480   4.063   1.886   0.942  0.2520 -0.1812  0.1851
 8616SOL    HW137481   4.069   1.793   0.919 -0.9341 -0.1665 -0.2035
 8616SOL    HW237482   4.147   1.907   0.902 -0.4899  2.9023  0.2449
 8617SOL     OW37483   3.412   2.058   4.282  0.6718 -0.7756  0.7804
 8617SOL    HW137484   3.381   2.111   4.355  1.5656  0.4840  0.2496
 8617SOL    HW237485   3.477   2.114   4.239 -1.2462 -0.6092 -1.9163
 8618SOL     OW37486   4.147   2.211   9.185  0.2993 -0.1113 -0.2368
 8618SOL    HW137487   4.061   2.171   9.175  0.7333 -1.5493  1.8049
 8618SOL    HW237488   4.130   2.269   9.259 -1.5384 -1.0163  0.0401
 8619SOL     OW37489   0.069   3.320  17.639  0.3944  0.1754  0.4471
 8619SOL    HW137490   0.068   3.335  17.733  0.5866  3.4234 -0.0675
 8619SOL    HW237491   0.081   3.404  17.594 -3.5762  0.9089  0.7726
 8620SOL     OW37492   0.155   3.536   5.226  0.3818  0.5663 -0.3500
 8620SOL    HW137493   0.241   3.574   5.209  0.5229  0.6398  0.5022
 8620SOL    HW237494   0.100   3.608   5.196  1.7411  1.7413 -0.0741
 8621SOL     OW37495   4.396   0.682   6.974  0.7111  0.4660  0.4950
 8621SOL    HW137496   4.471   0.740   6.958  2.2191 -0.7964  3.0389
 8621SOL    HW237497   4.447   0.613   7.016 -1.3914 -1.1963  0.3243
 8622SOL     OW37498   1.194   2.081   3.258  0.3712 -0.5646  0.2378
 8622SOL    HW137499   1.275   2.094   3.307 -0.4639 -1.9233  1.9727
 8622SOL    HW237500   1.222   2.092   3.167 -0.3472 -0.0582  0.0782
 8623SOL     OW37501   0.890   2.956   3.566 -0.4150 -0.4519  0.3073
 8623SOL    HW137502   0.880   2.988   3.656  1.7128 -0.7006  0.6207
 8623SOL    HW237503   0.831   2.881   3.573  2.6574 -2.7815  1.1030
 8624SOL     OW37504   2.984   4.355  10.534  0.3588  0.4253  0.0641
 8624SOL    HW137505   2.959   4.409  10.609 -0.5013  0.0145  0.0775
 8624SOL    HW237506   3.034   4.418  10.482  3.5045 -1.6845  0.5204
 8625SOL     OW37507   3.587   4.433   7.263 -0.3961 -0.3303 -0.0572
 8625SOL    HW137508   3.500   4.406   7.292 -0.0499 -2.5138 -1.0643
 8625SOL    HW237509   3.614   4.471   7.347  0.7187 -0.2714 -0.4393
 8626SOL     OW37510   1.504   2.469   4.009  0.1689  0.4907 -0.3954
 8626SOL    HW137511   1.581   2.473   3.953  0.8786  1.5167  0.6440
 8626SOL    HW237512   1.551   2.493   4.089  0.2132 -3.4066  0.7542
 8627SOL     OW37513   3.428   0.865   8.506  0.5538  0.0667  0.6904
 8627SOL    HW137514   3.376   0.816   8.570 -1.4208  0.8182 -0.3379
 8627SOL    HW237515   3.367   0.875   8.433  1.7133  1.2477 -0.0969
 8628SOL     OW37516   4.323   4.549   1.545 -0.4064 -0.2637  0.2730
 8628SOL    HW137517   4.343   4.610   1.474 -1.5797 -1.3588 -1.0114
 8628SOL    HW237518   4.352   4.467   1.505  0.8710  1.0761 -1.4901
 8629SOL     OW37519   3.617   1.143   7.499  0.3450 -0.2980  0.2769
 8629SOL    HW137520   3.617   1.174   7.590  1.9657 -0.8486  0.4705
 8629SOL    HW237521   3.650   1.220   7.453 -0.8677 -0.7064 -1.2596
 8630SOL     OW37522   3.671   4.657   3.802 -0.0385 -0.4465 -0.5247
 8630SOL    HW137523   3.601   4.721   3.793  0.8361  0.4360 -1.0468
 8630SOL    HW237524   3.658   4.628   3.892  0.6985  1.9686  0.3515
 8631SOL     OW37525   4.201   3.953  10.752  0.4419  0.9068 -0.1736
 8631SOL    HW137526   4.287   3.935  10.790  0.0351 -1.0760 -0.2304
 8631SOL    HW237527   4.187   4.048  10.753 -0.5659  0.7316  2.9007
 8632SOL     OW37528   3.593   4.439  13.986  0.1221  0.5202 -0.2401
 8632SOL    HW137529   3.512   4.489  13.991 -0.5480 -0.4550 -1.2986
 8632SOL    HW237530   3.636   4.471  13.907 -1.1674 -0.0351 -1.1550
 8633SOL     OW37531   1.645   1.025   6.242  0.5693  0.4124 -0.3343
 8633SOL    HW137532   1.709   0.958   6.266  1.4204  1.1311 -0.6131
 8633SOL    HW237533   1.628   1.017   6.148  1.3825  1.7607 -0.5876
 8634SOL     OW37534   2.220   1.473  13.097 -0.0783 -0.2746  0.6284
 8634SOL    HW137535   2.166   1.399  13.072  1.3989 -0.6959 -1.3114
 8634SOL    HW237536   2.265   1.495  13.015  2.0198  0.5057  1.9906
 8635SOL     OW37537   3.446   1.153  12.636 -0.4076 -0.6135  0.2297
 8635SOL    HW137538   3.434   1.061  12.662 -2.7136  0.0684  1.5138
 8635SOL    HW237539   3.534   1.150  12.597  0.4456  1.6169  2.0352
 8636SOL     OW37540   4.341   3.711   1.594  0.1125  0.1767 -0.1678
 8636SOL    HW137541   4.409   3.777   1.604  0.4127 -0.1172 -0.2819
 8636SOL    HW237542   4.262   3.765   1.595 -0.3453 -0.4580 -2.3401
 8637SOL     OW37543   1.457   4.228  10.303 -0.4852  0.1406 -0.2136
 8637SOL    HW137544   1.389   4.166  10.278  0.7672 -1.9251  1.5303
 8637SOL    HW237545   1.461   4.276  10.220 -3.8449  0.5048 -0.1531
 8638SOL     OW37546   0.057   2.991   8.321  0.4371 -0.0081  0.0826
 8638SOL    HW137547   0.014   3.076   8.320 -1.2056 -0.8066  3.4981
 8638SOL    HW237548   0.076   2.970   8.229 -1.4409  1.5526 -0.6492
 8639SOL     OW37549   0.280   3.926   6.243  0.3603 -0.3833  0.0313
 8639SOL    HW137550   0.228   3.936   6.163  0.2627 -0.6956  0.0545
 8639SOL    HW237551   0.371   3.939   6.218  0.3850 -0.6071  0.0058
 8640SOL     OW37552   1.916   0.017  14.924 -0.4784 -0.2430  0.1361
 8640SOL    HW137553   1.921   4.658  14.935 -2.3221 -0.2971  0.5034
 8640SOL    HW237554   1.847   0.025  14.858 -1.6637 -1.3862  1.2265
 8641SOL     OW37555   4.132   1.123   8.249 -0.0426 -0.5472 -0.0260
 8641SOL    HW137556   4.102   1.196   8.304  2.0034  0.0612  0.2779
 8641SOL    HW237557   4.081   1.129   8.169 -0.5553  1.7875  0.4728
 8642SOL     OW37558   0.336   2.184   9.095 -0.0795 -0.7008 -0.5413
 8642SOL    HW137559   0.277   2.258   9.084 -0.3398 -0.9467 -0.8152
 8642SOL    HW237560   0.279   2.110   9.074 -0.6886 -0.2823 -0.3662
 8643SOL     OW37561   2.403   1.163   6.825 -0.2027  0.0630  0.2239
 8643SOL    HW137562   2.391   1.071   6.804 -0.0184  0.2622 -0.7570
 8643SOL    HW237563   2.391   1.206   6.740  3.4346 -1.6652 -1.1562
 8644SOL     OW37564   2.421   0.552   1.053  0.1290  0.2222  0.5509
 8644SOL    HW137565   2.389   0.493   0.985 -0.0563  0.7343  0.1972
 8644SOL    HW237566   2.514   0.532   1.065  0.3642  0.7043 -0.5228
 8645SOL     OW37567   3.600   0.685   7.424 -0.0335 -0.0000 -0.5091
 8645SOL    HW137568   3.516   0.711   7.387 -0.1711 -0.4225 -0.4947
 8645SOL    HW237569   3.603   0.752   7.493  0.5629 -0.8158  0.2583
 8646SOL     OW37570   0.533   4.593   6.692  0.2919 -1.0003  0.2449
 8646SOL    HW137571   0.544   4.682   6.724 -0.1266 -0.9866  0.3479
 8646SOL    HW237572   0.624   4.561   6.690 -0.6623 -3.6337 -1.1640
 8647SOL     OW37573   2.034   3.581   0.309  0.4360 -0.0989 -0.4480
 8647SOL    HW137574   2.065   3.602   0.398  0.4977 -0.4357 -0.3903
 8647SOL    HW237575   2.099   3.514   0.288 -0.5414 -1.6162  1.3688
 8648SOL     OW37576   0.526   0.725   9.027 -0.3320 -0.1867 -0.0171
 8648SOL    HW137577   0.585   0.798   9.006 -0.5202 -0.1762 -0.5135
 8648SOL    HW237578   0.532   0.720   9.122  0.4944 -1.0464 -0.1133
 8649SOL     OW37579   4.640   4.184   7.282  0.3092  0.3737  0.5091
 8649SOL    HW137580   4.562   4.189   7.226  1.2014 -0.5908 -0.8416
 8649SOL    HW237581   4.620   4.251   7.347 -0.2538 -0.7382  1.4747
 8650SOL     OW37582   0.503   4.258   6.276 -0.2198  0.2248 -0.8468
 8650SOL    HW137583   0.471   4.311   6.349  0.0972 -0.8572  0.0742
 8650SOL    HW237584   0.428   4.272   6.218 -0.6582  0.0371 -0.3312
 8651SOL     OW37585   1.388   0.159   5.754  0.5407  0.2228 -0.1381
 8651SOL    HW137586   1.418   0.245   5.782  2.8238 -1.1337  1.6361
 8651SOL    HW237587   1.356   0.177   5.666  0.5876 -0.4428 -0.2912
 8652SOL     OW37588   2.969   4.223   5.680 -0.9287  0.2701 -0.2632
 8652SOL    HW137589   2.971   4.302   5.734  1.4633 -1.0229  1.5560
 8652SOL    HW237590   2.977   4.266   5.595  0.6984  0.0474 -0.2258
 8653SOL     OW37591   4.348   0.091   3.100  0.3895  0.4383  0.2897
 8653SOL    HW137592   4.404   0.094   3.178  0.3661 -0.6700  0.3527
 8653SOL    HW237593   4.335   4.735   3.083  1.5563 -0.1024  2.4500
 8654SOL     OW37594   4.220   1.265   9.717 -0.1807 -0.4123 -0.2657
 8654SOL    HW137595   4.168   1.344   9.731  2.0906  1.1587 -0.6609
 8654SOL    HW237596   4.307   1.299   9.698 -0.1667 -0.3557 -0.0945
 8655SOL     OW37597   4.028   3.634   9.426 -0.5730 -0.0024  0.2242
 8655SOL    HW137598   4.100   3.658   9.483 -0.8527  1.7917 -0.1974
 8655SOL    HW237599   4.071   3.617   9.342  0.9573 -1.2520  1.2763
 8656SOL     OW37600   0.837   3.777   2.554  0.4040 -0.0763  0.1579
 8656SOL    HW137601   0.779   3.826   2.612 -0.7321  1.0814 -1.9307
 8656SOL    HW237602   0.907   3.838   2.533  0.0638  0.5317  0.8179
 8657SOL     OW37603   3.114   3.719   6.349 -0.6650  0.9509  0.4121
 8657SOL    HW137604   3.196   3.727   6.300 -0.0908  0.1805  1.2578
 8657SOL    HW237605   3.114   3.813   6.368 -2.1753  0.7805  1.2080
 8658SOL     OW37606   2.248   0.055   4.888  0.0049 -0.3319 -0.1729
 8658SOL    HW137607   2.203   0.007   4.957  0.3098  0.1730  0.3756
 8658SOL    HW237608   2.266   0.135   4.937 -2.4604 -1.2430  2.1726
 8659SOL     OW37609   0.350   3.260   9.097 -0.2682  0.4033 -0.5005
 8659SOL    HW137610   0.308   3.174   9.093  0.4001  0.0934 -1.0106
 8659SOL    HW237611   0.415   3.242   9.166 -2.4819  0.8761  1.6772
 8660SOL     OW37612   1.009   1.661  11.640 -0.2106  0.3022 -0.1877
 8660SOL    HW137613   1.039   1.701  11.559 -0.9531  0.1198 -0.5610
 8660SOL    HW237614   1.061   1.582  11.628 -0.0758  0.5608 -1.3226
 8661SOL     OW37615   3.176   0.754   2.948  0.1247 -0.4793 -0.0680
 8661SOL    HW137616   3.123   0.686   2.906 -0.5975  1.5254 -2.4255
 8661SOL    HW237617   3.237   0.778   2.878  0.1504  1.2912  0.5588
 8662SOL     OW37618   4.478   2.402   5.407 -0.5986  0.5402 -0.5718
 8662SOL    HW137619   4.483   2.321   5.457  0.6981  1.1872  0.3744
 8662SOL    HW237620   4.556   2.393   5.353 -0.6663  1.2119 -0.7855
 8663SOL     OW37621   2.552   1.321   0.916  0.1809  0.0395  0.6768
 8663SOL    HW137622   2.559   1.394   0.854  3.5533 -0.6559  0.2300
 8663SOL    HW237623   2.504   1.359   0.990  0.0607 -1.7329  1.5133
 8664SOL     OW37624   2.987   0.395   4.784 -0.3714  0.0869 -0.2334
 8664SOL    HW137625   2.908   0.441   4.757 -1.6833 -0.5344  2.5712
 8664SOL    HW237626   2.999   0.322   4.723  3.1998 -0.7082  1.3985
 8665SOL     OW37627   0.202   3.500   1.673 -0.4357  0.1788 -0.2102
 8665SOL    HW137628   0.221   3.464   1.759  0.5948  2.5126  0.5451
 8665SOL    HW237629   0.165   3.587   1.692 -1.0304  0.0727 -0.8752
 8666SOL     OW37630   2.446   2.319  14.568  0.5654 -0.6206 -0.2708
 8666SOL    HW137631   2.394   2.298  14.491 -2.0585  2.1654  0.7304
 8666SOL    HW237632   2.487   2.234  14.580  1.2820  0.0197  1.8680
 8667SOL     OW37633   3.067   2.967   8.834 -0.1407  0.1292 -0.1157
 8667SOL    HW137634   3.059   3.010   8.919 -2.1276 -0.4827  0.0119
 8667SOL    HW237635   3.034   2.882   8.862 -1.5974  0.5815 -0.4241
 8668SOL     OW37636   1.510   1.050  17.671  0.2143 -0.0616  0.4066
 8668SOL    HW137637   1.557   1.117  17.721  1.4768 -0.4880 -0.1914
 8668SOL    HW237638   1.569   1.025  17.599 -1.0050  1.7781 -1.2416
 8669SOL     OW37639   2.002   4.454   3.701 -0.4373  0.1214  0.1896
 8669SOL    HW137640   1.980   4.482   3.612 -0.8126  0.4396  0.3830
 8669SOL    HW237641   2.068   4.517   3.730 -0.6824  1.6971 -2.7702
 8670SOL     OW37642   0.341   1.157   7.262  0.0451 -0.4670  0.2170
 8670SOL    HW137643   0.391   1.217   7.317 -0.3641 -0.7850  0.9327
 8670SOL    HW237644   0.258   1.204   7.253  0.3386 -0.4515 -2.2790
 8671SOL     OW37645   3.221   2.202   3.922  0.3269  0.5103  0.4217
 8671SOL    HW137646   3.298   2.146   3.926 -1.6042 -2.1733  0.5964
 8671SOL    HW237647   3.231   2.233   3.832 -3.2314  1.7846  0.4520
 8672SOL     OW37648   0.824   4.456   5.551  0.0160 -0.1219 -0.5907
 8672SOL    HW137649   0.833   4.479   5.459  0.3091 -2.3889 -1.1192
 8672SOL    HW237650   0.835   4.542   5.592  0.1697  0.2763 -1.4667
 8673SOL     OW37651   0.603   4.378   3.972  0.1354 -0.7138  0.0784
 8673SOL    HW137652   0.664   4.315   4.010  1.7982  1.0397  0.3057
 8673SOL    HW237653   0.628   4.452   4.026  0.2635 -1.2285  0.7259
 8674SOL     OW37654   1.249   1.431   6.023 -0.0327  0.1293 -0.0167
 8674SOL    HW137655   1.305   1.353   6.015  0.4945  0.9332 -4.2300
 8674SOL    HW237656   1.186   1.393   6.084  2.4324 -0.3476  2.2170
 8675SOL     OW37657   1.881   1.988   5.270 -0.0650 -0.3565 -0.1171
 8675SOL    HW137658   1.841   2.011   5.354  1.1996 -0.6569  0.5568
 8675SOL    HW237659   1.809   1.945   5.223 -0.5889 -1.1020  1.3766
 8676SOL     OW37660   0.442   0.555   6.898 -0.3501  0.7290 -0.4312
 8676SOL    HW137661   0.352   0.578   6.877 -0.9405 -0.2499  1.0518
 8676SOL    HW237662   0.466   0.629   6.955  1.1215  0.1096 -0.2492
 8677SOL     OW37663   2.577   1.991   3.726  0.1345  0.4998  0.8375
 8677SOL    HW137664   2.597   1.907   3.768 -2.0006 -0.4065  0.0307
 8677SOL    HW237665   2.482   1.981   3.726  0.0565  1.3104  1.1181
 8678SOL     OW37666   0.529   3.453   7.024  0.5415 -0.1836 -0.0812
 8678SOL    HW137667   0.532   3.373   6.971 -1.2199 -2.2315  2.9296
 8678SOL    HW237668   0.434   3.459   7.034  0.4980 -0.9788 -0.0137
 8679SOL     OW37669   0.877   2.605   2.881  0.4467  0.8468 -0.0929
 8679SOL    HW137670   0.932   2.631   2.955  1.6807 -0.2475 -0.6266
 8679SOL    HW237671   0.851   2.681   2.829  0.8677 -0.0451 -1.6053
 8680SOL     OW37672   3.623   4.041   9.031 -0.3372  0.1087 -0.4047
 8680SOL    HW137673   3.554   3.981   9.059 -1.6350  1.8700  0.1510
 8680SOL    HW237674   3.583   4.128   9.023 -2.7526 -0.8947  0.8572
 8681SOL     OW37675   0.137   0.616  13.306 -0.1864  0.1177 -0.2590
 8681SOL    HW137676   0.137   0.527  13.342  0.0554 -0.0900 -0.7601
 8681SOL    HW237677   0.230   0.629  13.289  0.0357 -1.4367 -0.2593
 8682SOL     OW37678   4.404   3.281   3.399 -0.2482 -0.3010 -0.6772
 8682SOL    HW137679   4.373   3.199   3.360 -2.3160  1.1080 -1.9973
 8682SOL    HW237680   4.403   3.334   3.320 -2.2819  1.1931  0.3519
 8683SOL     OW37681   0.472   1.565   7.911  0.3372 -0.7537 -0.0510
 8683SOL    HW137682   0.463   1.604   7.824 -3.3705  0.3917  0.8275
 8683SOL    HW237683   0.442   1.474   7.899  0.0030 -0.8635  1.6275
 8684SOL     OW37684   2.888   3.857   7.984 -0.6669  0.0367 -0.5977
 8684SOL    HW137685   2.826   3.905   8.038 -0.5168 -0.5268  0.0759
 8684SOL    HW237686   2.916   3.785   8.041 -1.0102  0.4532  0.0909
 8685SOL     OW37687   0.347   4.625   8.634  0.3278  0.1879 -0.2695
 8685SOL    HW137688   0.392   4.597   8.714  0.4084 -1.5069 -0.9016
 8685SOL    HW237689   0.409   4.691   8.604  0.1377 -0.4533 -2.0952
 8686SOL     OW37690   3.019   2.871  13.259 -0.4107 -0.1790 -0.7876
 8686SOL    HW137691   2.968   2.819  13.197 -0.6932 -2.0064  0.9895
 8686SOL    HW237692   3.088   2.810  13.287 -0.5413 -0.1403 -0.3874
 8687SOL     OW37693   0.571   2.436   3.158  0.4743 -0.3384 -0.0574
 8687SOL    HW137694   0.577   2.496   3.083 -1.3943 -2.1523 -1.6732
 8687SOL    HW237695   0.657   2.447   3.198 -0.0428 -0.7523  1.1780
 8688SOL     OW37696   4.033   4.581   8.233  0.7312  0.5375 -0.7071
 8688SOL    HW137697   4.119   4.583   8.274  1.0615  2.4969 -1.4748
 8688SOL    HW237698   4.052   4.630   8.153  0.9538  1.7081  0.0594
 8689SOL     OW37699   3.073   4.613   2.892 -0.2474  0.1874 -0.2400
 8689SOL    HW137700   3.054   4.525   2.923 -0.7597  0.1936 -0.5432
 8689SOL    HW237701   3.162   4.625   2.926  0.5019 -2.1664 -1.3422
 8690SOL     OW37702   0.436   3.014   1.425 -0.0695  0.0661  0.0250
 8690SOL    HW137703   0.481   3.013   1.509  2.3967  0.5179 -1.2945
 8690SOL    HW237704   0.495   2.956   1.378  0.0044 -0.0869  0.3125
 8691SOL     OW37705   0.733   0.362   4.075 -0.0952  0.4582  0.0434
 8691SOL    HW137706   0.650   0.393   4.039 -0.3850  0.0472  0.3612
 8691SOL    HW237707   0.718   0.384   4.166 -0.1432  1.7592 -0.2836
 8692SOL     OW37708   3.672   0.338   3.533  0.2287  0.3969 -0.0659
 8692SOL    HW137709   3.725   0.270   3.576  0.6978  1.3509  0.8567
 8692SOL    HW237710   3.738   0.406   3.518  0.4185  0.2018 -0.1217
 8693SOL     OW37711   3.525   3.487   5.926 -0.4646 -0.4750  0.1098
 8693SOL    HW137712   3.536   3.432   5.848  0.5095  0.2609 -0.2816
 8693SOL    HW237713   3.562   3.434   5.996 -0.2139  0.2905  0.5568
 8694SOL     OW37714   0.835   3.952  10.985  0.2030  0.2499  0.3800
 8694SOL    HW137715   0.746   3.924  10.964  0.3700  1.2232 -1.6299
 8694SOL    HW237716   0.828   4.034  10.937 -0.4809  1.4492  2.5315
 8695SOL     OW37717   3.530   3.480   9.958 -0.4893 -0.1462  0.3576
 8695SOL    HW137718   3.532   3.385   9.969 -2.8051 -0.1578  0.5783
 8695SOL    HW237719   3.617   3.506   9.925 -1.5032  1.3477 -1.1280
 8696SOL     OW37720   4.366   2.381  14.674 -0.1973  0.0924 -0.0138
 8696SOL    HW137721   4.414   2.452  14.633 -0.7745  0.3272 -0.2891
 8696SOL    HW237722   4.427   2.312  14.701  0.6531  1.5048  1.6644
 8697SOL     OW37723   2.679   2.729  12.270  0.5832  0.5113  0.0414
 8697SOL    HW137724   2.637   2.683  12.198 -2.2320 -1.0757  2.6879
 8697SOL    HW237725   2.731   2.655  12.303 -0.6532  0.3586  1.6522
 8698SOL     OW37726   2.738   2.937   6.858 -0.5782 -0.0626 -0.3471
 8698SOL    HW137727   2.798   2.870   6.889 -0.5222 -0.3760 -1.1206
 8698SOL    HW237728   2.672   2.883   6.813  0.2731 -2.0284  0.7628
 8699SOL     OW37729   4.431   4.004   7.434  0.5711 -0.1152 -0.4699
 8699SOL    HW137730   4.421   4.056   7.514 -0.3378  1.0029 -1.3058
 8699SOL    HW237731   4.382   4.061   7.375 -2.0176 -3.8411 -1.9058
 8700SOL     OW37732   0.147   2.305   6.786  0.1979  0.2878  0.4060
 8700SOL    HW137733   0.088   2.299   6.861  1.1382 -0.2971  1.1151
 8700SOL    HW237734   0.098   2.332   6.709  1.8057  0.4162 -0.5898
 8701SOL     OW37735   2.473   2.170   3.221 -0.3531 -0.3322 -0.3920
 8701SOL    HW137736   2.446   2.099   3.280 -1.4493  1.3170  1.0852
 8701SOL    HW237737   2.566   2.150   3.234 -0.3284  0.5729  0.8466
 8702SOL     OW37738   2.640   0.137   1.980  0.6395 -0.5126 -0.0901
 8702SOL    HW137739   2.626   0.045   2.002  0.1642 -0.4441 -0.0868
 8702SOL    HW237740   2.549   0.167   1.971  0.3638 -0.8372  1.4473
 8703SOL     OW37741   3.154   3.855  13.393  0.0902 -0.0099 -0.6669
 8703SOL    HW137742   3.095   3.808  13.453  1.4653  0.6282  1.2024
 8703SOL    HW237743   3.188   3.921  13.454 -0.2796 -0.4832  0.0613
 8704SOL     OW37744   2.601   0.833   9.447 -0.3777  0.3035 -0.3415
 8704SOL    HW137745   2.646   0.838   9.532  1.5924  0.6554 -1.4020
 8704SOL    HW237746   2.674   0.833   9.386  1.4997  1.1479  1.9069
 8705SOL     OW37747   2.021   2.442   3.541  0.1764 -0.6152  0.2379
 8705SOL    HW137748   2.005   2.442   3.446 -2.6734  1.0799  0.7183
 8705SOL    HW237749   1.932   2.430   3.572  0.1930  0.0768  0.5499
 8706SOL     OW37750   1.647   2.208  17.366 -0.2163 -0.5255 -0.0811
 8706SOL    HW137751   1.689   2.131  17.403  1.2206 -0.0788 -0.7673
 8706SOL    HW237752   1.666   2.209  17.272  1.7398 -1.8694  0.3078
 8707SOL     OW37753   4.396   2.068  14.089  0.5830  0.0823 -0.2249
 8707SOL    HW137754   4.443   2.104  14.164  2.6745 -0.9468 -1.0728
 8707SOL    HW237755   4.464   2.048  14.025 -0.7549 -0.9594 -1.3461
 8708SOL     OW37756   3.834   4.550  17.618 -0.3772  0.0992  0.3885
 8708SOL    HW137757   3.818   4.555  17.713 -0.3449  2.7617  0.2660
 8708SOL    HW237758   3.868   4.461  17.622  1.5365  0.7749 -0.9127
 8709SOL     OW37759   2.893   0.991   0.451  0.4591  0.4789  0.0430
 8709SOL    HW137760   2.902   0.932   0.376 -3.2096  0.2208 -0.1928
 8709SOL    HW237761   2.830   1.060   0.432  0.4644 -0.6306 -3.8641
 8710SOL     OW37762   0.784   1.781   7.013  0.1395 -0.1526 -0.0641
 8710SOL    HW137763   0.864   1.798   6.962 -1.1878 -2.0902 -2.7877
 8710SOL    HW237764   0.716   1.770   6.947 -0.5790 -0.1041  0.6628
 8711SOL     OW37765   0.768   0.274  12.563  0.1558  0.3487  0.2017
 8711SOL    HW137766   0.674   0.272  12.546  0.0347  0.8371  0.8633
 8711SOL    HW237767   0.777   0.205  12.628 -0.9279 -0.6288 -0.6782
 8712SOL     OW37768   1.291   3.851   3.784  0.1211 -0.8251 -0.7821
 8712SOL    HW137769   1.256   3.936   3.757  1.2601 -0.4111 -0.9932
 8712SOL    HW237770   1.384   3.858   3.760  0.3943 -0.0637  0.4606
 8713SOL     OW37771   4.271   1.466   6.883  0.2075 -0.1386 -0.3441
 8713SOL    HW137772   4.205   1.479   6.815  0.2861  0.1121 -0.3715
 8713SOL    HW237773   4.240   1.390   6.932  0.1982  1.6516  2.4307
 8714SOL     OW37774   1.541   0.712   8.017 -0.0126 -0.0593 -0.3387
 8714SOL    HW137775   1.457   0.714   7.971 -0.9245  2.8925  1.4599
 8714SOL    HW237776   1.530   0.625   8.057 -3.1521  0.2254 -0.5853
 8715SOL     OW37777   4.149   1.977   5.732 -0.2657  0.5151  0.0510
 8715SOL    HW137778   4.078   1.957   5.793  0.3801 -4.7576 -0.8899
 8715SOL    HW237779   4.186   1.890   5.717  0.0314  0.5535  0.5608
 8716SOL     OW37780   2.270   3.131  10.138  0.5243  0.2425  0.5061
 8716SOL    HW137781   2.327   3.080  10.196  0.1392  0.0477  0.7162
 8716SOL    HW237782   2.287   3.219  10.172  1.0291  1.1905 -2.2236
 8717SOL     OW37783   4.624   2.639   5.906 -0.8025  0.4264 -0.0867
 8717SOL    HW137784   4.618   2.732   5.928 -0.5966  0.7906 -1.5519
 8717SOL    HW237785   4.715   2.619   5.925 -0.5118  0.1491 -1.7464
 8718SOL     OW37786   3.663   1.075   9.282 -0.0677  0.4277  0.5157
 8718SOL    HW137787   3.677   0.984   9.255  0.6114  0.3146  1.2295
 8718SOL    HW237788   3.607   1.056   9.358  0.6207 -2.5413  0.3018
 8719SOL     OW37789   0.958   3.768   6.499  0.1458  0.0814 -0.8099
 8719SOL    HW137790   0.907   3.734   6.426 -1.4966  1.4650 -0.3064
 8719SOL    HW237791   0.888   3.776   6.564 -0.7849 -1.0593 -1.6969
 8720SOL     OW37792   2.968   3.424   9.923  0.3557  0.4526  0.1914
 8720SOL    HW137793   3.009   3.349   9.881 -0.4605  1.1133 -1.8103
 8720SOL    HW237794   3.031   3.456   9.987 -0.3719  1.5671  0.3520
 8721SOL     OW37795   3.273   0.489   3.201 -0.0391  0.0959  0.0262
 8721SOL    HW137796   3.189   0.515   3.163 -2.1099 -3.0960  2.3927
 8721SOL    HW237797   3.241   0.498   3.291 -0.0516 -2.1042  0.2498
 8722SOL     OW37798   4.291   1.539  17.288  0.4270  0.7217 -0.3767
 8722SOL    HW137799   4.214   1.555  17.234 -0.1393 -0.1947  0.1617
 8722SOL    HW237800   4.319   1.628  17.310  1.0733  0.1473  1.1277
 8723SOL     OW37801   3.769   3.428   5.561 -0.6158 -0.1632  0.5671
 8723SOL    HW137802   3.679   3.399   5.575 -0.1914 -1.0108  1.5686
 8723SOL    HW237803   3.755   3.507   5.510  0.0701 -0.2109  0.3133
 8724SOL     OW37804   0.162   2.328   9.000  0.7310 -0.0861  1.1531
 8724SOL    HW137805   0.115   2.247   9.017 -1.0071  0.6483 -0.2009
 8724SOL    HW237806   0.176   2.312   8.906  0.7428 -2.5981  1.6022
 8725SOL     OW37807   2.450   2.401  15.949 -0.1814  0.3357 -0.1696
 8725SOL    HW137808   2.363   2.432  15.923 -0.0189  1.5548  0.7273
 8725SOL    HW237809   2.457   2.446  16.033  1.8071 -0.8181  0.2703
 8726SOL     OW37810   2.529   2.712  16.733  0.1444  0.4183  0.2061
 8726SOL    HW137811   2.544   2.653  16.659 -0.3209 -1.2356  1.4135
 8726SOL    HW237812   2.461   2.659  16.776  0.9509 -0.8705 -0.1004
 8727SOL     OW37813   3.159   0.782   0.857  0.5783  0.3342  0.8573
 8727SOL    HW137814   3.142   0.850   0.792  0.3960  1.7553  2.4099
 8727SOL    HW237815   3.098   0.799   0.928 -1.7601  0.9080 -1.2843
 8728SOL     OW37816   0.537   4.519  15.504 -0.0272  0.2466 -0.8270
 8728SOL    HW137817   0.560   4.428  15.485 -0.7800  0.0734 -0.8871
 8728SOL    HW237818   0.443   4.509  15.493  0.2164 -1.6432 -1.1218
 8729SOL     OW37819   2.197   4.048   4.246 -0.4048 -0.1794  0.1198
 8729SOL    HW137820   2.155   3.970   4.283 -0.4614 -0.4610 -0.5442
 8729SOL    HW237821   2.268   4.015   4.191 -0.5180 -2.2229  1.2284
 8730SOL     OW37822   4.274   0.728  13.347  0.2358 -0.0674 -0.4098
 8730SOL    HW137823   4.249   0.715  13.255 -0.5950 -2.8680  0.2046
 8730SOL    HW237824   4.196   0.696  13.392 -0.0902 -2.3616 -2.6119
 8731SOL     OW37825   3.756   1.147   3.863 -0.2369  0.2228 -0.0178
 8731SOL    HW137826   3.676   1.095   3.865 -0.3773  0.5052  1.7424
 8731SOL    HW237827   3.823   1.080   3.853 -1.1118 -0.7918  1.0726
 8732SOL     OW37828   2.800   1.909   2.276  0.3458  0.4679 -0.0246
 8732SOL    HW137829   2.828   1.876   2.361  2.7269 -0.9537 -1.3390
 8732SOL    HW237830   2.822   1.834   2.220 -1.3989 -0.9983  1.2457
 8733SOL     OW37831   1.181   1.588   7.797 -0.3186 -0.3877  0.0684
 8733SOL    HW137832   1.186   1.583   7.892  0.2082  0.7745  0.0897
 8733SOL    HW237833   1.222   1.504   7.777 -1.5330 -0.7643 -0.8973
 8734SOL     OW37834   3.329   0.098  16.949  0.2585  0.0602 -0.4427
 8734SOL    HW137835   3.296   0.054  17.027  0.6979 -0.9327 -0.8182
 8734SOL    HW237836   3.376   0.166  16.997  0.5784  0.0775 -0.7781
 8735SOL     OW37837   2.625   2.560   6.298  0.0518  0.0663 -0.6343
 8735SOL    HW137838   2.614   2.618   6.223 -0.4559 -0.1244 -0.7085
 8735SOL    HW237839   2.613   2.621   6.371 -2.5979 -0.9656 -0.1991
 8736SOL     OW37840   3.285   1.424  15.345  0.0213  0.5204  0.1554
 8736SOL    HW137841   3.301   1.516  15.368  2.1156  0.9220 -2.8100
 8736SOL    HW237842   3.231   1.407  15.421  2.2322  1.9913  2.0595
 8737SOL     OW37843   4.579   1.952  13.334 -1.0111  0.5024 -0.2614
 8737SOL    HW137844   4.661   1.938  13.381 -0.1129  2.4027 -1.2763
 8737SOL    HW237845   4.553   1.860  13.326  0.0422  0.2330 -0.6518
 8738SOL     OW37846   0.266   1.593   3.153  0.1597  0.7931 -0.7333
 8738SOL    HW137847   0.289   1.578   3.061  2.3408 -2.9415  0.4355
 8738SOL    HW237848   0.349   1.571   3.194 -1.7669  0.3838  2.9373
 8739SOL     OW37849   1.605   3.179   5.426  0.1882  0.7970 -0.0967
 8739SOL    HW137850   1.678   3.126   5.458  1.1360  2.2891  0.2405
 8739SOL    HW237851   1.580   3.225   5.507 -0.6487  0.5176 -0.2019
 8740SOL     OW37852   3.253   1.876  13.369 -0.1272 -0.3085  0.4983
 8740SOL    HW137853   3.164   1.911  13.374  0.0159  0.0155  0.8166
 8740SOL    HW237854   3.242   1.781  13.375  1.7422 -0.4900  0.9929
 8741SOL     OW37855   2.092   0.320  11.041  0.5723 -0.2110  0.3456
 8741SOL    HW137856   2.103   0.227  11.057 -1.2553  0.2547  4.5256
 8741SOL    HW237857   2.077   0.360  11.127  0.0517  0.1817  0.0801
 8742SOL     OW37858   0.491   0.496   3.506  0.1174 -1.2549 -0.0272
 8742SOL    HW137859   0.417   0.479   3.449  0.7264  0.3751 -1.3047
 8742SOL    HW237860   0.563   0.518   3.446 -1.7509  1.6870 -1.2084
 8743SOL     OW37861   0.511   2.091   3.084 -0.2384 -0.4212 -0.3104
 8743SOL    HW137862   0.507   2.110   3.178  2.7147 -0.7234 -0.1473
 8743SOL    HW237863   0.464   2.008   3.073  2.8635 -2.5677  2.6838
 8744SOL     OW37864   2.453   2.195  17.568 -0.5316 -0.5675 -0.4733
 8744SOL    HW137865   2.543   2.210  17.597 -0.7219 -0.1259 -0.1031
 8744SOL    HW237866   2.462   2.115  17.516  2.7487 -0.2265 -0.4243
 8745SOL     OW37867   1.303   0.957   3.770 -0.1639 -0.0429  0.5254
 8745SOL    HW137868   1.288   0.946   3.863 -2.4727 -0.9034  0.0457
 8745SOL    HW237869   1.291   0.867   3.739 -1.8267 -0.5786  2.8093
 8746SOL     OW37870   3.436   2.022   6.640  0.5472 -0.1178 -0.3799
 8746SOL    HW137871   3.357   1.969   6.650 -0.8044  1.8510 -0.6701
 8746SOL    HW237872   3.497   1.969   6.693  0.4813  0.3022  0.1197
 8747SOL     OW37873   0.759   3.871   6.700 -0.3460  0.4162  0.0719
 8747SOL    HW137874   0.668   3.870   6.672  0.5999  1.5997 -3.0137
 8747SOL    HW237875   0.768   3.780   6.730  1.7987 -0.0106 -1.7957
 8748SOL     OW37876   0.831   0.293  16.557 -0.4014 -0.0962  0.3446
 8748SOL    HW137877   0.777   0.276  16.479  0.7329  0.0945 -0.4869
 8748SOL    HW237878   0.920   0.280  16.524 -1.1873 -1.7125 -1.1491
 8749SOL     OW37879   3.579   0.006   2.255 -0.4973  0.1233  0.6281
 8749SOL    HW137880   3.493   4.713   2.225 -1.1878 -0.6753  3.4741
 8749SOL    HW237881   3.566   0.098   2.277 -0.4442  0.6332 -1.4348
 8750SOL     OW37882   2.750   0.574   1.938  0.0390 -0.4565  0.7363
 8750SOL    HW137883   2.748   0.670   1.944 -3.2727 -0.6309  2.5983
 8750SOL    HW237884   2.785   0.562   1.850 -0.0118  0.4127  0.5923
 8751SOL     OW37885   2.898   1.736   8.500  0.0230  0.0299 -0.5755
 8751SOL    HW137886   2.855   1.726   8.586  0.6431  0.2322 -0.2450
 8751SOL    HW237887   2.850   1.812   8.466  2.1103  1.4569 -0.3314
 8752SOL     OW37888   4.149   2.424   8.942  0.0255  0.7616 -0.2099
 8752SOL    HW137889   4.164   2.359   9.010  0.5785 -0.1627 -1.2148
 8752SOL    HW237890   4.064   2.394   8.911  1.6793 -0.1436 -3.8043
 8753SOL     OW37891   0.947   3.885   5.892  0.0769  0.1036 -0.3323
 8753SOL    HW137892   0.944   3.802   5.940 -2.2431  0.2775 -0.1451
 8753SOL    HW237893   0.934   3.943   5.968  1.6242 -3.6247  2.8059
 8754SOL     OW37894   3.012   3.066  14.396  0.1335 -0.6578  0.7230
 8754SOL    HW137895   2.993   3.069  14.302 -1.0108  3.2760  1.0927
 8754SOL    HW237896   3.060   2.983  14.399 -0.0676 -0.8547 -1.6687
 8755SOL     OW37897   0.630   1.231   7.864 -0.1831  0.3831 -0.5721
 8755SOL    HW137898   0.697   1.296   7.843 -0.1091  0.4612 -0.0938
 8755SOL    HW237899   0.547   1.277   7.852 -1.1612 -1.4467 -0.8730
 8756SOL     OW37900   2.351   1.516   0.249  0.4123  0.5706 -0.7708
 8756SOL    HW137901   2.372   1.500   0.341  2.0973 -2.0133 -1.6200
 8756SOL    HW237902   2.311   1.603   0.257  0.6799  0.4812  1.4016
 8757SOL     OW37903   3.569   2.835   9.179 -0.2881 -0.1659 -0.1170
 8757SOL    HW137904   3.541   2.910   9.126  2.1177  2.3781  2.2203
 8757SOL    HW237905   3.589   2.890   9.254  1.0190 -0.1397 -0.4864
 8758SOL     OW37906   3.556   1.300   2.636 -0.3438  0.2819  0.2356
 8758SOL    HW137907   3.592   1.363   2.574 -0.2229  2.0566  2.1113
 8758SOL    HW237908   3.469   1.338   2.651  0.5173  0.8633  3.7800
 8759SOL     OW37909   2.422   2.009   2.482  0.1522 -0.1057  0.4001
 8759SOL    HW137910   2.445   2.101   2.471 -2.1027  0.5307  0.8964
 8759SOL    HW237911   2.471   1.994   2.563  0.4153 -1.8818 -0.0779
 8760SOL     OW37912   1.257   3.939   6.635  0.3273 -0.0319 -0.0481
 8760SOL    HW137913   1.352   3.950   6.646  0.3558 -0.9478  0.6454
 8760SOL    HW237914   1.260   3.886   6.556  1.2400 -0.2822  0.1495
 8761SOL     OW37915   1.988   3.803   4.488  0.0651 -0.2464  1.0205
 8761SOL    HW137916   1.909   3.808   4.542  0.0800 -0.1110  1.0304
 8761SOL    HW237917   2.024   3.889   4.510  0.3726 -0.2125  0.3683
 8762SOL     OW37918   4.124   4.537   8.982  0.5123 -0.0296  0.0955
 8762SOL    HW137919   4.113   4.617   8.932  3.9705 -1.6938 -3.2832
 8762SOL    HW237920   4.190   4.571   9.043  0.3966 -1.6938  1.1539
 8763SOL     OW37921   1.782   0.327   6.578  0.0761 -0.1054  0.8177
 8763SOL    HW137922   1.748   0.406   6.619 -1.9354 -0.9571  0.8119
 8763SOL    HW237923   1.713   0.260   6.580 -1.5763  1.5484 -0.2832
 8764SOL     OW37924   2.567   0.715   2.392 -0.5187 -0.7897 -0.0546
 8764SOL    HW137925   2.517   0.700   2.312 -1.4656 -1.8285  0.7506
 8764SOL    HW237926   2.554   0.634   2.441 -0.8450 -2.1041 -2.3182
 8765SOL     OW37927   0.240   2.388   9.459 -0.4025  0.2590 -0.5131
 8765SOL    HW137928   0.310   2.323   9.463 -1.8172 -1.1971  0.1479
 8765SOL    HW237929   0.297   2.455   9.421  0.9823 -1.3061 -1.1990
 8766SOL     OW37930   0.680   4.298   8.600  0.1972 -0.2937  0.3682
 8766SOL    HW137931   0.710   4.313   8.690  2.6546 -0.2381 -0.4757
 8766SOL    HW237932   0.698   4.205   8.590 -0.5584 -0.5393  1.2004
 8767SOL     OW37933   3.997   2.567   5.503 -0.1640 -0.7042 -0.4977
 8767SOL    HW137934   4.085   2.601   5.523 -1.5523  1.1709  2.3414
 8767SOL    HW237935   4.006   2.478   5.469  1.8381  0.1999 -2.3934
 8768SOL     OW37936   2.282   3.268  12.942 -0.3219 -0.2631 -0.5836
 8768SOL    HW137937   2.322   3.319  13.012 -1.4712  1.3464 -1.1064
 8768SOL    HW237938   2.355   3.213  12.913  0.0480 -0.6458  1.0740
 8769SOL     OW37939   1.323   1.241   5.464  0.1144  0.3470 -0.3676
 8769SOL    HW137940   1.273   1.319   5.489 -1.0152 -1.0912  1.9317
 8769SOL    HW237941   1.269   1.210   5.392  0.1243  1.7789 -0.9836
 8770SOL     OW37942   3.230   0.269   6.694 -0.4795  0.3184  0.4268
 8770SOL    HW137943   3.304   0.316   6.733 -1.0214  1.1368  0.4759
 8770SOL    HW237944   3.181   0.347   6.666 -0.7256  0.3626  0.9739
 8771SOL     OW37945   0.779   3.704  16.507  0.3735  0.0047 -0.4289
 8771SOL    HW137946   0.820   3.723  16.592  1.1234 -0.8964 -0.5803
 8771SOL    HW237947   0.753   3.790  16.476  0.0472  0.1255  0.1680
 8772SOL     OW37948   4.025   4.530   2.972 -0.0206 -0.4291  0.0555
 8772SOL    HW137949   3.957   4.469   3.000 -0.4336  0.9563  2.1235
 8772SOL    HW237950   3.971   4.608   2.955  1.0558  0.3885  0.3453
 8773SOL     OW37951   1.340   4.420  11.544 -0.3799 -0.1248 -0.1268
 8773SOL    HW137952   1.404   4.383  11.484  0.1399 -0.8817  0.9023
 8773SOL    HW237953   1.387   4.494  11.582 -0.2351  0.2050 -0.9436
 8774SOL     OW37954   2.951   3.688   7.285 -0.1291  0.1570  0.2072
 8774SOL    HW137955   3.009   3.737   7.227 -0.0272 -1.9893 -1.5122
 8774SOL    HW237956   2.987   3.600   7.272  1.5508  0.8118  0.3813
 8775SOL     OW37957   0.410   2.586  15.239  0.8166 -0.0800  0.5664
 8775SOL    HW137958   0.401   2.680  15.226 -0.4038 -0.5861 -2.1836
 8775SOL    HW237959   0.475   2.582  15.309  0.7833  0.4182  0.6253
 8776SOL     OW37960   1.498   0.253   6.898  0.0211  0.1116  0.0778
 8776SOL    HW137961   1.555   0.317   6.941  1.7373  0.2086 -2.3667
 8776SOL    HW237962   1.476   0.299   6.817 -1.0653 -1.5994 -0.5965
 8777SOL     OW37963   2.824   1.495   6.366  0.0691 -0.4454  0.0811
 8777SOL    HW137964   2.762   1.517   6.296 -0.0766 -0.8457  0.0863
 8777SOL    HW237965   2.884   1.570   6.365  1.0527 -1.2429 -0.0057
 8778SOL     OW37966   0.510   3.000   1.698  0.0522  0.2802  0.5949
 8778SOL    HW137967   0.515   3.092   1.724 -0.6607  0.8809 -1.4217
 8778SOL    HW237968   0.566   2.956   1.763  1.6895  1.2722 -0.1679
 8779SOL     OW37969   3.625   1.438  16.182  0.2726 -0.0340 -0.1187
 8779SOL    HW137970   3.638   1.354  16.226  0.6426 -0.8077 -1.7380
 8779SOL    HW237971   3.554   1.412  16.124 -2.4822  0.1781  3.1126
 8780SOL     OW37972   1.445   1.152   4.954  0.2673 -0.4550  0.0941
 8780SOL    HW137973   1.498   1.146   5.033  0.0615 -0.3607  0.2379
 8780SOL    HW237974   1.388   1.224   4.980  2.2999  1.5455 -0.9913
 8781SOL     OW37975   2.358   3.343  15.047 -0.6648 -0.1718  0.4432
 8781SOL    HW137976   2.315   3.260  15.028 -1.0903  1.0362 -3.7492
 8781SOL    HW237977   2.400   3.336  15.133  1.8451 -0.0134 -0.7702
 8782SOL     OW37978   2.141   3.764   8.124 -0.6171  0.4165  0.1542
 8782SOL    HW137979   2.137   3.843   8.071 -0.4062 -0.6857 -1.5144
 8782SOL    HW237980   2.081   3.709   8.073 -0.8656 -0.3981  1.3253
 8783SOL     OW37981   1.352   0.662   8.846 -0.1639 -0.1821  0.3401
 8783SOL    HW137982   1.401   0.718   8.907  1.7080 -0.0572 -1.2641
 8783SOL    HW237983   1.395   0.577   8.853  2.0780  0.7218 -2.5180
 8784SOL     OW37984   3.134   1.212   9.988  0.1157  0.5740  0.9331
 8784SOL    HW137985   3.162   1.174   9.905 -0.6591  1.1571  0.4188
 8784SOL    HW237986   3.192   1.287   9.995 -1.2713  1.7031  0.2014
 8785SOL     OW37987   2.638   0.063   2.385  0.4608  0.0167  0.5258
 8785SOL    HW137988   2.655   0.006   2.460  0.4155 -1.6064 -0.6680
 8785SOL    HW237989   2.663   0.004   2.313 -0.9726  2.3508 -1.8491
 8786SOL     OW37990   2.250   3.357   2.790  0.1017 -0.1817  0.5846
 8786SOL    HW137991   2.304   3.432   2.818  0.9393 -0.6369  0.1923
 8786SOL    HW237992   2.309   3.308   2.733 -1.5094 -0.8280 -0.5034
 8787SOL     OW37993   0.518   4.007   8.089  0.4177 -0.1155 -0.4946
 8787SOL    HW137994   0.526   4.071   8.160  0.2042 -0.3783 -0.2281
 8787SOL    HW237995   0.428   3.981   8.106 -0.2237  1.2176 -1.9126
 8788SOL     OW37996   1.427   3.639  12.898  0.6724  0.0064 -0.2669
 8788SOL    HW137997   1.429   3.629  12.994 -0.3932 -0.5216 -0.3069
 8788SOL    HW237998   1.515   3.605  12.878  1.5018  1.4051  0.9716
 8789SOL     OW37999   4.631   3.501   6.529 -0.0386 -0.1323 -0.5568
 8789SOL    HW138000   4.587   3.449   6.462  2.5982 -1.0462 -1.5736
 8789SOL    HW238001   4.723   3.474   6.522  0.4142  0.8224  1.4948
 8790SOL     OW38002   3.955   0.721   6.109 -0.1934  0.4832 -0.0182
 8790SOL    HW138003   4.051   0.719   6.114 -0.3469  0.8305  3.4265
 8790SOL    HW238004   3.937   0.778   6.184 -2.1911 -0.8041  0.4858
 8791SOL     OW38005   2.807   1.197   4.377  0.1307  0.1360  0.0991
 8791SOL    HW138006   2.873   1.185   4.444 -0.4564 -0.0031  0.6501
 8791SOL    HW238007   2.835   1.130   4.314  1.3984  0.4178  0.3807
 8792SOL     OW38008   3.916   0.099  11.661 -0.4301  0.7875 -0.4667
 8792SOL    HW138009   3.919   0.179  11.712 -1.2316  1.8673 -2.1115
 8792SOL    HW238010   3.998   0.052  11.677 -0.2257  0.6824 -1.8108
 8793SOL     OW38011   0.868   0.028   7.634 -0.2477  0.1642  0.6087
 8793SOL    HW138012   0.838   4.678   7.607  0.3839  0.8253 -2.2119
 8793SOL    HW238013   0.959   0.010   7.611 -0.5749 -1.4268  0.5378
 8794SOL     OW38014   0.417   0.233   7.805 -0.0550 -0.0494  0.2981
 8794SOL    HW138015   0.418   0.143   7.772  1.0292 -1.0684  3.1521
 8794SOL    HW238016   0.501   0.271   7.780  0.3762 -0.6906  0.7725
 8795SOL     OW38017   1.603   1.426   9.501 -0.2592  0.6746  0.0377
 8795SOL    HW138018   1.514   1.416   9.535 -0.3387  3.5207  0.6586
 8795SOL    HW238019   1.649   1.412   9.584  0.2182 -1.5280 -0.5882
 8796SOL     OW38020   2.580   2.463   8.125  0.3695 -0.1601  0.5655
 8796SOL    HW138021   2.652   2.526   8.125 -1.4731  1.9376  1.6468
 8796SOL    HW238022   2.548   2.461   8.215 -1.6008  1.1339 -0.1126
 8797SOL     OW38023   4.085   0.229  12.040 -0.0029 -0.0380 -0.1122
 8797SOL    HW138024   4.043   0.276  11.967  0.8968  0.0077 -0.6019
 8797SOL    HW238025   4.176   0.257  12.037  0.1648 -0.5016  0.7299
 8798SOL     OW38026   3.313   3.458   1.783  0.4249 -0.0359 -0.1819
 8798SOL    HW138027   3.350   3.373   1.759 -1.7028 -1.4292  1.5134
 8798SOL    HW238028   3.228   3.453   1.740  1.0062 -1.9061 -1.1141
 8799SOL     OW38029   0.167   1.259   2.060 -0.9836 -0.1881  0.0315
 8799SOL    HW138030   0.251   1.255   2.015  0.4798 -2.5826  2.9818
 8799SOL    HW238031   0.157   1.354   2.067 -0.5641 -0.1639  0.2992
 8800SOL     OW38032   2.416   4.311  11.603  0.3200  0.0616 -0.3229
 8800SOL    HW138033   2.496   4.272  11.568  1.8352  2.0210  0.9308
 8800SOL    HW238034   2.430   4.404  11.620 -0.4600 -0.0453  0.8831
 8801SOL     OW38035   0.287   2.736   5.370 -0.2675  0.1950 -0.0009
 8801SOL    HW138036   0.207   2.727   5.422  1.0076 -1.7729  1.6055
 8801SOL    HW238037   0.314   2.825   5.394  3.1170 -0.8381  0.0108
 8802SOL     OW38038   3.996   3.349   3.262 -0.1813  0.2702  0.1227
 8802SOL    HW138039   4.042   3.427   3.231 -1.0386 -0.0479 -1.9431
 8802SOL    HW238040   3.925   3.355   3.198  0.2254  2.4529 -0.1156
 8803SOL     OW38041   0.727   4.083  10.027 -0.1413 -0.5564  0.1116
 8803SOL    HW138042   0.652   4.035   9.992 -0.1896 -1.1391  1.0230
 8803SOL    HW238043   0.693   4.086  10.116  0.9810 -2.1879  0.5945
 8804SOL     OW38044   4.105   0.676   3.838  0.0753 -0.1566  0.2936
 8804SOL    HW138045   4.110   0.585   3.869  1.6513 -0.5146 -1.0503
 8804SOL    HW238046   4.186   0.678   3.787  0.3731 -1.0439  0.7361
 8805SOL     OW38047   3.134   0.541   1.870  0.6870  0.3485 -0.6056
 8805SOL    HW138048   3.118   0.515   1.779 -1.8165 -0.4461  0.0559
 8805SOL    HW238049   3.051   0.504   1.900  0.5540 -0.1598 -1.5851
 8806SOL     OW38050   1.355   0.825   5.182 -0.1192  0.3931  0.1487
 8806SOL    HW138051   1.331   0.874   5.103  4.0900  0.8948 -0.8087
 8806SOL    HW238052   1.450   0.817   5.173 -0.2357 -0.3769 -0.4014
 8807SOL     OW38053   0.699   2.982   6.395  0.2380 -0.5020  0.2142
 8807SOL    HW138054   0.720   2.894   6.364  0.7777 -1.2237  2.6021
 8807SOL    HW238055   0.605   2.973   6.382  0.3769 -0.9131 -0.4934
 8808SOL     OW38056   2.492   4.061   2.360 -0.2551 -0.3363 -0.8254
 8808SOL    HW138057   2.404   4.098   2.370  0.4859  1.1816  0.1191
 8808SOL    HW238058   2.475   3.970   2.385 -2.5022  0.5907  1.0844
 8809SOL     OW38059   3.396   0.449   8.293 -0.2648 -0.3014  0.5985
 8809SOL    HW138060   3.448   0.427   8.370  0.5872  0.0370  0.1196
 8809SOL    HW238061   3.416   0.371   8.241  1.7014  0.0242  0.8593
 8810SOL     OW38062   2.620   3.988  15.873  0.6666 -0.2843  0.7085
 8810SOL    HW138063   2.704   4.011  15.832  1.2712 -3.2842  0.2728
 8810SOL    HW238064   2.610   4.065  15.930  1.0222 -0.6037  1.2039
 8811SOL     OW38065   4.636   1.489   5.629 -0.4552 -0.0512  0.1102
 8811SOL    HW138066   4.561   1.519   5.579 -0.5304 -0.8538 -0.2502
 8811SOL    HW238067   4.619   1.396   5.642  2.1060 -0.4065  0.9392
 8812SOL     OW38068   0.716   1.643  16.306 -0.3410  0.2999  0.3145
 8812SOL    HW138069   0.803   1.647  16.267 -0.4761  0.2859  0.0113
 8812SOL    HW238070   0.703   1.733  16.333  2.1378  0.2954  1.5005
 8813SOL     OW38071   2.491   0.498   1.836  0.2809 -0.5330  0.1815
 8813SOL    HW138072   2.431   0.572   1.834 -0.3099 -0.9906  1.2947
 8813SOL    HW238073   2.572   0.531   1.874  0.9918 -0.4736 -1.3719
 8814SOL     OW38074   1.756   3.327   8.470 -0.9648 -0.8891 -0.1331
 8814SOL    HW138075   1.717   3.321   8.383 -1.1950  0.9109 -0.1516
 8814SOL    HW238076   1.700   3.388   8.519 -0.7719 -0.0099 -1.0150
 8815SOL     OW38077   3.381   4.275  10.585 -0.1572  0.2721 -0.1874
 8815SOL    HW138078   3.439   4.267  10.509  0.9186 -1.2609  0.7883
 8815SOL    HW238079   3.309   4.216  10.566 -1.1996  1.8039 -0.9687
 8816SOL     OW38080   4.537   0.084   3.282 -0.4758  0.1024 -0.0516
 8816SOL    HW138081   4.594   0.022   3.237 -0.6733 -0.3895  0.3739
 8816SOL    HW238082   4.601   0.152   3.307  0.8518 -2.2772  3.0241
 8817SOL     OW38083   1.552   4.466  17.720  0.4069 -0.3145 -0.0262
 8817SOL    HW138084   1.513   4.397   0.028  0.5371 -0.1865  0.2325
 8817SOL    HW238085   1.531   4.433  17.633  1.7744  2.5615 -1.4484
 8818SOL     OW38086   4.149   3.245   2.758  0.0525 -0.7097  0.5319
 8818SOL    HW138087   4.164   3.173   2.696 -0.5256  0.6617 -1.2087
 8818SOL    HW238088   4.183   3.210   2.840 -0.2693  1.5338  1.6320
 8819SOL     OW38089   3.002   1.254   1.999  0.5255  0.5540 -0.2568
 8819SOL    HW138090   3.097   1.251   2.009  0.5920  1.4783 -0.6476
 8819SOL    HW238091   2.977   1.294   2.082 -0.4855  0.9637 -0.7524
 8820SOL     OW38092   3.906   4.005   3.546  0.1294 -0.2400  0.0392
 8820SOL    HW138093   3.862   4.034   3.625 -0.5134  0.2061 -0.4900
 8820SOL    HW238094   3.838   3.945   3.515  1.1752 -1.3655 -0.1003
 8821SOL     OW38095   2.846   4.590   0.751 -0.0570  0.1368  0.3214
 8821SOL    HW138096   2.806   4.511   0.788  0.1970  0.2047  0.7390
 8821SOL    HW238097   2.766   4.639   0.734 -1.1909 -0.2969  4.4192
 8822SOL     OW38098   0.998   4.010   2.798 -0.6190 -0.3391  0.3539
 8822SOL    HW138099   0.930   4.038   2.737 -0.7498 -0.0718  0.6211
 8822SOL    HW238100   1.080   3.994   2.752 -0.8922  0.0258 -0.2647
 8823SOL     OW38101   3.663   4.482   4.484 -0.8681  0.1965 -0.2123
 8823SOL    HW138102   3.570   4.462   4.471 -0.6494 -0.8658 -0.1621
 8823SOL    HW238103   3.699   4.459   4.398 -0.7126 -1.4345  0.2851
 8824SOL     OW38104   0.295   1.799   3.679 -0.5846 -0.1724 -0.1999
 8824SOL    HW138105   0.250   1.753   3.750  1.5041 -1.4197  0.3451
 8824SOL    HW238106   0.335   1.877   3.719  0.0566  0.5943 -2.3574
 8825SOL     OW38107   3.209   4.458   3.900  0.0936 -0.0079  0.2962
 8825SOL    HW138108   3.278   4.394   3.912 -0.5548 -0.6272  0.6932
 8825SOL    HW238109   3.143   4.400   3.862 -0.3928  0.6044  0.1873
 8826SOL     OW38110   0.833   2.690   3.953 -0.1578 -0.6913  0.2108
 8826SOL    HW138111   0.836   2.686   4.048 -1.4915 -0.1990  0.2645
 8826SOL    HW238112   0.890   2.616   3.929  2.0114  0.9420  0.3371
 8827SOL     OW38113   3.166   3.507   7.204 -0.2208 -0.0237 -0.4419
 8827SOL    HW138114   3.258   3.507   7.230  0.3568 -1.2915 -2.4886
 8827SOL    HW238115   3.132   3.460   7.280  0.2759  0.3533  0.0116
 8828SOL     OW38116   0.708   3.568   6.622 -0.0883 -0.1211 -0.2994
 8828SOL    HW138117   0.758   3.488   6.636 -1.8216 -1.6133 -2.7268
 8828SOL    HW238118   0.658   3.575   6.704 -0.9316 -0.1962 -0.8028
 8829SOL     OW38119   1.990   0.303   8.436 -0.3993  0.1098 -0.0885
 8829SOL    HW138120   2.037   0.333   8.358 -0.6725  0.5991 -0.0674
 8829SOL    HW238121   2.037   0.358   8.499 -0.4691  1.3346 -1.1081
 8830SOL     OW38122   2.980   0.544   2.216  0.0246 -0.0899 -0.0524
 8830SOL    HW138123   3.001   0.564   2.307  1.5191 -0.0408 -0.3965
 8830SOL    HW238124   2.974   0.449   2.209 -0.5951 -0.0599  0.1178
 8831SOL     OW38125   1.152   1.279   9.689 -0.1755 -0.2242 -0.2500
 8831SOL    HW138126   1.127   1.187   9.698 -1.6041  0.4718  2.9508
 8831SOL    HW238127   1.064   1.316   9.687 -0.1566 -0.2393 -1.2533
 8832SOL     OW38128   4.694   2.927  13.421 -0.6677  0.0290  0.9354
 8832SOL    HW138129   0.014   2.851  13.430  0.3124  0.5682 -0.8122
 8832SOL    HW238130   0.014   2.985  13.370 -0.8582 -0.6479 -0.0295
 8833SOL     OW38131   3.712   2.467  12.876  1.0594  0.0525 -0.3265
 8833SOL    HW138132   3.626   2.498  12.906  1.7456  0.2300  1.4931
 8833SOL    HW238133   3.776   2.509  12.933  0.0592 -0.4689  1.1885
 8834SOL     OW38134   2.146   0.893  15.630 -0.0053 -0.4160  0.1554
 8834SOL    HW138135   2.236   0.925  15.637  0.3966 -1.5515  0.1130
 8834SOL    HW238136   2.123   0.904  15.723  1.9254  0.8172  0.4971
 8835SOL     OW38137   3.108   3.103   9.081 -0.0531 -0.2301  0.1554
 8835SOL    HW138138   3.064   3.159   9.145 -2.0002 -1.9889  0.3270
 8835SOL    HW238139   3.191   3.082   9.123 -0.6393 -0.2391  1.2967
 8836SOL     OW38140   0.680   1.858   5.401 -0.3021  0.4018 -0.0564
 8836SOL    HW138141   0.642   1.839   5.486 -0.6485 -1.0617 -0.5339
 8836SOL    HW238142   0.659   1.781   5.347  0.1356 -0.7504  1.4272
 8837SOL     OW38143   3.870   2.494  12.034 -0.1290 -0.4666 -0.1247
 8837SOL    HW138144   3.852   2.408  11.997 -0.8940 -0.2629 -0.2263
 8837SOL    HW238145   3.925   2.529  11.964  3.9644  0.9733  3.8167
 8838SOL     OW38146   0.870   4.725   9.184  0.5753 -0.2381  0.2610
 8838SOL    HW138147   0.812   4.668   9.133  0.4380 -1.0479  1.3468
 8838SOL    HW238148   0.801   0.051   9.207  0.4412 -0.2510 -0.1033
 8839SOL     OW38149   4.142   4.709  11.998 -0.3049 -0.4894  0.0284
 8839SOL    HW138150   4.173   4.691  12.086 -0.5976  0.0861  0.2524
 8839SOL    HW238151   4.094   0.054  12.013 -0.9086 -0.3717 -2.4978
 8840SOL     OW38152   3.182   2.725   2.074 -0.0681 -0.4723  0.5809
 8840SOL    HW138153   3.106   2.777   2.098  1.0010  1.7016 -0.7032
 8840SOL    HW238154   3.220   2.777   2.003  0.7158  0.6010  1.7936
 8841SOL     OW38155   2.846   1.862   6.787 -0.4489 -0.1491 -0.3864
 8841SOL    HW138156   2.811   1.935   6.735  1.6947  1.6983  0.7339
 8841SOL    HW238157   2.861   1.900   6.874 -2.7614 -0.3638  0.1203
 8842SOL     OW38158   4.632   4.435   3.559  0.1356  0.4235 -0.3792
 8842SOL    HW138159   4.706   4.396   3.605 -0.4471 -0.9341 -0.5789
 8842SOL    HW238160   4.575   4.358   3.564  1.7546 -0.5075  3.3062
 8843SOL     OW38161   0.326   0.034   0.587 -0.1700  0.4462 -0.3857
 8843SOL    HW138162   0.232   0.048   0.601 -0.4293 -0.8663 -0.8140
 8843SOL    HW238163   0.324   4.679   0.562  0.3717  0.6995 -1.3879
 8844SOL     OW38164   3.283   1.574  17.698  0.0295  0.1167  0.5446
 8844SOL    HW138165   3.219   1.622   0.006 -1.7149 -1.5050 -0.0862
 8844SOL    HW238166   3.287   1.638  17.628 -2.1363 -2.4730 -1.9367
 8845SOL     OW38167   3.249   2.288  16.825  0.1509 -0.0085 -0.1852
 8845SOL    HW138168   3.181   2.280  16.758 -1.6127 -0.8682  1.6910
 8845SOL    HW238169   3.321   2.239  16.785 -0.5192 -0.6117 -0.6474
 8846SOL     OW38170   3.071   2.576   6.830 -0.0086 -0.4758  0.4711
 8846SOL    HW138171   3.010   2.570   6.756 -1.0175 -0.5649  1.3037
 8846SOL    HW238172   3.109   2.489   6.846  1.0341 -0.4296 -1.7913
 8847SOL     OW38173   1.138   2.970   3.467 -0.4774 -0.5435 -0.0114
 8847SOL    HW138174   1.044   2.981   3.484 -0.3783 -1.7934  1.3895
 8847SOL    HW238175   1.167   2.921   3.544  0.5559  0.1791  0.0551
 8848SOL     OW38176   4.278   4.564   3.095  0.2786 -0.1742 -0.1628
 8848SOL    HW138177   4.259   4.519   3.178  0.8718  0.1348  0.1353
 8848SOL    HW238178   4.192   4.573   3.054  1.0725  0.1617 -1.7415
 8849SOL     OW38179   0.725   2.257   8.733  0.2520  0.4687 -0.1356
 8849SOL    HW138180   0.778   2.318   8.784 -0.4423  1.3273 -0.4395
 8849SOL    HW238181   0.660   2.235   8.800  0.3944 -0.2754 -0.2425
 8850SOL     OW38182   2.646   1.483   2.429 -0.2566  0.2367 -0.0950
 8850SOL    HW138183   2.727   1.497   2.380  0.5588 -1.5608  0.7262
 8850SOL    HW238184   2.648   1.560   2.484 -4.2120  0.2196  0.0891
 8851SOL     OW38185   0.361   3.624   5.500 -0.0243 -0.3700 -0.4683
 8851SOL    HW138186   0.325   3.549   5.452  0.0719 -0.9794  0.4180
 8851SOL    HW238187   0.334   3.603   5.589 -0.3607  0.3137 -0.4072
 8852SOL     OW38188   3.616   1.072   5.305 -0.1391  0.6861 -0.6088
 8852SOL    HW138189   3.550   1.017   5.348  0.2922  0.6727  0.0424
 8852SOL    HW238190   3.663   0.998   5.269  0.2150 -0.0128  1.2787
 8853SOL     OW38191   2.109   4.579   4.991 -0.6571  0.5178 -0.0439
 8853SOL    HW138192   2.171   4.522   4.946 -0.4261  1.1021 -0.4685
 8853SOL    HW238193   2.076   4.522   5.061  0.2195 -0.3686 -0.3621
 8854SOL     OW38194   1.321   0.566   5.201  0.0956  0.6243  0.1339
 8854SOL    HW138195   1.399   0.548   5.254 -1.3430 -3.0223  0.9592
 8854SOL    HW238196   1.320   0.662   5.204 -0.4498  0.6578 -1.2487
 8855SOL     OW38197   3.223   1.441   6.386  0.2277 -0.4400  0.1600
 8855SOL    HW138198   3.167   1.466   6.459  0.0425 -2.2010  0.6259
 8855SOL    HW238199   3.204   1.348   6.380  0.7984 -0.5229 -0.4223
 8856SOL     OW38200   3.070   0.232   6.154  0.2521  0.0478 -0.2255
 8856SOL    HW138201   3.160   0.259   6.136 -0.3273  1.7978 -0.5025
 8856SOL    HW238202   3.082   0.170   6.226  0.3556  0.1718 -0.1352
 8857SOL     OW38203   0.117   2.418   8.012  0.2361 -0.0494 -0.1942
 8857SOL    HW138204   0.180   2.461   8.069 -0.3947 -1.3062  1.4772
 8857SOL    HW238205   0.127   2.461   7.927 -3.4325  1.1183 -0.0473
 8858SOL     OW38206   3.565   3.465   6.949 -0.1688  0.5003 -0.2871
 8858SOL    HW138207   3.579   3.371   6.934 -0.1946  0.5573 -0.6898
 8858SOL    HW238208   3.651   3.505   6.941  0.0428  0.2014  0.5416
 8859SOL     OW38209   2.271   2.816   3.406  0.3981  0.0687  0.1182
 8859SOL    HW138210   2.192   2.807   3.352  0.4130  0.1271  0.0867
 8859SOL    HW238211   2.273   2.728   3.444  1.5996 -0.3298 -0.8740
 8860SOL     OW38212   3.252   0.353   2.255 -0.4107 -0.2636  0.2324
 8860SOL    HW138213   3.312   0.320   2.188 -1.0960  0.0829 -0.5453
 8860SOL    HW238214   3.271   0.447   2.254  2.7475 -0.8835 -0.3837
 8861SOL     OW38215   4.401   1.853   7.408  0.3033  0.2147 -0.0974
 8861SOL    HW138216   4.306   1.847   7.402  0.2837  0.0194  0.3994
 8861SOL    HW238217   4.440   1.771   7.377  0.4665  1.6821 -3.7532
 8862SOL     OW38218   2.265   1.941  17.369  0.0380 -0.1701 -0.0511
 8862SOL    HW138219   2.233   2.022  17.408 -1.0943 -0.2259 -0.8388
 8862SOL    HW238220   2.314   1.971  17.293 -1.7055  0.1708 -1.0538
 8863SOL     OW38221   3.435   1.045  12.106  0.5865  0.0430 -0.6259
 8863SOL    HW138222   3.403   1.007  12.187 -0.3303 -0.2646 -1.1292
 8863SOL    HW238223   3.441   0.966  12.053 -0.4354 -0.7646  0.4851
 8864SOL     OW38224   1.743   1.179   9.099  0.4553 -0.5064 -0.1262
 8864SOL    HW138225   1.651   1.199   9.119  0.2938 -2.1843  0.8234
 8864SOL    HW238226   1.741   1.195   9.005 -2.0532  0.2685  0.0556
 8865SOL     OW38227   0.442   0.255   8.745 -0.7014 -0.6709 -0.0380
 8865SOL    HW138228   0.489   0.185   8.790  1.5110 -0.4397 -2.0148
 8865SOL    HW238229   0.440   0.315   8.819  1.6731  3.1300 -3.0394
 8866SOL     OW38230   2.367   3.170   2.369  0.0162 -0.1186 -0.4523
 8866SOL    HW138231   2.306   3.097   2.356 -0.4166 -0.1043  1.5979
 8866SOL    HW238232   2.317   3.251   2.363  0.4297  0.0454 -1.7573
 8867SOL     OW38233   0.112   2.913   7.244 -0.1955 -0.3036 -0.2329
 8867SOL    HW138234   0.042   2.878   7.298  0.9218 -0.3444  1.1978
 8867SOL    HW238235   0.078   3.001   7.227 -1.2886 -1.1597 -2.5188
 8868SOL     OW38236   1.647   3.664   7.510 -0.4813 -0.6386 -0.0318
 8868SOL    HW138237   1.699   3.623   7.579  1.0471 -0.8309 -1.2962
 8868SOL    HW238238   1.560   3.660   7.550 -0.6290  0.8556 -0.1929
 8869SOL     OW38239   0.426   1.905   9.346  0.5053 -0.4740  0.4714
 8869SOL    HW138240   0.426   1.966   9.420  4.0124 -1.4528  1.2655
 8869SOL    HW238241   0.515   1.870   9.336  0.7913  0.8713 -1.6344
 8870SOL     OW38242   2.635   2.255  10.797  0.1385  0.2496 -0.3085
 8870SOL    HW138243   2.614   2.237  10.705 -0.6157  0.9767 -0.2800
 8870SOL    HW238244   2.693   2.180  10.808  0.4161  0.4803 -0.2170
 8871SOL     OW38245   1.022   1.487   4.330  0.1450  0.8670  0.4019
 8871SOL    HW138246   0.935   1.476   4.291 -0.2007  1.5810  0.9667
 8871SOL    HW238247   1.069   1.515   4.252  1.0598 -2.4278 -0.2268
 8872SOL     OW38248   1.723   3.744  14.869 -0.3315 -0.2959 -0.3433
 8872SOL    HW138249   1.649   3.727  14.810  0.3817 -0.5816 -1.1729
 8872SOL    HW238250   1.739   3.832  14.835 -0.7797 -0.4702 -1.0264
 8873SOL     OW38251   1.589   3.302   5.665  0.6950 -0.1914  0.2348
 8873SOL    HW138252   1.606   3.374   5.725 -1.4849  0.4590  0.0710
 8873SOL    HW238253   1.504   3.271   5.698  0.5515  1.1532  1.1275
 8874SOL     OW38254   1.404   1.478   8.200  0.2795  0.0745 -0.1092
 8874SOL    HW138255   1.474   1.526   8.245  0.7750  0.1180 -0.9265
 8874SOL    HW238256   1.350   1.456   8.275 -0.6502 -3.2961 -1.7804
 8875SOL     OW38257   1.214   0.878  14.736  0.8679  0.1266 -0.1111
 8875SOL    HW138258   1.265   0.924  14.802 -1.0893  1.1725  0.6788
 8875SOL    HW238259   1.139   0.841  14.783  0.1712 -1.0545 -2.1097
 8876SOL     OW38260   1.613   2.408   0.606 -0.0808  0.3387 -0.5499
 8876SOL    HW138261   1.547   2.347   0.574 -2.7122  2.4068  0.9934
 8876SOL    HW238262   1.591   2.418   0.698 -1.2044 -0.4099 -0.7447
 8877SOL     OW38263   1.063   2.911   1.639  0.1835 -0.2752 -0.2011
 8877SOL    HW138264   1.143   2.863   1.619  0.9425  1.1992 -0.6483
 8877SOL    HW238265   1.089   3.002   1.628 -3.2055  0.4710 -2.2380
 8878SOL     OW38266   0.757   0.919  12.806 -0.0915 -0.3158  0.5059
 8878SOL    HW138267   0.850   0.912  12.784 -0.6354 -0.7135 -1.7193
 8878SOL    HW238268   0.725   0.975  12.735  1.9236 -0.9280 -0.8766
 8879SOL     OW38269   0.313   3.677   8.713 -0.2943  0.8375 -0.1208
 8879SOL    HW138270   0.238   3.633   8.753  1.0661  1.3860  3.0049
 8879SOL    HW238271   0.277   3.725   8.638 -1.0529  0.7877  0.2058
 8880SOL     OW38272   0.789   4.036   2.946  0.1292 -0.2980 -0.0659
 8880SOL    HW138273   0.874   4.056   2.907 -0.1573  1.0145 -0.0022
 8880SOL    HW238274   0.749   3.987   2.875  0.0159  0.2536 -0.3836
 8881SOL     OW38275   3.331   0.393   9.997  0.0062  0.2574 -0.2734
 8881SOL    HW138276   3.266   0.443   9.948 -0.4010  0.6395  0.6686
 8881SOL    HW238277   3.280   0.373  10.076  0.2936  3.1618  0.6332
 8882SOL     OW38278   2.550   1.341   1.368  0.2712 -0.2174 -0.1467
 8882SOL    HW138279   2.621   1.398   1.338 -0.5965  0.3726 -1.0399
 8882SOL    HW238280   2.600   1.267   1.404  1.8637  1.5620  1.2768
 8883SOL     OW38281   2.881   1.781   9.159 -0.4818  0.1144 -0.2174
 8883SOL    HW138282   2.820   1.753   9.091 -1.4182 -0.2841  0.7862
 8883SOL    HW238283   2.819   1.819   9.220  0.6087 -1.9656  2.1715
 8884SOL     OW38284   3.038   0.546   2.839  0.6836 -0.0584  0.1440
 8884SOL    HW138285   2.949   0.566   2.810  0.6419  1.1064  1.0874
 8884SOL    HW238286   3.030   0.456   2.869  1.9746  0.1671  1.1433
 8885SOL     OW38287   2.378   2.161   0.238 -0.3448  0.0097 -0.3801
 8885SOL    HW138288   2.362   2.248   0.201 -0.6651 -0.1599 -0.6393
 8885SOL    HW238289   2.360   2.173   0.331  2.3836 -0.1363  0.1698
 8886SOL     OW38290   4.552   0.463  16.185 -0.1845 -0.7684 -0.2149
 8886SOL    HW138291   4.515   0.518  16.116 -0.7789  0.5011  1.1120
 8886SOL    HW238292   4.635   0.432  16.147  1.9894  3.4986  1.0605
 8887SOL     OW38293   1.858   2.443   4.544  0.0937 -0.2219 -0.0385
 8887SOL    HW138294   1.932   2.500   4.566 -0.4742  0.7407 -0.6192
 8887SOL    HW238295   1.780   2.480   4.586  0.1573  0.6854 -0.7119
 8888SOL     OW38296   4.294   3.890  13.494  0.4201 -1.0757  0.1933
 8888SOL    HW138297   4.367   3.948  13.515  0.6781 -1.6501  0.8937
 8888SOL    HW238298   4.288   3.841  13.576 -0.0477 -1.3427  0.0028
 8889SOL     OW38299   4.384   3.030   3.253  0.2783  0.0821 -0.6662
 8889SOL    HW138300   4.456   2.968   3.267  0.3360 -0.0273 -1.4534
 8889SOL    HW238301   4.325   2.990   3.317  0.6277 -0.2861 -0.5680
 8890SOL     OW38302   4.323   1.453   6.470  0.0315  0.1192  0.2521
 8890SOL    HW138303   4.407   1.497   6.483 -0.7187  1.9514 -1.0506
 8890SOL    HW238304   4.289   1.463   6.559  2.9279 -3.0070  1.7204
 8891SOL     OW38305   0.974   1.293   8.373 -0.2315 -0.0382 -0.2166
 8891SOL    HW138306   0.898   1.337   8.335  2.4340  2.4623 -2.6489
 8891SOL    HW238307   0.930   1.238   8.437 -0.5951 -0.4690 -0.8415
 8892SOL     OW38308   3.645   0.167  14.347 -0.0935 -0.3681 -0.6655
 8892SOL    HW138309   3.562   0.172  14.299  0.7997  3.1324 -1.8590
 8892SOL    HW238310   3.692   0.227  14.290  2.2193 -1.5656 -0.0536
 8893SOL     OW38311   0.038   2.739   6.475  0.5634  0.1658  0.5964
 8893SOL    HW138312   0.070   2.772   6.391  0.1263 -1.4846 -0.2187
 8893SOL    HW238313   0.120   2.702   6.507  1.6990  1.4532 -0.8519
 8894SOL     OW38314   3.122   1.007   4.569  0.0591 -0.3278  0.2435
 8894SOL    HW138315   3.092   0.923   4.536 -1.7356  0.8234 -1.0934
 8894SOL    HW238316   3.211   1.001   4.603  0.1961 -2.1402 -0.4243
 8895SOL     OW38317   2.619   3.557   5.002 -0.3559 -0.6117  0.3267
 8895SOL    HW138318   2.704   3.513   4.996 -1.2172 -2.1635 -0.5393
 8895SOL    HW238319   2.651   3.643   5.029  0.8849 -1.0422  0.2342
 8896SOL     OW38320   3.928   2.065   5.545 -0.3227 -0.7426  0.0479
 8896SOL    HW138321   3.967   1.992   5.498  0.0512  1.0078 -2.3834
 8896SOL    HW238322   3.925   2.027   5.632  0.6281  0.4959  0.6256
 8897SOL     OW38323   1.185   3.829  15.915 -0.1091  0.3927  0.5952
 8897SOL    HW138324   1.164   3.848  16.007 -1.9000 -0.7060  0.4179
 8897SOL    HW238325   1.279   3.846  15.916 -0.1338  0.5541 -0.3108
 8898SOL     OW38326   2.796   4.171   8.641  0.3320 -0.0767 -0.1241
 8898SOL    HW138327   2.883   4.159   8.601  0.5239 -1.0642  0.5978
 8898SOL    HW238328   2.742   4.134   8.571 -0.4737  0.3437  0.2817
 8899SOL     OW38329   1.443   3.538   7.682 -0.5337  0.1118 -0.0121
 8899SOL    HW138330   1.492   3.461   7.711 -1.0584  0.1709  1.0126
 8899SOL    HW238331   1.383   3.536   7.756 -1.3285 -0.4281 -0.6762
 8900SOL     OW38332   0.678   4.244   2.235  0.5027  0.2501  0.5698
 8900SOL    HW138333   0.680   4.326   2.187  0.6699 -0.4474 -0.5994
 8900SOL    HW238334   0.651   4.192   2.160 -5.4755  2.9027  0.8506
 8901SOL     OW38335   2.714   2.961  12.132  0.4362 -0.0269  0.1594
 8901SOL    HW138336   2.703   2.872  12.165 -2.1636  0.4636  0.6157
 8901SOL    HW238337   2.625   2.971  12.100  1.0786  0.3866 -1.4654
 8902SOL     OW38338   0.922   3.709   5.572 -0.6088  0.3298  0.7345
 8902SOL    HW138339   0.985   3.647   5.608 -2.4132 -1.6424  0.5558
 8902SOL    HW238340   0.847   3.681   5.625 -1.1073 -1.1770 -0.7570
 8903SOL     OW38341   3.368   0.798  10.660  0.0095  0.5410  0.1719
 8903SOL    HW138342   3.378   0.704  10.674  0.5233  0.7859  1.4570
 8903SOL    HW238343   3.273   0.797  10.649  0.2272 -1.8891 -1.5252
 8904SOL     OW38344   1.422   4.435   4.166  0.1274  0.3179  0.3790
 8904SOL    HW138345   1.464   4.501   4.220 -0.0080  0.7904 -0.0874
 8904SOL    HW238346   1.491   4.371   4.178 -0.5380 -0.6432 -0.8496
 8905SOL     OW38347   1.757   3.142   4.033 -0.0473  0.0302  0.0822
 8905SOL    HW138348   1.669   3.164   4.063  0.3006 -0.9349  1.8150
 8905SOL    HW238349   1.741   3.179   3.946 -0.9391  1.2863  0.7895
 8906SOL     OW38350   4.049   3.156  10.749  0.4346  0.0098 -0.0794
 8906SOL    HW138351   4.064   3.090  10.682  1.0855 -0.6732  0.7325
 8906SOL    HW238352   4.114   3.146  10.819  0.4945 -2.6078 -0.5162
 8907SOL     OW38353   0.092   2.175   7.604 -0.8405  0.1183  0.4764
 8907SOL    HW138354   0.057   2.113   7.668 -1.2080  1.5707  1.6729
 8907SOL    HW238355   0.173   2.210   7.641 -0.4927  1.8564 -1.9998
 8908SOL     OW38356   1.146   2.549   2.440  0.5946  0.2140 -0.1365
 8908SOL    HW138357   1.076   2.564   2.376  1.5230 -1.1605 -1.4754
 8908SOL    HW238358   1.134   2.454   2.444  3.6607 -0.2252 -1.9252
 8909SOL     OW38359   0.537   2.515   8.714  0.0395 -0.3549  0.2869
 8909SOL    HW138360   0.477   2.508   8.789  0.2067 -0.5879  0.3991
 8909SOL    HW238361   0.579   2.429   8.708  0.4124 -0.0338 -1.7097
 8910SOL     OW38362   0.567   0.854  11.390 -0.2385  0.2955 -0.5928
 8910SOL    HW138363   0.661   0.848  11.374 -0.5563 -0.6077 -2.0974
 8910SOL    HW238364   0.530   0.871  11.303 -1.8459 -4.1340 -0.7630
 8911SOL     OW38365   2.486   1.033   8.660 -0.4654  0.1112 -0.2093
 8911SOL    HW138366   2.516   1.116   8.698  1.9993 -0.1174 -1.6515
 8911SOL    HW238367   2.568   0.984   8.666 -0.2329  0.3371 -1.5822
 8912SOL     OW38368   3.279   4.731   9.178  0.2232  0.0338 -0.4075
 8912SOL    HW138369   3.228   4.652   9.199  1.2313 -0.8482 -1.2649
 8912SOL    HW238370   3.303   4.715   9.087  0.4139  0.6398 -0.4627
 8913SOL     OW38371   0.651   1.848   6.761  0.2669 -0.3787 -0.0767
 8913SOL    HW138372   0.567   1.805   6.743 -0.7671  2.1316 -1.3099
 8913SOL    HW238373   0.624   1.928   6.806  0.4659  1.1924 -2.7150
 8914SOL     OW38374   3.095   3.382  17.640  0.1266  1.0171  0.0938
 8914SOL    HW138375   3.106   3.429  17.723  0.4084  0.7724  0.1911
 8914SOL    HW238376   3.182   3.395  17.604  0.1778  1.0589  0.2331
 8915SOL     OW38377   4.474   3.709   9.342  0.1253 -0.3151 -0.4043
 8915SOL    HW138378   4.388   3.686   9.308  0.1098  1.9393 -1.8742
 8915SOL    HW238379   4.494   3.620   9.370 -0.5928 -0.2537  0.3162
 8916SOL     OW38380   4.631   1.144   6.753 -0.4661 -0.3735  0.4393
 8916SOL    HW138381   4.621   1.136   6.658 -0.0589  2.5333  0.1622
 8916SOL    HW238382   4.635   1.239   6.755  1.0001 -0.4407  0.5607
 8917SOL     OW38383   0.776   4.134  15.888 -0.0957 -0.3314 -0.2709
 8917SOL    HW138384   0.867   4.161  15.882 -1.2463  3.4697 -0.9822
 8917SOL    HW238385   0.751   4.173  15.972  2.2623 -0.9810  0.7336
 8918SOL     OW38386   4.242   2.368  14.392 -0.5460  0.1090  0.2402
 8918SOL    HW138387   4.150   2.374  14.367  0.1171  2.2236 -1.6530
 8918SOL    HW238388   4.281   2.451  14.365  1.3586 -0.9813 -0.3526
 8919SOL     OW38389   0.805   4.613   6.726 -0.1803 -0.2329  0.3870
 8919SOL    HW138390   0.767   4.677   6.787  0.5762  0.9520 -0.3967
 8919SOL    HW238391   0.899   4.612   6.742 -0.0533 -2.1860 -0.4282
 8920SOL     OW38392   4.005   0.943   3.869 -0.0426  0.4612 -0.2826
 8920SOL    HW138393   4.098   0.945   3.892 -0.3825  1.6183  1.0447
 8920SOL    HW238394   3.990   0.848   3.875  1.4917  0.2451  0.2738
 8921SOL     OW38395   3.024   2.049  13.375  0.0161  0.6240 -0.4070
 8921SOL    HW138396   2.950   2.031  13.433  1.0733 -1.7609  0.1923
 8921SOL    HW238397   3.048   2.134  13.411  0.2449 -0.6565  2.4196
 8922SOL     OW38398   0.139   3.128   2.083  0.2134  0.1341 -0.3060
 8922SOL    HW138399   0.188   3.146   2.002  2.2394  1.2826  1.1779
 8922SOL    HW238400   0.051   3.147   2.050  0.6867  1.1546 -0.9962
 8923SOL     OW38401   3.636   0.407   7.047  0.1517 -0.2075  0.1844
 8923SOL    HW138402   3.664   0.482   7.099 -2.3860 -0.0728  1.3089
 8923SOL    HW238403   3.584   0.363   7.113 -0.8101  0.4742 -0.1181
 8924SOL     OW38404   0.359   4.632   4.396 -0.2277  0.4402 -0.5989
 8924SOL    HW138405   0.408   4.667   4.322 -1.1738 -1.4296 -2.1292
 8924SOL    HW238406   0.421   4.578   4.446 -1.4045 -2.0232 -1.7999
 8925SOL     OW38407   2.061   2.231  15.679 -0.6896  0.1443  0.1418
 8925SOL    HW138408   1.992   2.166  15.668 -0.0924 -0.0057 -2.5458
 8925SOL    HW238409   2.058   2.234  15.775 -2.1215  1.7955  0.0387
 8926SOL     OW38410   4.389   1.874   1.203 -0.3650 -0.1408  0.1138
 8926SOL    HW138411   4.376   1.899   1.111  0.4934 -1.0505 -0.2578
 8926SOL    HW238412   4.417   1.782   1.200 -0.0483 -0.0363 -0.2390
 8927SOL     OW38413   2.445   2.299   2.867  0.1514 -0.3575  0.1424
 8927SOL    HW138414   2.513   2.364   2.847 -0.0350  0.2573  1.4736
 8927SOL    HW238415   2.378   2.332   2.807  0.5777 -0.2181 -0.2579
 8928SOL     OW38416   3.135   3.841   9.892  0.2841 -0.0849  0.2674
 8928SOL    HW138417   3.149   3.882   9.977  3.0502  0.2324 -0.3396
 8928SOL    HW238418   3.218   3.795   9.878  0.0104 -1.5347  3.4917
 8929SOL     OW38419   1.826   0.472  15.731 -0.2193  0.5050  0.0865
 8929SOL    HW138420   1.862   0.561  15.731 -1.3162  0.9484 -0.4897
 8929SOL    HW238421   1.887   0.435  15.667 -0.7822  0.0142 -0.1653
 8930SOL     OW38422   3.441   3.783   9.515 -0.6447 -0.0286  0.3211
 8930SOL    HW138423   3.348   3.790   9.538 -0.5164 -0.8309  1.0904
 8930SOL    HW238424   3.472   3.870   9.539 -0.7946  0.2264 -0.4377
 8931SOL     OW38425   1.308   2.242   1.277  0.3391  0.1510 -0.3283
 8931SOL    HW138426   1.248   2.196   1.219  1.2361 -1.9612  0.4315
 8931SOL    HW238427   1.291   2.334   1.254 -0.8421  0.4145  1.4977
 8932SOL     OW38428   2.339   2.466   6.763  0.0819 -0.0328 -0.2953
 8932SOL    HW138429   2.410   2.487   6.823 -0.3926  2.1936 -0.5082
 8932SOL    HW238430   2.383   2.467   6.679 -0.3885 -1.1404 -0.5492
 8933SOL     OW38431   2.389   1.637   6.504  0.6538  0.1279 -0.9861
 8933SOL    HW138432   2.403   1.587   6.585  1.1716 -1.1429 -1.8593
 8933SOL    HW238433   2.413   1.575   6.435 -0.3682  0.3168 -1.5091
 8934SOL     OW38434   0.781   4.060  16.695  0.5261 -0.4024  0.0567
 8934SOL    HW138435   0.772   4.155  16.694  0.8753 -0.3996 -2.0888
 8934SOL    HW238436   0.713   4.036  16.757  0.1580  4.5451  1.5435
 8935SOL     OW38437   3.977   2.359   2.525 -0.0167  0.1816  0.5657
 8935SOL    HW138438   3.956   2.449   2.550  0.2513  0.9312 -1.8916
 8935SOL    HW238439   4.004   2.312   2.604  0.7666 -2.0353 -1.0285
 8936SOL     OW38440   0.597   0.049   1.366 -0.1274  0.0988  0.1334
 8936SOL    HW138441   0.605   4.701   1.410 -2.7526  0.1483  0.7535
 8936SOL    HW238442   0.548   0.098   1.432  0.9670  2.2436 -0.6368
 8937SOL     OW38443   1.122   0.369   8.691 -0.8255 -0.0701 -0.2904
 8937SOL    HW138444   1.133   0.413   8.607 -0.1129  1.5793  0.6815
 8937SOL    HW238445   1.196   0.308   8.689 -0.6583  0.1374 -0.3542
 8938SOL     OW38446   4.565   3.853   5.270 -0.3827  0.7239  0.4237
 8938SOL    HW138447   4.625   3.917   5.310 -0.0047  0.0012  1.0022
 8938SOL    HW238448   4.634   3.809   5.220  1.2349 -0.3556  3.6311
 8939SOL     OW38449   0.956   0.558   1.084  0.4796  0.0207  0.8476
 8939SOL    HW138450   1.033   0.596   1.043  1.4943 -1.3926  1.4349
 8939SOL    HW238451   0.890   0.608   1.035 -0.3959 -1.0077  0.9694
 8940SOL     OW38452   1.644   3.299   6.548 -0.3307  0.0189 -0.2372
 8940SOL    HW138453   1.672   3.390   6.539  0.2858 -0.2656 -1.1901
 8940SOL    HW238454   1.615   3.297   6.639 -0.2350 -1.9196 -0.2436
 8941SOL     OW38455   3.909   1.659   5.920 -0.1446  0.3604 -0.0449
 8941SOL    HW138456   3.904   1.687   6.012 -1.1157 -3.1450  0.9672
 8941SOL    HW238457   3.847   1.588   5.905  1.6766 -1.0737 -0.8044
 8942SOL     OW38458   3.078   2.053   4.408  0.1961 -0.2580 -0.5041
 8942SOL    HW138459   3.132   2.122   4.444 -1.1428  0.1945  0.6497
 8942SOL    HW238460   3.097   2.070   4.316  2.2926 -0.7565 -0.1608
 8943SOL     OW38461   2.195   4.137  12.470  0.1171  0.3352 -0.1270
 8943SOL    HW138462   2.280   4.153  12.431  0.0707 -0.7154 -0.6502
 8943SOL    HW238463   2.187   4.042  12.457 -2.7500  0.3780  1.2188
 8944SOL     OW38464   2.171   4.608  15.061 -0.3661  0.6973  0.4004
 8944SOL    HW138465   2.209   4.621  14.975 -0.7409  5.0197  0.8713
 8944SOL    HW238466   2.081   4.577  15.050  0.0290 -0.0466 -0.6317
 8945SOL     OW38467   0.571   2.860   1.965  0.2970 -0.6940 -0.0835
 8945SOL    HW138468   0.595   2.768   1.970  0.9136 -0.5391 -0.1897
 8945SOL    HW238469   0.476   2.848   1.962  0.2892 -0.8896  1.1103
 8946SOL     OW38470   4.002   4.064   6.198  0.3127 -0.0838  0.1350
 8946SOL    HW138471   3.926   4.112   6.166 -0.0950 -0.1190  1.0813
 8946SOL    HW238472   4.009   3.993   6.134  0.6518  0.3971 -0.3670
 8947SOL     OW38473   3.548   1.118   4.847  0.0355 -0.1078 -0.3056
 8947SOL    HW138474   3.462   1.155   4.827  0.3343  0.7970  0.0698
 8947SOL    HW238475   3.570   1.182   4.915  0.6392 -0.9549  0.2995
 8948SOL     OW38476   2.397   0.212   6.514 -0.5168 -0.2793  0.3797
 8948SOL    HW138477   2.466   0.170   6.566 -1.4099 -1.2236  0.8088
 8948SOL    HW238478   2.382   0.167   6.432 -0.3271  1.2921 -0.5201
 8949SOL     OW38479   0.130   4.238   3.867  1.0167  0.3424 -0.0773
 8949SOL    HW138480   0.222   4.263   3.875  1.1270 -1.0113  2.7998
 8949SOL    HW238481   0.093   4.283   3.943 -0.8763 -1.6419  0.1818
 8950SOL     OW38482   3.728   4.338   9.896  0.3939 -0.1585 -0.0991
 8950SOL    HW138483   3.785   4.361   9.822  1.0816 -1.4923  0.0157
 8950SOL    HW238484   3.783   4.272   9.937 -0.6625 -1.8071 -1.3566
 8951SOL     OW38485   4.202   0.514   5.773 -0.1288 -0.0590  0.4458
 8951SOL    HW138486   4.241   0.485   5.855  0.0167 -0.0734  0.3718
 8951SOL    HW238487   4.216   0.607   5.758 -2.7153  0.1074 -0.9500
 8952SOL     OW38488   0.598   3.794   2.008 -0.3894 -0.0468 -0.1057
 8952SOL    HW138489   0.531   3.726   2.008  1.0548 -1.4844 -3.8046
 8952SOL    HW238490   0.553   3.859   2.061 -2.3252 -1.4311 -0.0313
 8953SOL     OW38491   0.593   4.157  11.362 -0.0089 -0.4254  0.2313
 8953SOL    HW138492   0.684   4.153  11.390  0.1187  1.3873  0.0813
 8953SOL    HW238493   0.547   4.198  11.435  1.4391 -3.0359  2.5892
 8954SOL     OW38494   2.567   1.000  16.967  0.1010 -0.1579 -0.2887
 8954SOL    HW138495   2.574   0.979  17.060 -1.5645  0.1779 -0.0935
 8954SOL    HW238496   2.590   1.093  16.963 -1.0290  0.1852  1.2658
 8955SOL     OW38497   0.166   1.144   1.090 -0.2056 -0.1236  0.6077
 8955SOL    HW138498   0.231   1.088   1.131  0.5908 -0.0535 -0.5504
 8955SOL    HW238499   0.176   1.121   0.997 -1.6497 -1.5973  0.8162
 8956SOL     OW38500   3.646   3.941   4.460  0.5748  0.1696 -0.0686
 8956SOL    HW138501   3.598   3.877   4.512 -2.2304 -0.0599 -2.9520
 8956SOL    HW238502   3.729   3.899   4.434  0.8274  1.5680 -1.5293
 8957SOL     OW38503   3.110   3.510   2.928  0.2694 -0.6963 -0.0054
 8957SOL    HW138504   3.144   3.569   2.861 -0.6960 -0.0410  0.0835
 8957SOL    HW238505   3.193   3.476   2.962 -0.6545 -2.0135  0.9495
 8958SOL     OW38506   2.921   0.800   1.724  0.1908  0.8137 -0.0115
 8958SOL    HW138507   2.944   0.795   1.817  0.1504 -1.4810 -0.1368
 8958SOL    HW238508   3.011   0.807   1.693 -0.0714 -1.5301 -1.3014
 8959SOL     OW38509   1.483   2.799  16.267  0.2575  0.0400 -0.1298
 8959SOL    HW138510   1.413   2.807  16.203  0.0510  0.1007  0.1001
 8959SOL    HW238511   1.435   2.755  16.337  0.7374  0.3451  0.3934
 8960SOL     OW38512   1.839   0.943   2.833  0.1320 -0.7565 -0.1239
 8960SOL    HW138513   1.918   0.985   2.801 -0.6824  0.8276 -0.0507
 8960SOL    HW238514   1.763   0.978   2.786  0.0310  0.0274  0.6259
 8961SOL     OW38515   1.616   0.247  16.185  0.2683  0.6020 -0.1398
 8961SOL    HW138516   1.540   0.201  16.149  0.1454  0.7852 -0.1183
 8961SOL    HW238517   1.571   0.311  16.241 -1.0608 -0.3905 -0.0622
 8962SOL     OW38518   2.465   4.700   7.596  1.1703 -0.2305  0.0685
 8962SOL    HW138519   2.557   4.720   7.614  0.5722  1.9810  0.7248
 8962SOL    HW238520   2.438   4.657   7.677 -0.1596  1.7765  0.6788
 8963SOL     OW38521   4.525   4.188   8.028 -0.1536  0.1368 -0.1271
 8963SOL    HW138522   4.618   4.201   8.046 -0.7782  2.9861  1.0193
 8963SOL    HW238523   4.523   4.092   8.019 -0.5021  0.3139 -2.0123
 8964SOL     OW38524   0.804   2.475  11.210  0.4301 -0.0706 -0.3469
 8964SOL    HW138525   0.768   2.405  11.265  2.2953 -0.1135  0.8003
 8964SOL    HW238526   0.734   2.540  11.219 -0.3302 -0.7381 -1.3712
 8965SOL     OW38527   0.242   1.580   0.157  0.1845 -0.1432 -0.0382
 8965SOL    HW138528   0.247   1.673   0.134 -2.4858 -0.8445 -3.4206
 8965SOL    HW238529   0.332   1.548   0.159  0.4373  0.4383 -1.7129
 8966SOL     OW38530   1.852   2.561   2.445 -0.4578 -0.7026  0.2204
 8966SOL    HW138531   1.838   2.601   2.360 -2.3321 -1.0227  0.3693
 8966SOL    HW238532   1.759   2.537   2.455 -0.6449  0.5704  1.4795
 8967SOL     OW38533   4.433   4.308   8.359  1.2786  0.3411 -0.0891
 8967SOL    HW138534   4.401   4.294   8.270 -1.3966 -0.5807  1.0047
 8967SOL    HW238535   4.460   4.219   8.381 -1.0066 -0.6092 -1.0505
 8968SOL     OW38536   4.504   2.791   6.671 -0.5805  0.0124 -0.1743
 8968SOL    HW138537   4.457   2.711   6.645  0.9967 -1.1979  0.6882
 8968SOL    HW238538   4.520   2.764   6.762 -0.9141  0.7896  0.1140
 8969SOL     OW38539   3.415   0.249   3.131  0.7543 -0.3126  0.3306
 8969SOL    HW138540   3.413   0.285   3.042  0.6609 -2.4742 -0.5263
 8969SOL    HW238541   3.363   0.322   3.165 -0.6102 -1.2563  0.2548
 8970SOL     OW38542   3.701   1.589  11.807  0.0523  0.2527 -0.0224
 8970SOL    HW138543   3.709   1.495  11.794  2.0785  0.4942 -0.5852
 8970SOL    HW238544   3.747   1.612  11.888  0.3593 -1.1780  0.2062
 8971SOL     OW38545   2.818   4.507   9.544 -0.1032  0.1889  0.1836
 8971SOL    HW138546   2.793   4.512   9.452 -1.2482 -1.3626  0.4015
 8971SOL    HW238547   2.873   4.428   9.546 -0.8981 -0.3265  1.6242
 8972SOL     OW38548   1.229   4.000   1.317  0.2186  0.1427  0.2438
 8972SOL    HW138549   1.196   3.917   1.352  2.3834 -0.9495 -0.3047
 8972SOL    HW238550   1.186   4.003   1.232 -3.0632  1.9006  1.9449
 8973SOL     OW38551   4.406   0.312   8.955 -0.4123  0.1315  0.4923
 8973SOL    HW138552   4.422   0.229   8.910  1.5594  1.5337 -1.3660
 8973SOL    HW238553   4.496   0.341   8.967 -0.0090 -0.7274 -0.4386
 8974SOL     OW38554   1.987   3.046  10.171  0.2077 -0.3576  0.2067
 8974SOL    HW138555   2.067   3.085  10.206  0.3020 -0.4075  0.0457
 8974SOL    HW238556   1.930   3.074  10.242  1.5889 -0.8234  1.4903
 8975SOL     OW38557   3.450   1.375   7.264 -0.6367  0.4519 -0.0437
 8975SOL    HW138558   3.406   1.406   7.343  1.1099  1.6199  0.4734
 8975SOL    HW238559   3.529   1.340   7.306  0.0175 -2.0551 -3.3950
 8976SOL     OW38560   1.805   1.941   7.648 -0.0910  0.3176  0.3790
 8976SOL    HW138561   1.719   1.981   7.636  0.6441  2.1679  1.1977
 8976SOL    HW238562   1.851   2.009   7.698  0.8223  0.1275 -0.2046
 8977SOL     OW38563   4.391   3.522   8.454  0.1045  0.3928 -0.6710
 8977SOL    HW138564   4.472   3.521   8.505  0.3628 -1.3650 -1.1148
 8977SOL    HW238565   4.348   3.446   8.493  0.2485  0.5684 -0.1733
 8978SOL     OW38566   1.195   1.828  15.278  0.6587 -0.3823  0.2349
 8978SOL    HW138567   1.202   1.864  15.190 -0.7317  1.0916  0.7244
 8978SOL    HW238568   1.195   1.897  15.344 -1.2451 -2.4185  2.3928
 8979SOL     OW38569   3.315   1.626   2.299  0.5177  0.2571  0.2249
 8979SOL    HW138570   3.353   1.592   2.218 -0.2141 -1.3263  0.5495
 8979SOL    HW238571   3.390   1.674   2.332  0.4888  2.2177 -2.6420
 8980SOL     OW38572   3.348   1.758   8.903  0.0176  0.4748 -0.3161
 8980SOL    HW138573   3.346   1.771   8.808 -0.3247 -0.5381 -0.4444
 8980SOL    HW238574   3.263   1.788   8.934 -0.8414  0.0049 -2.2214
 8981SOL     OW38575   0.467   3.274   6.462  0.5837 -0.7224  0.1242
 8981SOL    HW138576   0.432   3.337   6.525  1.4154 -0.7526  0.6140
 8981SOL    HW238577   0.497   3.327   6.388  1.3988  1.4474  2.0136
 8982SOL     OW38578   2.220   0.875   7.877  0.1988  0.2940 -0.0619
 8982SOL    HW138579   2.300   0.822   7.870  1.7103  2.1197  3.1291
 8982SOL    HW238580   2.182   0.847   7.960 -0.3690  0.5301 -0.2465
 8983SOL     OW38581   2.421   2.752   5.887  0.1472 -0.5782 -0.9265
 8983SOL    HW138582   2.343   2.807   5.875 -0.1541 -0.6053  0.9121
 8983SOL    HW238583   2.420   2.712   5.800 -0.2607  0.9417 -1.6285
 8984SOL     OW38584   1.316   4.236   1.690  0.1412  0.3827  0.0741
 8984SOL    HW138585   1.277   4.225   1.603  0.5438  0.5949 -0.1366
 8984SOL    HW238586   1.245   4.274   1.741  0.0106 -1.5186  1.2868
 8985SOL     OW38587   3.301   1.644   4.481  0.3737 -0.3189 -0.3897
 8985SOL    HW138588   3.264   1.704   4.546 -2.4740 -2.3157 -0.1437
 8985SOL    HW238589   3.327   1.697   4.406  2.1927  0.2134  0.6023
 8986SOL     OW38590   3.284   1.723   6.827  0.9493  0.0521 -0.5359
 8986SOL    HW138591   3.253   1.670   6.901  1.2362 -1.4931 -1.5217
 8986SOL    HW238592   3.354   1.776   6.867  0.6983 -0.9571  1.2240
 8987SOL     OW38593   3.277   2.650   8.944 -0.4148  0.2455  0.4300
 8987SOL    HW138594   3.262   2.560   8.917 -0.5572  0.1476  0.8342
 8987SOL    HW238595   3.365   2.665   8.909 -0.1850 -1.7561  0.1244
 8988SOL     OW38596   3.512   1.883  15.094 -0.3256 -0.5221 -0.6532
 8988SOL    HW138597   3.534   1.904  15.184  0.7723  1.0067 -1.2726
 8988SOL    HW238598   3.563   1.952  15.050 -1.5052  1.3882  0.9582
 8989SOL     OW38599   1.276   3.930  11.573 -0.0152 -0.4204 -0.0743
 8989SOL    HW138600   1.360   3.923  11.619 -0.9523  0.0560  1.6861
 8989SOL    HW238601   1.276   3.852  11.516  0.1126 -0.3422 -0.1821
 8990SOL     OW38602   2.382   0.960  11.919 -0.3251 -0.4249 -0.2874
 8990SOL    HW138603   2.412   0.870  11.906 -2.1450 -1.0832  0.0144
 8990SOL    HW238604   2.289   0.944  11.903 -0.8893  1.8304  0.6278
 8991SOL     OW38605   0.237   4.695   1.653 -0.6471  0.6784 -0.2726
 8991SOL    HW138606   0.199   4.650   1.578 -1.0625  2.7470 -1.3265
 8991SOL    HW238607   0.166   4.689   1.717  1.1733 -0.5048  1.5923
 8992SOL     OW38608   2.220   3.668   3.625  0.5244 -0.0067 -0.3257
 8992SOL    HW138609   2.240   3.757   3.654 -0.5885  0.0049  0.4051
 8992SOL    HW238610   2.210   3.680   3.530  0.7231  0.1004 -0.3329
 8993SOL     OW38611   0.817   0.100   7.890 -0.4410  0.0811  0.1116
 8993SOL    HW138612   0.823   0.070   7.799 -0.3313  1.9405 -0.4774
 8993SOL    HW238613   0.891   0.057   7.932  0.7206  2.2159  0.2303
 8994SOL     OW38614   3.299   4.508  17.674 -0.2545 -0.2533  0.6680
 8994SOL    HW138615   3.243   4.542  17.604  2.4313  0.5176 -1.1058
 8994SOL    HW238616   3.377   4.563  17.661  0.4493 -1.3336  0.3301
 8995SOL     OW38617   3.078   2.050   0.614 -0.2267 -0.0351 -0.0546
 8995SOL    HW138618   3.077   2.143   0.591  0.6237 -0.7022 -2.7728
 8995SOL    HW238619   2.995   2.056   0.662 -1.0682  1.8465 -1.7536
 8996SOL     OW38620   2.147   3.240   7.719  0.2426 -0.5086  0.2989
 8996SOL    HW138621   2.083   3.169   7.726 -0.0303 -0.4979 -1.9210
 8996SOL    HW238622   2.132   3.289   7.799 -2.0496  1.8646 -1.5954
 8997SOL     OW38623   1.562   1.249  17.437  0.5405 -0.0515  0.1674
 8997SOL    HW138624   1.496   1.227  17.503  0.5504 -0.7167 -0.0413
 8997SOL    HW238625   1.604   1.328  17.471  1.7081 -0.0422 -1.3008
 8998SOL     OW38626   2.801   4.396   5.832 -0.1750 -0.0744 -0.0571
 8998SOL    HW138627   2.718   4.376   5.788 -1.3534  0.7473  1.7885
 8998SOL    HW238628   2.799   4.373   5.925  1.1558 -1.1031 -0.2827
 8999SOL     OW38629   0.815   0.575   9.337 -0.5508  0.2644 -0.4958
 8999SOL    HW138630   0.881   0.578   9.267  0.9052 -1.3088  0.7968
 8999SOL    HW238631   0.861   0.630   9.399 -3.9199  1.9891  0.4510
 9000SOL     OW38632   2.980   1.287   9.388  0.3515 -0.2142 -0.2043
 9000SOL    HW138633   3.069   1.322   9.380  0.6163 -0.8926 -0.2571
 9000SOL    HW238634   2.991   1.209   9.442 -0.6201  0.2793  0.7061
 9001SOL     OW38635   0.073   3.760   0.747  0.4040 -0.2845 -0.7553
 9001SOL    HW138636   0.110   3.774   0.660 -1.1454 -0.5555 -1.4620
 9001SOL    HW238637   0.007   3.829   0.743  0.4886 -0.2082 -0.8185
 9002SOL     OW38638   3.824   1.004   9.841  0.2286  0.1130 -0.1391
 9002SOL    HW138639   3.916   0.991   9.817 -0.2181 -0.4977 -1.4910
 9002SOL    HW238640   3.807   1.088   9.798 -1.3142  0.0910  0.4363
 9003SOL     OW38641   4.258   1.268  17.520 -0.0902 -0.2365  0.3763
 9003SOL    HW138642   4.284   1.301  17.606 -0.9025  0.3033  0.4149
 9003SOL    HW238643   4.338   1.278  17.468  0.0460 -0.8726  0.4645
 9004SOL     OW38644   0.577   2.563   8.388 -0.3805  0.4883  0.2644
 9004SOL    HW138645   0.533   2.585   8.470 -1.2446  0.6718 -0.2513
 9004SOL    HW238646   0.605   2.472   8.398  0.6571  0.9488  1.5872
 9005SOL     OW38647   3.332   2.815   6.347 -0.0503  0.0490 -0.0239
 9005SOL    HW138648   3.297   2.788   6.431 -1.9434  1.5811 -0.3235
 9005SOL    HW238649   3.256   2.795   6.292 -0.5565  2.5053 -0.2111
 9006SOL     OW38650   0.704   4.710   3.362 -0.0954 -0.6940  0.1388
 9006SOL    HW138651   0.712   0.048   3.421  2.5087 -1.9003  1.3162
 9006SOL    HW238652   0.612   4.690   3.375 -0.4124 -0.1522 -1.3439
 9007SOL     OW38653   0.301   2.228   8.347 -0.1928  0.4618 -0.6527
 9007SOL    HW138654   0.318   2.316   8.314  0.1441  0.8393  0.5054
 9007SOL    HW238655   0.216   2.240   8.391 -0.8234 -0.8772 -1.5073
 9008SOL     OW38656   1.522   3.965   6.650 -0.1318  0.0592  0.0544
 9008SOL    HW138657   1.552   3.958   6.560  0.0284  1.9853 -0.0372
 9008SOL    HW238658   1.551   3.878   6.675  1.4653  1.1933  2.1416
 9009SOL     OW38659   3.391   2.035   8.082 -0.5031 -1.1160  0.3628
 9009SOL    HW138660   3.424   2.039   7.992  0.3480 -0.5385  0.7072
 9009SOL    HW238661   3.433   2.114   8.117 -1.6660  0.0661 -0.8661
 9010SOL     OW38662   1.467   0.214  13.528  0.1703  0.4476  0.0509
 9010SOL    HW138663   1.413   0.293  13.525 -1.4758 -0.7066 -1.5507
 9010SOL    HW238664   1.507   0.204  13.441 -1.4349  1.3207 -0.7956
 9011SOL     OW38665   2.497   1.976   6.879 -0.5178  0.0565 -0.4095
 9011SOL    HW138666   2.404   1.957   6.896 -0.4304 -0.1420 -0.1440
 9011SOL    HW238667   2.535   1.893   6.907  2.2192  0.5170 -2.7708
 9012SOL     OW38668   2.391   2.503   6.489  0.1560 -0.3359 -0.1358
 9012SOL    HW138669   2.413   2.443   6.418  0.4737 -0.4417  0.0521
 9012SOL    HW238670   2.454   2.574   6.480 -0.2028 -0.0003  0.0133
 9013SOL     OW38671   4.531   0.470  13.962  0.3211  0.7083 -0.0837
 9013SOL    HW138672   4.447   0.509  13.988 -0.3531 -2.7097  3.0022
 9013SOL    HW238673   4.591   0.538  13.992  0.1564  0.7503  0.1505
 9014SOL     OW38674   3.124   1.426   2.410 -0.3074 -0.1232  0.2709
 9014SOL    HW138675   3.176   1.495   2.369  0.3338 -1.9484 -1.9346
 9014SOL    HW238676   3.120   1.459   2.500 -1.8497 -2.0202  0.9012
 9015SOL     OW38677   3.128   3.766  16.790  0.3458  0.1703  0.5463
 9015SOL    HW138678   3.116   3.741  16.698  0.4946  0.3697  0.4740
 9015SOL    HW238679   3.212   3.722  16.805  1.1578  1.9158  1.0300
 9016SOL     OW38680   3.809   4.013   3.794 -0.0767 -0.1304  0.5146
 9016SOL    HW138681   3.854   4.016   3.879 -0.3899  1.6627  0.6212
 9016SOL    HW238682   3.779   3.922   3.793  0.6905 -0.3815  0.3930
 9017SOL     OW38683   0.163   2.795   2.199 -0.4812  0.4794 -0.1510
 9017SOL    HW138684   0.101   2.866   2.183 -1.3201  0.1001  1.4012
 9017SOL    HW238685   0.117   2.718   2.233  0.7562  0.8765  2.3838
 9018SOL     OW38686   3.979   1.138   3.635  0.3736 -0.7149  0.2369
 9018SOL    HW138687   4.008   1.073   3.699  1.2230 -0.0610  0.5196
 9018SOL    HW238688   3.904   1.094   3.595 -0.3130 -1.9390  2.8638
 9019SOL     OW38689   4.658   4.059   3.851 -0.1175  0.2523  0.3069
 9019SOL    HW138690   4.727   4.124   3.863  0.6050 -0.6379  0.9108
 9019SOL    HW238691   4.669   4.031   3.760 -0.1141 -1.5669  0.8834
 9020SOL     OW38692   4.394   3.924   5.066 -0.4933  0.0054  0.3982
 9020SOL    HW138693   4.457   3.878   5.121 -0.2864  0.5950  0.6467
 9020SOL    HW238694   4.350   3.990   5.119  2.9570  1.1602  1.7984
 9021SOL     OW38695   4.181   3.266   2.380 -0.5750  0.1566 -0.6575
 9021SOL    HW138696   4.275   3.260   2.396 -0.4410 -0.2645 -1.5990
 9021SOL    HW238697   4.155   3.201   2.445  0.6991  0.8959  0.5780
 9022SOL     OW38698   3.164   1.789   3.890 -0.1101 -0.4163 -0.1845
 9022SOL    HW138699   3.100   1.737   3.939  0.9661 -1.3729  0.2219
 9022SOL    HW238700   3.228   1.718   3.878  2.0959  1.7719 -1.2722
 9023SOL     OW38701   1.485   1.075   2.828  0.0360  0.1138 -0.3107
 9023SOL    HW138702   1.497   1.116   2.743  1.9419  1.1265  0.4560
 9023SOL    HW238703   1.551   1.124   2.877  0.0118 -2.1396  1.9390
 9024SOL     OW38704   4.692   2.479  11.941  0.0791 -0.3548 -0.1239
 9024SOL    HW138705   0.046   2.506  11.957 -0.4694  0.7279  1.1585
 9024SOL    HW238706   4.641   2.558  11.960 -0.3849 -0.8965  0.9132
 9025SOL     OW38707   1.540   3.071   3.310  0.5845 -0.3599 -0.2678
 9025SOL    HW138708   1.625   3.080   3.354  2.2489 -1.2615 -3.2605
 9025SOL    HW238709   1.551   3.117   3.227  3.7999 -0.6917 -0.0648
 9026SOL     OW38710   1.225   3.724   5.625 -0.3937  0.1634  0.0904
 9026SOL    HW138711   1.176   3.806   5.633 -1.2695 -0.3525  0.0268
 9026SOL    HW238712   1.170   3.663   5.675 -3.5962  1.6546 -1.6210
 9027SOL     OW38713   4.245   1.680   6.344 -0.2517 -0.6352  0.3095
 9027SOL    HW138714   4.248   1.594   6.387  0.7971 -0.4304  0.6467
 9027SOL    HW238715   4.150   1.686   6.353 -0.6132 -2.0300 -2.5940
 9028SOL     OW38716   4.198   0.845   8.922  0.6472 -0.5211  0.2340
 9028SOL    HW138717   4.224   0.784   8.854 -1.7024 -1.4352  0.1754
 9028SOL    HW238718   4.262   0.817   8.987  0.6930 -2.6799 -0.7574
 9029SOL     OW38719   0.267   0.206  17.364  0.3900  0.0763  0.0565
 9029SOL    HW138720   0.260   0.195  17.459 -1.6184 -2.1878 -0.3358
 9029SOL    HW238721   0.349   0.158  17.351  0.1445 -0.4051  0.2732
 9030SOL     OW38722   2.887   2.140   6.459 -0.2338 -0.3459 -0.3676
 9030SOL    HW138723   2.833   2.108   6.531  1.0890  0.6565  1.0901
 9030SOL    HW238724   2.886   2.060   6.406  0.0339 -0.3261 -0.4034
 9031SOL     OW38725   2.026   3.526   4.487  0.1169 -0.1477  0.0501
 9031SOL    HW138726   2.006   3.612   4.451  1.0099 -0.0638 -0.2322
 9031SOL    HW238727   1.939   3.496   4.514 -0.1908 -0.8441 -1.7585
 9032SOL     OW38728   0.922   0.787   5.184 -0.2066 -0.0542 -0.1765
 9032SOL    HW138729   0.994   0.745   5.137 -1.9349 -2.9067 -0.3073
 9032SOL    HW238730   0.887   0.845   5.116 -2.3241  0.4582  1.3307
 9033SOL     OW38731   2.577   0.998   1.228  0.0746  0.0529 -0.0657
 9033SOL    HW138732   2.493   0.990   1.183 -0.0624  0.1309  0.1797
 9033SOL    HW238733   2.578   0.916   1.277  0.8372  0.7570  1.1111
 9034SOL     OW38734   3.465   2.198   5.590  0.2488 -0.3571 -0.1815
 9034SOL    HW138735   3.513   2.192   5.672  0.1428  0.7140 -0.0399
 9034SOL    HW238736   3.523   2.146   5.534  1.1557 -0.4141  0.8134
 9035SOL     OW38737   3.586   0.113  12.978  0.3060 -0.9257  0.3834
 9035SOL    HW138738   3.642   0.190  12.970  0.3533 -0.7645  2.4346
 9035SOL    HW238739   3.649   0.045  12.953  1.7111  0.0035  1.4708
 9036SOL     OW38740   3.806   2.999  15.202 -0.0595 -0.0887  0.1892
 9036SOL    HW138741   3.882   2.976  15.256  1.9068  4.0459 -0.8453
 9036SOL    HW238742   3.739   2.975  15.266  2.0611  0.5148  2.6331
 9037SOL     OW38743   0.062   2.333   6.513 -0.4762  0.4533  0.1133
 9037SOL    HW138744   0.027   2.270   6.450 -2.5699  0.2747  1.4446
 9037SOL    HW238745   0.143   2.349   6.464 -1.6807  2.2043 -1.3233
 9038SOL     OW38746   2.542   0.600  17.243 -0.2796 -0.8093 -0.2297
 9038SOL    HW138747   2.514   0.539  17.312 -0.5339 -1.8428 -1.2526
 9038SOL    HW238748   2.460   0.640  17.214  0.1490  0.6379  0.5759
 9039SOL     OW38749   2.671   2.304   3.659  0.1091 -0.3192  0.1066
 9039SOL    HW138750   2.615   2.240   3.703  0.2460 -0.3190  0.2830
 9039SOL    HW238751   2.757   2.264   3.664 -0.7886 -2.2102  0.7128
 9040SOL     OW38752   4.446   1.737   8.212 -0.0993  0.5216  0.6637
 9040SOL    HW138753   4.382   1.668   8.198  0.0121  0.2636  1.4411
 9040SOL    HW238754   4.389   1.812   8.191 -0.9843  0.2852  2.1919
 9041SOL     OW38755   4.240   0.856   7.946  0.1867 -0.1245 -0.0113
 9041SOL    HW138756   4.229   0.768   7.908 -1.5607  1.2006 -2.5838
 9041SOL    HW238757   4.158   0.865   7.995  0.1271  0.5712 -0.2375
 9042SOL     OW38758   2.279   3.252   2.093 -1.1761  0.1988  0.0184
 9042SOL    HW138759   2.293   3.323   2.030  0.6416 -0.0079  0.1910
 9042SOL    HW238760   2.196   3.275   2.135  1.1110  1.5796  3.7836
 9043SOL     OW38761   2.581   2.617  17.644  0.3959 -0.2888  0.1393
 9043SOL    HW138762   2.671   2.642  17.664 -0.3685  0.7369  2.2449
 9043SOL    HW238763   2.540   2.703  17.636  0.6203 -0.3481 -1.6406
 9044SOL     OW38764   2.134   4.309   2.005 -0.4805  0.1631  0.1088
 9044SOL    HW138765   2.154   4.217   1.989 -0.3897  0.1671  0.2029
 9044SOL    HW238766   2.058   4.311   2.063  0.1986  0.9379  0.9598
 9045SOL     OW38767   2.176   3.280   5.501  0.4296  0.1081 -0.0821
 9045SOL    HW138768   2.199   3.192   5.471 -0.1217 -0.5180  1.2913
 9045SOL    HW238769   2.215   3.331   5.430  2.1849 -0.7528  0.2522
 9046SOL     OW38770   3.955   4.084  12.533 -0.3851 -0.4746 -0.2670
 9046SOL    HW138771   3.973   4.177  12.547 -0.7859 -0.6605  1.4376
 9046SOL    HW238772   3.872   4.091  12.487 -0.6408 -0.6944  0.1643
 9047SOL     OW38773   4.532   0.926   9.633  0.7571  0.2107 -0.0390
 9047SOL    HW138774   4.569   1.010   9.661  0.2721 -0.1300  1.6019
 9047SOL    HW238775   4.552   0.935   9.540 -3.0887 -0.1392 -0.8983
 9048SOL     OW38776   0.678   0.596  14.178 -0.5622 -0.2512 -0.3271
 9048SOL    HW138777   0.601   0.599  14.235  1.3662  1.9549  2.1257
 9048SOL    HW238778   0.749   0.635  14.228 -1.4661 -1.7507  2.1185
 9049SOL     OW38779   3.427   3.815   4.679  0.2912  0.5133 -0.1601
 9049SOL    HW138780   3.397   3.838   4.591 -0.0789  0.5523 -0.0239
 9049SOL    HW238781   3.407   3.722   4.687 -0.5801  0.4289 -3.4725
 9050SOL     OW38782   3.371   0.812   1.791  0.3747 -0.4082  0.2231
 9050SOL    HW138783   3.322   0.884   1.832  1.4492  1.4007 -1.6783
 9050SOL    HW238784   3.305   0.795   1.724  2.3182 -1.1117 -1.4949
 9051SOL     OW38785   4.571   2.402   7.954 -0.3544  0.7293  0.1220
 9051SOL    HW138786   4.660   2.402   7.990 -1.1566 -1.7877  2.0788
 9051SOL    HW238787   4.591   2.408   7.861 -0.0412 -0.0429  0.1457
 9052SOL     OW38788   1.121   4.368   4.672 -0.5112  0.5493 -0.0063
 9052SOL    HW138789   1.163   4.312   4.607  0.0566 -0.4038  1.1629
 9052SOL    HW238790   1.036   4.323   4.680 -1.0015  1.3351 -0.8355
 9053SOL     OW38791   0.547   0.732   6.073  0.1151 -0.1997  0.1883
 9053SOL    HW138792   0.553   0.820   6.109 -0.9164  0.2819 -0.8183
 9053SOL    HW238793   0.500   0.745   5.991  0.8252  1.8277  0.1228
 9054SOL     OW38794   0.355   3.721   5.158  0.1922  0.6514  0.2182
 9054SOL    HW138795   0.395   3.704   5.072 -0.0696 -0.5956  0.3425
 9054SOL    HW238796   0.431   3.702   5.213 -0.4854  0.6896  1.1493
 9055SOL     OW38797   1.378   0.394   1.826  0.3679 -0.5110 -0.8073
 9055SOL    HW138798   1.447   0.422   1.885 -0.9151  0.3474  0.2830
 9055SOL    HW238799   1.327   0.349   1.893 -0.9308  1.5036 -0.4366
 9056SOL     OW38800   1.989   3.046   5.744 -0.1824 -0.2376  0.3365
 9056SOL    HW138801   1.968   3.136   5.718  0.4839 -0.3271 -0.5018
 9056SOL    HW238802   2.065   3.026   5.690 -0.0246  0.0091  0.4684
 9057SOL     OW38803   4.611   1.710  11.295 -0.4182  0.0415  0.0926
 9057SOL    HW138804   4.523   1.681  11.273 -0.0494 -1.5576  0.7393
 9057SOL    HW238805   4.603   1.677  11.384  0.3333  0.5600  0.3514
 9058SOL     OW38806   0.114   0.165   5.520 -0.0545  0.0409  0.2815
 9058SOL    HW138807   0.112   0.100   5.450 -3.1823  0.8125 -0.3465
 9058SOL    HW238808   0.105   0.248   5.473  3.4568  0.5204  0.4127
 9059SOL     OW38809   2.248   4.635   5.478  0.4755  0.1157 -0.4116
 9059SOL    HW138810   2.276   4.725   5.496  0.9670 -0.2685  0.7256
 9059SOL    HW238811   2.154   4.640   5.459  0.3183  2.0125  0.8329
 9060SOL     OW38812   2.998   4.283   9.435  0.1548  0.3481  0.2937
 9060SOL    HW138813   3.048   4.224   9.379  1.6948  1.5397  0.4015
 9060SOL    HW238814   3.066   4.345   9.461  1.1343 -0.4832 -0.2892
 9061SOL     OW38815   4.008   4.202   5.171 -0.1828  0.0781  0.2268
 9061SOL    HW138816   3.959   4.120   5.170 -0.1284  0.0543 -1.0864
 9061SOL    HW238817   3.938   4.261   5.199 -1.6602  0.2833 -3.9334
 9062SOL     OW38818   2.628   3.452   2.640  0.2116 -0.0622 -0.2772
 9062SOL    HW138819   2.548   3.466   2.589  0.2320 -0.3887 -0.3989
 9062SOL    HW238820   2.627   3.357   2.628  2.6484  0.2598 -3.1104
 9063SOL     OW38821   1.561   4.507   4.665  0.0046  0.4035 -0.7058
 9063SOL    HW138822   1.498   4.477   4.731  0.6683 -1.4038 -0.8994
 9063SOL    HW238823   1.637   4.450   4.674 -0.8537 -0.4043  1.3953
 9064SOL     OW38824   2.802   0.517   5.077  0.3254 -0.8581 -0.1747
 9064SOL    HW138825   2.827   0.425   5.083 -0.9500 -1.2461 -0.7477
 9064SOL    HW238826   2.803   0.545   5.169  1.7363  0.7944 -0.7029
 9065SOL     OW38827   0.321   3.213   8.106  0.1246 -0.3860  0.1405
 9065SOL    HW138828   0.265   3.287   8.129 -0.7905 -1.5528  1.5857
 9065SOL    HW238829   0.326   3.171   8.191  1.0382 -0.9868 -0.2047
 9066SOL     OW38830   0.719   4.434   3.396 -0.1853  0.7262 -0.1692
 9066SOL    HW138831   0.713   4.526   3.419 -0.4435  0.1899  1.9738
 9066SOL    HW238832   0.812   4.420   3.417 -0.0645  0.9151 -0.5815
 9067SOL     OW38833   1.322   3.305   0.635  0.1143  0.1417  0.1150
 9067SOL    HW138834   1.313   3.373   0.568 -2.0968  0.8875  1.1930
 9067SOL    HW238835   1.316   3.364   0.710 -0.1661 -1.6924  1.5271
 9068SOL     OW38836   2.299   2.591   6.156  0.1252  0.4684  0.3583
 9068SOL    HW138837   2.361   2.626   6.093  1.6338  0.0287  1.5951
 9068SOL    HW238838   2.338   2.505   6.169 -0.9611 -0.1202 -0.2167
 9069SOL     OW38839   2.698   3.323   0.114  0.4980  0.3742 -0.0281
 9069SOL    HW138840   2.759   3.365   0.175  1.8982 -0.7346 -0.6544
 9069SOL    HW238841   2.675   3.394   0.055  0.3294 -0.0998 -0.5274
 9070SOL     OW38842   3.066   3.083   8.029 -0.2598 -0.1778 -0.5442
 9070SOL    HW138843   3.084   3.060   8.120 -1.3977  0.1456 -0.2332
 9070SOL    HW238844   3.129   3.155   8.023 -1.2577  0.6679 -0.7270
 9071SOL     OW38845   1.648   1.439   1.743 -0.4434 -0.7141  0.1406
 9071SOL    HW138846   1.592   1.423   1.819  0.3294  1.5054  1.1766
 9071SOL    HW238847   1.594   1.485   1.680  0.9526 -2.0614 -2.0316
 9072SOL     OW38848   1.289   1.669   6.608  0.2316 -0.6932 -0.0520
 9072SOL    HW138849   1.282   1.693   6.516  0.2497  2.9311  0.9015
 9072SOL    HW238850   1.383   1.688   6.618 -0.2560  0.7531  1.7317
 9073SOL     OW38851   3.461   2.979   5.198  0.3240  0.1371 -0.8950
 9073SOL    HW138852   3.388   2.964   5.138  0.0799 -0.0828 -0.5481
 9073SOL    HW238853   3.426   2.928   5.272 -0.6268  0.0439 -1.4109
 9074SOL     OW38854   4.449   2.710   2.560 -0.0295  0.5845 -0.4315
 9074SOL    HW138855   4.394   2.785   2.537 -1.3229  0.3966  2.0935
 9074SOL    HW238856   4.534   2.742   2.532  0.4444 -0.7564 -0.5425
 9075SOL     OW38857   3.155   0.472  10.675 -0.4430  0.7018 -0.2194
 9075SOL    HW138858   3.244   0.473  10.710 -1.6471  2.3471  2.7596
 9075SOL    HW238859   3.163   0.412  10.601 -2.3584  0.8802 -0.5784
 9076SOL     OW38860   3.709   0.819   9.226 -0.4142  0.3684  0.3790
 9076SOL    HW138861   3.800   0.822   9.254 -0.2345 -3.6816  0.2979
 9076SOL    HW238862   3.663   0.768   9.293 -0.3855  0.0372  0.1430
 9077SOL     OW38863   2.249   0.638   6.513 -0.2357 -0.1206  0.1098
 9077SOL    HW138864   2.239   0.575   6.441  0.6361 -0.0559 -0.0632
 9077SOL    HW238865   2.311   0.586   6.564  1.6794  1.6446 -0.4106
 9078SOL     OW38866   2.050   3.552   2.780 -0.1100 -0.1027  0.1094
 9078SOL    HW138867   2.115   3.484   2.762  1.1251  1.3307 -0.8089
 9078SOL    HW238868   1.973   3.504   2.811 -0.6667  0.2704 -0.7309
 9079SOL     OW38869   0.732   0.452   1.197 -0.3211  0.4201 -0.0869
 9079SOL    HW138870   0.725   0.537   1.240  0.6439 -0.7634  2.4143
 9079SOL    HW238871   0.824   0.454   1.171  0.1797 -0.2495  1.6611
 9080SOL     OW38872   1.293   2.822  15.539 -0.0187 -0.0920  0.2540
 9080SOL    HW138873   1.346   2.900  15.558 -1.5117  0.4597  2.1323
 9080SOL    HW238874   1.283   2.830  15.445 -2.0972 -0.7089  0.4299
 9081SOL     OW38875   1.652   0.611   2.306 -0.2850  0.0347 -0.4803
 9081SOL    HW138876   1.662   0.706   2.304 -2.8350  0.2571 -2.2041
 9081SOL    HW238877   1.558   0.609   2.289 -0.1063 -2.0462 -1.2509
 9082SOL     OW38878   1.579   0.716   4.835  0.1365 -0.4487 -0.3026
 9082SOL    HW138879   1.603   0.781   4.901  2.7515  0.3780 -2.1056
 9082SOL    HW238880   1.517   0.771   4.786  0.2642  4.0501  4.5269
 9083SOL     OW38881   2.533   4.580   1.683 -0.5483 -0.9971  0.1722
 9083SOL    HW138882   2.621   4.551   1.659  0.1595  0.6313  0.8693
 9083SOL    HW238883   2.479   4.501   1.669  1.0569 -1.2508 -4.4256
 9084SOL     OW38884   3.595   0.322   9.558  0.6611 -0.4942  0.0140
 9084SOL    HW138885   3.667   0.260   9.564 -0.5995 -2.0293 -0.4381
 9084SOL    HW238886   3.622   0.391   9.618  0.7415  0.5415 -1.2169
 9085SOL     OW38887   4.633   1.239   1.554 -0.1044 -0.0041 -0.4589
 9085SOL    HW138888   4.583   1.158   1.552 -0.9989  0.5378  0.2658
 9085SOL    HW238889   4.563   1.300   1.531  1.1771  1.3428 -0.7998
 9086SOL     OW38890   4.509   0.685  15.932  0.1389  0.2463  0.0584
 9086SOL    HW138891   4.492   0.774  15.960 -0.0303  0.3105 -0.2576
 9086SOL    HW238892   4.469   0.692  15.845 -0.4700 -0.9378  0.2343
 9087SOL     OW38893   3.740   4.685   7.733 -0.2764 -0.5511  0.2215
 9087SOL    HW138894   3.813   0.004   7.709 -0.7293 -0.3217 -0.6087
 9087SOL    HW238895   3.730   4.689   7.828  0.5447  1.6216  0.2026
 9088SOL     OW38896   2.133   1.365  10.936 -0.1542  0.3673 -0.0433
 9088SOL    HW138897   2.108   1.428  11.003 -0.6201 -2.3233  2.3268
 9088SOL    HW238898   2.136   1.424  10.861 -0.2900 -1.5287 -1.5415
 9089SOL     OW38899   2.377   3.887   6.863  0.2904 -0.0908 -0.1157
 9089SOL    HW138900   2.362   3.978   6.837 -1.0440  0.2925  2.0630
 9089SOL    HW238901   2.326   3.879   6.943 -0.7572 -2.4105 -1.0142
 9090SOL     OW38902   0.169   3.789   4.241 -0.0710  0.2931 -0.1111
 9090SOL    HW138903   0.171   3.875   4.282  1.0608  0.3308 -0.2583
 9090SOL    HW238904   0.260   3.761   4.230  0.3000  1.7738 -0.6964
 9091SOL     OW38905   0.859   1.209  10.361  0.3443  0.0998 -0.1576
 9091SOL    HW138906   0.926   1.276  10.346  1.5329 -1.4941 -1.8692
 9091SOL    HW238907   0.908   1.139  10.317 -1.5858 -1.2851 -0.1012
 9092SOL     OW38908   0.788   0.207   8.610  0.0720 -0.4838 -0.3079
 9092SOL    HW138909   0.717   0.201   8.674  2.5182 -1.6207  2.2910
 9092SOL    HW238910   0.756   0.263   8.539  3.0141  0.7322 -0.6367
 9093SOL     OW38911   4.510   3.324   1.962  0.6310 -0.2006 -0.0937
 9093SOL    HW138912   4.510   3.314   1.867 -0.4170  0.1664 -0.1308
 9093SOL    HW238913   4.467   3.408   1.978  0.9602  0.2125 -1.3538
 9094SOL     OW38914   3.963   0.918   8.581 -0.4680  0.0090  0.4755
 9094SOL    HW138915   3.875   0.912   8.544 -0.1157 -0.8320 -0.2378
 9094SOL    HW238916   3.961   1.010   8.608 -2.3454 -0.0889  0.6711
 9095SOL     OW38917   3.629   1.656   4.378  0.6652  0.2808  0.2996
 9095SOL    HW138918   3.561   1.721   4.396  1.9443  1.7947 -0.3257
 9095SOL    HW238919   3.615   1.633   4.286  1.9332  0.2332  0.1150
 9096SOL     OW38920   4.253   3.998   3.937  1.1640  0.3489  0.0908
 9096SOL    HW138921   4.295   3.912   3.934  0.9981  0.2076  2.1162
 9096SOL    HW238922   4.221   4.008   3.847 -1.1419  0.4002  0.9162
 9097SOL     OW38923   2.829   2.904   4.994  0.4602 -0.3015  0.4172
 9097SOL    HW138924   2.911   2.938   5.031  0.0979  1.6990 -0.6395
 9097SOL    HW238925   2.864   2.849   4.925 -0.2544 -0.3117  0.0591
 9098SOL     OW38926   1.827   1.326   0.639  0.4129  0.8537  0.6668
 9098SOL    HW138927   1.799   1.249   0.590 -0.6409  0.3035  2.1332
 9098SOL    HW238928   1.923   1.326   0.631  0.3976  1.2042  0.4743
 9099SOL     OW38929   1.165   0.486   1.287 -0.2988 -0.0388 -0.2869
 9099SOL    HW138930   1.121   0.487   1.372 -0.7123 -0.1212 -0.5004
 9099SOL    HW238931   1.093   0.507   1.227  0.7704  0.6009 -1.3555
 9100SOL     OW38932   0.156   3.986  15.592 -0.0737 -0.0804 -0.7468
 9100SOL    HW138933   0.144   4.066  15.643 -0.3196 -0.4529 -0.2155
 9100SOL    HW238934   0.251   3.999  15.584 -0.0594 -0.9867 -2.0765
 9101SOL     OW38935   2.970   3.871   5.173 -0.2622 -0.6452  0.0980
 9101SOL    HW138936   2.942   3.832   5.256 -0.4165  0.8002  0.7155
 9101SOL    HW238937   3.059   3.896   5.198 -0.5706  0.3301  0.2120
 9102SOL     OW38938   2.259   3.645   9.301 -0.0353  0.3360  0.0680
 9102SOL    HW138939   2.296   3.686   9.379 -2.6130  1.4033  0.7182
 9102SOL    HW238940   2.304   3.561   9.292 -0.3468  0.3268 -1.3667
 9103SOL     OW38941   3.586   0.594   6.086  0.3024  0.0017  0.2016
 9103SOL    HW138942   3.492   0.576   6.086  0.3266 -0.0667  1.9644
 9103SOL    HW238943   3.600   0.688   6.096  1.4303  0.1184 -2.3707
 9104SOL     OW38944   1.655   4.286   1.597 -0.2105 -0.0885 -0.3450
 9104SOL    HW138945   1.607   4.208   1.624 -1.8921  0.8995 -0.4484
 9104SOL    HW238946   1.580   4.333   1.560 -0.6673 -0.0946  0.5836
 9105SOL     OW38947   0.988   3.173   6.128  0.0527 -0.2281  0.3639
 9105SOL    HW138948   1.035   3.137   6.204 -0.5625 -1.6529  0.0708
 9105SOL    HW238949   0.979   3.095   6.073  1.0466 -0.7151  0.8839
 9106SOL     OW38950   1.274   1.997  17.271  0.4675  0.4350  0.3285
 9106SOL    HW138951   1.315   2.056  17.334 -0.4234  0.6888  0.6715
 9106SOL    HW238952   1.354   1.977  17.223 -0.9696 -2.0477 -1.0340
 9107SOL     OW38953   4.424   3.117   7.324  0.3311 -0.0459  0.5212
 9107SOL    HW138954   4.416   3.066   7.244  3.7473  0.8859 -0.4343
 9107SOL    HW238955   4.517   3.138   7.324 -0.1039  1.8758 -0.6501
 9108SOL     OW38956   0.250   4.427   8.067  0.1054  0.3028  0.0170
 9108SOL    HW138957   0.333   4.416   8.112 -0.0299 -0.1104  0.1654
 9108SOL    HW238958   0.278   4.436   7.976 -0.2418  0.7813 -0.0431
 9109SOL     OW38959   3.717   3.158   8.909 -0.0842  0.0146  0.1471
 9109SOL    HW138960   3.789   3.139   8.849 -1.1217  0.3360 -1.1981
 9109SOL    HW238961   3.756   3.224   8.966  0.1877 -0.5317  0.5973
 9110SOL     OW38962   3.324   2.628   7.614  0.0348  0.2876  0.3006
 9110SOL    HW138963   3.314   2.713   7.657 -0.6174 -0.1669  1.0605
 9110SOL    HW238964   3.264   2.575   7.666 -0.1026 -0.9533 -1.1530
 9111SOL     OW38965   4.001   1.058  17.258 -0.5610 -0.0951  0.4598
 9111SOL    HW138966   4.008   1.147  17.290 -0.3190 -0.6917  2.0469
 9111SOL    HW238967   3.910   1.035  17.277  0.2333 -3.3582  0.3865
 9112SOL     OW38968   3.785   3.330   8.585 -0.2835 -0.1238  0.5730
 9112SOL    HW138969   3.715   3.345   8.522 -0.2744 -0.7276  0.4177
 9112SOL    HW238970   3.807   3.238   8.570 -0.6442 -0.1257  0.0665
 9113SOL     OW38971   1.982   2.135   2.801 -0.1445  0.2070  1.0206
 9113SOL    HW138972   1.984   2.059   2.858 -1.6618 -1.4326 -1.1100
 9113SOL    HW238973   1.923   2.188   2.854  1.3555  0.7799  2.1020
 9114SOL     OW38974   0.927   1.078   7.579 -0.2870 -0.0056  0.4447
 9114SOL    HW138975   0.893   1.061   7.667 -0.9504  1.3853  0.4574
 9114SOL    HW238976   0.954   1.169   7.589  1.2066 -0.5592  1.4830
 9115SOL     OW38977   2.410   0.344   4.936 -0.2646 -1.3325 -0.2725
 9115SOL    HW138978   2.320   0.371   4.921  1.0557  2.3895 -1.4785
 9115SOL    HW238979   2.408   0.354   5.032 -0.9939 -1.4318 -0.2788
 9116SOL     OW38980   2.389   2.858  16.272  0.3591 -0.2577  0.2654
 9116SOL    HW138981   2.463   2.886  16.327 -1.1204  3.1466  0.5408
 9116SOL    HW238982   2.433   2.784  16.231 -2.8940 -0.4596 -2.8516
 9117SOL     OW38983   2.066   2.797   4.695  0.0715  0.2590  0.3130
 9117SOL    HW138984   1.990   2.805   4.753  0.7925  1.4155  1.1033
 9117SOL    HW238985   2.094   2.886   4.675 -0.1429  0.3710  0.5032
 9118SOL     OW38986   4.737   0.574   8.677 -0.2084 -0.7006  0.3906
 9118SOL    HW138987   0.012   0.545   8.586 -1.5295 -0.2323  0.0622
 9118SOL    HW238988   4.642   0.580   8.687 -0.3483 -0.8944 -0.7994
 9119SOL     OW38989   4.235   1.132   8.765 -0.2042 -0.0803  0.4956
 9119SOL    HW138990   4.264   1.083   8.842 -1.7811  0.5880  1.5223
 9119SOL    HW238991   4.296   1.094   8.702 -1.1929  0.3429 -0.7133
 9120SOL     OW38992   0.954   1.077   9.464 -0.2388  0.6091  0.4570
 9120SOL    HW138993   1.007   1.130   9.524  1.4035 -1.9569  1.2664
 9120SOL    HW238994   0.868   1.120   9.461 -1.3024 -1.4959  0.3401
 9121SOL     OW38995   2.559   3.742   3.604  0.0387 -0.0080 -0.5354
 9121SOL    HW138996   2.571   3.710   3.514  2.7983 -1.3456  0.3169
 9121SOL    HW238997   2.637   3.704   3.644 -1.2543  0.9634  2.8943
 9122SOL     OW38998   1.553   3.990   9.380 -0.0392  0.1973 -0.1138
 9122SOL    HW138999   1.506   4.030   9.453 -2.7498 -0.3387 -1.6079
 9122SOL    HW239000   1.514   3.902   9.377 -0.6016  0.4642 -0.4095
 9123SOL     OW39001   4.232   2.262   4.370  0.2732 -0.3412  0.0679
 9123SOL    HW139002   4.257   2.276   4.279 -0.6754 -1.0766 -0.3055
 9123SOL    HW239003   4.207   2.350   4.399 -0.6732 -0.0750 -1.5586
 9124SOL     OW39004   2.946   4.375   2.442  0.2798  0.0126  0.2819
 9124SOL    HW139005   3.016   4.413   2.497 -1.0052  1.4918  0.8967
 9124SOL    HW239006   2.900   4.316   2.501 -1.1886  1.9766  1.0931
 9125SOL     OW39007   3.328   3.938   8.578  0.8825  0.1167  0.1828
 9125SOL    HW139008   3.338   3.991   8.499  1.2886  0.9021  0.7602
 9125SOL    HW239009   3.306   3.853   8.539 -2.2697  1.0578 -0.1176
 9126SOL     OW39010   1.423   4.483   5.693  0.1086  0.0819 -0.3898
 9126SOL    HW139011   1.438   4.416   5.626 -0.8226 -2.8014  2.2642
 9126SOL    HW239012   1.341   4.520   5.661 -0.5236 -1.6213 -0.7361
 9127SOL     OW39013   1.136   2.272   8.306  0.6505  0.4200 -0.8312
 9127SOL    HW139014   1.059   2.327   8.321 -0.1417 -0.4568 -1.6488
 9127SOL    HW239015   1.112   2.199   8.364 -0.3871 -1.8731 -4.1464
 9128SOL     OW39016   1.797   3.485   4.062 -0.2763  0.1608  0.4533
 9128SOL    HW139017   1.765   3.408   4.014 -1.8677  0.6429  0.7341
 9128SOL    HW239018   1.716   3.536   4.074 -0.1168  0.8842 -1.4516
 9129SOL     OW39019   3.960   0.485  13.615 -0.8824 -0.7853 -0.1608
 9129SOL    HW139020   4.006   0.533  13.547 -0.4616 -0.6838  0.1983
 9129SOL    HW239021   3.871   0.479  13.579 -1.2126 -0.7106  0.6282
 9130SOL     OW39022   2.997   3.467   3.322  0.4958  0.1069 -0.2738
 9130SOL    HW139023   3.086   3.491   3.294  0.4207  1.3166  0.5103
 9130SOL    HW239024   2.958   3.490   3.238 -0.0883  1.0801  0.2686
 9131SOL     OW39025   2.507   4.517   7.348 -0.8317  0.4151 -0.4570
 9131SOL    HW139026   2.522   4.442   7.405  1.3136  1.2788  0.0992
 9131SOL    HW239027   2.500   4.589   7.411 -0.0242  2.2741 -2.4941
 9132SOL     OW39028   3.060   1.084  15.915 -0.3108  0.1415 -0.3481
 9132SOL    HW139029   3.085   1.033  15.838  3.1555  0.9375  0.2635
 9132SOL    HW239030   2.984   1.033  15.943 -0.7110  1.9012  1.7613
 9133SOL     OW39031   2.856   2.835  13.513 -0.2278  0.6824  0.0882
 9133SOL    HW139032   2.804   2.825  13.433  0.3678  1.9517 -0.4634
 9133SOL    HW239033   2.944   2.851  13.479  0.8250 -1.7601  1.6714
 9134SOL     OW39034   0.126   2.811   6.242  0.0048  0.4814  0.5168
 9134SOL    HW139035   0.065   2.870   6.198 -1.5353 -0.6895  1.0672
 9134SOL    HW239036   0.173   2.769   6.169  0.7744 -1.1062  1.9324
 9135SOL     OW39037   4.333   3.352   4.234 -0.0342 -0.1966 -0.0166
 9135SOL    HW139038   4.392   3.426   4.249 -0.5022  0.8259 -3.1781
 9135SOL    HW239039   4.395   3.294   4.189  0.0866 -0.5504  0.6013
 9136SOL     OW39040   4.317   1.579  12.644  0.7048 -0.3551 -0.1884
 9136SOL    HW139041   4.280   1.534  12.720  1.2659  1.3311  1.0737
 9136SOL    HW239042   4.347   1.502  12.596  0.8972 -1.1096  1.1429
 9137SOL     OW39043   4.190   1.121  10.715 -0.4880  0.7511  1.1005
 9137SOL    HW139044   4.265   1.170  10.749  1.2780 -0.3949 -1.1521
 9137SOL    HW239045   4.173   1.164  10.632  0.6346 -2.5769 -0.8826
 9138SOL     OW39046   2.278   2.106  12.541 -0.5238  0.6964 -0.4328
 9138SOL    HW139047   2.342   2.135  12.605  1.4651  2.6044 -3.2506
 9138SOL    HW239048   2.323   2.130  12.460 -0.7402 -0.6461 -0.9422
 9139SOL     OW39049   4.461   4.651   3.951  0.4773 -0.4109  0.1295
 9139SOL    HW139050   4.373   4.627   3.981 -0.1809  1.0133 -0.6710
 9139SOL    HW239051   4.502   4.686   4.030 -2.5292 -0.7754  1.8509
 9140SOL     OW39052   2.183   4.093   8.464  0.3363  0.0710  0.0506
 9140SOL    HW139053   2.158   4.184   8.480 -0.1098 -0.8348  4.3987
 9140SOL    HW239054   2.107   4.058   8.419  0.8372 -1.5639  0.4633
 9141SOL     OW39055   3.216   3.985  17.328 -0.0080  0.6688  0.0065
 9141SOL    HW139056   3.182   4.072  17.349  0.4790  0.7471  0.4375
 9141SOL    HW239057   3.211   3.985  17.232  2.6583  0.7804 -0.1102
 9142SOL     OW39058   1.387   2.141   6.884 -0.2797  0.8124 -0.3281
 9142SOL    HW139059   1.424   2.218   6.927  0.3262  0.5728 -0.4256
 9142SOL    HW239060   1.318   2.123   6.948 -0.2268 -0.2798 -0.5795
 9143SOL     OW39061   1.402   4.454   3.442  0.4112  0.3579 -0.6059
 9143SOL    HW139062   1.382   4.391   3.372  2.5142  0.9059 -1.7010
 9143SOL    HW239063   1.447   4.525   3.397 -0.7576  0.1751 -2.0388
 9144SOL     OW39064   0.816   2.262   1.073 -0.2947 -0.0662 -0.2464
 9144SOL    HW139065   0.810   2.264   1.169 -0.6015 -0.6897 -0.2540
 9144SOL    HW239066   0.748   2.198   1.055  0.3085 -0.8008  0.0798
 9145SOL     OW39067   0.512   0.751   5.103  0.0684 -0.3114  0.0312
 9145SOL    HW139068   0.491   0.696   5.027 -1.4171  0.1257  0.1246
 9145SOL    HW239069   0.592   0.709   5.137 -0.3528 -0.5459  0.7322
 9146SOL     OW39070   1.919   0.298   6.957  0.0920  0.5325 -0.1389
 9146SOL    HW139071   1.851   0.310   7.023 -0.0226  0.7734 -0.3002
 9146SOL    HW239072   1.973   0.238   7.008 -0.3945  1.4471  1.4461
 9147SOL     OW39073   2.395   1.419  12.196 -0.5082 -0.3944  0.6338
 9147SOL    HW139074   2.471   1.373  12.159  1.5387  2.1389  1.7159
 9147SOL    HW239075   2.364   1.343  12.246 -1.5953 -0.4127 -0.0583
 9148SOL     OW39076   1.791   4.483  17.164 -0.3590 -0.2918 -0.1330
 9148SOL    HW139077   1.764   4.403  17.209 -0.2317  1.5218  3.1554
 9148SOL    HW239078   1.861   4.463  17.102 -0.8928  1.3157 -1.2383
 9149SOL     OW39079   2.336   3.397  16.643  0.0240  0.2208  0.2215
 9149SOL    HW139080   2.365   3.468  16.702 -0.2882  1.2923 -0.9201
 9149SOL    HW239081   2.358   3.440  16.561 -0.9892 -1.5496 -0.9581
 9150SOL     OW39082   0.856   0.887  14.207 -0.0248  0.1711 -0.0870
 9150SOL    HW139083   0.917   0.819  14.235 -2.0011 -1.4802  0.1756
 9150SOL    HW239084   0.922   0.934  14.156  0.6271 -2.3772 -1.5754
 9151SOL     OW39085   3.660   2.092   5.468  1.0879  0.5822  0.0413
 9151SOL    HW139086   3.750   2.092   5.500  0.6696 -0.0815  1.1687
 9151SOL    HW239087   3.667   2.130   5.380  2.1359  2.6901  1.0386
 9152SOL     OW39088   0.146   0.710   9.770 -0.1031 -0.0957  0.5568
 9152SOL    HW139089   0.139   0.632   9.716  0.6857 -1.4705  2.4652
 9152SOL    HW239090   0.073   0.699   9.831  0.8571  1.6557  2.0212
 9153SOL     OW39091   1.171   4.499   7.854 -0.3648  0.9318 -0.0007
 9153SOL    HW139092   1.249   4.549   7.830 -0.6043  1.9029  1.2385
 9153SOL    HW239093   1.210   4.429   7.907  0.0861  0.8730 -0.4036
 9154SOL     OW39094   2.397   4.225   0.640  0.2745 -0.1800 -0.7066
 9154SOL    HW139095   2.357   4.159   0.584 -3.2602  3.4906 -2.4538
 9154SOL    HW239096   2.439   4.281   0.575 -0.0123  0.4700 -0.3316
 9155SOL     OW39097   3.696   2.307  10.386  0.3762  0.0283  0.3743
 9155SOL    HW139098   3.658   2.223  10.413  0.6654 -0.9748 -2.3260
 9155SOL    HW239099   3.760   2.320  10.455 -0.6141 -2.7493  1.7973
 9156SOL     OW39100   1.802   3.467   7.662  0.0689 -0.0006 -0.3960
 9156SOL    HW139101   1.864   3.418   7.608 -1.9976 -2.1951 -0.7251
 9156SOL    HW239102   1.723   3.413   7.663  1.0089 -1.3804 -0.5366
 9157SOL     OW39103   3.488   0.490   3.682 -0.3198 -0.4724 -0.1154
 9157SOL    HW139104   3.534   0.418   3.637 -2.4400 -0.1631 -2.7401
 9157SOL    HW239105   3.504   0.450   3.768  1.9560 -2.4012 -1.4287
 9158SOL     OW39106   0.071   1.417   5.873  0.3274  0.5117 -0.1113
 9158SOL    HW139107   0.085   1.327   5.843 -0.7002 -0.4519  2.3075
 9158SOL    HW239108   4.729   1.452   5.831 -0.6506 -2.4452 -0.7766
 9159SOL     OW39109   2.006   0.872   5.676 -0.4702  0.0383  0.0331
 9159SOL    HW139110   2.010   0.967   5.663  0.4424 -0.1889 -1.3520
 9159SOL    HW239111   1.913   0.855   5.690 -0.3654  1.4704  2.4659
 9160SOL     OW39112   0.425   1.625   3.503 -0.1198 -0.4522  0.0494
 9160SOL    HW139113   0.372   1.670   3.569 -0.1430  0.5029 -0.6139
 9160SOL    HW239114   0.394   1.534   3.501  0.4699 -0.6226 -1.9261
 9161SOL     OW39115   1.177   0.525   8.471 -0.7726 -0.2396  0.0271
 9161SOL    HW139116   1.264   0.561   8.456 -1.3672  1.6832  1.1301
 9161SOL    HW239117   1.128   0.607   8.475 -0.2152  0.0329  1.3363
 9162SOL     OW39118   2.123   0.929  11.812  0.1458  0.1406  0.3778
 9162SOL    HW139119   2.064   0.870  11.859 -0.3001  1.3534  1.3079
 9162SOL    HW239120   2.070   1.008  11.806  0.2820  0.2404  0.5095
 9163SOL     OW39121   3.263   3.007  13.314 -0.7348  0.1487 -0.1726
 9163SOL    HW139122   3.175   2.972  13.304 -0.9594  0.6060  0.1965
 9163SOL    HW239123   3.231   3.097  13.311 -2.0073 -0.3147 -0.6275
 9164SOL     OW39124   2.635   1.713   8.969 -0.4590 -0.0022 -0.5245
 9164SOL    HW139125   2.615   1.626   9.004 -0.1046  0.9316  2.0001
 9164SOL    HW239126   2.547   1.751   8.963 -0.8503 -0.6961  0.7401
 9165SOL     OW39127   2.169   0.999   9.429  0.0112 -0.4995  0.2090
 9165SOL    HW139128   2.206   0.958   9.508  0.4374  0.8634  0.7208
 9165SOL    HW239129   2.171   1.094   9.440 -0.4826 -0.6083  1.3142
 9166SOL     OW39130   0.347   0.745  17.482  0.1427 -0.2926 -0.5658
 9166SOL    HW139131   0.359   0.753  17.577  0.3379  1.1936 -0.7155
 9166SOL    HW239132   0.264   0.698  17.476  0.4895 -0.9528 -0.2555
 9167SOL     OW39133   4.518   0.823   7.606 -0.5012  0.1247 -0.7691
 9167SOL    HW139134   4.518   0.913   7.639 -1.4178 -0.2160  0.1576
 9167SOL    HW239135   4.607   0.794   7.626 -1.3011 -2.5076 -1.0226
 9168SOL     OW39136   1.224   0.555  10.405  0.3895  0.1570  0.5508
 9168SOL    HW139137   1.153   0.604  10.448 -1.6640 -0.3988 -2.2009
 9168SOL    HW239138   1.292   0.558  10.472  0.9022  0.5739  0.0112
 9169SOL     OW39139   0.839   0.036   7.093  0.2007  0.4243 -0.4707
 9169SOL    HW139140   0.830   4.678   7.085  2.4562  0.3234 -1.6451
 9169SOL    HW239141   0.868   0.031   7.184 -1.3833 -0.5293 -0.0068
 9170SOL     OW39142   4.705   0.673   5.656  0.2070  0.0749 -0.1479
 9170SOL    HW139143   4.659   0.602   5.701 -0.1413 -0.4357 -1.3021
 9170SOL    HW239144   4.674   0.649   5.569 -3.0161 -1.7243  1.4699
 9171SOL     OW39145   2.223   1.717   7.368  0.3096  0.2090 -0.6655
 9171SOL    HW139146   2.203   1.739   7.277  0.2230  0.4660 -0.5870
 9171SOL    HW239147   2.278   1.643   7.347  2.7365  1.3045  1.7928
 9172SOL     OW39148   1.044   2.877  12.630 -0.1498  0.0163  0.2506
 9172SOL    HW139149   1.019   2.790  12.661  0.0554 -0.7119 -1.6138
 9172SOL    HW239150   1.015   2.884  12.539  2.6529  0.1162 -0.6443
 9173SOL     OW39151   3.897   2.221  11.618 -0.2552 -0.2136 -0.2533
 9173SOL    HW139152   3.958   2.229  11.544  2.0962  0.4685  1.7646
 9173SOL    HW239153   3.868   2.131  11.604  0.4394 -0.6144  0.8682
 9174SOL     OW39154   2.712   4.352   2.296  0.0885 -0.1966 -0.5595
 9174SOL    HW139155   2.712   4.306   2.212 -0.2350 -1.1171 -0.0535
 9174SOL    HW239156   2.801   4.350   2.331 -0.3351 -1.6057  0.4314
 9175SOL     OW39157   1.014   3.615   7.259  0.1411  0.0061  0.5857
 9175SOL    HW139158   1.033   3.620   7.166 -4.2409 -1.3739 -0.3983
 9175SOL    HW239159   0.926   3.579   7.272 -0.3434  1.0530  0.1693
 9176SOL     OW39160   2.933   0.081   2.162 -0.4189  0.3287 -0.0349
 9176SOL    HW139161   2.888   0.023   2.223 -0.1372 -0.2849 -0.4163
 9176SOL    HW239162   2.891   0.167   2.171  0.2952  0.6394  0.4091
 9177SOL     OW39163   3.721   1.411   4.873  0.3628  0.5287  0.5761
 9177SOL    HW139164   3.805   1.381   4.840  0.1246 -0.7188  1.0956
 9177SOL    HW239165   3.669   1.409   4.792 -0.4177 -1.0698  1.1119
 9178SOL     OW39166   3.040   3.141   9.572 -0.1637 -0.1482  0.7079
 9178SOL    HW139167   2.945   3.128   9.578 -0.2729  0.2639 -0.1694
 9178SOL    HW239168   3.054   3.181   9.486  0.4445  0.3600  1.0519
 9179SOL     OW39169   4.448   4.526   2.693 -0.0877 -0.2193 -0.7190
 9179SOL    HW139170   4.377   4.572   2.648 -0.2461  0.4819  0.2499
 9179SOL    HW239171   4.429   4.438   2.658 -1.2279 -0.3951  0.3596
 9180SOL     OW39172   4.310   1.631   2.108  0.5731 -0.1140  0.3965
 9180SOL    HW139173   4.233   1.636   2.052 -0.9366  0.1380  2.4905
 9180SOL    HW239174   4.300   1.539   2.130  0.1596  0.0857  1.0417
 9181SOL     OW39175   2.640   3.136   4.057 -0.2210  0.1702 -0.4935
 9181SOL    HW139176   2.679   3.123   3.970  0.7206 -2.4467  0.3104
 9181SOL    HW239177   2.552   3.102   4.043 -0.7865  1.2796  0.4239
 9182SOL     OW39178   1.768   4.257   8.153 -0.1990 -0.3282 -0.2725
 9182SOL    HW139179   1.838   4.305   8.107  0.2004  1.2373  1.9724
 9182SOL    HW239180   1.700   4.322   8.137  0.7637  0.6288 -0.5400
 9183SOL     OW39181   1.701   3.073   1.918 -0.3978 -0.0156  0.0219
 9183SOL    HW139182   1.711   3.105   1.828  0.4284  1.0103  0.4855
 9183SOL    HW239183   1.642   3.135   1.960  0.9833  1.4889 -0.2698
 9184SOL     OW39184   4.736   1.546   8.579 -0.2720  0.8522 -0.0939
 9184SOL    HW139185   4.647   1.581   8.586 -1.1665 -1.0657 -1.9441
 9184SOL    HW239186   0.049   1.609   8.526 -0.2193 -0.2444 -1.3366
 9185SOL     OW39187   3.632   4.496   5.913  0.0269 -0.0988 -0.0853
 9185SOL    HW139188   3.636   4.578   5.962 -2.6542  0.6235 -1.0501
 9185SOL    HW239189   3.693   4.520   5.843  0.8328 -3.7480 -0.6590
 9186SOL     OW39190   4.086   3.337   4.102  0.1746 -0.4481 -0.8691
 9186SOL    HW139191   4.175   3.328   4.136  0.7469  1.7423 -1.7723
 9186SOL    HW239192   4.090   3.289   4.020 -2.0203  0.6686 -1.6290
 9187SOL     OW39193   3.446   3.808   7.253 -0.6705 -0.3980  0.3020
 9187SOL    HW139194   3.445   3.774   7.164  0.0349  1.5295 -0.4407
 9187SOL    HW239195   3.401   3.741   7.304  3.6205 -0.9125  3.4239
 9188SOL     OW39196   0.039   0.280   3.993  0.2077  0.2487 -0.3595
 9188SOL    HW139197   0.052   0.361   3.943  2.6977  0.5556  0.7503
 9188SOL    HW239198   0.005   0.231   3.919  3.4561  1.6298 -2.7780
 9189SOL     OW39199   1.279   0.752  10.158  0.1268 -0.3067 -0.4902
 9189SOL    HW139200   1.198   0.710  10.186  0.1679  0.5954  0.9752
 9189SOL    HW239201   1.332   0.734  10.235  1.1348  1.6077 -0.7182
 9190SOL     OW39202   3.885   1.877   5.740 -0.3957  0.2320  0.1358
 9190SOL    HW139203   3.816   1.844   5.683 -0.5023 -1.1049  1.0378
 9190SOL    HW239204   3.925   1.796   5.770  1.7408  0.7385 -1.2543
 9191SOL     OW39205   2.596   3.415   2.034 -0.0706 -0.1354 -0.0166
 9191SOL    HW139206   2.637   3.485   2.084  0.5557 -0.8716  0.4985
 9191SOL    HW239207   2.521   3.458   1.994  1.2371  0.0819 -2.2393
 9192SOL     OW39208   3.871   0.574   3.484  0.1191  0.3122 -0.1980
 9192SOL    HW139209   3.957   0.605   3.456  1.3427 -0.8005  2.2739
 9192SOL    HW239210   3.864   0.619   3.569 -1.8888 -1.9636  0.8290
 9193SOL     OW39211   0.345   2.281   3.637  0.1088 -0.6390 -0.5925
 9193SOL    HW139212   0.424   2.333   3.623 -0.3439  0.7279  1.8558
 9193SOL    HW239213   0.291   2.358   3.656  2.4910  0.5257  1.5040
 9194SOL     OW39214   0.417   3.543  14.903  0.2504 -0.3260  0.1516
 9194SOL    HW139215   0.506   3.557  14.935  0.2829  1.5599 -0.7766
 9194SOL    HW239216   0.378   3.490  14.973 -1.3680  1.6001  0.6783
 9195SOL     OW39217   1.991   2.148  11.962 -0.4512 -0.3173 -0.2398
 9195SOL    HW139218   2.023   2.152  12.052 -0.0289  0.0974 -0.4056
 9195SOL    HW239219   2.063   2.174  11.905  0.8783  0.4992  1.8538
 9196SOL     OW39220   2.821   0.464  13.760 -0.1457  0.2716  0.4223
 9196SOL    HW139221   2.759   0.507  13.818 -0.9033 -0.7099  0.3336
 9196SOL    HW239222   2.805   0.517  13.682 -0.7512 -1.8696 -0.9137
 9197SOL     OW39223   2.095   0.105   6.007  0.0788 -0.0619 -0.0107
 9197SOL    HW139224   2.024   0.060   5.961  0.0644  0.5910 -0.6144
 9197SOL    HW239225   2.143   0.026   6.032 -0.7293 -1.0851 -1.7050
 9198SOL     OW39226   2.932   0.056   6.888  0.1548  0.3691 -0.2193
 9198SOL    HW139227   2.978   0.028   6.809 -0.3863  0.2812 -0.5052
 9198SOL    HW239228   3.005   0.092   6.938  0.1990  0.5568 -0.4153
 9199SOL     OW39229   2.841   0.320   3.543 -0.3081  0.0696 -0.0781
 9199SOL    HW139230   2.818   0.246   3.486 -1.9670  1.4523 -1.1863
 9199SOL    HW239231   2.922   0.338   3.496 -1.1618 -1.0483 -1.9683
 9200SOL     OW39232   2.835   3.643   4.123  0.3071 -0.3128  0.4626
 9200SOL    HW139233   2.756   3.615   4.076 -0.2094 -0.4177  1.3833
 9200SOL    HW239234   2.837   3.733   4.089 -0.0915 -0.9876 -1.3048
 9201SOL     OW39235   0.415   2.036   3.751  0.2131  0.4707  0.7902
 9201SOL    HW139236   0.403   2.125   3.717 -0.7000  0.0554  0.0203
 9201SOL    HW239237   0.459   2.065   3.831 -1.4449  0.1627  1.8275
 9202SOL     OW39238   1.067   2.959   3.111  0.0226 -0.3750 -0.1082
 9202SOL    HW139239   1.015   3.038   3.098 -0.9642 -0.4558  3.5119
 9202SOL    HW239240   1.152   2.998   3.132  0.9109 -2.0992 -0.4538
 9203SOL     OW39241   2.252   3.292  16.270 -0.2909  0.3777 -0.3821
 9203SOL    HW139242   2.289   3.223  16.325 -1.7267 -0.4524 -0.4566
 9203SOL    HW239243   2.299   3.370  16.299  1.5580  0.1267 -2.7222
 9204SOL     OW39244   0.112   1.705   1.474  0.1905 -0.1716 -0.4653
 9204SOL    HW139245   0.024   1.729   1.502  0.9747  2.2525 -0.0916
 9204SOL    HW239246   0.132   1.643   1.544 -0.1505 -0.8897 -0.9982
 9205SOL     OW39247   4.005   1.190   8.002 -0.1988 -0.2564  0.4225
 9205SOL    HW139248   3.919   1.193   7.959 -0.7912  1.8716  1.7512
 9205SOL    HW239249   4.069   1.171   7.933 -1.2454 -0.7319 -0.4154
 9206SOL     OW39250   1.662   3.970   6.405 -0.0522  0.3473 -0.5677
 9206SOL    HW139251   1.598   4.012   6.347 -0.1818 -1.0305 -1.4260
 9206SOL    HW239252   1.675   3.893   6.350 -1.5951  0.3333 -0.9248
 9207SOL     OW39253   1.757   0.467   3.642  0.2451 -0.5960  0.2052
 9207SOL    HW139254   1.756   0.553   3.684 -1.9933  0.3906 -1.8716
 9207SOL    HW239255   1.662   0.459   3.633  0.1604  1.7126 -1.1083
 9208SOL     OW39256   2.462   3.599   6.254 -0.5278 -0.0783 -0.4099
 9208SOL    HW139257   2.392   3.542   6.287  0.5623 -0.2499  1.6503
 9208SOL    HW239258   2.427   3.685   6.230  1.6081  0.4788 -1.4595
 9209SOL     OW39259   4.188   2.851   3.369  0.0669  0.0910  0.2584
 9209SOL    HW139260   4.134   2.929   3.374 -0.0353  0.0834 -0.8158
 9209SOL    HW239261   4.118   2.786   3.375  0.0268  0.3054  2.1902
 9210SOL     OW39262   0.320   1.533   2.903  0.5220 -0.3161  0.0390
 9210SOL    HW139263   0.336   1.444   2.872  1.5534  0.2941 -1.2026
 9210SOL    HW239264   0.326   1.585   2.822  1.3006  0.7183  0.7588
 9211SOL     OW39265   1.945   1.603   1.403  0.2322 -0.1542 -0.4881
 9211SOL    HW139266   1.961   1.515   1.438  1.2768 -0.5301 -1.9072
 9211SOL    HW239267   1.877   1.645   1.455  0.6952  0.3456 -0.2846
 9212SOL     OW39268   2.176   4.387   2.652  0.1469 -0.0280 -0.3958
 9212SOL    HW139269   2.202   4.435   2.731  0.4670 -1.8550  0.6148
 9212SOL    HW239270   2.170   4.463   2.594  0.0164  0.5069  0.3186
 9213SOL     OW39271   2.870   3.109   4.186  0.3303  0.1316 -0.3639
 9213SOL    HW139272   2.856   3.014   4.190  1.3859 -0.1055 -2.2904
 9213SOL    HW239273   2.791   3.137   4.140  0.4793  0.5873 -0.3386
 9214SOL     OW39274   2.403   3.441   3.553  0.1387  0.6762  0.2044
 9214SOL    HW139275   2.491   3.468   3.528  0.5048  0.3371  1.1358
 9214SOL    HW239276   2.364   3.527   3.571 -0.2262  0.0855  2.3003
 9215SOL     OW39277   2.369   4.019   6.029  0.2262  0.1629 -0.1765
 9215SOL    HW139278   2.324   4.064   5.957 -1.3984  0.4579  1.0258
 9215SOL    HW239279   2.376   3.935   5.984 -2.4985  0.1665 -0.6049
 9216SOL     OW39280   3.405   1.153  17.607 -0.7760 -0.0705 -0.5472
 9216SOL    HW139281   3.352   1.231  17.590 -1.7791 -0.5091  0.5515
 9216SOL    HW239282   3.468   1.153  17.535  2.2049  0.8694  2.1045
 9217SOL     OW39283   2.673   2.048   6.671 -0.2827 -0.2330 -0.2244
 9217SOL    HW139284   2.632   2.099   6.602 -0.8762 -0.5139 -0.0802
 9217SOL    HW239285   2.598   2.028   6.727  2.2379 -0.1734  3.1818
 9218SOL     OW39286   4.539   3.830   3.955  0.0385 -0.1955  0.3141
 9218SOL    HW139287   4.629   3.821   3.987 -1.5408 -2.4120  4.1587
 9218SOL    HW239288   4.552   3.912   3.907  2.2994 -0.9257 -0.3411
 9219SOL     OW39289   0.733   0.632  15.306 -0.4432 -0.0757  0.1768
 9219SOL    HW139290   0.759   0.684  15.383  0.5124 -0.5829  0.2040
 9219SOL    HW239291   0.653   0.680  15.286 -0.6600  0.1022  1.4896
 9220SOL     OW39292   3.280   4.627   7.461 -1.1367 -0.0251  0.2965
 9220SOL    HW139293   3.357   4.682   7.474 -1.4563  0.6470 -0.6448
 9220SOL    HW239294   3.314   4.558   7.405  1.2310 -1.4504  3.4525
 9221SOL     OW39295   1.894   3.132   4.584 -0.2956  0.0268 -0.0157
 9221SOL    HW139296   1.875   3.127   4.490 -0.3196  1.1134 -0.0629
 9221SOL    HW239297   1.989   3.126   4.590 -0.2449 -1.1945 -1.9016
 9222SOL     OW39298   0.688   1.169   1.813  0.0218  0.4708 -0.4161
 9222SOL    HW139299   0.742   1.093   1.791  2.3429  2.1914 -0.7163
 9222SOL    HW239300   0.674   1.154   1.907 -0.8524  2.7381 -0.1715
 9223SOL     OW39301   3.170   2.095   7.745  0.2832  0.2299  0.8836
 9223SOL    HW139302   3.164   2.141   7.829  2.2477 -2.9416  2.7534
 9223SOL    HW239303   3.140   2.007   7.767 -0.0024 -0.0255 -0.5330
 9224SOL     OW39304   3.057   4.207   1.981  0.0729  0.0741  0.2696
 9224SOL    HW139305   3.107   4.164   2.050  0.0568 -0.1819  0.1205
 9224SOL    HW239306   3.106   4.211   1.899  0.1497 -2.1275  0.2138
 9225SOL     OW39307   3.914   3.730   5.601 -0.4910 -0.2064  0.5679
 9225SOL    HW139308   4.007   3.713   5.584 -0.0503  0.7609  2.0008
 9225SOL    HW239309   3.885   3.713   5.511  1.3920  1.6178 -0.4010
 9226SOL     OW39310   4.244   4.464   7.920  0.2817  0.2747 -0.0996
 9226SOL    HW139311   4.247   4.559   7.909  0.0258  0.4169  1.0441
 9226SOL    HW239312   4.297   4.437   7.845  1.6601  1.2492  0.5331
 9227SOL     OW39313   0.892   2.112   6.757 -0.1504  0.3566  0.0744
 9227SOL    HW139314   0.883   2.152   6.844 -0.4008 -0.9492  0.6495
 9227SOL    HW239315   0.911   2.021   6.780 -1.2489  0.4820  1.4636
 9228SOL     OW39316   2.921   2.399   7.319  0.4503 -0.7995 -0.0999
 9228SOL    HW139317   3.005   2.380   7.362  1.1025  0.1339 -0.9471
 9228SOL    HW239318   2.860   2.384   7.391 -1.9106  0.2408 -1.8700
 9229SOL     OW39319   2.169   2.276   3.715  0.9870  0.5032 -0.3906
 9229SOL    HW139320   2.104   2.334   3.674 -2.2860  0.6009  4.9959
 9229SOL    HW239321   2.248   2.286   3.661 -0.4636  0.0620 -2.5620
 9230SOL     OW39322   0.541   2.927  15.096 -0.1118  0.7277  0.0666
 9230SOL    HW139323   0.578   3.015  15.105  0.7468  0.1926  1.7545
 9230SOL    HW239324   0.476   2.941  15.027 -1.0749 -1.0695  0.6298
 9231SOL     OW39325   1.813   1.767   7.322  0.0887  0.1385  0.0894
 9231SOL    HW139326   1.901   1.731   7.322 -1.0475 -2.6888  0.5252
 9231SOL    HW239327   1.778   1.729   7.403 -1.0979 -1.7384 -1.2931
 9232SOL     OW39328   3.088   2.642   6.334 -0.3936 -0.1792 -0.1883
 9232SOL    HW139329   3.116   2.625   6.244 -2.0295  0.2684 -0.7691
 9232SOL    HW239330   3.120   2.565   6.381  0.1402  0.8326  1.1019
 9233SOL     OW39331   0.187   3.910   1.815 -0.1476  0.1683  0.1279
 9233SOL    HW139332   0.118   3.976   1.809 -0.0087  0.3537  0.5640
 9233SOL    HW239333   0.212   3.914   1.907  1.0086 -1.2787 -0.1069
 9234SOL     OW39334   4.354   2.099   4.866  0.4973  0.0936 -0.5170
 9234SOL    HW139335   4.303   2.102   4.947  1.3519 -1.9156  0.0889
 9234SOL    HW239336   4.292   2.109   4.793  0.2578  1.4434 -0.1416
 9235SOL     OW39337   0.467   0.316   5.813 -0.0978 -0.0908  0.6250
 9235SOL    HW139338   0.459   0.298   5.907 -1.6537 -1.5179  0.2218
 9235SOL    HW239339   0.557   0.348   5.807 -0.5393  1.0137 -0.1848
 9236SOL     OW39340   0.544   2.698   7.744 -0.1847  0.4341  0.1277
 9236SOL    HW139341   0.571   2.732   7.659  1.2087  1.3158  0.9137
 9236SOL    HW239342   0.603   2.625   7.763 -2.5137 -1.2644  0.8825
 9237SOL     OW39343   4.092   2.403   2.904  0.4137  0.6161 -0.3582
 9237SOL    HW139344   4.145   2.472   2.864 -0.0812  1.7440  0.9705
 9237SOL    HW239345   4.059   2.360   2.825 -2.0786  1.0861  0.4152
 9238SOL     OW39346   2.369   3.429  11.591 -0.7143 -0.1083  0.6037
 9238SOL    HW139347   2.403   3.466  11.673  1.8231  2.2727 -1.5143
 9238SOL    HW239348   2.426   3.355  11.569 -0.8081  0.0005 -0.0143
 9239SOL     OW39349   3.317   4.478  13.329  0.1009 -0.8489  0.3008
 9239SOL    HW139350   3.368   4.432  13.262 -0.5690  0.1275 -0.8854
 9239SOL    HW239351   3.329   4.569  13.302  1.8844 -1.2827 -0.3773
 9240SOL     OW39352   1.817   0.318   8.042  0.0445 -0.0491 -0.4639
 9240SOL    HW139353   1.743   0.268   8.007 -0.7708  0.9410 -0.1567
 9240SOL    HW239354   1.887   0.254   8.057 -0.8582 -0.3901  2.3873
 9241SOL     OW39355   3.473   2.553   8.315 -0.5340  0.2271 -0.4878
 9241SOL    HW139356   3.461   2.516   8.402 -0.1180 -2.0401 -1.3957
 9241SOL    HW239357   3.425   2.636   8.312 -1.5917 -0.3364  1.0547
 9242SOL     OW39358   0.119   3.736  15.499 -0.3277  0.2204  0.0452
 9242SOL    HW139359   0.032   3.708  15.471 -0.3016 -0.0022  0.1918
 9242SOL    HW239360   0.100   3.821  15.540  1.2777  0.4181  0.3672
 9243SOL     OW39361   1.962   4.644   8.251 -0.4267 -0.2019  0.4021
 9243SOL    HW139362   1.867   4.647   8.259 -0.2892 -1.4055  2.2275
 9243SOL    HW239363   1.983   4.557   8.217  3.3339  0.6384  0.6052
 9244SOL     OW39364   0.494   2.458   1.158 -0.4614 -0.0460  0.7523
 9244SOL    HW139365   0.533   2.375   1.185  0.1264  0.4612  1.4655
 9244SOL    HW239366   0.412   2.430   1.117 -0.1776  0.3020 -0.0654
 9245SOL     OW39367   1.772   4.143   3.064  0.5376 -0.2848  0.1423
 9245SOL    HW139368   1.849   4.169   3.014 -0.9601  0.1457 -1.9523
 9245SOL    HW239369   1.702   4.167   3.003  1.3820 -1.9162 -1.4987
 9246SOL     OW39370   2.831   1.437  16.749 -0.6143 -0.3105  0.0146
 9246SOL    HW139371   2.846   1.353  16.706 -0.7049 -0.3924  0.1456
 9246SOL    HW239372   2.897   1.441  16.818  1.5945 -3.5368 -1.9233
 9247SOL     OW39373   1.599   4.685  17.075 -0.0955  0.2613 -0.0573
 9247SOL    HW139374   1.524   0.008  17.075  0.2242  0.6582 -0.0522
 9247SOL    HW239375   1.678   0.001  17.081 -0.8587  1.4683 -0.6013
 9248SOL     OW39376   3.998   0.944   5.477 -0.0126 -0.1868 -0.0193
 9248SOL    HW139377   4.085   0.924   5.443  0.4390  0.7718  0.5525
 9248SOL    HW239378   4.025   0.965   5.567 -0.0994  2.5569 -0.6208
 9249SOL     OW39379   1.341   1.411   2.619 -0.0737  0.0681 -0.0085
 9249SOL    HW139380   1.393   1.333   2.597  3.8461  1.5716  3.9454
 9249SOL    HW239381   1.387   1.484   2.579  0.0404  0.7564  1.3712
 9250SOL     OW39382   0.633   2.371   4.566 -0.2038 -0.1578 -0.6279
 9250SOL    HW139383   0.589   2.456   4.562 -1.6747 -0.8312  1.0823
 9250SOL    HW239384   0.553   2.328   4.598 -1.3145  1.6960 -0.8950
 9251SOL     OW39385   2.066   2.177  17.428  0.1168 -0.2151 -0.2100
 9251SOL    HW139386   2.089   2.169  17.520  2.5544 -2.8107 -1.0314
 9251SOL    HW239387   2.015   2.257  17.440  0.4181 -0.5287  3.1348
 9252SOL     OW39388   0.580   1.735   9.129 -0.2354 -0.1650  0.0607
 9252SOL    HW139389   0.639   1.780   9.069 -0.0249  1.6942  1.6487
 9252SOL    HW239390   0.627   1.773   9.204  2.7197  0.2443 -2.0321
 9253SOL     OW39391   4.237   3.814   3.320  0.0328  0.3331  0.3352
 9253SOL    HW139392   4.269   3.810   3.230  2.1984 -0.7279  1.1455
 9253SOL    HW239393   4.159   3.759   3.310  2.2450 -2.9284  0.7295
 9254SOL     OW39394   1.986   2.502   1.876  0.3585  0.2501 -0.0701
 9254SOL    HW139395   2.079   2.479   1.874  0.4171  0.4104  0.6586
 9254SOL    HW239396   1.954   2.429   1.929 -0.1870  1.5257  1.3950
 9255SOL     OW39397   4.240   0.960  15.267  0.0816  0.0360  0.0529
 9255SOL    HW139398   4.303   0.999  15.327 -0.0510  1.2323 -0.5734
 9255SOL    HW239399   4.166   1.006  15.306 -0.7608 -1.0855 -0.2298
 9256SOL     OW39400   0.787   2.016   0.739  0.1890  0.3127  0.2700
 9256SOL    HW139401   0.728   2.078   0.784 -1.4980  0.6648 -2.4383
 9256SOL    HW239402   0.725   1.947   0.713  0.3683  0.9476 -1.7683
 9257SOL     OW39403   1.400   0.548   2.213 -0.6560 -0.2514  0.6745
 9257SOL    HW139404   1.440   0.536   2.127 -0.1325  0.4658  0.8173
 9257SOL    HW239405   1.309   0.537   2.187 -0.8507 -0.8563  1.5956
 9258SOL     OW39406   0.019   4.086   6.773  0.1350 -0.0093 -0.8137
 9258SOL    HW139407   4.665   4.065   6.752 -1.0220  1.8026  2.2916
 9258SOL    HW239408   0.049   3.995   6.777  2.6012  0.7644 -1.6366
 9259SOL     OW39409   3.644   2.400   9.192 -0.0712 -0.0638 -0.9228
 9259SOL    HW139410   3.678   2.443   9.114 -0.1636  1.2661 -0.2337
 9259SOL    HW239411   3.552   2.427   9.198 -0.1323 -0.5494  0.4941
 9260SOL     OW39412   1.633   1.984   6.408 -0.5980  0.1816 -0.5604
 9260SOL    HW139413   1.648   1.911   6.348  1.6720  0.9615 -0.9300
 9260SOL    HW239414   1.691   1.967   6.483 -2.6216 -2.1234  0.5110
 9261SOL     OW39415   4.208   1.058  16.165 -0.2520 -0.3861  0.2117
 9261SOL    HW139416   4.175   1.131  16.113  1.4169  0.7093  0.6502
 9261SOL    HW239417   4.247   1.101  16.242  2.2401 -0.7957 -0.8033
 9262SOL     OW39418   0.984   1.393  15.236  0.0966 -0.0996 -0.7592
 9262SOL    HW139419   0.995   1.406  15.330  0.9273  0.3582 -0.9130
 9262SOL    HW239420   1.034   1.466  15.198  1.1728 -1.8062 -2.6728
 9263SOL     OW39421   3.541   1.474  17.589 -0.2422 -0.1604  0.2677
 9263SOL    HW139422   3.518   1.555  17.634 -3.4701 -1.4290  0.9314
 9263SOL    HW239423   3.455   1.437  17.568 -0.6376  1.5471 -1.0603
 9264SOL     OW39424   2.298   2.118   5.205 -0.9589  0.3248 -0.2632
 9264SOL    HW139425   2.245   2.050   5.247 -2.8175  1.3788 -0.8734
 9264SOL    HW239426   2.282   2.195   5.260  0.9415  0.3971  0.1910
 9265SOL     OW39427   3.262   3.280   8.017 -0.1904 -0.0394 -0.6008
 9265SOL    HW139428   3.265   3.371   8.047  1.6244  0.1396 -1.3111
 9265SOL    HW239429   3.358   3.274   8.008 -0.0606  0.6875  0.3524
 9266SOL     OW39430   4.547   2.293  13.326  0.9483 -0.6570 -0.0474
 9266SOL    HW139431   4.535   2.273  13.419 -1.5448  1.1045  0.0284
 9266SOL    HW239432   4.519   2.207  13.293  0.5915 -0.4799 -0.2114
 9267SOL     OW39433   1.040   3.467   3.106  0.1303  0.3034  1.4671
 9267SOL    HW139434   0.974   3.486   3.173 -1.7898  1.6247 -0.7904
 9267SOL    HW239435   1.113   3.444   3.163 -0.9371 -1.1063  2.2879
 9268SOL     OW39436   2.692   0.481  17.496  0.4741 -0.5124  0.4063
 9268SOL    HW139437   2.603   0.461  17.468  0.0345  0.2315  1.2702
 9268SOL    HW239438   2.701   0.573  17.471  2.1267 -0.7762  0.0671
 9269SOL     OW39439   1.521   1.956   1.551  0.6126  0.1067 -0.0680
 9269SOL    HW139440   1.429   1.967   1.528  0.3767 -0.9834  0.3714
 9269SOL    HW239441   1.570   2.023   1.503 -0.8748  2.5349  1.7883
 9270SOL     OW39442   0.268   0.824   4.399  0.5721 -0.2184 -0.1635
 9270SOL    HW139443   0.353   0.795   4.367  1.2216 -1.5487  2.7925
 9270SOL    HW239444   0.289   0.909   4.438 -1.1526 -0.1339  0.5844
 9271SOL     OW39445   1.129   3.183   1.564  0.0587  0.3290  0.2635
 9271SOL    HW139446   1.149   3.222   1.479  0.4711 -0.1417  0.1451
 9271SOL    HW239447   1.086   3.258   1.606 -0.2129  0.6464 -0.5667
 9272SOL     OW39448   1.484   2.183   6.309 -0.0786 -0.2522  0.8440
 9272SOL    HW139449   1.453   2.251   6.370  1.1541 -1.4756  2.8424
 9272SOL    HW239450   1.530   2.128   6.373 -0.6865 -2.3192 -0.5225
 9273SOL     OW39451   3.653   4.522   2.411 -0.1832 -0.0673 -0.0578
 9273SOL    HW139452   3.610   4.606   2.394 -2.0121 -1.4511 -2.3400
 9273SOL    HW239453   3.664   4.513   2.506  1.6966  1.7004 -0.1116
 9274SOL     OW39454   1.929   2.256   2.007 -0.0732 -0.2000 -0.0719
 9274SOL    HW139455   1.976   2.193   2.061 -1.2070 -2.1538 -1.4039
 9274SOL    HW239456   1.946   2.221   1.919 -3.3466  1.3975 -1.3608
 9275SOL     OW39457   1.953   2.257   5.233  0.0102  0.7325 -0.5973
 9275SOL    HW139458   1.940   2.166   5.205 -1.7134  0.6092  0.6008
 9275SOL    HW239459   1.952   2.304   5.149  1.6960  0.3269 -0.8338
 9276SOL     OW39460   0.238   3.379   1.917 -0.1161 -0.3145 -0.4995
 9276SOL    HW139461   0.329   3.370   1.946  0.8078  1.4973 -2.8053
 9276SOL    HW239462   0.210   3.453   1.971  2.5253  0.9616 -0.8724
 9277SOL     OW39463   0.934   0.232  11.455  0.8664  0.6045 -0.0640
 9277SOL    HW139464   0.994   0.301  11.429  0.1279  0.6999 -1.4744
 9277SOL    HW239465   0.876   0.270  11.521  1.0037 -1.3262  1.1888
 9278SOL     OW39466   2.022   2.994   6.817  0.6089  0.8126 -0.2410
 9278SOL    HW139467   2.002   3.071   6.764 -0.3686  0.7503  0.0362
 9278SOL    HW239468   2.042   3.035   6.901 -0.2816 -1.1125  0.9152
 9279SOL     OW39469   1.052   2.820   0.932 -0.3006  0.1974 -0.2340
 9279SOL    HW139470   1.007   2.742   0.964  1.9900 -0.0728  2.3293
 9279SOL    HW239471   1.100   2.782   0.858  3.6759 -1.6515  3.2590
 9280SOL     OW39472   0.191   4.082  10.529 -0.1351  0.4628  0.2406
 9280SOL    HW139473   0.241   4.059  10.451 -0.7555  0.3982 -0.1324
 9280SOL    HW239474   0.172   4.175  10.514 -0.8988  0.4086  0.8403
 9281SOL     OW39475   0.430   4.636   7.080 -0.6450 -0.3273 -0.1449
 9281SOL    HW139476   0.353   4.692   7.083 -1.6534 -1.6047 -2.4259
 9281SOL    HW239477   0.497   4.692   7.119  0.1438 -1.5072  0.2170
 9282SOL     OW39478   2.450   1.407  17.076  0.3963  0.1959 -0.3651
 9282SOL    HW139479   2.374   1.350  17.061  0.1070 -0.1493  2.5139
 9282SOL    HW239480   2.518   1.359  17.030 -1.2808  1.6463 -4.4294
 9283SOL     OW39481   0.334   1.503   5.907 -0.1127 -0.0167 -0.2334
 9283SOL    HW139482   0.308   1.462   5.825 -1.4938  0.4953 -0.0428
 9283SOL    HW239483   0.259   1.493   5.965 -1.2748  1.5264 -1.4736
 9284SOL     OW39484   3.146   0.794  16.559 -0.0950  0.9548 -0.0428
 9284SOL    HW139485   3.218   0.738  16.587 -1.4024  0.0528  1.5663
 9284SOL    HW239486   3.084   0.784  16.632 -1.2476 -0.7240 -1.2398
 9285SOL     OW39487   3.526   3.304   5.665  0.3344 -0.1216  0.3334
 9285SOL    HW139488   3.477   3.223   5.678 -0.8034  0.9545  2.6400
 9285SOL    HW239489   3.460   3.365   5.632  2.3990  0.4726 -2.7733
 9286SOL     OW39490   4.700   2.036   8.401 -0.0063  0.5132  0.1050
 9286SOL    HW139491   4.684   2.120   8.358 -0.8552  0.4155  0.2331
 9286SOL    HW239492   0.012   1.990   8.332 -0.9460 -0.1754 -0.1055
 9287SOL     OW39493   0.544   3.887   6.191 -0.8090 -0.3282  0.2747
 9287SOL    HW139494   0.580   3.918   6.108 -0.4435 -0.2227  0.4725
 9287SOL    HW239495   0.608   3.817   6.202  1.1729  1.4977  0.5469
 9288SOL     OW39496   0.606   2.505   5.647  0.2860 -0.0556 -0.0217
 9288SOL    HW139497   0.577   2.486   5.736  0.4089  0.4085  0.1190
 9288SOL    HW239498   0.623   2.415   5.618  1.4507 -0.3780  1.6818
 9289SOL     OW39499   1.685   2.282   4.941  0.0251 -0.4766 -0.2154
 9289SOL    HW139500   1.692   2.190   4.966  1.5006 -0.0902  0.8238
 9289SOL    HW239501   1.775   2.312   4.955  0.7840 -3.0977  0.5731
 9290SOL     OW39502   3.275   1.521   4.132  0.2119 -0.4019 -0.2284
 9290SOL    HW139503   3.251   1.611   4.156 -0.7507 -0.7611  0.1432
 9290SOL    HW239504   3.370   1.534   4.126  0.2747 -0.3959  0.8058
 9291SOL     OW39505   1.510   0.391   8.141 -0.1402  0.0966  0.1809
 9291SOL    HW139506   1.505   0.373   8.047  0.9922 -0.0873  0.1610
 9291SOL    HW239507   1.597   0.355   8.158 -1.1049 -2.2188  0.2313
 9292SOL     OW39508   3.496   2.024  11.191 -0.2149  0.0984  0.6221
 9292SOL    HW139509   3.511   1.961  11.261 -1.6610 -0.4055  0.4753
 9292SOL    HW239510   3.400   2.020  11.193 -0.2514  0.6859  0.0859
 9293SOL     OW39511   0.609   4.134   4.961 -0.0216  0.6158  0.2320
 9293SOL    HW139512   0.630   4.041   4.958 -0.2389  0.5970 -0.7595
 9293SOL    HW239513   0.559   4.145   4.881 -2.6510  3.5419  2.2403
 9294SOL     OW39514   1.578   1.196   0.949  0.1460  0.0038 -0.0343
 9294SOL    HW139515   1.627   1.274   0.924  0.4860 -0.7315 -1.6493
 9294SOL    HW239516   1.621   1.121   0.908  1.5915  1.2240 -0.7201
 9295SOL     OW39517   0.432   3.053   4.554  0.0679  0.2611  0.0287
 9295SOL    HW139518   0.433   3.148   4.554  0.3762  0.2620  0.7014
 9295SOL    HW239519   0.475   3.026   4.473 -1.4568  0.0166 -0.6991
 9296SOL     OW39520   0.856   0.235   9.399 -0.5357  0.0842  0.2483
 9296SOL    HW139521   0.855   0.298   9.326 -0.0938 -0.7437 -0.4728
 9296SOL    HW239522   0.936   0.190   9.372 -1.4791  0.3617 -3.0826
 9297SOL     OW39523   3.761   3.556   6.745  0.1599 -0.3767  0.2101
 9297SOL    HW139524   3.844   3.508   6.740  0.1256 -0.2441 -1.6033
 9297SOL    HW239525   3.706   3.501   6.689  0.4623  0.5900 -1.0152
 9298SOL     OW39526   0.846   2.389   7.480 -0.1234  0.1694 -0.2882
 9298SOL    HW139527   0.823   2.296   7.478  0.0507  0.1020  1.0625
 9298SOL    HW239528   0.875   2.406   7.570  1.9192 -1.4439 -0.6188
 9299SOL     OW39529   1.272   1.327  13.816 -0.3209  0.2031  0.0885
 9299SOL    HW139530   1.251   1.237  13.840 -0.0365  0.0688 -0.1610
 9299SOL    HW239531   1.279   1.382  13.894 -0.1610  0.0198  0.2030
 9300SOL     OW39532   0.371   3.702   0.397  0.5420  0.1654  0.1780
 9300SOL    HW139533   0.399   3.732   0.483 -2.3941  2.6757  0.2428
 9300SOL    HW239534   0.455   3.674   0.359  1.1339 -0.5865  2.0742
 9301SOL     OW39535   1.268   0.389   2.499 -0.1061 -0.1546  0.5348
 9301SOL    HW139536   1.227   0.340   2.570 -0.9025  0.8395  0.7528
 9301SOL    HW239537   1.333   0.432   2.554 -0.3891 -1.8255  2.1877
 9302SOL     OW39538   1.856   0.966  15.350 -0.5521  0.6729  0.4099
 9302SOL    HW139539   1.825   1.030  15.286  1.7922  2.5575  1.1441
 9302SOL    HW239540   1.781   0.959  15.409 -0.5033 -0.0236  0.3892
 9303SOL     OW39541   0.683   1.165   4.946  0.3668 -0.3577 -0.7654
 9303SOL    HW139542   0.742   1.197   4.878 -0.8628  1.3081 -1.0467
 9303SOL    HW239543   0.600   1.169   4.899 -0.6327  2.2148  1.1943
 9304SOL     OW39544   2.549   3.136   6.565  0.7305 -0.1413  0.2759
 9304SOL    HW139545   2.598   3.068   6.519  1.4890  0.4661  0.1962
 9304SOL    HW239546   2.624   3.192   6.583 -0.4190  1.5671 -0.3096
 9305SOL     OW39547   2.537   3.390   5.957  0.2902 -0.7534 -0.4050
 9305SOL    HW139548   2.466   3.454   5.952  1.2592  0.3638 -0.0515
 9305SOL    HW239549   2.505   3.336   6.029  0.6217 -0.9107 -0.3770
 9306SOL     OW39550   1.210   1.089  10.033 -0.0913  0.0271 -0.3270
 9306SOL    HW139551   1.184   1.112   9.944 -0.4887  1.9591  0.2757
 9306SOL    HW239552   1.130   1.055  10.074 -0.6029  0.7439 -0.7498
 9307SOL     OW39553   4.374   3.081   6.222  1.0223 -1.2594 -0.0926
 9307SOL    HW139554   4.280   3.065   6.225  0.8203  0.6001  3.1523
 9307SOL    HW239555   4.370   3.175   6.240  0.5210 -1.4345  0.6874
 9308SOL     OW39556   3.340   0.551  12.964  0.0200  0.2143 -0.8463
 9308SOL    HW139557   3.427   0.562  12.925 -0.2971  2.8161 -0.8162
 9308SOL    HW239558   3.328   0.456  12.963 -0.1780  0.2287  0.0342
 9309SOL     OW39559   4.141   2.397   3.805  0.1127 -0.2919  0.0484
 9309SOL    HW139560   4.131   2.326   3.742 -1.6094 -1.1259  1.2701
 9309SOL    HW239561   4.224   2.429   3.768  1.1403 -0.7622  1.9539
 9310SOL     OW39562   2.918   1.700  16.583  0.5584  0.3884 -0.2094
 9310SOL    HW139563   2.841   1.755  16.572 -0.8290 -1.1708  1.8633
 9310SOL    HW239564   2.884   1.611  16.586 -1.1121  1.0430  0.2534
 9311SOL     OW39565   4.530   0.980   1.470  0.0860  0.3114 -0.3793
 9311SOL    HW139566   4.446   0.944   1.499 -0.9803  2.7200 -0.4714
 9311SOL    HW239567   4.592   0.930   1.522  0.0309 -1.3315 -1.8752
 9312SOL     OW39568   0.810   4.504   7.038 -0.2119 -0.0243 -0.1606
 9312SOL    HW139569   0.743   4.449   6.997 -2.0200  2.3576 -0.4118
 9312SOL    HW239570   0.895   4.459   7.030 -0.3258 -0.1245 -0.7844
 9313SOL     OW39571   4.472   4.198   5.013 -0.2883  0.1368  0.4209
 9313SOL    HW139572   4.439   4.226   5.098 -0.2994 -0.6101  0.6634
 9313SOL    HW239573   4.441   4.109   4.998  0.2969 -0.2229  1.3725
 9314SOL     OW39574   2.231   0.334   7.688  0.1519 -0.0516  0.2742
 9314SOL    HW139575   2.206   0.425   7.672  1.0524 -0.0611 -1.1355
 9314SOL    HW239576   2.309   0.339   7.744 -0.6122  0.3844  1.3074
 9315SOL     OW39577   0.217   3.647   3.045 -0.0249  0.1307  0.6749
 9315SOL    HW139578   0.152   3.609   3.104  1.1389 -2.5683  0.2190
 9315SOL    HW239579   0.189   3.733   3.075  0.6472  0.3034  0.8041
 9316SOL     OW39580   0.916   2.021  10.417 -0.8189  0.5559 -0.0722
 9316SOL    HW139581   0.891   2.022  10.510 -1.5093  1.2886 -0.2584
 9316SOL    HW239582   0.894   1.930  10.396 -0.6155  0.4990 -0.0320
 9317SOL     OW39583   2.021   2.108   7.061 -0.5059  0.3226 -0.1323
 9317SOL    HW139584   2.035   2.134   7.152 -0.1234  1.2298 -0.4499
 9317SOL    HW239585   1.963   2.035   7.080  0.8746 -0.8617 -0.4051
 9318SOL     OW39586   2.486   0.984  12.165  0.1929 -0.0511 -0.1131
 9318SOL    HW139587   2.435   1.054  12.206  2.4245  1.5232  0.0370
 9318SOL    HW239588   2.433   0.965  12.088 -3.5025  0.8596  2.2055
 9319SOL     OW39589   4.267   3.122   5.173 -0.1313 -0.3903  0.7341
 9319SOL    HW139590   4.306   3.087   5.093  1.7511  2.6202  0.3629
 9319SOL    HW239591   4.185   3.135   5.125  1.5361  2.1416 -1.4070
 9320SOL     OW39592   3.365   0.283   9.028  0.4704 -0.3409 -0.1634
 9320SOL    HW139593   3.455   0.279   9.061  0.4365 -1.3423 -0.1887
 9320SOL    HW239594   3.317   0.270   9.110 -0.1528  0.3824 -0.4165
 9321SOL     OW39595   3.338   3.326   3.022 -0.4530  0.0764 -0.2260
 9321SOL    HW139596   3.428   3.349   3.044 -0.6755  2.0566 -1.3857
 9321SOL    HW239597   3.310   3.259   3.085 -1.3260 -1.6635 -2.4924
 9322SOL     OW39598   1.568   2.616  17.382 -0.3138  0.3337 -0.4106
 9322SOL    HW139599   1.582   2.711  17.378  0.9397  0.1197 -1.0163
 9322SOL    HW239600   1.474   2.609  17.365 -0.0293 -0.5015 -1.6569
 9323SOL     OW39601   2.517   1.091  10.164  0.1424 -0.4872 -0.3106
 9323SOL    HW139602   2.491   1.002  10.185 -2.8110  0.5877  0.6644
 9323SOL    HW239603   2.611   1.084  10.176 -0.0687 -0.9105  1.0943
 9324SOL     OW39604   3.029   1.564   1.574 -0.3660  0.4106  0.5032
 9324SOL    HW139605   2.981   1.513   1.639  1.3063 -0.8265  0.7789
 9324SOL    HW239606   3.121   1.558   1.599  0.0798  0.9638 -0.9617
 9325SOL     OW39607   2.999   2.112   7.470  0.2690  0.6509  0.4080
 9325SOL    HW139608   3.081   2.160   7.464 -0.3564  1.0769 -4.6722
 9325SOL    HW239609   2.941   2.183   7.498 -0.1590  0.8447 -0.9832
 9326SOL     OW39610   3.374   1.968   3.877 -0.3273 -0.4707 -0.2167
 9326SOL    HW139611   3.422   1.962   3.794 -0.3526  0.4095 -0.2948
 9326SOL    HW239612   3.299   1.909   3.875  0.4174 -1.4695  1.4216
 9327SOL     OW39613   1.472   4.311   5.461  0.1823 -0.0495  0.3816
 9327SOL    HW139614   1.539   4.262   5.508 -0.0474  1.8552  2.7235
 9327SOL    HW239615   1.406   4.241   5.461  0.1771 -0.0383 -0.1986
 9328SOL     OW39616   2.224   4.320   0.831  0.1877  0.3053  0.3339
 9328SOL    HW139617   2.295   4.283   0.778 -0.3925  3.2931 -2.4902
 9328SOL    HW239618   2.229   4.413   0.809 -2.4862  0.1656 -0.8397
 9329SOL     OW39619   4.404   2.171   9.565  0.1641  0.4802 -0.2296
 9329SOL    HW139620   4.392   2.229   9.490  0.3931  1.1044  0.2136
 9329SOL    HW239621   4.489   2.193   9.603  0.6113 -0.6859 -0.5737
 9330SOL     OW39622   1.835   2.681   4.883 -0.3814 -0.8131 -0.0039
 9330SOL    HW139623   1.826   2.757   4.826  0.2523 -1.3511 -0.8269
 9330SOL    HW239624   1.763   2.623   4.859 -1.4908  0.1623  1.0125
 9331SOL     OW39625   1.447   4.607   8.801  0.4357 -0.2279 -0.3578
 9331SOL    HW139626   1.432   4.522   8.760  0.0608  0.8729 -2.5064
 9331SOL    HW239627   1.411   4.597   8.889  1.4662  0.0577  0.1019
 9332SOL     OW39628   4.240   1.470  12.897 -0.4868 -0.9814  0.2006
 9332SOL    HW139629   4.153   1.495  12.929 -0.3729 -0.1731 -0.1125
 9332SOL    HW239630   4.293   1.465  12.976  0.0849 -0.1231 -0.1265
 9333SOL     OW39631   3.547   3.957   6.902 -0.1482  0.4720  0.6161
 9333SOL    HW139632   3.628   3.912   6.928 -0.8588 -1.7371 -1.0311
 9333SOL    HW239633   3.523   3.908   6.824  1.8822  0.1205  0.2002
 9334SOL     OW39634   3.597   3.809   8.056 -0.1981 -0.1729 -0.1392
 9334SOL    HW139635   3.517   3.758   8.071 -1.1367  1.7454  1.4320
 9334SOL    HW239636   3.658   3.767   8.117  0.8731 -1.2396 -1.9683
 9335SOL     OW39637   2.201   4.644   3.772 -0.3654  0.3217  0.0829
 9335SOL    HW139638   2.214   4.626   3.865  4.7791 -1.0107 -0.9122
 9335SOL    HW239639   2.280   4.693   3.750 -0.0573 -0.4121 -0.4683
 9336SOL     OW39640   0.894   2.301   8.023  0.1019 -0.1011 -0.3343
 9336SOL    HW139641   0.852   2.348   8.095  0.9089 -0.8960  0.6521
 9336SOL    HW239642   0.865   2.213   8.044 -2.5827  0.6129 -1.0769
 9337SOL     OW39643   1.676   4.163   5.605 -0.3343 -0.0496  0.1584
 9337SOL    HW139644   1.756   4.116   5.629 -0.6819 -0.7057  0.0539
 9337SOL    HW239645   1.619   4.121   5.670 -0.2921  0.5014  0.5453
 9338SOL     OW39646   3.541   0.659   4.473 -0.0353 -0.7336  0.5681
 9338SOL    HW139647   3.487   0.594   4.429  0.3807 -2.6454  2.8546
 9338SOL    HW239648   3.581   0.709   4.402 -0.8323 -2.1309 -0.8780
 9339SOL     OW39649   4.185   3.088   3.614 -0.2525 -0.4449  0.5364
 9339SOL    HW139650   4.172   3.174   3.573 -1.1140 -1.5414 -1.4931
 9339SOL    HW239651   4.099   3.079   3.655  0.2810  1.7447  2.1535
 9340SOL     OW39652   1.272   2.859  11.740 -0.5144 -0.0384  0.7407
 9340SOL    HW139653   1.206   2.791  11.726  0.2479 -1.1490  2.6971
 9340SOL    HW239654   1.346   2.826  11.690 -0.6321 -1.7611  1.7308
 9341SOL     OW39655   0.309   4.233   0.609 -0.6803  0.0889  0.3745
 9341SOL    HW139656   0.215   4.241   0.629 -0.5547 -0.5640  1.2284
 9341SOL    HW239657   0.349   4.247   0.695  0.4995  1.1998 -0.3704
 9342SOL     OW39658   2.859   3.752   9.766 -0.1115  0.1052 -0.6573
 9342SOL    HW139659   2.869   3.736   9.672  1.2369  4.0156 -1.1729
 9342SOL    HW239660   2.947   3.747   9.802  0.4120 -0.8929 -2.0636
 9343SOL     OW39661   2.500   0.283   3.086 -0.1021 -0.0399  0.2738
 9343SOL    HW139662   2.554   0.357   3.057 -0.0094 -0.0915  0.3150
 9343SOL    HW239663   2.444   0.319   3.155 -1.1864 -1.3207  0.0643
 9344SOL     OW39664   1.504   1.338   2.307 -0.3663  0.2932  0.4725
 9344SOL    HW139665   1.571   1.354   2.374  0.2900  0.5250 -0.2316
 9344SOL    HW239666   1.497   1.431   2.284  4.2575  0.4543 -0.2145
 9345SOL     OW39667   0.098   1.787   7.255 -0.4599 -0.2705  0.1953
 9345SOL    HW139668   0.075   1.800   7.164  0.0632 -2.8954 -0.3106
 9345SOL    HW239669   0.052   1.707   7.278 -0.3604 -0.3819  0.0036
 9346SOL     OW39670   4.523   0.208   4.547  0.1378  0.4636 -0.3979
 9346SOL    HW139671   4.443   0.173   4.587  1.0092  0.5880  1.4578
 9346SOL    HW239672   4.577   0.134   4.520  0.8040  0.4452  1.0057
 9347SOL     OW39673   0.447   0.162   1.968  0.3920  0.3190 -0.1088
 9347SOL    HW139674   0.355   0.166   1.945  0.4884 -1.8857 -0.8972
 9347SOL    HW239675   0.456   0.088   2.028 -3.8354  1.0372  1.3485
 9348SOL     OW39676   4.692   1.368   6.576 -0.1048 -0.1819  0.5661
 9348SOL    HW139677   4.649   1.437   6.525  0.5195  0.4479  0.9030
 9348SOL    HW239678   4.699   1.300   6.509 -1.3469 -0.9616  1.2224
 9349SOL     OW39679   1.432   2.520   6.031  0.5353  0.1874 -0.0489
 9349SOL    HW139680   1.477   2.561   6.106  0.6948  1.5325 -0.8734
 9349SOL    HW239681   1.477   2.564   5.958  2.4108 -0.3123  0.7968
 9350SOL     OW39682   3.681   2.165   3.977 -0.0458 -0.1006 -0.3341
 9350SOL    HW139683   3.775   2.181   3.971  0.3585 -2.1252  0.6863
 9350SOL    HW239684   3.647   2.175   3.888  1.1709  0.0035 -0.7865
 9351SOL     OW39685   1.954   0.078  13.711  0.1068  0.6089  0.5150
 9351SOL    HW139686   1.889   0.011  13.734  2.0760 -0.8404  1.8532
 9351SOL    HW239687   1.924   0.155  13.759 -1.5027 -1.7296  3.2332
 9352SOL     OW39688   3.491   1.177   5.956 -0.0829  0.7098  0.0654
 9352SOL    HW139689   3.557   1.109   5.969 -0.6586  0.4423  1.6621
 9352SOL    HW239690   3.449   1.146   5.876  0.9643 -0.1465 -0.1548
 9353SOL     OW39691   3.250   2.530   7.243 -0.5340  0.1463 -0.5716
 9353SOL    HW139692   3.327   2.532   7.299 -0.0581  2.0588 -1.2934
 9353SOL    HW239693   3.211   2.446   7.268  1.0171  0.0558  1.5551
 9354SOL     OW39694   3.299   4.508   3.176  0.2492 -0.3763 -0.4016
 9354SOL    HW139695   3.291   4.550   3.090 -2.2133 -1.0995 -0.5266
 9354SOL    HW239696   3.380   4.539   3.217  0.3367 -0.5486 -0.4476
 9355SOL     OW39697   0.863   1.659   5.203  0.4423  0.1629  0.0270
 9355SOL    HW139698   0.917   1.599   5.152  1.0107  1.4176 -0.8530
 9355SOL    HW239699   0.920   1.695   5.271  2.1298 -0.8086 -0.8700
 9356SOL     OW39700   3.736   2.621   3.686 -0.1854  0.4466 -0.0247
 9356SOL    HW139701   3.658   2.594   3.735 -1.7356  0.4760 -2.4821
 9356SOL    HW239702   3.791   2.548   3.715  1.3207  1.1167 -1.1744
 9357SOL     OW39703   3.267   0.325   5.224  0.1105 -0.3203 -0.8227
 9357SOL    HW139704   3.192   0.336   5.166  0.2602 -1.1254 -1.1635
 9357SOL    HW239705   3.231   0.342   5.310  2.1348  0.0010 -0.0315
 9358SOL     OW39706   3.231   3.775   8.079 -0.2970  0.1014  0.8770
 9358SOL    HW139707   3.282   3.773   7.998 -1.8573 -3.2370  0.0129
 9358SOL    HW239708   3.182   3.858   8.074 -1.0211 -0.3830 -0.0353
 9359SOL     OW39709   3.308   0.055   2.487 -0.0729 -0.1460  0.6304
 9359SOL    HW139710   3.291   0.015   2.402  3.1500  1.3320 -0.7511
 9359SOL    HW239711   3.366   4.726   2.525  0.4712  0.0440  0.1455
 9360SOL     OW39712   1.280   0.908   4.033  0.7832 -0.2116 -0.0088
 9360SOL    HW139713   1.297   0.927   4.126  1.4294 -0.1866 -0.1301
 9360SOL    HW239714   1.187   0.885   4.034  0.7150  0.0101 -1.2036
 9361SOL     OW39715   3.686   3.453   4.666  0.1993 -0.5694  0.0204
 9361SOL    HW139716   3.716   3.442   4.576  1.4619 -0.8342  0.4705
 9361SOL    HW239717   3.765   3.469   4.719 -1.2534 -1.6659  2.5107
 9362SOL     OW39718   3.784   2.686   9.248  0.1136 -0.1713  0.7953
 9362SOL    HW139719   3.708   2.716   9.198  0.1440  1.1218  1.5061
 9362SOL    HW239720   3.788   2.764   9.303  0.9096 -1.3898  2.4685
 9363SOL     OW39721   3.395   2.040   9.365  0.4736 -0.1867  0.6012
 9363SOL    HW139722   3.435   2.086   9.439  1.1379 -0.3991  0.3725
 9363SOL    HW239723   3.363   1.964   9.415 -2.1679  0.4167 -0.1763
 9364SOL     OW39724   1.854   2.042  14.597  0.9326 -0.1881  0.1685
 9364SOL    HW139725   1.880   2.122  14.643 -2.8183 -0.5180  2.8864
 9364SOL    HW239726   1.906   1.979  14.648  2.0253 -1.0066 -1.9781
 9365SOL     OW39727   4.070   0.040   8.840 -0.0142  0.2446 -0.0824
 9365SOL    HW139728   3.988   0.001   8.809  0.4771 -2.1760  1.6110
 9365SOL    HW239729   4.031   0.117   8.881 -0.5841  0.5092 -1.1331
 9366SOL     OW39730   4.203   0.175   6.971 -0.1206  0.2617 -0.0270
 9366SOL    HW139731   4.156   0.172   6.887 -0.0344  0.3327 -0.0779
 9366SOL    HW239732   4.204   0.081   6.988 -1.1945  0.4299  1.0300
 9367SOL     OW39733   2.477   2.658   8.882  0.1015 -0.1998 -0.2039
 9367SOL    HW139734   2.537   2.716   8.834  1.5115 -1.5228 -0.0479
 9367SOL    HW239735   2.439   2.718   8.947  0.3185 -1.1649  0.8132
 9368SOL     OW39736   1.848   4.165  12.315 -0.2592 -0.5015  0.7044
 9368SOL    HW139737   1.834   4.249  12.271 -2.2531 -1.0892  0.1908
 9368SOL    HW239738   1.787   4.177  12.388 -1.7469  2.1442 -0.9752
 9369SOL     OW39739   0.281   4.094  10.093 -0.3436  0.2542 -0.0810
 9369SOL    HW139740   0.263   4.177  10.137  1.2883  0.5214  0.0560
 9369SOL    HW239741   0.349   4.119  10.030 -0.3227 -1.3508 -0.6997
 9370SOL     OW39742   2.443   0.720   3.727 -0.4352  0.6379  0.3627
 9370SOL    HW139743   2.466   0.644   3.780  0.6628  0.6386 -0.1059
 9370SOL    HW239744   2.445   0.794   3.788  0.0390  2.6363 -2.0950
 9371SOL     OW39745   1.064   2.253   9.494  0.3444  0.2003 -0.4306
 9371SOL    HW139746   1.039   2.209   9.576  0.4503 -1.0745 -1.0896
 9371SOL    HW239747   1.134   2.313   9.522  1.6860 -1.4791 -0.2059
 9372SOL     OW39748   0.905   2.180  13.635 -0.2854 -0.1043 -0.4797
 9372SOL    HW139749   0.926   2.191  13.542  0.1609  1.2981 -0.2081
 9372SOL    HW239750   0.983   2.220  13.672 -2.1740  3.3718 -0.2730
 9373SOL     OW39751   3.266   1.481   1.642  0.2594 -0.4174  0.1623
 9373SOL    HW139752   3.336   1.509   1.701  0.9793 -0.5504 -0.6174
 9373SOL    HW239753   3.310   1.452   1.561  1.1019 -2.3440  1.3002
 9374SOL     OW39754   4.468   0.201   8.485 -0.1850 -0.0870 -0.5954
 9374SOL    HW139755   4.399   0.221   8.548  0.3645 -0.7859  0.2401
 9374SOL    HW239756   4.417   0.184   8.406 -1.2304 -0.1144  0.0956
 9375SOL     OW39757   2.401   3.928   8.434 -0.8700  0.7707  0.2375
 9375SOL    HW139758   2.351   4.007   8.454 -0.0943  1.8803 -2.1795
 9375SOL    HW239759   2.417   3.891   8.521  2.4119  0.4985 -0.4500
 9376SOL     OW39760   3.811   2.289  11.864 -0.1946  0.0102  0.7501
 9376SOL    HW139761   3.831   2.285  11.771 -0.6531  0.7077  0.6193
 9376SOL    HW239762   3.724   2.249  11.868 -0.4724  0.4197 -1.2100
 9377SOL     OW39763   4.419   3.064   6.822 -0.3561 -0.2273 -0.1880
 9377SOL    HW139764   4.494   3.012   6.793  0.2631 -0.2230  1.3690
 9377SOL    HW239765   4.431   3.142   6.769  1.0007  0.6483  1.4246
 9378SOL     OW39766   3.209   1.819  11.677  0.0315  0.2859  0.8599
 9378SOL    HW139767   3.163   1.765  11.741 -0.5288  0.9644  1.0342
 9378SOL    HW239768   3.300   1.805  11.702  0.5743  1.6267 -0.3980
 9379SOL     OW39769   0.302   2.911  13.610 -1.1175  0.1952 -0.2675
 9379SOL    HW139770   0.361   2.837  13.602  0.0955  0.9664  1.6873
 9379SOL    HW239771   0.288   2.933  13.518 -1.4372  0.6648 -0.1088
 9380SOL     OW39772   2.881   2.210   1.713  0.0865  0.3016 -0.8236
 9380SOL    HW139773   2.812   2.270   1.744 -0.0340  0.2343 -0.9606
 9380SOL    HW239774   2.836   2.174   1.636  0.0909  2.1654 -1.7030
 9381SOL     OW39775   4.693   0.705   7.309  0.0884 -0.0392  0.2952
 9381SOL    HW139776   4.612   0.682   7.355  2.2057 -2.6839  2.6824
 9381SOL    HW239777   4.719   0.621   7.274 -2.9088 -0.6477 -0.4535
 9382SOL     OW39778   4.510   0.642  13.384 -0.4261 -0.2554 -0.0980
 9382SOL    HW139779   4.554   0.687  13.313 -2.1400  0.1840 -0.8834
 9382SOL    HW239780   4.421   0.677  13.383  0.6672  2.5638  2.1488
 9383SOL     OW39781   2.531   3.009   5.705  0.1900 -0.1602 -0.3037
 9383SOL    HW139782   2.587   2.942   5.744 -0.2007 -0.7837 -0.8187
 9383SOL    HW239783   2.484   2.964   5.635 -1.6337 -3.4228  3.0172
 9384SOL     OW39784   2.136   0.350   1.620  0.1748  0.5909 -0.1236
 9384SOL    HW139785   2.064   0.330   1.560  1.5354 -0.9003 -1.2412
 9384SOL    HW239786   2.133   0.267   1.666  0.9629  0.7025  0.1245
 9385SOL     OW39787   2.497   0.386   1.363  0.2516  0.0293  0.7450
 9385SOL    HW139788   2.401   0.382   1.369  0.0774  2.3635 -0.7144
 9385SOL    HW239789   2.528   0.404   1.452  2.3890 -1.5011  0.3093
 9386SOL     OW39790   0.995   4.347   2.621  0.1454 -0.3597  0.2252
 9386SOL    HW139791   0.911   4.324   2.661  0.5923 -2.2671  0.0263
 9386SOL    HW239792   0.974   4.315   2.534  3.0481 -1.6349 -0.0133
 9387SOL     OW39793   3.979   1.000   8.968 -0.2151 -0.4356 -0.1027
 9387SOL    HW139794   3.923   0.996   8.890 -2.2426 -0.7229  1.3785
 9387SOL    HW239795   4.065   0.984   8.930 -0.7571 -4.2264  0.3042
 9388SOL     OW39796   3.841   4.462   3.724  0.2079 -0.2186 -0.1357
 9388SOL    HW139797   3.768   4.506   3.768  0.5919 -0.9052  1.1813
 9388SOL    HW239798   3.821   4.492   3.635 -0.2673  0.9847  0.3676
 9389SOL     OW39799   2.765   2.276   1.410 -0.7636  0.2480  0.6333
 9389SOL    HW139800   2.830   2.302   1.345 -0.5123  2.1367  1.6500
 9389SOL    HW239801   2.752   2.358   1.458 -0.9616  1.4094 -1.4457
 9390SOL     OW39802   0.221   0.627   5.436  0.1508  0.4466  0.0576
 9390SOL    HW139803   0.230   0.687   5.510  0.6999 -0.7549  0.9720
 9390SOL    HW239804   0.215   0.689   5.363  0.9819  0.3017 -0.1323
 9391SOL     OW39805   1.721   1.536  17.371  0.4642 -0.2843 -0.8063
 9391SOL    HW139806   1.703   1.493  17.288 -1.7078  0.7224 -0.8510
 9391SOL    HW239807   1.667   1.614  17.362  0.4723 -0.4688 -2.4435
 9392SOL     OW39808   4.255   1.401   3.620  0.1659 -0.2673  0.2980
 9392SOL    HW139809   4.231   1.378   3.709 -1.9206  0.2264 -0.1466
 9392SOL    HW239810   4.327   1.464   3.625  0.1875 -0.4527  2.0841
 9393SOL     OW39811   4.004   1.793   3.884 -0.0939  0.2073  0.1574
 9393SOL    HW139812   3.918   1.806   3.845  0.6065  0.0909 -1.4083
 9393SOL    HW239813   4.057   1.781   3.805 -1.9814 -0.9117 -0.9363
 9394SOL     OW39814   4.103   0.653   6.951 -0.6983  0.2570  0.3478
 9394SOL    HW139815   4.083   0.652   7.045  1.9834 -1.6488  0.9127
 9394SOL    HW239816   4.198   0.636   6.948 -0.8387 -0.4267 -0.2138
 9395SOL     OW39817   3.702   4.389   7.878  0.2712 -0.5277 -0.2893
 9395SOL    HW139818   3.722   4.327   7.807  2.4585  0.6049 -0.6560
 9395SOL    HW239819   3.788   4.405   7.915 -0.0058 -0.8406  0.5018
 9396SOL     OW39820   3.956   0.730  15.733  0.1997  0.1985  0.0537
 9396SOL    HW139821   3.950   0.671  15.658 -2.1417  0.1281  0.2869
 9396SOL    HW239822   3.935   0.816  15.695 -0.4850  0.2816  0.6135
 9397SOL     OW39823   1.703   1.973   0.203  0.3618 -0.4444  0.1407
 9397SOL    HW139824   1.631   1.923   0.239 -0.8339  0.6897 -0.6881
 9397SOL    HW239825   1.764   1.901   0.186  0.8460  0.6018 -2.7034
 9398SOL     OW39826   1.046   3.451   6.242 -0.3665  0.0985  0.1853
 9398SOL    HW139827   1.029   3.468   6.334 -2.3576 -1.4028  0.0903
 9398SOL    HW239828   1.050   3.356   6.247 -1.4094 -0.1234 -2.9418
 9399SOL     OW39829   0.446   1.589   7.033 -0.1327  0.5373 -0.0202
 9399SOL    HW139830   0.445   1.661   7.096 -1.8896 -0.2355  0.8534
 9399SOL    HW239831   0.531   1.548   7.046 -2.7253 -3.9519  2.9561
 9400SOL     OW39832   1.461   3.738   5.756 -0.2330 -0.3653 -0.0886
 9400SOL    HW139833   1.398   3.752   5.685 -0.1437  0.0847 -0.0826
 9400SOL    HW239834   1.414   3.758   5.836 -1.3305 -3.5701  0.0393
 9401SOL     OW39835   4.570   2.956  13.032  0.0775  0.3358 -0.2901
 9401SOL    HW139836   4.565   2.877  13.085 -1.3035  1.2197  0.9074
 9401SOL    HW239837   4.476   2.966  13.016  0.4884 -0.5596 -3.3466
 9402SOL     OW39838   0.917   3.072  12.892  0.5282  0.6793  0.1376
 9402SOL    HW139839   1.011   3.062  12.877  0.1722  0.0673 -1.6270
 9402SOL    HW239840   0.890   3.121  12.815 -1.8977 -0.1935  0.4101
 9403SOL     OW39841   0.659   4.703   8.051 -0.0431 -0.6005  0.1236
 9403SOL    HW139842   0.699   0.002   8.130 -2.3175 -2.4896  2.1346
 9403SOL    HW239843   0.707   0.006   7.979  0.8957 -1.0504  0.4923
 9404SOL     OW39844   1.092   1.061  14.105  0.5749 -0.0560 -0.3926
 9404SOL    HW139845   1.165   1.078  14.165 -0.6507  1.1073  0.7451
 9404SOL    HW239846   1.133   1.075  14.019 -1.9018  1.9597 -1.2388
 9405SOL     OW39847   4.428   3.154  10.605 -0.8508  0.0749  0.5337
 9405SOL    HW139848   4.452   3.211  10.532 -2.5285 -1.0013 -0.8570
 9405SOL    HW239849   4.509   3.138  10.654 -0.1984 -1.7175 -1.1659
 9406SOL     OW39850   3.653   1.605  12.249 -0.6561  0.0192  0.4615
 9406SOL    HW139851   3.665   1.577  12.158  3.0920  0.5608  0.8081
 9406SOL    HW239852   3.619   1.693  12.237  2.9868  1.3225 -0.1797
 9407SOL     OW39853   1.245   0.436   4.963  0.5135  0.3011 -0.1723
 9407SOL    HW139854   1.307   0.376   4.921 -2.2321 -2.8636  0.3142
 9407SOL    HW239855   1.229   0.399   5.050  0.2659 -1.0051 -0.7713
 9408SOL     OW39856   0.425   3.926   4.804 -0.2956  0.4073  0.0524
 9408SOL    HW139857   0.490   3.867   4.841  2.7238  2.5666 -1.8056
 9408SOL    HW239858   0.358   3.921   4.873  1.1623  1.0679  1.5074
 9409SOL     OW39859   0.587   4.326   2.523 -0.2066  0.1188  0.3562
 9409SOL    HW139860   0.536   4.403   2.547 -0.9034  0.5724 -2.4894
 9409SOL    HW239861   0.614   4.359   2.437  0.0089  3.3059  1.6631
 9410SOL     OW39862   1.121   2.618   3.333  0.0204 -0.4118  0.0155
 9410SOL    HW139863   1.197   2.562   3.351 -0.1756 -0.3011  1.1669
 9410SOL    HW239864   1.095   2.648   3.420  1.1777 -0.7698  0.4801
 9411SOL     OW39865   1.333   2.805   6.580 -0.4138 -0.3793  0.2631
 9411SOL    HW139866   1.243   2.815   6.548 -0.1604  0.2498 -0.2613
 9411SOL    HW239867   1.355   2.717   6.550  0.7124  0.1498 -0.4500
 9412SOL     OW39868   3.069   3.670   7.624 -0.3837  0.6869  0.0825
 9412SOL    HW139869   2.974   3.680   7.614 -0.4753 -0.7799 -0.4443
 9412SOL    HW239870   3.067   3.653   7.718  0.2840  1.4959  0.2465
 9413SOL     OW39871   2.197   1.413   2.188 -0.2784 -0.0505  0.4547
 9413SOL    HW139872   2.232   1.354   2.255  0.6287  0.4939  0.4541
 9413SOL    HW239873   2.254   1.399   2.113 -1.1379 -0.4165 -0.1419
 9414SOL     OW39874   2.621   4.450   3.399  0.2888  0.0486 -0.0232
 9414SOL    HW139875   2.527   4.442   3.412  0.2564 -0.5072 -0.5642
 9414SOL    HW239876   2.627   4.493   3.314 -2.0237  2.0675  0.8368
 9415SOL     OW39877   2.862   1.017   4.980 -0.7218  0.5290  0.4507
 9415SOL    HW139878   2.904   0.937   4.948 -1.7024  0.0569  0.3644
 9415SOL    HW239879   2.930   1.042   5.043 -1.8103  0.3376  1.7150
 9416SOL     OW39880   1.838   1.553   3.153 -0.2575 -0.7061 -0.0559
 9416SOL    HW139881   1.872   1.489   3.216 -1.9382  0.5982  2.2104
 9416SOL    HW239882   1.779   1.606   3.208 -0.8262  0.9734 -2.2751
 9417SOL     OW39883   2.215   0.000  14.239  0.5136  0.1673 -0.1572
 9417SOL    HW139884   2.295   4.686  14.246  0.1359 -0.6180 -1.6058
 9417SOL    HW239885   2.239   0.091  14.254  0.1907  0.2648 -0.2208
 9418SOL     OW39886   3.846   1.579  15.079  0.5425  0.0744 -0.0190
 9418SOL    HW139887   3.852   1.516  15.007 -1.3230 -0.7338  0.5379
 9418SOL    HW239888   3.939   1.593  15.099  0.5624  0.1133 -0.1385
 9419SOL     OW39889   1.171   3.119   6.322  0.1079  0.1856  0.0225
 9419SOL    HW139890   1.260   3.152   6.330  0.3830 -0.1855 -1.6293
 9419SOL    HW239891   1.156   3.099   6.415 -2.0394 -0.5343 -0.4777
 9420SOL     OW39892   0.466   0.567   4.894 -0.1414 -0.1990  0.0362
 9420SOL    HW139893   0.489   0.542   4.805  1.0164 -1.6491  0.7514
 9420SOL    HW239894   0.415   0.492   4.925  1.3306 -0.6817  1.2560
 9421SOL     OW39895   2.275   3.646  15.360  0.4786 -0.3357  1.3511
 9421SOL    HW139896   2.237   3.660  15.274  2.5375 -0.0324  0.5078
 9421SOL    HW239897   2.285   3.732  15.400  3.8288 -0.7136  1.2950
 9422SOL     OW39898   0.061   4.036   9.071  0.4644  0.2026  0.1130
 9422SOL    HW139899   0.121   4.043   9.145  0.3444  1.9256  0.0612
 9422SOL    HW239900   0.110   4.079   9.000 -1.1021  0.1372 -1.0091
 9423SOL     OW39901   2.089   0.456   5.463 -0.4804  0.0820 -0.5017
 9423SOL    HW139902   2.078   0.372   5.506  0.9012 -0.6126 -1.5129
 9423SOL    HW239903   2.101   0.430   5.372 -1.9738 -0.9228 -0.4012
 9424SOL     OW39904   2.454   1.575   8.707  0.0689  0.4708  0.3751
 9424SOL    HW139905   2.466   1.522   8.786  2.5754  0.1088 -0.2679
 9424SOL    HW239906   2.369   1.539   8.679  1.3854 -0.7306 -2.0491
 9425SOL     OW39907   0.630   0.311   9.599  0.3706 -0.0191  0.0621
 9425SOL    HW139908   0.613   0.223   9.565  0.5912 -1.1683  2.8860
 9425SOL    HW239909   0.698   0.338   9.538  0.8208  0.6790  0.8764
 9426SOL     OW39910   2.906   3.319   8.720  0.0820  0.0628 -0.2471
 9426SOL    HW139911   2.995   3.315   8.755  0.3792  1.4531 -0.8500
 9426SOL    HW239912   2.894   3.414   8.713  2.3475  0.2399 -1.6497
 9427SOL     OW39913   1.334   4.019  10.203 -0.2663  0.0000 -0.1119
 9427SOL    HW139914   1.285   3.951  10.249  1.2609  0.2074  1.8578
 9427SOL    HW239915   1.266   4.058  10.149  1.2265  0.7819 -1.4374
 9428SOL     OW39916   1.455   2.437   2.690  0.5363  0.6088  0.2578
 9428SOL    HW139917   1.370   2.477   2.669 -0.7765 -2.5114 -0.4887
 9428SOL    HW239918   1.501   2.506   2.737 -0.0112 -0.2674  2.1042
 9429SOL     OW39919   0.189   3.366   2.972  0.0435 -0.2795 -0.0016
 9429SOL    HW139920   0.202   3.453   3.009 -0.4953  0.0185 -0.5067
 9429SOL    HW239921   0.277   3.344   2.941  0.5663  0.0915  1.2399
 9430SOL     OW39922   1.075   0.595   7.802 -0.2900  0.8710  0.0914
 9430SOL    HW139923   1.090   0.670   7.861  0.1729  2.3166 -1.8557
 9430SOL    HW239924   1.031   0.542   7.869 -1.5730  1.0434 -0.6188
 9431SOL     OW39925   2.376   2.208   9.039 -0.0355 -0.4105  0.2451
 9431SOL    HW139926   2.460   2.165   9.048  0.7505  1.0260 -0.2027
 9431SOL    HW239927   2.354   2.206   9.132  0.6835 -1.1594  0.3901
 9432SOL     OW39928   3.512   3.947   2.598  0.3315  0.5025 -0.0096
 9432SOL    HW139929   3.571   3.919   2.668  0.8806 -1.7914 -1.3993
 9432SOL    HW239930   3.476   3.862   2.574 -0.0722  0.7858 -0.3977
 9433SOL     OW39931   4.060   2.498  14.057 -0.9204 -0.1042 -0.1932
 9433SOL    HW139932   4.142   2.539  14.084 -0.3079 -1.9640  0.7364
 9433SOL    HW239933   4.033   2.573  14.003  0.5280 -0.4868 -1.4719
 9434SOL     OW39934   4.334   1.495   5.620  0.2999 -0.1996  0.0327
 9434SOL    HW139935   4.315   1.445   5.699  2.4851 -1.5258 -0.2696
 9434SOL    HW239936   4.361   1.419   5.569  3.7151  1.3427 -0.4884
 9435SOL     OW39937   0.068   0.465   6.497 -0.7075 -0.1670 -0.6444
 9435SOL    HW139938   0.125   0.486   6.423  0.9171  0.5715  0.8104
 9435SOL    HW239939   0.124   0.433   6.568  1.2380  1.3903 -1.4831
 9436SOL     OW39940   3.709   2.752   7.037 -0.3318  0.0177 -0.4942
 9436SOL    HW139941   3.755   2.676   7.072  1.0345  0.5783 -1.0765
 9436SOL    HW239942   3.696   2.800   7.119 -0.4746 -0.7896 -0.0485
 9437SOL     OW39943   3.318   4.229  15.071 -0.4405  0.1079  0.1033
 9437SOL    HW139944   3.323   4.134  15.086 -1.3112  0.1424  0.6485
 9437SOL    HW239945   3.400   4.255  15.114 -0.2582  0.1779 -0.2916
 9438SOL     OW39946   1.549   3.717   1.295 -0.1763  0.3260  0.3154
 9438SOL    HW139947   1.600   3.638   1.311  1.7736  1.3232 -1.0409
 9438SOL    HW239948   1.556   3.720   1.200  0.7557  0.3446  0.3869
 9439SOL     OW39949   1.758   1.963   4.424  0.4914  0.2839 -0.4806
 9439SOL    HW139950   1.721   1.963   4.512  0.5296  0.9491 -0.4612
 9439SOL    HW239951   1.813   2.041   4.435  0.7220 -0.0695  0.8294
 9440SOL     OW39952   2.340   2.717   4.641 -0.4175 -0.5219  0.0400
 9440SOL    HW139953   2.345   2.804   4.681  1.7849 -1.0604  0.9103
 9440SOL    HW239954   2.255   2.679   4.664 -0.4389  1.3366  3.0661
 9441SOL     OW39955   0.384   3.212   3.869 -0.3941  0.2523 -0.3607
 9441SOL    HW139956   0.333   3.142   3.831 -0.7470 -1.2637  2.9139
 9441SOL    HW239957   0.468   3.200   3.823  0.3604 -1.2224  1.4217
 9442SOL     OW39958   0.776   2.540   4.215  0.0103 -0.3321 -0.0545
 9442SOL    HW139959   0.822   2.461   4.243 -0.1713 -1.2970 -2.4821
 9442SOL    HW239960   0.774   2.587   4.299  1.9345  1.7358 -1.1507
 9443SOL     OW39961   3.223   2.066   2.387  0.0451 -0.0580  0.5053
 9443SOL    HW139962   3.133   2.068   2.420  0.8590 -1.3460  2.7984
 9443SOL    HW239963   3.217   2.143   2.331 -0.9993  0.7085  1.6761
 9444SOL     OW39964   0.593   2.076   4.283 -0.2478  0.1390  0.0058
 9444SOL    HW139965   0.594   2.155   4.337  0.5945 -0.5581  1.0169
 9444SOL    HW239966   0.553   2.012   4.342 -1.5427 -0.5233 -1.5800
 9445SOL     OW39967   3.417   3.748   4.184  0.4862 -0.6676 -0.7273
 9445SOL    HW139968   3.478   3.690   4.230 -0.7526 -0.4390  1.1932
 9445SOL    HW239969   3.343   3.691   4.164 -1.2485  0.7707  1.6502
 9446SOL     OW39970   3.530   2.997  16.235  0.1140 -0.2188 -0.5754
 9446SOL    HW139971   3.444   3.038  16.239 -0.3318 -1.3247  1.1928
 9446SOL    HW239972   3.577   3.062  16.184  0.1240  0.4285  0.2551
 9447SOL     OW39973   4.658   2.654  10.878  0.1474  0.0388 -0.1565
 9447SOL    HW139974   4.627   2.664  10.968  0.6865  0.8947 -0.0724
 9447SOL    HW239975   4.637   2.562  10.859 -0.6385  0.4024 -1.1046
 9448SOL     OW39976   2.326   4.656  15.835 -0.1128  0.3377 -0.2815
 9448SOL    HW139977   2.282   4.660  15.920 -0.0261  2.5368 -0.3410
 9448SOL    HW239978   2.281   4.702  15.764 -0.2926 -1.8840 -1.6137
 9449SOL     OW39979   3.032   4.696   6.670  0.4673 -0.1202 -0.5892
 9449SOL    HW139980   3.081   4.616   6.689  0.9079  0.0621 -0.9576
 9449SOL    HW239981   3.096   0.030   6.660  0.4729 -0.2779 -1.6768
 9450SOL     OW39982   4.332   2.335   8.483 -0.4024 -0.4135 -0.1631
 9450SOL    HW139983   4.356   2.347   8.391  1.6639  1.0638  0.5713
 9450SOL    HW239984   4.368   2.247   8.494 -0.0900  0.1052  2.9078
 9451SOL     OW39985   0.400   4.056   4.027 -0.1434  0.2640  0.6483
 9451SOL    HW139986   0.445   4.140   4.033 -0.5631  0.3713  2.2765
 9451SOL    HW239987   0.337   4.073   4.098 -2.5783 -2.9343 -0.7334
 9452SOL     OW39988   1.754   0.928   7.281 -0.5102 -0.1515  0.0901
 9452SOL    HW139989   1.729   1.019   7.264  0.9776  0.3442  0.5401
 9452SOL    HW239990   1.761   0.925   7.377  1.5129 -1.5422 -0.0956
 9453SOL     OW39991   2.868   3.750   9.466 -0.4411  0.6121  0.2262
 9453SOL    HW139992   2.888   3.790   9.381  0.6003 -1.1956 -0.3628
 9453SOL    HW239993   2.773   3.737   9.463 -0.3379 -0.2566  0.8956
 9454SOL     OW39994   1.521   0.732   4.327 -0.1990  0.4642  0.2271
 9454SOL    HW139995   1.435   0.702   4.357 -0.4873  0.9245 -0.1377
 9454SOL    HW239996   1.564   0.670   4.386  0.9803 -0.0329 -1.1650
 9455SOL     OW39997   4.616   0.293  15.588  0.0026 -0.6697 -0.6534
 9455SOL    HW139998   4.580   0.206  15.573 -0.2522 -0.8509  0.9606
 9455SOL    HW239999   4.657   0.325  15.508 -0.7456 -0.3763 -0.9195
 9456SOL     OW40000   3.935   0.530   6.753 -0.6175  0.3767  0.3955
 9456SOL    HW140001   3.987   0.488   6.684  0.7629 -0.1488  1.7546
 9456SOL    HW240002   4.003   0.580   6.798 -1.8417  1.9886  0.4574
 9457SOL     OW40003   1.952   0.913  11.201  0.2930 -0.7534 -0.4830
 9457SOL    HW140004   1.967   0.973  11.128 -0.9343  0.9905  0.7060
 9457SOL    HW240005   2.005   0.838  11.172  3.3804  1.4571 -0.6181
 9458SOL     OW40006   2.214   4.154   3.442  0.2189 -0.0379  0.2350
 9458SOL    HW140007   2.292   4.108   3.474  0.0455 -1.0779 -0.8785
 9458SOL    HW240008   2.164   4.152   3.523 -0.1368 -2.3111 -0.0558
 9459SOL     OW40009   0.472   2.465  16.638 -0.6244 -0.2032 -0.2419
 9459SOL    HW140010   0.394   2.443  16.689  0.5976  2.2757  2.6375
 9459SOL    HW240011   0.442   2.430  16.553 -4.7455  2.2333  0.1928
 9460SOL     OW40012   1.664   1.260   1.459 -0.0038 -0.1245 -0.1410
 9460SOL    HW140013   1.617   1.252   1.376 -2.6637 -0.2444  1.3600
 9460SOL    HW240014   1.689   1.352   1.466 -0.7606  0.0713 -0.0414
 9461SOL     OW40015   3.703   2.070   4.907 -0.2589  0.0862 -0.2197
 9461SOL    HW140016   3.663   2.111   4.830 -1.6828  0.1668  0.5752
 9461SOL    HW240017   3.648   2.100   4.978  0.5106 -2.9626  1.6473
 9462SOL     OW40018   4.458   2.419  14.014  0.0410  0.5451  0.3622
 9462SOL    HW140019   4.509   2.492  14.049 -0.4147  0.8809  0.3237
 9462SOL    HW240020   4.371   2.454  14.031  0.3525  1.2657  0.4507
 9463SOL     OW40021   3.789   4.684   3.156  0.6859 -0.4645  0.5691
 9463SOL    HW140022   3.860   4.621   3.157 -0.4650 -1.7557  0.2800
 9463SOL    HW240023   3.709   4.632   3.159  0.4445 -0.2884 -2.9359
 9464SOL     OW40024   0.204   3.545  17.236 -0.2714 -0.1726 -0.0515
 9464SOL    HW140025   0.274   3.602  17.204  0.1335 -0.0496  1.0517
 9464SOL    HW240026   0.180   3.499  17.155  1.8178 -0.6812 -0.3715
 9465SOL     OW40027   3.597   1.493   3.355  0.1187  0.0421 -0.0526
 9465SOL    HW140028   3.577   1.439   3.432 -1.9111 -1.3638 -1.5719
 9465SOL    HW240029   3.561   1.575   3.387 -1.1049 -0.7642  0.6592
 9466SOL     OW40030   1.588   0.133  15.456 -0.1585  0.5879 -0.2827
 9466SOL    HW140031   1.545   0.214  15.483 -2.3175 -0.3016 -1.0334
 9466SOL    HW240032   1.559   0.072  15.523  0.2183 -1.4720 -1.9664
 9467SOL     OW40033   1.275   1.321   7.987  0.3169 -0.1648  0.0965
 9467SOL    HW140034   1.200   1.334   8.045  0.0084  1.0735 -0.5842
 9467SOL    HW240035   1.341   1.360   8.046  0.7206 -1.9071  0.7976
 9468SOL     OW40036   4.016   0.293   6.129 -0.8560 -0.3120 -0.7749
 9468SOL    HW140037   3.932   0.335   6.147  0.1863  1.2692  0.3929
 9468SOL    HW240038   3.978   0.238   6.061 -1.5094  1.7871 -2.0985
 9469SOL     OW40039   2.035   4.400   8.033  0.0379  0.1658 -0.4397
 9469SOL    HW140040   2.062   4.347   7.958  0.3854 -0.6959  0.2982
 9469SOL    HW240041   2.100   4.365   8.093 -0.7590  0.3042  0.5162
 9470SOL     OW40042   3.857   4.405   4.722  0.2603 -0.0953  0.2119
 9470SOL    HW140043   3.815   4.438   4.642 -0.8296  0.4879  1.0109
 9470SOL    HW240044   3.789   4.346   4.754  0.8202 -0.7622  0.1549
 9471SOL     OW40045   2.935   4.129   3.261 -0.0794 -0.3308 -0.4022
 9471SOL    HW140046   2.923   4.138   3.166  0.0936 -1.3486 -0.5163
 9471SOL    HW240047   3.029   4.114   3.270  0.4421  2.4990 -1.1805
 9472SOL     OW40048   2.357   1.370   5.174 -0.3698  0.4732  0.1726
 9472SOL    HW140049   2.434   1.375   5.117 -0.3263  2.0999  0.3699
 9472SOL    HW240050   2.304   1.313   5.117 -3.2510  1.5286  1.7603
 9473SOL     OW40051   0.734   0.362  11.590  0.2341  0.3810 -0.1254
 9473SOL    HW140052   0.696   0.297  11.649 -1.1501  1.1156 -0.2001
 9473SOL    HW240053   0.730   0.432  11.656  3.0052 -1.7518  2.3097
 9474SOL     OW40054   4.574   1.446  14.911  0.2627 -0.4938 -0.1721
 9474SOL    HW140055   4.498   1.405  14.954 -0.0808 -0.8478 -1.1243
 9474SOL    HW240056   4.631   1.380  14.872  0.5911  0.6775 -1.6655
 9475SOL     OW40057   1.402   2.524   4.661 -0.0853 -0.1045 -0.0908
 9475SOL    HW140058   1.310   2.504   4.674 -0.8841  1.3107 -3.8306
 9475SOL    HW240059   1.403   2.609   4.619 -1.2189 -0.4447 -0.7763
 9476SOL     OW40060   3.414   1.037  16.474  0.5609  0.1140  0.5110
 9476SOL    HW140061   3.339   1.095  16.481  0.4932 -0.0468  1.1021
 9476SOL    HW240062   3.435   1.048  16.381  0.8268 -0.5159  0.4937
 9477SOL     OW40063   0.232   2.638   3.043  0.2120  0.6290  0.6767
 9477SOL    HW140064   0.137   2.644   3.041  0.3395  2.0154 -0.8962
 9477SOL    HW240065   0.261   2.698   2.975 -0.0923 -0.1100 -0.1084
 9478SOL     OW40066   3.785   2.800   8.905  0.6343  0.1679 -0.1583
 9478SOL    HW140067   3.878   2.778   8.906 -0.1009 -2.9823  0.6875
 9478SOL    HW240068   3.780   2.873   8.966 -1.6969 -0.5849  0.5460
 9479SOL     OW40069   4.214   2.589   2.719  0.3590  0.0443 -0.2783
 9479SOL    HW140070   4.285   2.626   2.666 -0.2500 -0.4010 -1.4247
 9479SOL    HW240071   4.139   2.590   2.659  0.9622  4.0350 -0.9685
 9480SOL     OW40072   1.369   1.388   6.917 -0.1729  0.0709 -0.3921
 9480SOL    HW140073   1.427   1.312   6.912  0.7758  0.7583  0.1249
 9480SOL    HW240074   1.333   1.394   6.829 -1.5400 -2.0351  0.0265
 9481SOL     OW40075   0.208   2.498  10.671  0.2678 -0.7226 -0.0213
 9481SOL    HW140076   0.292   2.504  10.624  0.5082 -2.3088  0.2070
 9481SOL    HW240077   0.183   2.587  10.648 -0.8529 -0.9096  0.4623
 9482SOL     OW40078   3.754   2.663  11.770  0.4226 -0.1226 -0.2587
 9482SOL    HW140079   3.766   2.758  11.758  1.9263 -0.0857  1.5104
 9482SOL    HW240080   3.822   2.621  11.717 -0.0373  0.8338 -1.5857
 9483SOL     OW40081   3.155   1.827   7.769 -0.0281  0.1483  0.6176
 9483SOL    HW140082   3.078   1.771   7.782  0.6417 -1.0396 -0.6059
 9483SOL    HW240083   3.135   1.856   7.679  1.7740 -2.5235 -0.6508
 9484SOL     OW40084   1.113   3.426  10.455 -0.2836  0.3646  0.2906
 9484SOL    HW140085   1.155   3.471  10.529 -0.3201  0.4312  0.2711
 9484SOL    HW240086   1.185   3.388  10.403 -1.1810 -1.1862  0.2074
 9485SOL     OW40087   0.029   3.097   6.994  0.7416 -0.3776  0.8997
 9485SOL    HW140088   0.060   3.176   7.039  1.5488  0.1725 -0.6336
 9485SOL    HW240089   0.111   3.056   6.965  0.0474  0.8941 -2.8417
 9486SOL     OW40090   4.462   2.060   3.029  0.1967  0.0909 -0.0163
 9486SOL    HW140091   4.543   2.010   3.017  1.0383  0.9247  2.1093
 9486SOL    HW240092   4.475   2.059   3.124 -0.5365 -0.2409  0.0758
 9487SOL     OW40093   0.366   2.662  16.801 -0.3166 -0.2584  0.1200
 9487SOL    HW140094   0.443   2.712  16.827 -0.7927  0.4281  0.2163
 9487SOL    HW240095   0.297   2.674  16.866  1.4081 -0.4338  1.9781
 9488SOL     OW40096   0.065   1.006  14.721  0.0185 -0.0235  0.1070
 9488SOL    HW140097   0.089   0.955  14.644  2.4391  0.6460  0.4269
 9488SOL    HW240098   0.043   0.938  14.785 -0.7459  0.7337  0.6503
 9489SOL     OW40099   4.578   1.236   7.041  0.0817 -0.6404  0.0944
 9489SOL    HW140100   4.585   1.312   6.983  0.6308 -1.3401 -0.7536
 9489SOL    HW240101   4.668   1.204   7.031  0.7809  1.9412 -1.6872
 9490SOL     OW40102   1.815   0.057  11.461  0.1582 -0.0061 -0.0212
 9490SOL    HW140103   1.735   0.093  11.499  0.3715  0.7681 -0.3002
 9490SOL    HW240104   1.875   0.130  11.479 -0.2618  0.5125 -0.7076
 9491SOL     OW40105   0.951   1.588   9.643  0.1378  0.4054  0.4482
 9491SOL    HW140106   1.021   1.580   9.578 -0.9615 -0.6618 -0.5825
 9491SOL    HW240107   0.939   1.499   9.675  0.1296 -0.6489 -2.5794
 9492SOL     OW40108   0.092   2.447   8.335  0.6326 -0.3261  0.0542
 9492SOL    HW140109   0.177   2.474   8.301  0.7986 -1.1226 -0.1719
 9492SOL    HW240110   0.048   2.532   8.331  0.3587 -0.4731 -0.0888
 9493SOL     OW40111   4.219   3.988  12.310 -0.4475 -0.0057 -0.3669
 9493SOL    HW140112   4.191   3.906  12.350 -0.5958  0.2712  0.0876
 9493SOL    HW240113   4.258   3.950  12.231 -1.5409 -0.7051 -0.5641
 9494SOL     OW40114   1.012   2.803   1.918  0.3558  0.3851  0.3717
 9494SOL    HW140115   0.922   2.828   1.899  0.4880 -0.2901 -1.1518
 9494SOL    HW240116   1.051   2.845   1.841 -2.2888 -0.7170 -1.6060
 9495SOL     OW40117   4.335   2.204  16.575  0.6474 -0.0074 -0.3564
 9495SOL    HW140118   4.386   2.125  16.591  0.3692 -0.2625 -0.7257
 9495SOL    HW240119   4.261   2.161  16.533  0.2141  0.6338 -0.2448
 9496SOL     OW40120   4.319   1.465   9.071  0.0945  0.7496 -0.5601
 9496SOL    HW140121   4.393   1.468   9.009  1.4090 -0.7319  0.9183
 9496SOL    HW240122   4.347   1.405   9.141 -1.3106  1.5221  0.6541
 9497SOL     OW40123   1.730   1.376   6.501 -0.0900  0.1073 -0.5487
 9497SOL    HW140124   1.667   1.375   6.429  0.4206  1.2808 -1.0158
 9497SOL    HW240125   1.793   1.444   6.478 -0.6786  0.9700  0.3394
 9498SOL     OW40126   0.396   1.092   4.011 -0.0252 -0.8065 -0.4629
 9498SOL    HW140127   0.453   1.129   4.078 -1.2838  1.1459 -0.4765
 9498SOL    HW240128   0.342   1.035   4.065 -0.8632  1.9027  1.5166
 9499SOL     OW40129   4.541   2.084   8.077 -0.5651 -0.1524  0.2810
 9499SOL    HW140130   4.534   2.153   8.143 -1.9279 -1.6755  1.7102
 9499SOL    HW240131   4.467   2.029   8.100 -1.3087  0.3650 -0.8965
 9500SOL     OW40132   0.599   2.326   7.201  0.7832 -0.6667 -0.2766
 9500SOL    HW140133   0.510   2.314   7.233  1.2099 -2.4324  0.2164
 9500SOL    HW240134   0.577   2.334   7.108  0.2770  1.5741  0.0491
 9501SOL     OW40135   1.884   3.491   2.351 -0.2134  0.4602  0.1006
 9501SOL    HW140136   1.913   3.555   2.287  1.3292  0.8938  1.2478
 9501SOL    HW240137   1.841   3.538   2.423  0.4657 -0.4544  1.1173
 9502SOL     OW40138   0.781   0.056   8.275  0.3056  0.3596  0.2371
 9502SOL    HW140139   0.808   0.148   8.269 -1.3695  0.8471  0.2595
 9502SOL    HW240140   0.846   0.001   8.319 -1.3577 -0.8145  1.1968
 9503SOL     OW40141   3.777   1.558   8.953 -0.2793 -0.1116  0.2748
 9503SOL    HW140142   3.699   1.610   8.933 -0.8747 -0.5629  1.4387
 9503SOL    HW240143   3.832   1.628   8.990 -0.6317  0.2379  0.1299
 9504SOL     OW40144   2.069   4.146   5.354  0.0208  0.2882  0.3567
 9504SOL    HW140145   2.157   4.141   5.318 -0.0024  1.2359  0.1603
 9504SOL    HW240146   2.090   4.211   5.421  0.3533  1.8736 -1.2710
 9505SOL     OW40147   1.455   0.406   4.300  0.1535  0.0778 -0.4605
 9505SOL    HW140148   1.438   0.440   4.387 -1.0718  0.0112 -0.6746
 9505SOL    HW240149   1.392   0.457   4.250  0.6931 -1.7373 -2.9990
 9506SOL     OW40150   0.896   0.910   3.094 -0.5099 -0.1944  0.0085
 9506SOL    HW140151   0.960   0.912   3.023  0.3448  0.0776  0.7777
 9506SOL    HW240152   0.813   0.882   3.056 -0.7652  0.8910 -0.2448
 9507SOL     OW40153   4.352   4.143   7.671 -0.4769 -0.0526 -0.1070
 9507SOL    HW140154   4.369   4.237   7.668  0.1794 -0.0961  2.2182
 9507SOL    HW240155   4.257   4.142   7.677 -0.6352 -1.4462 -2.5799
 9508SOL     OW40156   1.181   3.000   3.914 -0.0503 -0.0748 -0.2398
 9508SOL    HW140157   1.185   2.981   4.008 -2.6298 -0.8297 -0.2894
 9508SOL    HW240158   1.248   3.069   3.910  0.1498 -0.2631 -0.1305
 9509SOL     OW40159   3.516   2.157   6.058 -0.0241 -0.4548 -0.1757
 9509SOL    HW140160   3.452   2.140   5.989 -0.7424 -1.0641  0.6435
 9509SOL    HW240161   3.460   2.173   6.134 -1.8654  1.4768 -1.9262
 9510SOL     OW40162   2.768   2.458   4.195  0.0434  0.8887  0.0883
 9510SOL    HW140163   2.855   2.417   4.194  0.3871  1.5666  2.7403
 9510SOL    HW240164   2.788   2.539   4.243 -1.7477  0.7435  1.0757
 9511SOL     OW40165   3.714   0.665  10.467 -0.1968 -0.2028 -0.0751
 9511SOL    HW140166   3.768   0.588  10.453 -1.4624 -1.2868  1.0184
 9511SOL    HW240167   3.637   0.648  10.414  1.4293 -0.3367 -2.3794
 9512SOL     OW40168   0.750   0.586   3.038  0.0267  0.7144  0.0454
 9512SOL    HW140169   0.673   0.592   2.981 -0.0178  0.7388  0.1077
 9512SOL    HW240170   0.746   0.674   3.074 -1.4611  0.7144 -0.1003
 9513SOL     OW40171   0.146   2.567   7.773  0.3054  0.3772 -0.2073
 9513SOL    HW140172   0.095   2.608   7.703  1.1809  2.0884  0.1358
 9513SOL    HW240173   0.203   2.506   7.727 -3.1935 -2.9254 -0.1424
 9514SOL     OW40174   0.344   4.376   5.174 -0.6737 -0.0951 -0.2493
 9514SOL    HW140175   0.282   4.447   5.159  1.9096  2.2198  0.2122
 9514SOL    HW240176   0.327   4.322   5.097  1.9438  1.1225 -1.6501
 9515SOL     OW40177   3.556   1.801   2.355  0.1688 -0.7982 -0.5311
 9515SOL    HW140178   3.538   1.894   2.364 -0.4760 -0.9594 -0.1489
 9515SOL    HW240179   3.645   1.799   2.319  1.1738  2.8380  1.7715
 9516SOL     OW40180   3.207   0.297   3.552  0.3257 -0.5543 -0.1900
 9516SOL    HW140181   3.282   0.289   3.494 -0.1937 -1.2662 -0.7635
 9516SOL    HW240182   3.142   0.297   3.481  0.6994 -2.0595 -0.5332
 9517SOL     OW40183   1.390   3.914   6.361  0.4459 -0.6955  0.4584
 9517SOL    HW140184   1.323   3.973   6.325  0.3932 -0.7332  0.4951
 9517SOL    HW240185   1.340   3.833   6.365  0.1330 -0.4205  1.9945
 9518SOL     OW40186   0.606   4.256   7.047 -0.7594 -0.1124  0.5587
 9518SOL    HW140187   0.553   4.176   7.050 -0.7417 -0.1227  0.6180
 9518SOL    HW240188   0.575   4.291   6.964 -0.8844  2.4194  1.6615
 9519SOL     OW40189   3.018   3.545  12.386 -0.3979 -0.1134 -0.2944
 9519SOL    HW140190   3.068   3.474  12.426  0.8671  0.6454 -0.5343
 9519SOL    HW240191   2.981   3.494  12.314 -1.4934  1.3609 -0.7863
 9520SOL     OW40192   4.338   2.974  13.555  0.3897 -0.4024 -0.2431
 9520SOL    HW140193   4.414   2.977  13.496  0.1835 -3.4624 -0.6289
 9520SOL    HW240194   4.363   3.040  13.620  1.5084 -0.3389 -0.7198
 9521SOL     OW40195   3.964   3.408   9.873 -0.3502  0.5360 -0.0724
 9521SOL    HW140196   4.037   3.450   9.920  1.3926 -1.0679 -1.3540
 9521SOL    HW240197   3.911   3.394   9.952  0.0562 -0.3228  0.0483
 9522SOL     OW40198   4.440   2.826  10.692 -0.0054 -0.6806  0.5266
 9522SOL    HW140199   4.450   2.894  10.626 -2.4911 -0.5566  0.2951
 9522SOL    HW240200   4.486   2.750  10.655 -1.8768 -0.9973 -1.1264
 9523SOL     OW40201   3.536   3.270   8.240  0.7532 -0.2626  0.2411
 9523SOL    HW140202   3.548   3.316   8.323  1.0934 -0.0385  0.0649
 9523SOL    HW240203   3.607   3.313   8.193  0.1635 -1.2035 -1.5293
 9524SOL     OW40204   0.569   1.613  12.897 -0.5949  0.1779  0.8071
 9524SOL    HW140205   0.527   1.627  12.982  0.2785  0.2276  1.2208
 9524SOL    HW240206   0.647   1.661  12.923  1.0686 -1.4766 -1.1203
 9525SOL     OW40207   1.285   4.149   4.533  0.4452  0.1654  0.3346
 9525SOL    HW140208   1.290   4.099   4.452 -2.1813 -0.4794  0.5853
 9525SOL    HW240209   1.366   4.200   4.526  1.7501 -2.2422 -2.2366
 9526SOL     OW40210   3.926   2.520  16.986  0.1739 -0.0622  0.7451
 9526SOL    HW140211   3.999   2.547  16.929 -2.3641  2.7279 -1.1840
 9526SOL    HW240212   3.869   2.594  16.967  0.7972  0.6115  1.4852
 9527SOL     OW40213   0.431   2.376   2.226  0.3434 -0.3873  0.0306
 9527SOL    HW140214   0.479   2.458   2.237  1.4327 -0.7714 -1.9053
 9527SOL    HW240215   0.374   2.384   2.303  0.2734  1.0744 -0.1569
 9528SOL     OW40216   2.282   3.683   4.551  0.1316  0.3145  0.4794
 9528SOL    HW140217   2.281   3.716   4.461 -2.6722  0.5698  0.6011
 9528SOL    HW240218   2.188   3.666   4.558 -0.1355  1.6423  0.2573
 9529SOL     OW40219   3.230   4.659  11.541 -0.7100  0.1849 -0.0482
 9529SOL    HW140220   3.229   4.574  11.585  0.5364  0.7463  1.0319
 9529SOL    HW240221   3.305   4.651  11.482 -0.1382  0.7919  0.5971
 9530SOL     OW40222   1.467   1.397   2.979 -0.1422 -0.4434 -0.3187
 9530SOL    HW140223   1.383   1.373   3.019 -0.1254  2.4882  1.5027
 9530SOL    HW240224   1.521   1.326   3.012  0.3905  0.6795  1.2403
 9531SOL     OW40225   4.624   1.334   2.281 -0.0834 -0.3207 -0.2677
 9531SOL    HW140226   4.566   1.409   2.265 -2.2775 -2.0113 -0.3733
 9531SOL    HW240227   4.574   1.259   2.248  0.7991 -1.3098  0.6842
 9532SOL     OW40228   1.236   3.843  13.152 -0.5183  0.2350 -0.1961
 9532SOL    HW140229   1.307   3.789  13.186 -0.7204  0.1428  0.0792
 9532SOL    HW240230   1.193   3.860  13.237  1.6036  1.7925  0.5820
 9533SOL     OW40231   3.155   3.665  13.697 -0.7149  0.0897  0.2201
 9533SOL    HW140232   3.077   3.693  13.650 -0.6682  0.5535  0.4148
 9533SOL    HW240233   3.119   3.580  13.721 -1.0689  0.1311 -0.1616
 9534SOL     OW40234   1.501   1.034   4.478 -0.1368 -0.7834 -0.3121
 9534SOL    HW140235   1.590   1.005   4.457  0.3120 -2.0346  3.2967
 9534SOL    HW240236   1.448   1.007   4.404 -1.5348  2.8531 -0.6540
 9535SOL     OW40237   1.144   4.378  15.068 -0.0638  0.3074  0.0871
 9535SOL    HW140238   1.179   4.323  15.139  0.7494 -0.3957 -0.8558
 9535SOL    HW240239   1.124   4.457  15.119 -2.1465  0.0412 -0.3180
 9536SOL     OW40240   0.294   4.053   8.435 -0.1739  0.0962 -0.0139
 9536SOL    HW140241   0.282   4.147   8.428 -1.6478 -0.2266 -1.9037
 9536SOL    HW240242   0.388   4.047   8.419 -0.2462  1.6703 -0.9264
 9537SOL     OW40243   2.404   0.990  15.680 -0.1101 -0.1886 -0.2771
 9537SOL    HW140244   2.489   0.995  15.636  0.7237 -0.3220  1.3338
 9537SOL    HW240245   2.425   1.049  15.753  0.0566 -0.7313  0.1087
 9538SOL     OW40246   3.440   3.995  10.339 -0.1505 -0.4157 -0.3830
 9538SOL    HW140247   3.451   4.087  10.361 -2.2391 -0.2682  0.0361
 9538SOL    HW240248   3.469   3.994  10.247 -0.0247  1.8329 -0.3542
 9539SOL     OW40249   2.122   1.922   6.385 -0.2859 -0.4887  0.0062
 9539SOL    HW140250   2.196   1.983   6.389 -0.3047 -0.3618 -1.2866
 9539SOL    HW240251   2.042   1.973   6.384  0.4332  0.6428  0.2974
 9540SOL     OW40252   4.000   0.984  11.581 -0.2462 -0.1310  0.0369
 9540SOL    HW140253   4.084   1.005  11.541 -0.1735 -1.8063 -0.6865
 9540SOL    HW240254   3.949   0.947  11.509  0.3615 -0.3533 -0.2781
 9541SOL     OW40255   1.340   3.363  10.284  0.4410 -0.4539 -0.1057
 9541SOL    HW140256   1.359   3.454  10.260  2.7718 -0.5807  1.3539
 9541SOL    HW240257   1.428   3.336  10.310  0.9247 -0.3881 -1.6773
 9542SOL     OW40258   1.581   2.813   2.292 -0.1399  0.0151 -0.1424
 9542SOL    HW140259   1.540   2.728   2.272 -1.3765  1.2504 -2.8344
 9542SOL    HW240260   1.544   2.883   2.239 -1.2919 -0.1047  0.5027
 9543SOL     OW40261   0.108   1.966  14.789  0.2917  0.0200 -0.2271
 9543SOL    HW140262   0.121   1.957  14.883 -1.3280 -1.8361 -0.1663
 9543SOL    HW240263   0.164   2.038  14.763  1.7389  0.2367  3.5237
 9544SOL     OW40264   1.794   2.129   0.451  0.0182  0.4626 -0.1607
 9544SOL    HW140265   1.744   2.211   0.453 -1.9926 -0.7503 -0.1542
 9544SOL    HW240266   1.751   2.099   0.370  0.7743  2.7210 -1.4147
 9545SOL     OW40267   2.721   0.876   5.458  1.1409 -0.5992 -0.9492
 9545SOL    HW140268   2.629   0.868   5.433  0.9845  0.5904 -0.7469
 9545SOL    HW240269   2.749   0.968   5.462  0.1931 -0.3502 -0.0965
 9546SOL     OW40270   1.419   3.649   7.287  0.5674 -0.1787  0.8929
 9546SOL    HW140271   1.483   3.583   7.260  1.0035  0.1778  1.0574
 9546SOL    HW240272   1.353   3.591   7.325 -1.7288  1.5243 -0.5693
 9547SOL     OW40273   4.021   0.323   5.145 -0.2563 -0.1327 -0.3667
 9547SOL    HW140274   4.114   0.325   5.166 -0.7268  1.7860  1.5484
 9547SOL    HW240275   4.012   0.388   5.075 -0.0664  1.4896  1.1249
 9548SOL     OW40276   0.920   3.176  14.776 -0.0464  0.1707  0.2865
 9548SOL    HW140277   0.899   3.106  14.714  0.0127  2.3341 -2.1585
 9548SOL    HW240278   0.833   3.215  14.775 -0.0370  0.1715 -0.7016
 9549SOL     OW40279   3.884   4.249   1.920  0.2379  0.1337  0.1394
 9549SOL    HW140280   3.802   4.247   1.970 -0.4575 -0.6819 -1.0337
 9549SOL    HW240281   3.904   4.342   1.925 -0.3876  0.2341  0.7642
 9550SOL     OW40282   3.153   1.615   7.102  0.3226  0.5174  0.5259
 9550SOL    HW140283   3.099   1.549   7.058  0.0719  0.7239  0.5237
 9550SOL    HW240284   3.097   1.629   7.179 -0.7412  2.8683 -0.7051
 9551SOL     OW40285   0.937   4.176   1.389  0.3296  0.1588 -0.1076
 9551SOL    HW140286   0.871   4.162   1.320 -0.7574 -0.5995  1.0869
 9551SOL    HW240287   0.923   4.096   1.439 -0.6956 -1.4780 -2.9926
 9552SOL     OW40288   3.364   1.253   4.343 -0.3211 -0.5955  0.6956
 9552SOL    HW140289   3.379   1.174   4.291  1.8880 -1.1494  2.1458
 9552SOL    HW240290   3.454   1.287   4.345 -0.1076 -1.0316 -2.0311
 9553SOL     OW40291   0.157   3.614   9.300  0.7829 -0.1485  0.1456
 9553SOL    HW140292   0.119   3.679   9.359 -0.7846  1.1623 -2.3042
 9553SOL    HW240293   0.249   3.637   9.312  0.7447 -0.3687  0.8488
 9554SOL     OW40294   0.487   1.366   7.437  0.1681  0.1069 -0.1645
 9554SOL    HW140295   0.549   1.438   7.446  0.8273 -0.2116 -2.1517
 9554SOL    HW240296   0.545   1.289   7.430  1.5015  1.1257 -0.2515
 9555SOL     OW40297   2.677   3.547  11.159 -0.3381 -0.3948  0.0740
 9555SOL    HW140298   2.690   3.642  11.169  1.8676 -0.5401 -1.3526
 9555SOL    HW240299   2.596   3.549  11.108 -1.4296  0.8186  1.8673
 9556SOL     OW40300   2.928   0.135   1.320 -0.3270  0.3885 -0.5490
 9556SOL    HW140301   2.832   0.135   1.318 -0.3331 -1.8914 -0.2554
 9556SOL    HW240302   2.939   0.209   1.379  2.6935 -0.3592 -0.1661
 9557SOL     OW40303   3.412   0.464  11.012 -0.1435  0.2789 -0.1454
 9557SOL    HW140304   3.356   0.393  10.979 -2.0701  1.0263  1.5089
 9557SOL    HW240305   3.353   0.539  11.021 -0.9290 -0.1734 -1.5001
 9558SOL     OW40306   0.162   0.651  11.036 -0.1851 -0.2669  0.0280
 9558SOL    HW140307   0.099   0.579  11.028 -0.7747  0.5026 -2.2423
 9558SOL    HW240308   0.178   0.651  11.131  0.6391  2.2343 -0.1029
 9559SOL     OW40309   2.160   3.967   5.101 -0.1093 -0.2947 -0.2621
 9559SOL    HW140310   2.202   4.044   5.061 -1.9893  1.8320  1.8141
 9559SOL    HW240311   2.176   3.982   5.195 -1.3506  0.4496 -0.1576
 9560SOL     OW40312   3.406   3.742   1.555 -0.1708 -0.3444  0.0305
 9560SOL    HW140313   3.414   3.730   1.650  0.6393 -1.8904 -0.2307
 9560SOL    HW240314   3.478   3.804   1.541 -1.1284  0.8757  0.5863
 9561SOL     OW40315   4.126   4.546   6.070 -0.3354  0.3443  0.1908
 9561SOL    HW140316   4.041   4.568   6.031  0.4699  1.3255 -0.9836
 9561SOL    HW240317   4.174   4.623   6.040  0.4392 -0.0352  0.4742
 9562SOL     OW40318   3.656   1.841   7.990  0.2865 -0.0049 -0.5390
 9562SOL    HW140319   3.596   1.798   8.051 -0.2905  1.5099 -0.0262
 9562SOL    HW240320   3.739   1.814   8.028 -0.2487 -1.7864 -0.6209
 9563SOL     OW40321   1.642   2.894  10.774 -0.2964 -0.7902  0.4561
 9563SOL    HW140322   1.595   2.882  10.857  0.6328 -0.9185  0.9587
 9563SOL    HW240323   1.702   2.963  10.801 -0.2757 -1.0334  1.0409
 9564SOL     OW40324   3.360   1.619  15.589 -0.1292 -0.4414  0.1026
 9564SOL    HW140325   3.278   1.595  15.546  0.1002 -0.7589 -0.1574
 9564SOL    HW240326   3.353   1.562  15.665  1.8486 -0.2692  0.4027
 9565SOL     OW40327   4.219   3.508   2.742  0.0248 -0.4880 -0.2448
 9565SOL    HW140328   4.179   3.424   2.760  1.5079 -1.3679 -1.0451
 9565SOL    HW240329   4.154   3.557   2.691  0.3420  1.4857  1.2568
 9566SOL     OW40330   4.627   0.812   1.107 -0.6244  0.1585  0.8880
 9566SOL    HW140331   4.686   0.842   1.177  0.9414 -3.5749  1.1482
 9566SOL    HW240332   4.690   0.788   1.039 -0.6642  3.5585 -0.3553
 9567SOL     OW40333   2.445   0.444   4.508  0.4920  0.0123  0.1408
 9567SOL    HW140334   2.459   0.478   4.596  0.0650 -0.6665  0.4753
 9567SOL    HW240335   2.387   0.512   4.475  1.8576  0.9314 -0.3752
 9568SOL     OW40336   3.986   3.274   8.227 -0.2986  0.1660  0.5825
 9568SOL    HW140337   3.993   3.201   8.165 -0.8321  0.3075  0.3526
 9568SOL    HW240338   3.901   3.256   8.267 -1.3493  1.5550 -1.0321
 9569SOL     OW40339   2.777   2.521  11.326 -0.2185  0.7265 -0.6585
 9569SOL    HW140340   2.799   2.610  11.297 -0.8353  0.7904 -0.9120
 9569SOL    HW240341   2.837   2.462  11.280 -1.7935  1.6633 -3.9180
 9570SOL     OW40342   2.175   3.740   4.828  0.5552 -0.0946 -0.2295
 9570SOL    HW140343   2.235   3.743   4.903 -2.0149  1.9529  1.7401
 9570SOL    HW240344   2.226   3.701   4.757  0.9381  0.0828 -0.0523
 9571SOL     OW40345   1.705   3.028   8.966  0.5486 -0.1669 -0.5316
 9571SOL    HW140346   1.613   3.013   8.945  0.1814  1.4510 -0.0622
 9571SOL    HW240347   1.701   3.108   9.020  0.0036  0.6334 -1.7667
   4.73672   4.73672  17.74530
