Membrane in water
40347
    1TMC1    C1    1   4.492   0.387  11.581 -1.0777  0.0264  0.4166
    1TMC1    C2    2   4.426   0.507  11.602  0.6321 -0.8407  0.9185
    1TMC1    C3    3   4.429   0.583  11.497 -0.7767 -0.2525 -0.6829
    1TMC1    C4    4   4.558   0.348  11.469  0.2688 -0.5197  0.2908
    1TMC1    C5    5   4.571   0.442  11.375  0.3489  0.2053 -0.0038
    1TMC1    C6    6   4.496   0.558  11.379  0.7450  0.2184 -0.2189
    1TMC1     C    7   4.491   0.299  11.696  0.5989 -0.5207 -0.0912
    1TMC1     O    8   4.400   0.301  11.777 -0.0780  0.1786 -0.7429
    1TMC1     H    9   4.397   0.531  11.703  1.8829  0.0750  1.0673
    1TMC1    H1   10   4.587   0.244  11.464 -1.3213 -1.0786  2.7904
    1TMC1    H2   11   4.507   0.632  11.300 -0.6596  1.8614  1.1334
    1TMC1    C7   12   4.622   0.379  11.248  0.1616 -0.3313  0.5565
    1TMC1    C8   13   4.427   0.726  11.518  0.1670  0.1213 -0.9699
    1TMC1    O1   14   4.674   0.270  11.247 -0.1381 -0.2067  0.4448
    1TMC1    O2   15   4.515   0.796  11.479 -0.6028  0.9118  0.5335
    1TMC1    O3   16   4.670   0.477  11.166  0.3684  0.1493 -0.0792
    1TMC1    H3   17   4.615   0.558  11.163  1.0374  0.5731 -0.8916
    1TMC1    O5   18   4.319   0.770  11.583 -0.0347  0.1624 -0.2023
    1TMC1    H5   19   4.254   0.702  11.608  1.3102 -1.4804 -1.1803
    2MPD2     C   20   4.701   4.639  11.935 -0.2011  0.3702  0.2775
    2MPD2    C1   21   4.568   4.675  11.915  0.1883 -0.0335 -0.7251
    2MPD2    C2   22   4.540   0.052  11.849  0.4660  0.4257  0.3540
    2MPD2    C3   23   4.636   0.130  11.794  0.3259 -0.0350  0.0247
    2MPD2    C4   24   0.026   0.093  11.808 -0.2609 -0.0518 -0.1018
    2MPD2    C5   25   0.057   4.715  11.874  0.0827  0.3298 -0.4897
    2MPD2     H   26   4.434   0.068  11.831  1.1707  3.0054 -1.4747
    2MPD2    H1   27   0.097   0.154  11.754 -0.4122 -0.3286 -0.6072
    2MPD2    H2   28   4.737   4.550  11.985 -1.2710  0.0910  0.5532
    2MPD2    H3   29   0.159   4.679  11.873  0.0958  0.3345  1.9975
    2MPD2     N   30   4.608   0.234  11.711  0.5599 -0.6026 -0.2575
    2MPD2    H5   31   4.680   0.290  11.667  0.8699 -1.8263 -1.3186
    2MPD2    N1   32   4.464   4.592  11.959  0.2020 -0.1928 -0.0886
    2MPD2    H7   33   4.369   4.626  11.947  0.6984  0.3767 -2.3825
    3TMC1    C1   34   3.649   0.393  10.120  0.1695 -0.2619 -0.2392
    3TMC1    C2   35   3.762   0.461  10.152  0.0131  0.2918  0.1013
    3TMC1    C3   36   3.863   0.458  10.064  0.1146  0.2160 -0.0360
    3TMC1    C4   37   3.649   0.295  10.033  0.0241  0.4245 -0.0523
    3TMC1    C5   38   3.747   0.292   9.945  0.4693 -0.3091  0.4258
    3TMC1    C6   39   3.855   0.380   9.954  0.2472 -0.5731  0.1832
    3TMC1     C   40   3.545   0.378  10.228 -0.1073 -0.0083  0.2257
    3TMC1     O   41   3.464   0.285  10.226  0.5512 -0.0135 -0.0556
    3TMC1     H   42   3.782   0.519  10.241 -0.6929  0.8043 -0.0728
    3TMC1    H1   43   3.553   0.249  10.016  1.6331 -2.8179 -0.3969
    3TMC1    H2   44   3.932   0.364   9.880 -1.1385  1.6419 -1.7406
    3TMC1    C7   45   3.772   0.164   9.882  0.4221  0.4862 -0.0951
    3TMC1    C8   46   3.976   0.549  10.073  0.0133  0.2222 -0.1681
    3TMC1    O1   47   3.876   0.105   9.885 -0.2044 -0.2944  0.3759
    3TMC1    O2   48   4.021   0.580  10.181 -0.3178  0.0954 -0.1681
    3TMC1    O3   49   3.659   0.121   9.821  0.8787 -0.2150 -0.1367
    3TMC1    H3   50   3.582   0.181   9.819 -1.0520 -2.6391  1.5658
    3TMC1    O5   51   3.977   0.629   9.963  0.1113 -0.1749  0.0595
    3TMC1    H5   52   3.903   0.621   9.899  0.5988  0.1508 -0.5426
    4MPD2     C   53   3.323   0.612  10.632 -1.1897  0.3984 -1.0193
    4MPD2    C1   54   3.403   0.704  10.568  0.1179 -0.0537  0.4289
    4MPD2    C2   55   3.472   0.667  10.456  0.5356  0.3134 -0.5453
    4MPD2    C3   56   3.476   0.537  10.415 -0.1352 -0.4702  0.5358
    4MPD2    C4   57   3.404   0.441  10.483 -0.0735  0.1131  0.3233
    4MPD2    C5   58   3.327   0.479  10.591 -0.1578  0.3423 -0.2434
    4MPD2     H   59   3.534   0.736  10.400 -0.6083  1.0190 -0.9292
    4MPD2    H1   60   3.403   0.340  10.447 -0.1672 -0.3824  1.6965
    4MPD2    H2   61   3.271   0.638  10.724  0.1885  0.6727 -0.3183
    4MPD2    H3   62   3.260   0.414  10.647 -0.0508  2.0335  1.8417
    4MPD2     N   63   3.548   0.495  10.300  0.6413  0.1008 -0.2301
    4MPD2    H5   64   3.612   0.562  10.258 -0.4413  1.7506  0.7682
    4MPD2    N1   65   3.398   0.843  10.600 -0.3862 -0.1414  0.1063
    4MPD2    H7   66   3.460   0.901  10.544 -0.6487 -0.1317 -0.1722
    5TCq1    O1   67   3.973   2.843  11.508 -0.2622 -0.5907  0.1031
    5TCq1    C1   68   4.091   2.774  11.492  0.2718  0.3432  0.1773
    5TCq1    O2   69   4.190   2.828  11.448  0.1697  0.4514 -0.2602
    5TCq1    C2   70   4.051   2.652  11.424  0.5442 -0.2116 -0.1896
    5TCq1    C3   71   3.952   2.576  11.474  0.4269  0.0750  0.5462
    5TCq1    C4   72   3.915   2.457  11.410  0.3544  0.0338 -0.3648
    5TCq1    C5   73   3.980   2.415  11.300 -0.1343 -0.1382 -0.5878
    5TCq1    C6   74   4.088   2.491  11.265  0.2831 -0.8786 -0.2956
    5TCq1    C7   75   4.132   2.606  11.323 -0.1642  0.1566  0.2233
    5TCq1    C8   76   4.183   2.423  11.175 -0.2661  0.1736  0.5335
    5TCq1    O4   77   4.150   2.319  11.119  0.0556 -0.1804 -0.2388
    5TCq1    C9   78   3.817   2.373  11.460  0.1639 -0.6486 -0.4711
    5TCq1    O5   79   3.832   2.349  11.581  0.2709 -0.0986 -0.0922
    5TCq1    O6   80   3.749   2.309  11.372  0.0072  0.1835 -0.8364
    5TCq1    H1   81   3.895   2.785  11.515 -0.8502  0.0992 -0.5806
    5TCq1    H2   82   3.890   2.604  11.558  0.4194  1.9773 -0.0901
    5TCq1    H3   83   3.955   2.318  11.259  2.1969 -0.8713 -0.2723
    5TCq1    H4   84   4.220   2.662  11.291  0.5069 -0.6205  0.7023
    6MPD2     C   85   4.541   2.505  11.181 -0.9437 -0.6650  0.6436
    6MPD2    C1   86   4.428   2.446  11.129 -0.3493 -0.4775  0.5980
    6MPD2    C2   87   4.440   2.380  11.010  0.4279 -0.5736 -0.6181
    6MPD2    C3   88   4.561   2.344  10.961  0.4717  0.8878 -0.0053
    6MPD2    C4   89   4.679   2.397  11.010  0.0235 -0.1664  0.2645
    6MPD2    C5   90   4.664   2.480  11.123  0.0430 -0.5923 -0.7415
    6MPD2     H   91   4.349   2.343  10.963 -1.4403  0.4284  2.1821
    6MPD2    H1   92   0.040   2.375  10.983 -0.6773 -0.7801 -1.8525
    6MPD2    H2   93   4.532   2.569  11.268 -0.3629 -0.3801  0.4939
    6MPD2    H3   94   0.016   2.523  11.157 -0.4877 -0.7262  0.9104
    6MPD2     N   95   4.560   2.257  10.847 -0.0942 -0.1087  0.2260
    6MPD2    H5   96   4.470   2.224  10.813  0.4968 -1.4899  0.0113
    6MPD2    N1   97   4.312   2.469  11.202  0.0578 -0.9739  0.5888
    6MPD2    H7   98   4.322   2.535  11.278  1.6773 -1.0042  0.4022
    7TCq1    O1   99   0.621   0.993  13.572 -0.4837 -0.1305 -0.1614
    7TCq1    C1  100   0.580   1.108  13.516 -0.4579  0.0483 -0.2225
    7TCq1    O2  101   0.481   1.174  13.549  0.3269  0.1168 -0.3296
    7TCq1    C2  102   0.703   1.178  13.503 -0.9005 -0.2499  0.2738
    7TCq1    C3  103   0.772   1.188  13.384  0.2443  0.0080  0.2376
    7TCq1    C4  104   0.888   1.257  13.385  0.4052 -0.5427  0.5591
    7TCq1    C5  105   0.942   1.304  13.508 -0.3963  0.1862  0.1732
    7TCq1    C6  106   0.864   1.297  13.627  0.1736 -0.4092 -0.3220
    7TCq1    C7  107   0.745   1.229  13.622  0.0348  0.0106 -0.4202
    7TCq1    C8  108   0.942   1.309  13.744  0.2750 -0.2800 -0.0324
    7TCq1    O4  109   1.064   1.322  13.734  0.0470  0.3277 -1.4159
    7TCq1    C9  110   0.959   1.277  13.260  0.2266  0.2494 -0.2405
    7TCq1    O5  111   0.892   1.267  13.155  0.5467  0.2422  0.2637
    7TCq1    O6  112   1.080   1.316  13.271  0.3991  0.0013 -0.4365
    7TCq1    H1  113   0.718   0.979  13.582 -0.7421 -0.6223  1.7443
    7TCq1    H2  114   0.725   1.154  13.292  1.8234  2.1047 -1.3483
    7TCq1    H3  115   1.044   1.341  13.507 -1.2646  2.6064  3.1032
    7TCq1    H4  116   0.677   1.227  13.707  0.5651 -0.3565  0.0012
    8MPD2     C  117   1.040   1.255  14.249  0.8703  0.6473  0.7148
    8MPD2    C1  118   1.103   1.192  14.143  0.7798  0.2350 -0.6553
    8MPD2    C2  119   1.048   1.205  14.016  0.1769  0.2108 -0.3060
    8MPD2    C3  120   0.927   1.275  13.994 -0.0264 -0.1749 -1.2174
    8MPD2    C4  121   0.854   1.314  14.109  0.6085 -0.3530 -1.4122
    8MPD2    C5  122   0.914   1.317  14.237  0.7431 -0.1558  0.1005
    8MPD2     H  123   1.097   1.171  13.925 -2.0924  1.9489 -2.1703
    8MPD2    H1  124   0.758   1.364  14.107 -0.5481 -2.3845  1.7913
    8MPD2    H2  125   1.071   1.256  14.353 -0.7800  2.3356  1.1964
    8MPD2    H3  126   0.864   1.360  14.322 -0.1555  0.5932 -0.8145
    8MPD2     N  127   0.873   1.299  13.862  0.1078  0.1460  0.4167
    8MPD2    H5  128   0.775   1.326  13.863 -0.1570 -0.8407  0.5739
    8MPD2    N1  129   1.214   1.112  14.168  0.0144 -0.3720  0.0080
    8MPD2    H7  130   1.247   1.123  14.264 -3.5879  0.3453  1.1511
    9TMC1    C1  131   4.105   0.797  10.914  0.4001 -0.4589  0.1945
    9TMC1    C2  132   4.073   0.899  11.000 -0.2556 -0.1134  0.0253
    9TMC1    C3  133   4.118   1.023  10.964 -0.5505 -1.2498  0.3248
    9TMC1    C4  134   4.170   0.820  10.798 -0.9257 -0.8911  1.0412
    9TMC1    C5  135   4.201   0.950  10.766  0.6177  0.2663  0.0361
    9TMC1    C6  136   4.168   1.054  10.844  0.4581 -0.1582 -0.0703
    9TMC1     C  137   4.042   0.664  10.923  0.0851 -0.9706  0.1262
    9TMC1     O  138   4.033   0.610  10.815 -0.8306  0.0574 -0.2869
    9TMC1     H  139   4.032   0.886  11.100  1.0917  0.8605  0.7076
    9TMC1    H1  140   4.199   0.737  10.734 -1.1334 -0.3409  0.2284
    9TMC1    H2  141   4.190   1.158  10.826  1.2102 -0.3487 -0.2530
    9TMC1    C7  142   4.282   0.973  10.644 -0.3302  0.0179 -0.3046
    9TMC1    C8  143   4.074   1.132  11.044 -1.1415 -0.2536  0.4800
    9TMC1    O1  144   4.319   0.869  10.587 -0.3237  0.6779 -0.1918
    9TMC1    O2  145   3.966   1.134  11.095  0.5318 -0.0866 -0.3125
    9TMC1    O3  146   4.235   1.089  10.589 -0.1602 -0.1519 -0.0106
    9TMC1    H3  147   4.171   1.132  10.649  1.7381 -0.6027  2.3308
    9TMC1    O5  148   4.189   1.172  11.100 -0.2286  0.6068 -0.6869
    9TMC1    H5  149   4.266   1.150  11.043  1.4451  1.5934  1.1930
   10MPD2     C  150   3.886   0.427  10.991  0.0962  1.1625  0.3388
   10MPD2    C1  151   3.935   0.512  11.089  0.7597  0.2058 -0.2207
   10MPD2    C2  152   3.901   0.496  11.224  0.0110 -0.1978  0.2267
   10MPD2    C3  153   3.830   0.384  11.265  0.2258  0.6921 -0.6449
   10MPD2    C4  154   3.792   0.291  11.166  0.0350 -0.2697  0.1778
   10MPD2    C5  155   3.822   0.307  11.036 -0.1885  0.1351  0.4271
   10MPD2     H  156   3.926   0.571  11.298 -1.2356 -1.1538  1.6122
   10MPD2    H1  157   3.757   0.195  11.201 -0.8902 -0.7620 -2.0718
   10MPD2    H2  158   3.905   0.431  10.884  0.6414 -2.0802  0.3043
   10MPD2    H3  159   3.803   0.226  10.966 -0.8448  2.0076 -1.5629
   10MPD2     N  160   3.797   0.364  11.405  0.0145 -0.6890  0.8050
   10MPD2    H5  161   3.752   0.276  11.426 -0.5833 -0.6922 -0.4854
   10MPD2    N1  162   4.003   0.629  11.052 -0.0180  0.8612  0.1530
   10MPD2    H7  163   4.043   0.683  11.128 -0.5238 -1.3631  2.0092
   11TCq1    O1  164   0.049   0.454  13.918 -0.3039 -0.4014 -0.2959
   11TCq1    C1  165   4.669   0.491  13.965  0.0205  0.2422 -0.1225
   11TCq1    O2  166   4.565   0.481  13.903  0.1963 -0.0235  0.3938
   11TCq1    C2  167   4.672   0.446  14.101 -0.4075 -0.3444 -0.5374
   11TCq1    C3  168   0.030   0.483  14.179 -0.2855 -0.5000 -0.3809
   11TCq1    C4  169   0.032   0.434  14.305  0.1110  0.0886 -0.2782
   11TCq1    C5  170   4.667   0.360  14.356  0.3349  0.2666  0.0015
   11TCq1    C6  171   4.565   0.336  14.273 -0.7301  0.7489 -0.0264
   11TCq1    C7  172   4.566   0.377  14.144 -0.3442  0.0826  0.0935
   11TCq1    C8  173   4.450   0.262  14.319  0.1062 -0.7393 -0.0818
   11TCq1    O4  174   4.410   0.283  14.433  0.5994 -0.4412 -0.3340
   11TCq1    C9  175   0.155   0.449  14.385 -0.4027 -0.5068 -0.3709
   11TCq1    O5  176   0.258   0.481  14.321  0.0968 -0.3661  0.2490
   11TCq1    O6  177   0.138   0.441  14.509 -0.1349 -0.0203  0.1659
   11TCq1    H1  178   0.125   0.457  13.979  0.3419  2.4799 -1.2426
   11TCq1    H2  179   0.120   0.529  14.139 -0.8195  2.3641  1.6309
   11TCq1    H3  180   4.669   0.336  14.462 -0.8777 -0.2802 -0.0996
   11TCq1    H4  181   4.486   0.352  14.076  1.9669  1.0598 -2.9853
   12MPD2     C  182   4.237   0.062  14.378  0.7269  0.3290 -0.1328
   12MPD2    C1  183   4.282   0.103  14.248  0.8428  0.2851  0.2949
   12MPD2    C2  184   4.220   0.043  14.136 -0.0551  0.3387 -0.1208
   12MPD2    C3  185   4.128   4.683  14.158 -0.0734  0.7465  0.3702
   12MPD2    C4  186   4.100   4.637  14.280 -0.4404 -0.1626 -0.1296
   12MPD2    C5  187   4.146   4.707  14.390 -0.1921  0.5351 -0.5403
   12MPD2     H  188   4.257   0.068  14.037 -0.5251  0.4369 -0.2725
   12MPD2    H1  189   4.036   4.550  14.289  0.1752 -0.5204  0.7353
   12MPD2    H2  190   4.291   0.098  14.464 -0.7466  0.7420  0.6133
   12MPD2    H3  191   4.104   4.672  14.484  1.2926 -1.0096 -0.4463
   12MPD2     N  192   4.072   4.617  14.049 -0.6812 -0.7443 -0.2165
   12MPD2    H5  193   4.009   4.541  14.074  0.0187 -1.2900 -0.1084
   12MPD2    N1  194   4.391   0.187  14.222  0.4757  0.2321 -0.0785
   12MPD2    H7  195   4.416   0.201  14.124 -0.5236  0.6347 -0.2784
   13TCq1    O1  196   4.553   0.508  10.350  0.2591  0.2728 -0.3128
   13TCq1    C1  197   4.581   0.386  10.328  0.4006 -0.3198  0.8163
   13TCq1    O2  198   4.690   0.352  10.283  0.1921 -0.1159  0.5194
   13TCq1    C2  199   4.457   0.329  10.285  0.3118 -0.4365 -0.1476
   13TCq1    C3  200   4.459   0.300  10.147  0.0954  0.6134 -0.5876
   13TCq1    C4  201   4.344   0.251  10.092  0.6253  0.4528 -0.1709
   13TCq1    C5  202   4.236   0.238  10.168  0.3938 -0.1664 -0.2901
   13TCq1    C6  203   4.229   0.279  10.300 -0.6275  0.4998 -1.1058
   13TCq1    C7  204   4.342   0.320  10.361 -0.2969  0.7844  0.4209
   13TCq1    C8  205   4.101   0.284  10.370  0.3371  0.3084 -0.6330
   13TCq1    O4  206   4.099   0.325  10.486  0.0485  0.1762 -0.0843
   13TCq1    C9  207   4.333   0.224   9.946  0.3114  0.7161  0.1418
   13TCq1    O5  208   4.243   0.144   9.913  0.3061  0.2391  0.1669
   13TCq1    O6  209   4.406   0.292   9.867 -0.5873  0.6044  0.0416
   13TCq1    H1  210   4.455   0.506  10.355  0.4147 -1.1204  1.9275
   13TCq1    H2  211   4.551   0.316  10.093  0.3875 -1.4052 -0.6835
   13TCq1    H3  212   4.144   0.212  10.117 -1.0553  1.8095  1.2477
   13TCq1    H4  213   4.346   0.330  10.469 -0.6076  4.1652  0.1417
   14MPD2     C  214   3.808   0.063  10.316  0.5251  0.2124  0.0509
   14MPD2    C1  215   3.880   0.173  10.371  0.6609 -0.3059 -0.1670
   14MPD2    C2  216   3.820   0.241  10.472 -0.3478  0.2430  0.6973
   14MPD2    C3  217   3.704   0.202  10.527 -0.0178  0.4840 -0.0988
   14MPD2    C4  218   3.639   0.101  10.468  0.4391  0.5036 -0.3670
   14MPD2    C5  219   3.689   0.026  10.364  0.9005 -0.1712  0.2844
   14MPD2     H  220   3.862   0.336  10.504  0.6246 -0.5406  1.7348
   14MPD2    H1  221   3.536   0.088  10.498  0.8647  0.6143  1.1657
   14MPD2    H2  222   3.850   0.006  10.233  3.2284  1.4943  0.5502
   14MPD2    H3  223   3.633   4.679  10.335 -0.5667  0.4315  1.2293
   14MPD2     N  224   3.661   0.283  10.629  0.3462 -0.1470 -0.0425
   14MPD2    H5  225   3.715   0.368  10.642 -0.1297  0.5970 -3.0171
   14MPD2    N1  226   4.000   0.214  10.306 -0.3915 -0.0936 -0.2364
   14MPD2    H7  227   4.039   0.156  10.232  0.1953  0.0062 -0.0077
   15TCq1    O1  228   1.335   0.337   1.738  0.7098 -0.3079  0.2307
   15TCq1    C1  229   1.362   0.309   1.607  0.3475  0.7408  0.3532
   15TCq1    O2  230   1.281   0.284   1.518  0.4831  0.2266 -0.1369
   15TCq1    C2  231   1.505   0.289   1.590  0.4045 -0.2498  0.1721
   15TCq1    C3  232   1.602   0.340   1.676 -0.1261  0.0099  0.0592
   15TCq1    C4  233   1.734   0.317   1.664  0.1474 -0.1069  0.7530
   15TCq1    C5  234   1.778   0.247   1.553  0.0551 -0.3482  0.2564
   15TCq1    C6  235   1.684   0.197   1.468 -0.2164 -0.0354 -0.3654
   15TCq1    C7  236   1.548   0.208   1.484 -0.5936 -0.1447  0.0186
   15TCq1    C8  237   1.746   0.114   1.372  0.3236 -0.0402 -0.1401
   15TCq1    O4  238   1.860   0.077   1.400  0.1350  0.0674 -0.3347
   15TCq1    C9  239   1.832   0.376   1.753  0.0546  0.4210  0.3874
   15TCq1    O5  240   1.788   0.429   1.860 -0.0769 -0.1426 -0.1501
   15TCq1    O6  241   1.950   0.351   1.721  0.1755  0.4392  0.1320
   15TCq1    H1  242   1.415   0.364   1.788  0.8398  3.4877 -2.0111
   15TCq1    H2  243   1.571   0.395   1.765 -2.4011  0.7664 -1.1970
   15TCq1    H3  244   1.884   0.230   1.540 -0.0708 -1.4226  0.6376
   15TCq1    H4  245   1.474   0.178   1.411 -3.6397  0.5887  2.8350
   16MPD2     C  246   1.607   4.726   1.049 -0.9695  0.1826 -0.1709
   16MPD2    C1  247   1.690   4.731   1.163  0.3714  0.3063 -0.1495
   16MPD2    C2  248   1.797   4.645   1.158  0.1404 -0.1552 -0.3139
   16MPD2    C3  249   1.824   4.546   1.058 -0.4001  0.4909  0.2517
   16MPD2    C4  250   1.733   4.542   0.962  0.0295 -0.7653  0.4637
   16MPD2    C5  251   1.627   4.630   0.952 -0.6293  0.1135  0.0718
   16MPD2     H  252   1.868   4.657   1.239 -2.1912  1.4531  1.4658
   16MPD2    H1  253   1.742   4.468   0.883  0.7339 -0.8760  0.6473
   16MPD2    H2  254   1.526   0.056   1.042 -1.8329 -0.7042  0.8376
   16MPD2    H3  255   1.550   4.624   0.875 -0.8747  1.8560  0.1945
   16MPD2     N  256   1.945   4.471   1.054 -0.8227  0.5294  0.2667
   16MPD2    H5  257   2.014   4.511   1.118  0.3114 -0.4361 -0.3646
   16MPD2    N1  258   1.660   0.080   1.272  0.0268  0.3430  0.4171
   16MPD2    H7  259   1.579   0.139   1.259  0.0314  0.1583 -0.4117
   17TMC1    C1  260   3.142   4.575  10.866 -0.2631 -0.6700 -0.3759
   17TMC1    C2  261   3.022   4.513  10.888 -0.0202 -0.5236  0.7440
   17TMC1    C3  262   2.922   4.567  10.959 -0.7032 -0.0971  0.5586
   17TMC1    C4  263   3.160   4.706  10.916 -0.2235 -0.3998  0.5861
   17TMC1    C5  264   3.050   0.024  10.971 -0.2810 -0.7393 -0.3376
   17TMC1    C6  265   2.934   4.698  11.003  0.8234 -0.5837  0.0396
   17TMC1     C  266   3.230   4.521  10.770  0.6196 -0.1692  0.1329
   17TMC1     O  267   3.192   4.428  10.702 -0.3961 -0.4077 -0.4221
   17TMC1     H  268   3.005   4.415  10.845  0.4054 -0.6863  0.9411
   17TMC1    H1  269   3.249   0.026  10.905  0.1437 -0.9353  0.5389
   17TMC1    H2  270   2.857   4.741  11.067 -0.1997 -3.5757  0.8307
   17TMC1    C7  271   3.058   0.156  11.021  0.2334 -0.2235 -0.5641
   17TMC1    C8  272   2.796   4.495  10.980  0.1143 -0.8731  0.0826
   17TMC1    O1  273   2.975   0.197  11.103 -0.6411 -0.6205 -0.4542
   17TMC1    O2  274   2.743   4.521  11.090  0.4058 -0.0659 -0.6939
   17TMC1    O3  275   3.090   0.231  10.914  0.5759 -0.3665 -0.3067
   17TMC1    H3  276   3.124   0.188  10.833  0.4015 -2.2837  0.6338
   17TMC1    O5  277   2.733   4.497  10.858 -0.0748 -0.0192  0.2159
   17TMC1    H5  278   2.797   4.496  10.783 -0.3040  2.1799  0.0107
   18MPD2     C  279   3.474   4.451  10.602  0.3750  0.2329  0.2027
   18MPD2    C1  280   3.472   4.532  10.715 -1.0410 -0.3141 -0.0483
   18MPD2    C2  281   3.588   4.590  10.759  1.1010 -0.0833  0.0315
   18MPD2    C3  282   3.706   4.589  10.689  0.9708 -0.4851 -0.1269
   18MPD2    C4  283   3.711   4.514  10.575 -0.8208 -0.2667 -0.8070
   18MPD2    C5  284   3.599   4.435  10.540 -0.2113 -0.4909  0.5825
   18MPD2     H  285   3.578   4.638  10.856  0.9637  1.4077 -0.7214
   18MPD2    H1  286   3.805   4.515  10.521 -0.9337 -1.1070 -1.0130
   18MPD2    H2  287   3.395   4.384  10.569  1.4161  0.8768 -3.6375
   18MPD2    H3  288   3.602   4.367  10.456  0.1810  0.5017 -0.2111
   18MPD2     N  289   3.824   4.659  10.734  0.0878 -0.8433  0.1160
   18MPD2    H5  290   3.898   4.652  10.665  0.0765 -0.3157  0.0449
   18MPD2    N1  291   3.359   4.572  10.784  0.2350 -0.1950  0.2753
   18MPD2    H7  292   3.387   4.625  10.866 -1.0502 -1.2544  1.3824
   19TMC2    C1  293   0.790   0.442  14.370  0.3399  0.1100 -0.5431
   19TMC2    C2  294   0.733   0.565  14.333 -0.6092  0.2752 -0.1573
   19TMC2    C3  295   0.606   0.557  14.284  0.6736 -0.0007  0.3118
   19TMC2    C4  296   0.729   0.319  14.349  0.6741  0.2895  0.4490
   19TMC2    C5  297   0.604   0.321  14.289  0.8048 -0.6046 -0.4290
   19TMC2    C6  298   0.546   0.436  14.256 -0.3226 -0.7777  0.0240
   19TMC2     C  299   0.900   0.457  14.466  0.3233 -0.0140 -0.4565
   19TMC2     O  300   0.905   0.572  14.507 -0.4454  0.2888  0.0463
   19TMC2     H  301   0.773   0.665  14.343 -0.8038  0.3074  0.3349
   19TMC2    H1  302   0.766   0.219  14.371  2.3232  0.9960  0.9052
   19TMC2    H2  303   0.451   0.438  14.203  0.9085 -0.2144 -2.1587
   19TMC2    C7  304   0.531   0.197  14.266  0.2190 -0.4033  0.1405
   19TMC2    C8  305   0.526   0.678  14.265  0.5293  0.1546 -0.2970
   19TMC2    O1  306   0.582   0.095  14.306  0.2983  0.4230 -0.5513
   19TMC2    O2  307   0.588   0.783  14.248 -0.0817  1.0217  0.0603
   19TMC2    O5  308   0.415   0.671  14.341 -0.8498  0.0447 -0.0348
   19TMC2    H5  309   0.372   0.583  14.335 -0.9732  0.3644 -3.5328
   20MPD2     C  310   1.132   0.458  14.637  0.5694 -0.0932 -0.4687
   20MPD2    C1  311   1.102   0.352  14.554  0.1206 -0.1862  0.4530
   20MPD2    C2  312   1.186   0.243  14.557 -0.7350 -0.1085 -1.1203
   20MPD2    C3  313   1.313   0.248  14.619  0.0642  0.1701 -0.0596
   20MPD2    C4  314   1.347   0.365  14.676  0.3598  0.8463  0.5798
   20MPD2    C5  315   1.252   0.462  14.697 -0.1607 -0.0632 -0.0722
   20MPD2     H  316   1.164   0.150  14.506 -1.0024 -0.6767  0.0424
   20MPD2    H1  317   1.444   0.374  14.722  1.6065  1.7905 -2.2389
   20MPD2    H2  318   1.070   0.544  14.661  1.3871  0.2103  0.5831
   20MPD2    H3  319   1.270   0.549  14.758 -2.9706 -0.6194  1.5653
   20MPD2     N  320   1.403   0.143  14.625  0.4038  0.7731  0.6502
   20MPD2    H5  321   1.486   0.181  14.669  0.9983  1.1197 -0.7521
   20MPD2    N1  322   0.990   0.353  14.466 -0.0661  0.6749  0.7777
   20MPD2    H7  323   0.968   0.270  14.412  0.5914 -0.0390  1.6110
   21TMC2    C1  324   3.637   0.834  14.824 -0.3960 -0.1577  0.4678
   21TMC2    C2  325   3.589   0.704  14.819  0.4951 -0.5051 -0.1530
   21TMC2    C3  326   3.451   0.682  14.804  0.0634 -0.1791  0.1929
   21TMC2    C4  327   3.559   0.942  14.802 -0.0878 -0.0464  0.8424
   21TMC2    C5  328   3.422   0.914  14.770  0.1352  0.4872  0.7240
   21TMC2    C6  329   3.369   0.787  14.775  0.1124 -0.0015 -0.1524
   21TMC2     C  330   3.765   0.856  14.880  0.5947  0.1630 -0.5782
   21TMC2     O  331   3.845   0.762  14.879 -0.0865  0.5475 -0.3435
   21TMC2     H  332   3.649   0.629  14.869  0.2767 -0.2473  0.5078
   21TMC2    H1  333   3.612   1.034  14.780  1.3505 -1.0198  0.2178
   21TMC2    H2  334   3.262   0.773  14.764 -0.1264  1.7064 -0.0874
   21TMC2    C7  335   3.351   1.035  14.739 -0.5638  0.6943  0.2214
   21TMC2    C8  336   3.389   0.555  14.824 -0.3118  0.2670 -0.7403
   21TMC2    O1  337   3.403   1.133  14.790 -0.3866  0.2598 -0.6229
   21TMC2    O2  338   3.287   0.544  14.889  0.4772  0.3566 -0.0990
   21TMC2    O5  339   3.468   0.458  14.780  0.2706 -0.4416 -0.0094
   21TMC2    H5  340   3.558   0.471  14.743  0.4805 -0.9654  0.3175
   22MPD2     C  341   4.055   1.098  15.227 -0.0712 -0.6077 -0.0067
   22MPD2    C1  342   4.087   1.007  15.132 -0.3061 -0.5164 -0.8870
   22MPD2    C2  343   3.991   0.957  15.043  0.5062 -0.1622  0.1323
   22MPD2    C3  344   3.867   1.014  15.041 -0.0414  0.0790  0.3121
   22MPD2    C4  345   3.839   1.119  15.120 -0.2320  0.1252  0.0979
   22MPD2    C5  346   3.932   1.163  15.209 -0.0629 -0.4339 -0.0403
   22MPD2     H  347   4.018   0.878  14.974  0.1567 -0.3713  0.2327
   22MPD2    H1  348   3.740   1.164  15.113  0.1468  0.9311 -0.0787
   22MPD2    H2  349   4.113   1.130  15.312  0.1388 -0.9003 -0.0397
   22MPD2    H3  350   3.908   1.245  15.276 -0.8114  0.1525 -1.0336
   22MPD2     N  351   3.766   0.974  14.952 -0.1930  0.4344 -0.0271
   22MPD2    H5  352   3.675   1.016  14.966  0.5446  2.1330 -0.2818
   22MPD2    N1  353   4.214   0.947  15.130  0.5597 -0.4093 -0.5714
   22MPD2    H7  354   4.229   0.890  15.047 -1.4373 -1.6133 -0.0973
   23TMC2    C1  355   4.445   1.909  14.607  0.1142 -0.5521 -0.5325
   23TMC2    C2  356   4.521   1.969  14.516 -0.6082  0.8078  0.2705
   23TMC2    C3  357   4.482   1.984  14.389 -0.2478  0.2174  0.0939
   23TMC2    C4  358   4.322   1.864  14.573 -0.0396 -0.7049 -0.2605
   23TMC2    C5  359   4.285   1.891  14.443  0.7040  0.1064  0.3072
   23TMC2    C6  360   4.363   1.945  14.347  0.8267  0.2450 -0.2494
   23TMC2     C  361   4.499   1.869  14.733 -0.0875  0.6212 -0.6140
   23TMC2     O  362   4.466   1.767  14.787 -0.1455  0.6479 -0.5241
   23TMC2     H  363   4.624   1.987  14.544 -0.5692  1.6487 -0.3936
   23TMC2    H1  364   4.260   1.814  14.646 -0.0017 -3.1665 -1.8886
   23TMC2    H2  365   4.331   1.964  14.245 -0.5389  4.1419  0.9002
   23TMC2    C7  366   4.155   1.829  14.412  0.1752  0.0545 -0.3580
   23TMC2    C8  367   4.587   2.029  14.304 -0.3452 -0.5258 -0.0090
   23TMC2    O1  368   4.071   1.831  14.504 -0.0738  0.2452 -0.4348
   23TMC2    O2  369   4.686   2.092  14.336  0.2372 -0.4422 -0.0934
   23TMC2    O5  370   4.566   1.971  14.187  0.2027  0.6091 -0.0162
   23TMC2    H5  371   4.483   1.917  14.186  1.7874 -1.8374 -0.5670
   24MPD2     C  372   0.038   1.993  15.150 -0.0227 -0.1072 -0.0611
   24MPD2    C1  373   4.718   1.880  15.126  0.5181  0.1261 -0.1109
   24MPD2    C2  374   4.647   1.872  15.005  0.0349  0.4723 -0.5843
   24MPD2    C3  375   4.647   1.970  14.909 -0.0182 -0.1916 -0.4328
   24MPD2    C4  376   4.708   2.087  14.945  0.2131 -0.5120  0.0233
   24MPD2    C5  377   0.032   2.102  15.063 -0.2818 -0.6727 -0.3314
   24MPD2     H  378   4.600   1.778  14.980  1.4392 -0.6241  0.9090
   24MPD2    H1  379   4.703   2.176  14.884  0.3872  0.9866  2.2163
   24MPD2    H2  380   0.075   2.005  15.251 -1.7285  2.0317  0.3121
   24MPD2    H3  381   0.066   2.201  15.092 -2.4783  0.9431 -3.1807
   24MPD2     N  382   4.574   1.971  14.781 -0.0037  0.1164 -0.0675
   24MPD2    H5  383   4.572   2.057  14.726  3.5519  1.0996  1.3317
   24MPD2    N1  384   4.733   1.772  15.214 -0.1232  0.5795  0.6636
   24MPD2    H7  385   0.057   1.788  15.289 -1.2892  0.7626  1.6352
   25TMC2    C1  386   3.638   2.880  11.721 -0.2710 -0.4236  0.0913
   25TMC2    C2  387   3.745   2.845  11.804 -0.6684 -0.0485 -0.0100
   25TMC2    C3  388   3.760   2.918  11.916  0.3111 -0.2623  0.0197
   25TMC2    C4  389   3.557   2.988  11.740  0.1284  0.2040  0.1041
   25TMC2    C5  390   3.572   3.054  11.854 -0.1966  0.6541  0.2533
   25TMC2    C6  391   3.679   3.025  11.939 -0.0457  0.0060 -0.2349
   25TMC2     C  392   3.628   2.808  11.592  0.7194 -0.1193 -0.3863
   25TMC2     O  393   3.737   2.783  11.548 -0.5677 -0.5339 -0.2627
   25TMC2     H  394   3.791   2.748  11.794 -0.3791  0.1411 -0.5241
   25TMC2    H1  395   3.483   3.020  11.667  0.7826  1.1949 -0.1256
   25TMC2    H2  396   3.699   3.084  12.028 -0.5800 -3.3214  2.1145
   25TMC2    C7  397   3.514   3.179  11.882 -0.0017  0.0262  0.1609
   25TMC2    C8  398   3.860   2.872  12.023 -0.4506 -0.0866 -0.1097
   25TMC2    O1  399   3.481   3.203  11.994  0.2949 -0.0413 -0.2412
   25TMC2    O2  400   3.958   2.803  12.004  0.5514 -0.1044 -0.7202
   25TMC2    O5  401   3.804   2.901  12.139 -0.7522  0.3766 -0.1842
   25TMC2    H5  402   3.710   2.927  12.125 -0.0862  3.3256  0.8122
   26MPD2     C  403   3.406   2.562  11.219  0.8802 -0.5898 -0.3107
   26MPD2    C1  404   3.311   2.638  11.277  0.1678  0.4453 -0.1726
   26MPD2    C2  405   3.349   2.715  11.387  0.2141  0.0671 -0.0427
   26MPD2    C3  406   3.474   2.706  11.437 -0.1330 -0.3208 -0.3246
   26MPD2    C4  407   3.563   2.617  11.389  0.6283  0.1098  0.0202
   26MPD2    C5  408   3.530   2.551  11.277 -0.5104  0.0996 -0.0872
   26MPD2     H  409   3.278   2.786  11.428 -1.6080 -2.6852  1.5417
   26MPD2    H1  410   3.665   2.607  11.425  1.2434 -0.5823 -1.9071
   26MPD2    H2  411   3.383   2.497  11.136  0.6425  0.2446 -0.9058
   26MPD2    H3  412   3.611   2.495  11.232 -1.4748 -2.4934  1.3995
   26MPD2     N  413   3.506   2.794  11.542 -0.2280  0.3412 -0.4525
   26MPD2    H5  414   3.432   2.846  11.587 -1.5784 -1.2538 -0.8609
   26MPD2    N1  415   3.190   2.658  11.202  0.7519 -0.4349  0.9702
   26MPD2    H7  416   3.177   2.595  11.124 -0.6101 -1.6371  2.1596
   27TMC2    C1  417   2.848   1.101  11.846  0.4899 -0.2472  0.1466
   27TMC2    C2  418   2.830   1.121  11.713 -0.1013  0.1356 -0.1082
   27TMC2    C3  419   2.842   1.250  11.672 -0.1490  0.5773  0.6621
   27TMC2    C4  420   2.898   1.196  11.928 -0.2334 -0.0826  1.0007
   27TMC2    C5  421   2.912   1.322  11.877 -0.0907 -0.2607  0.7339
   27TMC2    C6  422   2.884   1.356  11.751  1.3690 -0.2655 -0.5208
   27TMC2     C  423   2.776   0.999  11.906  1.0208 -0.4632 -0.5127
   27TMC2     O  424   2.803   0.881  11.877 -0.0116  0.3135 -0.0729
   27TMC2     H  425   2.786   1.044  11.651 -0.2287  0.9583 -1.0369
   27TMC2    H1  426   2.931   1.166  12.027 -1.2990 -0.6292  1.1927
   27TMC2    H2  427   2.898   1.460  11.724 -3.1919 -0.2241 -2.6508
   27TMC2    C7  428   2.897   1.428  11.975  0.5369  0.0717 -0.1229
   27TMC2    C8  429   2.807   1.283  11.536  0.0482  0.6450  0.1659
   27TMC2    O1  430   2.885   1.540  11.927  0.0244 -0.6356  0.2545
   27TMC2    O2  431   2.802   1.196  11.452 -0.0571  0.1540 -0.7786
   27TMC2    O5  432   2.747   1.402  11.542 -0.6357  0.6085  0.3223
   27TMC2    H5  433   2.742   1.450  11.628  1.5088  0.2890  0.6112
   28MPD2     C  434   2.446   0.848  12.266  0.5372  0.0119 -0.2074
   28MPD2    C1  435   2.411   0.976  12.240  0.4273  0.5853 -0.0753
   28MPD2    C2  436   2.495   1.045  12.147  0.4444 -0.2155  0.4920
   28MPD2    C3  437   2.592   0.975  12.072  0.2192 -0.0790  0.0963
   28MPD2    C4  438   2.615   0.844  12.093  0.7352 -0.0697 -0.3880
   28MPD2    C5  439   2.541   0.780  12.196 -0.4074  0.0475  0.2500
   28MPD2     H  440   2.475   1.149  12.124 -0.2864 -0.1568  1.3776
   28MPD2    H1  441   2.693   0.785  12.047  1.0175  0.1869 -0.2371
   28MPD2    H2  442   2.384   0.795  12.338 -0.9487  3.1896  0.8553
   28MPD2    H3  443   2.552   0.678  12.230  0.4720 -0.0296 -0.2637
   28MPD2     N  444   2.670   1.054  11.983  0.2249  0.3307  0.0801
   28MPD2    H5  445   2.654   1.154  11.977  0.4936  0.4140  0.7744
   28MPD2    N1  446   2.305   1.038  12.311  0.4320  0.1602 -0.5125
   28MPD2    H7  447   2.257   0.986  12.384 -0.4442  1.4611 -0.1660
   29TMC2    C1  448   1.958   3.882  14.358 -0.3749 -0.2122 -0.5178
   29TMC2    C2  449   2.003   3.818  14.468 -0.1121 -0.8372  0.4841
   29TMC2    C3  450   2.097   3.880  14.541  0.0286  0.5752 -0.1384
   29TMC2    C4  451   2.011   3.994  14.306 -0.1430  0.2381  0.1621
   29TMC2    C5  452   2.110   4.055  14.383  0.4606 -0.3840 -0.0805
   29TMC2    C6  453   2.150   4.002  14.507 -0.1751 -0.5247  0.3749
   29TMC2     C  454   1.856   3.820  14.277  0.3162  0.1873 -0.3035
   29TMC2     O  455   1.794   3.901  14.214 -0.2813  0.2841 -0.3455
   29TMC2     H  456   1.945   3.738  14.514  0.6506 -1.3101  0.6187
   29TMC2    H1  457   1.983   4.034  14.209  0.4216 -0.1177 -0.1465
   29TMC2    H2  458   2.225   4.044  14.574  2.1621 -0.5083 -2.2330
   29TMC2    C7  459   2.166   4.181  14.336  0.0033  0.0025  0.7417
   29TMC2    C8  460   2.115   3.844  14.683  0.6695 -0.1939  0.2792
   29TMC2    O1  461   2.135   4.202  14.217  0.3249 -0.4505  0.2523
   29TMC2    O2  462   2.118   3.734  14.731 -0.8257 -0.5312 -0.5858
   29TMC2    O5  463   2.016   3.926  14.725  0.2314 -0.1881  0.7399
   29TMC2    H5  464   2.003   3.996  14.658 -0.7528 -0.6605  0.4412
   30MPD2     C  465   1.645   3.428  14.027 -0.1381 -0.5342  0.1770
   30MPD2    C1  466   1.774   3.391  14.061  0.6205 -0.3468 -0.2031
   30MPD2    C2  467   1.854   3.484  14.134 -0.2548 -0.1218 -0.1745
   30MPD2    C3  468   1.804   3.608  14.170 -0.4834 -0.3249 -0.6350
   30MPD2    C4  469   1.675   3.641  14.142  0.8830 -0.3146 -0.1635
   30MPD2    C5  470   1.600   3.548  14.070  0.4515 -0.3026  0.1550
   30MPD2     H  471   1.955   3.462  14.170  0.6132  1.0749 -1.9035
   30MPD2    H1  472   1.630   3.737  14.164 -0.0536 -0.5714 -0.9884
   30MPD2    H2  473   1.579   3.363  13.970 -0.4542  1.2567 -1.4939
   30MPD2    H3  474   1.494   3.556  14.048  0.4166 -2.3318 -0.3343
   30MPD2     N  475   1.888   3.688  14.245 -0.2679  0.5625 -0.1062
   30MPD2    H5  476   1.984   3.657  14.255 -1.0191 -1.2065  1.7258
   30MPD2    N1  477   1.826   3.261  14.034 -0.0892 -0.6761 -0.2559
   30MPD2    H7  478   1.920   3.235  14.062 -0.1903 -0.0593  0.6430
   31TMC2    C1  479   4.620   2.366  15.365  0.5838 -0.5191 -0.2954
   31TMC2    C2  480   4.497   2.308  15.315 -0.1439  0.8038 -0.1783
   31TMC2    C3  481   4.413   2.260  15.409  0.4059 -0.3927  0.0618
   31TMC2    C4  482   4.658   2.369  15.494 -0.0734  0.0941 -0.3053
   31TMC2    C5  483   4.567   2.303  15.579  0.2680  0.0511 -0.0288
   31TMC2    C6  484   4.444   2.247  15.539  1.0120  0.1404 -0.0085
   31TMC2     C  485   4.693   2.448  15.272 -0.1926  0.6356 -0.3450
   31TMC2     O  486   4.639   2.478  15.168 -0.3487  0.8824  0.9023
   31TMC2     H  487   4.472   2.311  15.210  0.0007 -0.6545 -0.2481
   31TMC2    H1  488   0.007   2.412  15.535  0.3918 -1.3034  0.1414
   31TMC2    H2  489   4.381   2.197  15.612  0.4261 -2.3457 -2.2245
   31TMC2    C7  490   4.586   2.333  15.718 -0.2896 -0.5644 -0.4544
   31TMC2    C8  491   4.295   2.176  15.387 -0.1109  0.2018 -0.1904
   31TMC2    O1  492   4.697   2.359  15.759  0.2742  0.9137  0.6055
   31TMC2    O2  493   4.280   2.066  15.439  0.6501  0.3454  0.2241
   31TMC2    O5  494   4.249   2.207  15.267 -0.1712 -0.0910  0.5173
   31TMC2    H5  495   4.253   2.302  15.243 -1.5335  0.2041  1.4142
   32MPD2     C  496   0.416   2.515  15.035  0.2255  1.1032 -0.0160
   32MPD2    C1  497   0.289   2.521  14.990 -0.7306  0.1572 -0.1088
   32MPD2    C2  498   0.183   2.504  15.073  0.3340 -1.0140  0.1163
   32MPD2    C3  499   0.195   2.468  15.203  0.0400  0.5264  0.4048
   32MPD2    C4  500   0.324   2.439  15.240 -0.5700  0.5107  0.7470
   32MPD2    C5  501   0.427   2.474  15.166  0.2402  0.0795 -0.3732
   32MPD2     H  502   0.084   2.530  15.036  0.7269  0.4660  0.1511
   32MPD2    H1  503   0.347   2.418  15.343 -2.4159  2.1567  1.5045
   32MPD2    H2  504   0.505   2.519  14.973 -1.0192 -0.3875 -1.8818
   32MPD2    H3  505   0.525   2.468  15.213  0.3393 -3.1925 -0.9777
   32MPD2     N  506   0.088   2.442  15.297  0.5565  0.3062 -0.8257
   32MPD2    H5  507   0.118   2.397  15.382  1.2499  2.3040  0.0007
   32MPD2    N1  508   0.268   2.575  14.859  0.0723  0.6585 -0.2473
   32MPD2    H7  509   0.343   2.632  14.821  1.1200 -1.6909 -1.6982
   33TMC2    C1  510   4.519   4.657  10.050 -0.1943  0.0993  0.0454
   33TMC2    C2  511   4.409   4.629   9.977  0.0627 -0.4563 -1.4560
   33TMC2    C3  512   4.426   4.625   9.841  0.6155 -0.4196  0.9618
   33TMC2    C4  513   4.637   4.684   9.991  0.1846 -0.2018 -0.3998
   33TMC2    C5  514   4.650   4.670   9.855  0.0449  0.3570 -0.0490
   33TMC2    C6  515   4.541   4.639   9.775 -0.2630  0.2103  0.7635
   33TMC2     C  516   4.493   4.683  10.195  1.1431  0.2770 -0.2500
   33TMC2     O  517   4.374   4.671  10.222  0.2077 -0.4023  0.2603
   33TMC2     H  518   4.314   4.597  10.020  0.0721  1.0549 -0.2691
   33TMC2    H1  519   4.713   4.737  10.047  0.8730 -1.1524 -0.4343
   33TMC2    H2  520   4.552   4.630   9.667  0.4022 -0.9989  0.9362
   33TMC2    C7  521   0.025   0.005   9.803 -0.0841 -0.4926 -0.4179
   33TMC2    C8  522   4.320   4.578   9.763  0.0837 -0.4101  0.3337
   33TMC2    O1  523   0.113   0.040   9.884 -0.3671 -0.0242 -0.0374
   33TMC2    O2  524   4.345   4.492   9.676 -0.1478 -0.1779  0.3446
   33TMC2    O5  525   4.229   4.677   9.759  0.4911 -0.3745 -0.1223
   33TMC2    H5  526   4.250   0.007   9.823  1.9783  0.2706 -1.3048
   34MPD2     C  527   4.641   0.073  10.663 -0.0094  0.0767 -1.0046
   34MPD2    C1  528   4.511   0.048  10.623  0.5896  0.0994 -0.0692
   34MPD2    C2  529   4.499   0.011  10.483 -0.1568  0.6316  0.4607
   34MPD2    C3  530   4.617   4.737  10.399 -0.6982 -0.0468  0.0500
   34MPD2    C4  531   0.003   0.017  10.447 -0.2085 -0.9378 -1.0939
   34MPD2    C5  532   0.014   0.055  10.585  0.1454 -0.3088 -0.2049
   34MPD2     H  533   4.405   0.000  10.430  0.7988  0.2890 -1.1598
   34MPD2    H1  534   0.100   0.001  10.399  2.1729 -1.2016  3.8504
   34MPD2    H2  535   4.659   0.107  10.764  0.4329  0.3758 -1.1834
   34MPD2    H3  536   0.111   0.069  10.630 -0.1576 -0.4687  0.5051
   34MPD2     N  537   4.610   4.707  10.262  0.4516  0.2821 -0.1910
   34MPD2    H5  538   4.699   4.716  10.214  0.0662  0.4828 -0.8748
   34MPD2    N1  539   4.408   0.073  10.716 -0.3884 -0.1544 -0.6152
   34MPD2    H7  540   4.424   0.119  10.806 -0.2141  1.6198 -1.5449
   35TMC2    C1  541   0.825   1.430  11.336 -0.3230 -0.3240  0.5918
   35TMC2    C2  542   0.721   1.500  11.281  0.6917  0.0432  0.0503
   35TMC2    C3  543   0.595   1.485  11.341  0.2793 -0.2145  0.3512
   35TMC2    C4  544   0.798   1.338  11.432 -0.2796 -0.0914  0.3920
   35TMC2    C5  545   0.675   1.326  11.481  0.0886  0.3666  0.4064
   35TMC2    C6  546   0.570   1.395  11.434 -0.3045 -0.3598 -0.4213
   35TMC2     C  547   0.959   1.473  11.299  0.1566  0.3525  0.1659
   35TMC2     O  548   0.961   1.594  11.272  0.5240  0.6114  0.2866
   35TMC2     H  549   0.755   1.564  11.200 -1.3416 -0.8893 -1.5419
   35TMC2    H1  550   0.879   1.301  11.493  1.0500  1.9614 -0.1284
   35TMC2    H2  551   0.464   1.384  11.457 -0.5472 -0.3292 -1.5236
   35TMC2    C7  552   0.632   1.222  11.567  0.1709  0.1007 -0.1093
   35TMC2    C8  553   0.473   1.533  11.267  0.2024 -0.8347  0.7022
   35TMC2    O1  554   0.697   1.119  11.564  0.4196  0.1025  0.0063
   35TMC2    O2  555   0.366   1.471  11.264 -0.0157 -0.3487  0.2266
   35TMC2    O5  556   0.520   1.612  11.170  0.6057  0.3967  0.0117
   35TMC2    H5  557   0.588   1.673  11.207  0.0819 -0.1800  1.9116
   36MPD2     C  558   1.472   1.442  11.365  0.2505 -0.8387  0.8682
   36MPD2    C1  559   1.419   1.315  11.365  0.3418 -0.4869  0.5375
   36MPD2    C2  560   1.283   1.299  11.359  0.5853 -0.5986  0.2888
   36MPD2    C3  561   1.196   1.403  11.341  0.8736 -0.1214 -0.6491
   36MPD2    C4  562   1.249   1.529  11.321  0.1686 -0.7212 -0.2806
   36MPD2    C5  563   1.387   1.545  11.340  0.1602 -0.5744 -0.8256
   36MPD2     H  564   1.249   1.196  11.373 -1.4314 -0.0603 -0.5977
   36MPD2    H1  565   1.190   1.614  11.290  0.5593 -0.0654  0.8026
   36MPD2    H2  566   1.578   1.464  11.374  0.2136 -0.6436  0.8245
   36MPD2    H3  567   1.440   1.636  11.316 -0.3492 -0.5182 -1.7077
   36MPD2     N  568   1.057   1.379  11.324  0.6647 -0.5639 -0.1480
   36MPD2    H5  569   1.026   1.285  11.343  3.1104 -1.3095  0.1336
   36MPD2    N1  570   1.513   1.211  11.374  0.3169  0.1880 -0.3630
   36MPD2    H7  571   1.611   1.231  11.356  0.1312  1.4749  0.0238
   37TMC2    C1  572   2.900   2.366  11.374  0.5184 -0.1178  0.0288
   37TMC2    C2  573   2.817   2.393  11.273  0.0446  0.7455  0.4093
   37TMC2    C3  574   2.860   2.390  11.150  0.0345 -1.2194 -0.4564
   37TMC2    C4  575   3.036   2.333  11.351  0.4065  0.4076 -0.0196
   37TMC2    C5  576   3.083   2.335  11.223 -0.4550  0.7613  0.8629
   37TMC2    C6  577   2.991   2.354  11.124 -0.7222 -0.2925  0.2437
   37TMC2     C  578   2.842   2.345  11.506 -0.0442  0.2075 -0.2548
   37TMC2     O  579   2.731   2.391  11.531 -0.2040  0.1577 -0.6321
   37TMC2     H  580   2.716   2.425  11.299 -0.5356 -2.0352  1.6068
   37TMC2    H1  581   3.102   2.314  11.435  1.2881  1.2474 -0.5228
   37TMC2    H2  582   3.017   2.331  11.021  0.2595  1.2882  0.1355
   37TMC2    C7  583   3.191   2.244  11.204 -0.1561 -1.2293 -0.0527
   37TMC2    C8  584   2.777   2.435  11.038 -0.5414 -0.1801  0.3149
   37TMC2    O1  585   3.214   2.173  11.301 -0.1407 -0.3620 -0.5074
   37TMC2    O2  586   2.814   2.453  10.926  0.5328 -0.1697  0.6962
   37TMC2    O5  587   2.651   2.396  11.070  0.2119 -0.5730  0.7090
   37TMC2    H5  588   2.641   2.359  11.161  1.7928 -0.4630  0.9276
   38MPD2     C  589   2.823   2.082  11.950 -0.1954 -0.0637 -0.0143
   38MPD2    C1  590   2.922   2.039  11.871  0.8457 -0.6195 -0.3930
   38MPD2    C2  591   2.954   2.106  11.758  0.1422  0.2323 -0.2725
   38MPD2    C3  592   2.876   2.206  11.705  0.3580  0.5767 -0.0321
   38MPD2    C4  593   2.774   2.247  11.784  0.0296  0.2932  0.2614
   38MPD2    C5  594   2.737   2.187  11.901 -0.0681 -0.0378  0.0643
   38MPD2     H  595   3.040   2.064  11.706  0.6637 -2.0184  2.4152
   38MPD2    H1  596   2.713   2.333  11.759 -0.2879 -0.3235 -1.0906
   38MPD2    H2  597   2.783   2.034  12.038 -0.0220 -1.3417 -0.6385
   38MPD2    H3  598   2.650   2.206  11.963 -0.8273 -1.0606 -0.6982
   38MPD2     N  599   2.912   2.250  11.575  0.0534 -0.5294  0.5359
   38MPD2    H5  600   2.990   2.196  11.537  1.9507  2.3172  0.4405
   38MPD2    N1  601   3.003   1.928  11.907  0.1260  0.7514  0.4911
   38MPD2    H7  602   3.076   1.898  11.843  0.0452 -0.7067  1.0780
   39TMC2    C1  603   2.382   4.624   1.628  0.7589  0.1616 -0.6837
   39TMC2    C2  604   2.327   4.692   1.733 -0.1594  0.6838  0.2558
   39TMC2    C3  605   2.413   0.027   1.812 -0.1196 -0.2923  0.8414
   39TMC2    C4  606   2.511   4.647   1.583 -0.1999  0.4635  0.6030
   39TMC2    C5  607   2.591   4.734   1.655  0.3051  0.3658  1.2457
   39TMC2    C6  608   2.547   0.047   1.772  0.0563 -0.0617 -0.1699
   39TMC2     C  609   2.306   4.508   1.579 -0.7757  0.1068  0.1812
   39TMC2     O  610   2.186   4.513   1.606  0.4336 -0.3197  0.6651
   39TMC2     H  611   2.222   4.670   1.746  0.3546 -1.5738  0.5824
   39TMC2    H1  612   2.554   4.593   1.499  0.1925  2.1111 -0.2577
   39TMC2    H2  613   2.617   0.120   1.810  0.4368  0.4670 -1.9216
   39TMC2    C7  614   2.723   0.001   1.606  0.2562  0.0997  0.0517
   39TMC2    C8  615   2.368   0.083   1.938 -0.2325 -0.5074 -0.8977
   39TMC2    O1  616   2.737   4.717   1.485 -0.2780  0.3492  0.1233
   39TMC2    O2  617   2.439   0.091   2.036  0.1049  0.1396  0.1707
   39TMC2    O5  618   2.236   0.075   1.937  0.5784 -0.1806 -0.4835
   39TMC2    H5  619   2.182   0.074   1.855  0.7920  3.4514 -0.6903
   40MPD2     C  620   2.460   4.207   1.441 -0.4884  1.0454  0.2778
   40MPD2    C1  621   2.357   4.290   1.476 -0.4256  0.2777 -0.4425
   40MPD2    C2  622   2.226   4.250   1.454  0.2583  0.2766 -1.3365
   40MPD2    C3  623   2.196   4.124   1.406 -0.2093 -0.6610  0.6695
   40MPD2    C4  624   2.300   4.035   1.382  0.0224  0.0855 -0.2590
   40MPD2    C5  625   2.434   4.079   1.402 -0.4857 -0.0110 -0.1115
   40MPD2     H  626   2.145   4.321   1.461  1.8512  1.7782  2.1742
   40MPD2    H1  627   2.280   3.937   1.340  1.2784 -0.3497  0.1386
   40MPD2    H2  628   2.564   4.239   1.437 -0.3597  0.7606  1.2237
   40MPD2    H3  629   2.509   4.013   1.359 -0.7758 -1.1175  1.0665
   40MPD2     N  630   2.066   4.076   1.398 -0.5316  0.2202 -0.6511
   40MPD2    H5  631   2.052   3.978   1.373  1.7594 -0.3722  0.3225
   40MPD2    N1  632   2.392   4.414   1.531  0.2039 -0.0703  0.4928
   40MPD2    H7  633   2.493   4.426   1.531  0.2955 -0.7914 -1.0744
   41TMC2    C1  634   4.732   1.709  13.872 -0.1664  1.0424 -0.1059
   41TMC2    C2  635   4.660   1.806  13.808 -0.3535  0.2106  0.0893
   41TMC2    C3  636   4.725   1.877  13.704 -0.1580 -0.2090 -0.2475
   41TMC2    C4  637   0.116   1.668  13.830  0.4516  0.8286  0.4266
   41TMC2    C5  638   0.170   1.728  13.721 -0.1490 -0.1751  0.1370
   41TMC2    C6  639   0.105   1.835  13.658  0.7606 -0.7977  0.5393
   41TMC2     C  640   4.665   1.647  13.984 -0.4352  0.2261 -0.2414
   41TMC2     O  641   4.542   1.636  13.975  0.3587 -0.0528 -0.2671
   41TMC2     H  642   4.560   1.829  13.844 -0.4989 -0.1691 -0.0800
   41TMC2    H1  643   0.157   1.575  13.866  1.4415  1.0369 -0.1803
   41TMC2    H2  644   0.145   1.889  13.573 -1.2970  1.5992  1.0906
   41TMC2    C7  645   0.293   1.678  13.671  0.5068 -0.5732 -0.9037
   41TMC2    C8  646   4.649   1.977  13.630 -0.2746  0.2994 -0.9949
   41TMC2    O1  647   0.349   1.608  13.750  0.1206  0.1062 -0.1622
   41TMC2    O2  648   4.647   1.981  13.506 -0.0554 -0.0939 -0.0930
   41TMC2    O5  649   4.568   2.045  13.714 -0.2732  0.1606 -0.0888
   41TMC2    H5  650   4.620   2.049  13.796 -1.9924  0.6609  0.9864
   42MPD2     C  651   4.583   1.547  14.249  0.3571  0.9848  0.9111
   42MPD2    C1  652   4.687   1.638  14.231  0.2972  0.0918 -0.6981
   42MPD2    C2  653   0.001   1.693  14.345  0.1108 -0.1168 -0.4464
   42MPD2    C3  654   4.715   1.653  14.481 -0.5377  0.2759 -0.0030
   42MPD2    C4  655   4.614   1.565  14.492  1.0221  0.1170 -0.1223
   42MPD2    C5  656   4.551   1.521  14.382  0.0098 -0.0320  0.1964
   42MPD2     H  657   0.080   1.765  14.328  0.8179 -1.0822 -1.2611
   42MPD2    H1  658   4.582   1.520  14.586 -0.8187  1.2720 -0.1984
   42MPD2    H2  659   4.529   1.501  14.167  0.2849  1.1703  0.8541
   42MPD2    H3  660   4.473   1.447  14.394  3.2254 -3.4068  0.2466
   42MPD2     N  661   0.045   1.687  14.599  0.4291  0.1542 -0.0043
   42MPD2    H5  662   0.029   1.641  14.688  0.7633 -1.4933 -0.7745
   42MPD2    N1  663   0.000   1.670  14.101  0.2692  0.0895 -0.8632
   42MPD2    H7  664   0.089   1.718  14.101  1.2306 -1.6811  4.4028
   43TMC2    C1  665   2.722   4.593   0.594  0.6231 -0.0041  0.0556
   43TMC2    C2  666   2.639   4.702   0.604 -0.6229  0.6638 -0.1976
   43TMC2    C3  667   2.667   0.053   0.699 -1.2540  0.5891 -0.0511
   43TMC2    C4  668   2.820   4.564   0.685  0.1647  0.4163  0.1298
   43TMC2    C5  669   2.837   4.658   0.783 -0.2808 -0.6179  0.4087
   43TMC2    C6  670   2.759   0.031   0.792 -0.4091 -0.5560 -0.1697
   43TMC2     C  671   2.692   4.492   0.490 -0.3363  1.3644  1.6984
   43TMC2     O  672   2.732   4.379   0.512  0.6115  0.3745 -0.3925
   43TMC2     H  673   2.557   4.721   0.537 -0.8834 -0.3313 -0.1604
   43TMC2    H1  674   2.883   4.476   0.677 -2.7963 -1.4342 -2.9528
   43TMC2    H2  675   2.773   0.102   0.872  1.6718  1.8953 -2.6746
   43TMC2    C7  676   2.949   4.635   0.870 -0.1147  1.0539 -0.6224
   43TMC2    C8  677   2.573   0.143   0.757 -0.6873  1.1949 -0.1072
   43TMC2    O1  678   3.008   4.533   0.848  0.3818 -0.1628 -1.2932
   43TMC2    O2  679   2.547   0.130   0.875 -0.0758 -0.3657 -0.1557
   43TMC2    O5  680   2.485   0.174   0.658 -0.5470  0.7218 -0.5111
   43TMC2    H5  681   2.523   0.168   0.568 -1.1774  1.5712 -0.8270
   44MPD2     C  682   2.672   4.386  17.733 -0.2397  0.4042  0.8772
   44MPD2    C1  683   2.734   4.327   0.079 -0.0621 -0.1428  0.8304
   44MPD2    C2  684   2.716   4.382   0.209 -0.1963  0.3147 -0.1837
   44MPD2    C3  685   2.642   4.492   0.237  0.5911  0.0352  0.3934
   44MPD2    C4  686   2.579   4.547   0.126 -0.7722  1.1073 -0.4958
   44MPD2    C5  687   2.594   4.497   0.002  0.0576  0.4258 -0.2539
   44MPD2     H  688   2.776   4.330   0.283  0.3012 -0.9528 -1.4751
   44MPD2    H1  689   2.520   4.638   0.128 -1.8017  0.3869  1.5709
   44MPD2    H2  690   2.677   4.341  17.635 -0.7265 -1.0410  1.5052
   44MPD2    H3  691   2.549   4.558  17.686  1.0852  2.0733  0.4326
   44MPD2     N  692   2.638   4.548   0.369  1.0268  0.1298  0.1770
   44MPD2    H5  693   2.605   4.643   0.381  1.7917  0.2409  1.4984
   44MPD2    N1  694   2.830   4.227   0.066 -0.3077 -0.3129 -0.1262
   44MPD2    H7  695   2.885   4.199   0.146 -0.2539 -1.8755 -0.7189
   45TMC2    C1  696   2.878   1.490   9.536 -0.2130  1.0360 -0.1533
   45TMC2    C2  697   2.901   1.393   9.627  0.1467  0.0796 -0.3510
   45TMC2    C3  698   3.020   1.395   9.694  0.3305  0.4374  0.1518
   45TMC2    C4  699   2.974   1.584   9.517 -0.1269 -0.1881  0.4847
   45TMC2    C5  700   3.088   1.594   9.601  0.6323  0.9635 -0.3230
   45TMC2    C6  701   3.109   1.499   9.689 -0.1536 -0.2840 -0.3874
   45TMC2     C  702   2.731   1.519   9.508  0.2417 -0.6055 -0.2711
   45TMC2     O  703   2.649   1.446   9.566  0.1585  0.8240  0.2777
   45TMC2     H  704   2.821   1.323   9.649 -1.2652  1.1286 -2.0253
   45TMC2    H1  705   2.947   1.679   9.473 -0.0424 -0.1700  0.4725
   45TMC2    H2  706   3.197   1.498   9.752 -2.2224  0.4683  2.5746
   45TMC2    C7  707   3.126   1.726   9.648  0.4424  0.3327  0.2641
   45TMC2    C8  708   3.012   1.333   9.827 -0.7719 -0.2777 -0.4329
   45TMC2    O1  709   3.163   1.738   9.767  0.2129 -0.3327 -0.4006
   45TMC2    O2  710   3.085   1.355   9.925  0.1727  0.1836  0.1378
   45TMC2    O5  711   2.959   1.216   9.803  0.5648  0.4301  0.5590
   45TMC2    H5  712   2.934   1.194   9.711  0.4916  0.1499  0.6470
   46MPD2     C  713   2.582   1.731   9.243  0.0022 -0.5471 -0.0840
   46MPD2    C1  714   2.582   1.646   9.350  0.3671 -0.6275  0.3697
   46MPD2    C2  715   2.456   1.587   9.383  0.0401  0.4063 -0.0113
   46MPD2    C3  716   2.342   1.615   9.317 -0.1964  0.1539 -0.2378
   46MPD2    C4  717   2.347   1.700   9.202 -0.5259 -0.1843 -0.4220
   46MPD2    C5  718   2.471   1.759   9.179 -0.0688  0.2881 -0.0436
   46MPD2     H  719   2.448   1.523   9.470 -0.0055  1.0234  0.4401
   46MPD2    H1  720   2.267   1.732   9.135  0.4196  0.9170 -1.0358
   46MPD2    H2  721   2.671   1.777   9.202 -0.6423  0.2009 -0.6517
   46MPD2    H3  722   2.487   1.827   9.096  1.4422 -2.1404 -1.7662
   46MPD2     N  723   2.218   1.562   9.359  0.0770  0.1586  0.0445
   46MPD2    H5  724   2.196   1.541   9.456  0.9136  0.6253  0.3342
   46MPD2    N1  725   2.706   1.614   9.412  0.1411 -0.1069  0.7864
   46MPD2    H7  726   2.788   1.663   9.378 -0.2418  0.6015  0.8601
   47TMC2    C1  727   0.414   1.935   8.952  0.3491  0.1001 -0.2539
   47TMC2    C2  728   0.312   1.979   8.871 -0.0505  0.2921 -0.9653
   47TMC2    C3  729   0.205   1.897   8.853  0.0530 -0.0236  0.3811
   47TMC2    C4  730   0.407   1.810   9.017  0.4894  0.7022 -0.3314
   47TMC2    C5  731   0.300   1.727   8.981  0.2955  0.7619  0.1902
   47TMC2    C6  732   0.194   1.774   8.907 -0.3003 -0.0214  1.0724
   47TMC2     C  733   0.541   1.999   8.947 -0.3338 -0.0731  0.8098
   47TMC2     O  734   0.544   2.120   8.936 -0.5334 -0.3882  0.0871
   47TMC2     H  735   0.315   2.070   8.814  3.1557 -0.1747 -1.5800
   47TMC2    H1  736   0.480   1.760   9.079 -1.9964 -1.8187  0.5865
   47TMC2    H2  737   0.115   1.711   8.869  0.4173 -0.1839 -0.1562
   47TMC2    C7  738   0.276   1.609   9.064 -0.7486  0.2151 -0.4280
   47TMC2    C8  739   0.098   1.953   8.771 -0.5405  0.2796  0.3098
   47TMC2    O1  740   0.331   1.630   9.171 -0.4197 -0.3560  0.2591
   47TMC2    O2  741   0.111   2.058   8.712  0.3891  0.0210 -0.3877
   47TMC2    O5  742   4.718   1.917   8.823 -0.1941 -0.5744 -0.1151
   47TMC2    H5  743   4.712   1.859   8.902 -3.3229 -1.3750 -0.9454
   48MPD2     C  744   0.826   2.051   8.997  0.7755 -0.0770  0.0499
   48MPD2    C1  745   0.777   1.933   8.948  0.2356  0.7908 -0.1308
   48MPD2    C2  746   0.861   1.823   8.941 -0.3885  0.2235 -0.5993
   48MPD2    C3  747   0.983   1.822   9.010 -0.1965 -0.1962 -0.1681
   48MPD2    C4  748   1.027   1.938   9.054  0.7633 -0.4412 -0.6115
   48MPD2    C5  749   0.955   2.055   9.041  0.3516  0.5979 -0.1572
   48MPD2     H  750   0.821   1.730   8.903  0.8045 -0.6698  0.3566
   48MPD2    H1  751   1.124   1.954   9.099 -0.0950  0.1082  1.0441
   48MPD2    H2  752   0.772   2.145   8.996 -0.6130 -0.8882 -1.8077
   48MPD2    H3  753   1.000   2.150   9.069  0.7034 -0.4185  2.7235
   48MPD2     N  754   1.042   1.698   9.036  0.0621  0.2854 -0.2463
   48MPD2    H5  755   0.985   1.614   9.037  0.9347 -0.3337 -2.6980
   48MPD2    N1  756   0.641   1.905   8.928 -0.0104  0.0228  0.3941
   48MPD2    H7  757   0.615   1.808   8.909  2.0783  0.0077 -2.2900
   49TMC2    C1  758   3.736   3.680  10.163 -0.1232 -0.5326  0.1717
   49TMC2    C2  759   3.724   3.626  10.039  0.0266  0.1176 -0.2962
   49TMC2    C3  760   3.653   3.511  10.026 -0.5612  0.0874 -0.6077
   49TMC2    C4  761   3.695   3.612  10.275  0.0390  0.0727 -0.4533
   49TMC2    C5  762   3.638   3.488  10.260  0.2147  0.2645 -0.7363
   49TMC2    C6  763   3.620   3.432  10.131  0.1598  0.1569 -0.6522
   49TMC2     C  764   3.820   3.799  10.181  0.4129  0.0523  0.1375
   49TMC2     O  765   3.880   3.828  10.076 -0.3619 -0.0896  0.5295
   49TMC2     H  766   3.755   3.671   9.946 -1.7096 -1.5338 -1.6756
   49TMC2    H1  767   3.708   3.669  10.366  0.9180 -0.0755 -0.4841
   49TMC2    H2  768   3.571   3.336  10.119  0.9064 -0.5395  1.8097
   49TMC2    C7  769   3.616   3.406  10.381 -0.7170  0.3950 -0.5750
   49TMC2    C8  770   3.675   3.449   9.898  1.2003  0.2797  0.2253
   49TMC2    O1  771   3.551   3.303  10.370  0.2035  0.1832  0.3898
   49TMC2    O2  772   3.700   3.513   9.796  0.2817  0.8059 -0.1254
   49TMC2    O5  773   3.744   3.346   9.933 -0.2393  0.1697  0.4963
   49TMC2    H5  774   3.729   3.295  10.015 -0.8948 -0.7368 -0.1939
   50MPD2     C  775   3.922   4.063  10.279  0.3649 -0.8344 -0.2498
   50MPD2    C1  776   3.826   3.991  10.345 -0.2833  0.4780  0.3927
   50MPD2    C2  777   3.774   4.036  10.463  1.4231 -0.7390 -0.2165
   50MPD2    C3  778   3.823   4.151  10.524 -0.1926  0.2780 -0.4447
   50MPD2    C4  779   3.926   4.224  10.461  0.0679  0.1497  0.1026
   50MPD2    C5  780   3.970   4.172  10.341 -0.1768 -0.6712 -0.2010
   50MPD2     H  781   3.699   3.980  10.518 -0.6595  2.1312 -0.1512
   50MPD2    H1  782   3.975   4.313  10.497 -0.8816  1.2757 -1.4191
   50MPD2    H2  783   3.966   4.036  10.184 -1.8367 -0.8295 -1.2569
   50MPD2    H3  784   4.036   4.244  10.294  0.0435  0.0994  1.2936
   50MPD2     N  785   3.774   4.194  10.652  0.8826 -0.6118  0.4085
   50MPD2    H5  786   3.828   4.261  10.705  0.8344  1.1517 -1.7781
   50MPD2    N1  787   3.773   3.873  10.285  0.0763  0.5760  0.0739
   50MPD2    H7  788   3.692   3.831  10.329 -0.9533  1.9642 -0.5081
   51TMC2    C1  789   3.585   4.145   1.502  0.2579 -0.0181  0.2617
   51TMC2    C2  790   3.502   4.232   1.562 -0.1908 -0.3165  0.3505
   51TMC2    C3  791   3.418   4.313   1.482  0.0962  0.7336  0.6844
   51TMC2    C4  792   3.617   4.163   1.371  0.3179 -0.3351 -0.3908
   51TMC2    C5  793   3.551   4.262   1.298 -0.0940 -0.5593 -0.2539
   51TMC2    C6  794   3.442   4.334   1.347 -0.5520  0.1835 -0.1776
   51TMC2     C  795   3.690   4.093   1.585  0.6526  0.0114 -0.4273
   51TMC2     O  796   3.709   4.138   1.698  0.1358  0.3230  0.7684
   51TMC2     H  797   3.487   4.223   1.669 -0.2690  1.6812  0.4945
   51TMC2    H1  798   3.709   4.121   1.333  1.2761  1.6444 -0.2447
   51TMC2    H2  799   3.399   4.409   1.282 -0.5523 -1.3141 -1.9306
   51TMC2    C7  800   3.574   4.273   1.156 -0.9223  0.9199  0.5713
   51TMC2    C8  801   3.323   4.401   1.548 -0.0286  0.0214 -0.2711
   51TMC2    O1  802   3.473   4.292   1.085 -0.4612  0.9736  0.2465
   51TMC2    O2  803   3.314   4.405   1.669 -0.0885  0.0296 -0.7385
   51TMC2    O5  804   3.212   4.397   1.467 -0.2940  0.0799 -0.1419
   51TMC2    H5  805   3.224   4.362   1.376 -1.6123 -0.5335 -0.0710
   52MPD2     C  806   4.070   3.747   1.670 -0.9949  0.1782  0.4713
   52MPD2    C1  807   3.972   3.692   1.590  0.0726  0.3048  0.4808
   52MPD2    C2  808   3.875   3.769   1.531  0.1145  0.4876 -0.1659
   52MPD2    C3  809   3.850   3.903   1.575  0.3914 -0.3396 -0.0208
   52MPD2    C4  810   3.938   3.949   1.671 -0.1737  0.0286 -0.2972
   52MPD2    C5  811   4.044   3.876   1.711 -0.0962  0.4295 -0.4022
   52MPD2     H  812   3.806   3.734   1.455 -2.1727  1.8928  1.2759
   52MPD2    H1  813   3.934   4.049   1.711  0.2114  0.8331 -2.2583
   52MPD2    H2  814   4.151   3.696   1.721 -0.3588  0.5226 -0.2002
   52MPD2    H3  815   4.116   3.914   1.783  3.0129 -0.1872 -3.2172
   52MPD2     N  816   3.741   3.976   1.528  0.0544  0.6274 -0.1491
   52MPD2    H5  817   3.688   3.927   1.457 -0.9344 -0.3409  1.2671
   52MPD2    N1  818   3.968   3.550   1.562 -0.0524 -0.8428  0.5544
   52MPD2    H7  819   3.900   3.514   1.496 -0.8132 -0.7965  1.3033
   53TMC2    C1  820   3.713   1.731  11.279  0.1465 -0.4070  0.6402
   53TMC2    C2  821   3.772   1.607  11.262 -0.5069  0.1017  0.4750
   53TMC2    C3  822   3.817   1.548  11.379 -0.3855 -0.7328 -0.4799
   53TMC2    C4  823   3.705   1.799  11.403 -0.4862 -0.5621  0.2240
   53TMC2    C5  824   3.753   1.734  11.514  0.1482 -0.0593  0.4911
   53TMC2    C6  825   3.801   1.606  11.505  0.2598  0.2514  0.1311
   53TMC2     C  826   3.673   1.797  11.159 -0.0994  0.3442 -0.3458
   53TMC2     O  827   3.733   1.755  11.058 -0.3604 -0.7636 -0.2439
   53TMC2     H  828   3.783   1.566  11.162 -1.6108 -1.0754  0.8327
   53TMC2    H1  829   3.659   1.896  11.413  0.0625 -0.2436 -0.2947
   53TMC2    H2  830   3.815   1.540  11.590  0.0246  2.4067  1.8550
   53TMC2    C7  831   3.704   1.787  11.637  0.3855 -0.2755  0.6617
   53TMC2    C8  832   3.886   1.429  11.379  0.7130  0.1391  0.5909
   53TMC2    O1  833   3.599   1.848  11.627 -0.0662 -0.1963 -0.2875
   53TMC2    O2  834   3.886   1.359  11.478  0.2511  0.5521 -0.0468
   53TMC2    O5  835   3.978   1.430  11.280  0.4434  0.1117  0.0107
   53TMC2    H5  836   3.958   1.496  11.210  0.1040 -2.8531 -2.7260
   54MPD2     C  837   3.559   1.987  10.955  0.1190  0.3322 -0.5404
   54MPD2    C1  838   3.508   1.963  11.082 -0.2666  0.0044  0.6388
   54MPD2    C2  839   3.409   2.053  11.121  0.1219 -1.0281 -0.9698
   54MPD2    C3  840   3.354   2.150  11.039  0.1711 -0.1080 -0.0672
   54MPD2    C4  841   3.410   2.174  10.911  0.3860  1.2911  0.5017
   54MPD2    C5  842   3.507   2.091  10.871 -0.0990 -0.1861  0.5373
   54MPD2     H  843   3.376   2.033  11.222 -0.7083  1.2299 -0.7816
   54MPD2    H1  844   3.369   2.250  10.845 -0.3427 -0.0602 -0.6150
   54MPD2    H2  845   3.645   1.930  10.924 -0.2360 -1.1098  1.1471
   54MPD2    H3  846   3.545   2.115  10.772 -0.4662 -1.3500  0.1204
   54MPD2     N  847   3.241   2.227  11.073 -0.5196  0.4627 -0.2492
   54MPD2    H5  848   3.215   2.287  10.996 -0.5759 -2.1028 -2.2203
   54MPD2    N1  849   3.574   1.885  11.181 -0.3330 -0.3237 -0.2521
   54MPD2    H7  850   3.541   1.891  11.277 -1.3844 -1.8943 -0.5059
   55TMC2    C1  851   0.211   0.409  17.712 -0.4715  0.0039  1.1632
   55TMC2    C2  852   0.258   0.473  17.606  0.4828  0.7610 -0.3064
   55TMC2    C3  853   0.353   0.425  17.521  0.0968  0.0167 -0.4248
   55TMC2    C4  854   0.264   0.285  17.736  0.2842  0.4481 -0.1927
   55TMC2    C5  855   0.353   0.234  17.645 -0.1494  0.1219  0.2131
   55TMC2    C6  856   0.393   0.296  17.530  0.3511 -0.7833  0.0784
   55TMC2     C  857   0.101   0.456   0.025 -0.1292  0.6117  0.3312
   55TMC2     O  858   0.068   0.382   0.113  0.2350 -0.1651  0.0369
   55TMC2     H  859   0.207   0.561  17.569 -2.3856 -0.8748 -0.2507
   55TMC2    H1  860   0.216   0.216   0.044 -0.3771  0.1232 -0.9812
   55TMC2    H2  861   0.470   0.246  17.473  1.0750 -1.2260  1.4446
   55TMC2    C7  862   0.342   0.088  17.632 -0.6538 -0.2191  0.3737
   55TMC2    C8  863   0.359   0.484  17.395  0.4595 -0.8909  0.2977
   55TMC2    O1  864   0.335   0.041  17.517  0.2329  0.2801 -0.1676
   55TMC2    O2  865   0.269   0.536  17.335  0.4865  0.4322  0.5522
   55TMC2    O5  866   0.476   0.446  17.349  0.7763  0.3576 -0.2218
   55TMC2    H5  867   0.533   0.423  17.425  1.1610 -1.0233 -0.9298
   56MPD2     C  868   4.649   0.769   0.016  0.4276  0.0440  0.0046
   56MPD2    C1  869   4.702   0.659   0.074  0.3474  0.2793 -0.0082
   56MPD2    C2  870   4.671   0.630   0.207  0.0187 -0.2935 -0.1171
   56MPD2    C3  871   4.572   0.698   0.270  0.2485 -0.2072  0.3554
   56MPD2    C4  872   4.511   0.813   0.211 -0.8280 -0.3397 -0.3088
   56MPD2    C5  873   4.553   0.840   0.085 -0.2782 -0.5636 -0.1592
   56MPD2     H  874   4.705   0.543   0.262 -0.8717 -0.5567  0.0218
   56MPD2    H1  875   4.440   0.880   0.257 -0.5285  0.0957 -0.4813
   56MPD2    H2  876   4.694   0.798  17.683  0.3403 -0.1668 -0.1038
   56MPD2    H3  877   4.527   0.935   0.039  0.5212  0.7720  2.1394
   56MPD2     N  878   4.523   0.643   0.396 -0.1456  0.4369 -0.1431
   56MPD2    H5  879   4.580   0.568   0.435 -0.3048  0.0559 -0.6435
   56MPD2    N1  880   0.048   0.581  17.750 -0.8116  0.7021 -0.4471
   56MPD2    H7  881   0.070   0.626  17.662 -0.6671  3.2065  0.8660
   57TMC2    C1  882   3.844   0.279  13.615  0.2402 -0.8207 -0.3299
   57TMC2    C2  883   3.785   0.164  13.645 -0.2311  0.3254  0.1507
   57TMC2    C3  884   3.804   0.062  13.559 -0.3079  0.3662  0.1142
   57TMC2    C4  885   3.937   0.303  13.517  0.0309 -0.0916  0.8589
   57TMC2    C5  886   3.969   0.187  13.449  0.6767  0.1149  0.1213
   57TMC2    C6  887   3.897   0.073  13.459 -0.2818 -0.7210  0.3094
   57TMC2     C  888   3.797   0.399  13.678  0.2424  0.0587  0.5077
   57TMC2     O  889   3.796   0.495  13.604  0.7315 -0.1111  0.6189
   57TMC2     H  890   3.707   0.141  13.717  1.4068 -0.6620  1.6163
   57TMC2    H1  891   3.979   0.398  13.484 -0.0213 -0.3535  0.0502
   57TMC2    H2  892   3.923   4.728  13.400 -0.3489  0.1535 -1.0017
   57TMC2    C7  893   4.056   0.199  13.329 -0.0685  0.7389 -0.1277
   57TMC2    C8  894   3.780   4.671  13.611 -0.4184  0.3105 -0.2580
   57TMC2    O1  895   4.084   0.311  13.296  0.1300 -0.7447 -0.1595
   57TMC2    O2  896   3.778   4.654  13.732  0.1869 -0.2890  0.0150
   57TMC2    O5  897   3.787   4.577  13.517 -0.3220  0.0415  0.5134
   57TMC2    H5  898   3.766   4.609  13.426  0.4943 -1.9846 -0.3853
   58MPD2     C  899   3.485   0.668  13.981  0.0735 -0.0202  1.1116
   58MPD2    C1  900   3.544   0.695  13.858 -0.0402  0.0364  0.2508
   58MPD2    C2  901   3.620   0.599  13.795  0.2094 -0.3643  0.1601
   58MPD2    C3  902   3.660   0.485  13.870  0.0101  0.6998 -0.6958
   58MPD2    C4  903   3.606   0.466  13.995 -0.1562  0.4356  0.4884
   58MPD2    C5  904   3.519   0.553  14.047  0.1674 -0.0485 -0.1818
   58MPD2     H  905   3.657   0.636  13.700 -0.5475 -0.5716 -0.2116
   58MPD2    H1  906   3.619   0.381  14.061 -0.4097 -0.4340 -0.5779
   58MPD2    H2  907   3.412   0.735  14.026  0.6422  2.6183 -1.9084
   58MPD2    H3  908   3.475   0.533  14.145 -1.6962  0.6067 -0.8749
   58MPD2     N  909   3.743   0.382  13.804  0.2662  0.1250  0.0764
   58MPD2    H5  910   3.770   0.298  13.853  0.8412  1.4716  2.0739
   58MPD2    N1  911   3.513   0.811  13.780 -0.5408  0.8338  0.1352
   58MPD2    H7  912   3.559   0.829  13.692 -0.7898  1.5082  0.1374
   59TMC2    C1  913   1.700   0.675  12.578 -0.2778  0.4310  0.8518
   59TMC2    C2  914   1.578   0.649  12.516 -0.6638 -0.4399 -0.8067
   59TMC2    C3  915   1.579   0.639  12.378  0.0475  0.3198  1.0840
   59TMC2    C4  916   1.814   0.689  12.502 -0.3327 -0.2621 -0.2265
   59TMC2    C5  917   1.806   0.698  12.366 -0.2654  0.0508  0.4815
   59TMC2    C6  918   1.689   0.660  12.304  0.4149 -0.1703  0.0397
   59TMC2     C  919   1.689   0.697  12.724  0.3818  0.4908 -0.1489
   59TMC2     O  920   1.574   0.700  12.762 -0.6381 -0.3948  0.1063
   59TMC2     H  921   1.485   0.642  12.571  2.1590 -3.0439  3.6484
   59TMC2    H1  922   1.902   0.720  12.557  1.7620 -1.0314 -3.0940
   59TMC2    H2  923   1.686   0.638  12.198 -2.3024  1.6756 -0.2568
   59TMC2    C7  924   1.924   0.721  12.276 -0.2414 -0.1367  0.5261
   59TMC2    C8  925   1.462   0.588  12.318 -0.7733 -0.8562 -0.5069
   59TMC2    O1  926   2.036   0.731  12.323 -0.0425 -0.3369  0.7869
   59TMC2    O2  927   1.371   0.528  12.384 -0.0322  0.0368 -0.3207
   59TMC2    O5  928   1.444   0.662  12.211 -0.3584 -0.1934  0.4490
   59TMC2    H5  929   1.520   0.723  12.207  0.2412 -0.8181  2.2757
   60MPD2     C  930   1.697   0.836  12.979  0.2154 -0.0525 -0.3009
   60MPD2    C1  931   1.816   0.803  12.912  0.4316  0.4341  0.1318
   60MPD2    C2  932   1.939   0.816  12.974  0.2358 -0.0447 -0.2570
   60MPD2    C3  933   1.941   0.862  13.102  0.4799  0.7101 -0.9543
   60MPD2    C4  934   1.828   0.910  13.158 -0.0695  0.5142 -0.9235
   60MPD2    C5  935   1.707   0.903  13.098  0.4013  0.0252 -0.1368
   60MPD2     H  936   2.031   0.781  12.927  1.9339  1.4272  1.9915
   60MPD2    H1  937   1.833   0.963  13.252  2.5179  0.4882 -1.0633
   60MPD2    H2  938   1.599   0.805  12.944 -0.6305  0.2944  1.7409
   60MPD2    H3  939   1.622   0.917  13.164  0.3081  0.3566 -0.3285
   60MPD2     N  940   2.061   0.878  13.179  0.4396 -0.2638 -0.6304
   60MPD2    H5  941   2.043   0.926  13.267 -0.9883  1.0781 -1.6600
   60MPD2    N1  942   1.805   0.738  12.789 -0.3016  0.0294  0.0956
   60MPD2    H7  943   1.894   0.707  12.750  0.4487  1.7774  0.4493
   61TMC2    C1  944   0.931   1.830  15.817  0.1137 -0.1468 -0.4185
   61TMC2    C2  945   0.887   1.804  15.941  0.3765 -0.1420  0.2279
   61TMC2    C3  946   0.839   1.904  16.026  0.1007  0.1822  0.4031
   61TMC2    C4  947   0.937   1.961  15.775 -0.2739 -0.2724  0.0811
   61TMC2    C5  948   0.893   2.059  15.859  0.2375  0.4813 -0.1608
   61TMC2    C6  949   0.837   2.032  15.984 -0.0531  0.5178 -0.4032
   61TMC2     C  950   1.031   1.733  15.764  0.5653 -0.1339 -0.0510
   61TMC2     O  951   1.051   1.627  15.820 -0.5717  0.8296 -0.7670
   61TMC2     H  952   0.897   1.701  15.970 -1.9666  0.6682  3.8556
   61TMC2    H1  953   0.992   1.984  15.685  0.0477 -3.8516 -0.6605
   61TMC2    H2  954   0.804   2.112  16.048 -0.6682 -0.7667  0.8755
   61TMC2    C7  955   0.929   2.192  15.812 -0.4221  0.0848 -0.6264
   61TMC2    C8  956   0.782   1.887  16.161  0.1888 -0.1085 -0.0472
   61TMC2    O1  957   0.988   2.202  15.707 -0.0223 -0.1217 -0.6340
   61TMC2    O2  958   0.803   1.980  16.236 -0.1130 -0.0489  0.2449
   61TMC2    O5  959   0.771   1.760  16.185 -0.2436 -0.9246  0.0291
   61TMC2    H5  960   0.735   1.702  16.114 -0.9141  0.7807 -1.0257
   62MPD2     C  961   1.255   1.613  15.610 -0.0574 -0.1231  0.0471
   62MPD2    C1  962   1.168   1.704  15.559 -0.1075  0.0654  0.1194
   62MPD2    C2  963   1.185   1.745  15.425 -0.2586  0.0115  0.3055
   62MPD2    C3  964   1.293   1.705  15.346  0.0676 -0.2438  0.0768
   62MPD2    C4  965   1.381   1.613  15.403  0.0129 -0.7334  0.0243
   62MPD2    C5  966   1.356   1.564  15.529  0.2606  0.2354 -1.0143
   62MPD2     H  967   1.124   1.826  15.388  1.8302  0.7578 -1.4457
   62MPD2    H1  968   1.464   1.579  15.343 -2.5139 -0.7296 -3.4827
   62MPD2    H2  969   1.254   1.585  15.714  0.9647  1.5865  0.5214
   62MPD2    H3  970   1.415   1.481  15.567 -0.3871  0.5571  0.7007
   62MPD2     N  971   1.321   1.747  15.220  0.3074 -0.0345  0.4045
   62MPD2    H5  972   1.399   1.717  15.163  0.0993 -0.7601  0.5029
   62MPD2    N1  973   1.062   1.770  15.636 -0.0028 -0.4441 -0.5371
   62MPD2    H7  974   1.010   1.845  15.593  1.0626  0.1208 -0.8491
   63TMC2    C1  975   0.808   2.092  10.215 -1.0903  0.0314  0.6366
   63TMC2    C2  976   0.881   2.030  10.113  0.0344  0.3555  0.3541
   63TMC2    C3  977   0.934   2.112  10.013  0.1349  0.7978 -0.4821
   63TMC2    C4  978   0.812   2.230  10.222  0.5272  0.2337  0.3078
   63TMC2    C5  979   0.876   2.305  10.124  0.6217 -0.0369  0.4471
   63TMC2    C6  980   0.931   2.247  10.010  0.5997 -0.2071 -0.5392
   63TMC2     C  981   0.732   2.017  10.316  0.8429  0.4564 -0.9319
   63TMC2     O  982   0.702   2.082  10.415  0.0773  0.2382  0.3389
   63TMC2     H  983   0.867   1.924  10.098  2.5020  0.1413 -0.4726
   63TMC2    H1  984   0.776   2.288  10.305 -0.9797  0.7952 -0.7269
   63TMC2    H2  985   0.969   2.311   9.932 -0.1082 -1.0416 -1.5707
   63TMC2    C7  986   0.827   2.438  10.106  0.0441  0.4186  0.2725
   63TMC2    C8  987   0.991   2.046   9.897  0.3495 -0.1291 -0.3189
   63TMC2    O1  988   0.713   2.461  10.140 -0.0321 -0.0319  0.3128
   63TMC2    O2  989   1.075   2.086   9.820  0.2153  0.0156 -0.0692
   63TMC2    O5  990   0.894   1.954   9.865 -0.6658 -0.5810  0.3470
   63TMC2    H5  991   0.822   1.956   9.931 -0.4348 -1.9685  0.6428
   64MPD2     C  992   0.425   1.646  10.481 -0.0233  0.0649  0.5691
   64MPD2    C1  993   0.498   1.596  10.376  0.0388  0.1556 -0.5755
   64MPD2    C2  994   0.592   1.673  10.315  0.1794  0.1012  0.0560
   64MPD2    C3  995   0.607   1.804  10.353  0.4607  0.2921  0.0677
   64MPD2    C4  996   0.532   1.853  10.457  0.0140 -0.1078 -0.0171
   64MPD2    C5  997   0.450   1.769  10.528  0.8954 -0.3798  0.2401
   64MPD2     H  998   0.645   1.627  10.233 -2.3778 -1.5165 -0.7160
   64MPD2    H1  999   0.532   1.956  10.491  1.0804 -0.6836  1.7402
   64MPD2    H2 1000   0.340   1.592  10.520 -1.0136  1.5510  0.4575
   64MPD2    H3 1001   0.386   1.809  10.606  1.0619 -1.5894  1.0131
   64MPD2     N 1002   0.703   1.885  10.281  0.7541  0.1756  0.6578
   64MPD2    H5 1003   0.748   1.848  10.198  0.3124  0.6663  0.2049
   64MPD2    N1 1004   0.489   1.458  10.341 -0.4634  0.6607  0.4994
   64MPD2    H7 1005   0.558   1.429  10.272 -0.3725  0.2728  0.7574
   65TMC2    C1 1006   1.537   1.950  15.469 -0.4169  0.5407 -0.9422
   65TMC2    C2 1007   1.463   2.041  15.387 -0.2812 -0.1216  0.0175
   65TMC2    C3 1008   1.352   2.102  15.444  1.2675  0.8669  0.4032
   65TMC2    C4 1009   1.487   1.900  15.588  0.2013  0.4133 -0.2312
   65TMC2    C5 1010   1.371   1.960  15.631 -0.1703 -0.1189  0.6985
   65TMC2    C6 1011   1.305   2.061  15.565 -0.5147  0.2016  0.5259
   65TMC2     C 1012   1.650   1.888  15.410  0.6439 -0.0847  0.0166
   65TMC2     O 1013   1.689   1.931  15.300 -0.1529  0.2091  0.0523
   65TMC2     H 1014   1.505   2.077  15.294  1.7026  1.6090  1.5814
   65TMC2    H1 1015   1.553   1.852  15.660 -1.1892 -2.0578 -0.5871
   65TMC2    H2 1016   1.206   2.099  15.589  0.0405  2.8587 -1.3701
   65TMC2    C7 1017   1.340   1.943  15.765 -0.4052 -0.8659 -0.2003
   65TMC2    C8 1018   1.245   2.135  15.353  0.0524  0.6053 -0.1233
   65TMC2    O1 1019   1.365   1.835  15.816  0.1666 -0.1072 -0.4683
   65TMC2    O2 1020   1.127   2.111  15.370 -0.0195 -0.4447 -0.6321
   65TMC2    O5 1021   1.288   2.209  15.259  0.4289  0.0391  0.2963
   65TMC2    H5 1022   1.383   2.230  15.269  0.2233 -0.7311  3.9025
   66MPD2     C 1023   1.882   1.722  15.340 -0.1365  0.0053  0.1989
   66MPD2    C1 1024   1.793   1.687  15.439  0.5202 -0.6434  0.6560
   66MPD2    C2 1025   1.788   1.554  15.478 -0.2580  0.1993  0.3286
   66MPD2    C3 1026   1.877   1.456  15.422 -0.0606 -0.0556 -0.1719
   66MPD2    C4 1027   1.969   1.495  15.332  0.0613  0.7766  0.3443
   66MPD2    C5 1028   1.968   1.621  15.291  0.2199 -0.3539  0.2746
   66MPD2     H 1029   1.716   1.518  15.551 -1.1118  0.7971 -0.2245
   66MPD2    H1 1030   2.031   1.424  15.278 -1.6634  1.1873 -2.1689
   66MPD2    H2 1031   1.902   1.823  15.307 -0.4155 -0.0714 -0.2064
   66MPD2    H3 1032   2.051   1.641  15.225 -0.2047  0.3100 -0.0530
   66MPD2     N 1033   1.870   1.315  15.439  0.2929  1.0922  1.1155
   66MPD2    H5 1034   1.938   1.263  15.385 -2.6868 -0.9632 -0.6764
   66MPD2    N1 1035   1.682   1.772  15.475 -0.4119 -0.1086 -0.5222
   66MPD2    H7 1036   1.620   1.736  15.547  1.7122  0.9052  1.8125
   67TMC2    C1 1037   1.571   0.782  14.692  0.1959 -0.2115 -0.2536
   67TMC2    C2 1038   1.489   0.825  14.788 -0.4931 -0.1613  0.3538
   67TMC2    C3 1039   1.544   0.902  14.886  0.2318  0.0032  0.1067
   67TMC2    C4 1040   1.707   0.775  14.712 -0.0517 -0.2677  0.0315
   67TMC2    C5 1041   1.760   0.843  14.817 -0.0288 -0.3693  0.2017
   67TMC2    C6 1042   1.681   0.922  14.900  0.4837  0.0239  0.2305
   67TMC2     C 1043   1.526   0.705  14.577  0.4102  0.5160  0.1518
   67TMC2     O 1044   1.590   0.600  14.559 -0.2327 -0.4762  0.1838
   67TMC2     H 1045   1.383   0.809  14.777 -0.8011  1.2294  1.2760
   67TMC2    H1 1046   1.771   0.727  14.639 -0.6852 -2.9491  1.2281
   67TMC2    H2 1047   1.709   0.998  14.971  0.4251 -1.4857  1.8556
   67TMC2    C7 1048   1.899   0.856  14.821  0.0025  0.3454  0.2421
   67TMC2    C8 1049   1.461   1.020  14.929  0.5117 -0.7590  0.2902
   67TMC2    O1 1050   1.964   0.800  14.733 -0.0280 -0.1384  0.3243
   67TMC2    O2 1051   1.508   1.126  14.898 -0.2901 -0.3059  0.2884
   67TMC2    O5 1052   1.333   0.999  14.917 -0.3167  0.6218  0.0817
   67TMC2    H5 1053   1.302   0.922  14.969 -1.0644 -1.8447 -4.0683
   68MPD2     C 1054   1.375   0.555  14.373 -0.1601 -0.0053  0.2062
   68MPD2    C1 1055   1.343   0.684  14.418 -0.6372  0.1430  0.5598
   68MPD2    C2 1056   1.230   0.744  14.363 -0.1869  0.0710 -0.5930
   68MPD2    C3 1057   1.148   0.678  14.272  0.0866 -0.5173  0.0268
   68MPD2    C4 1058   1.188   0.553  14.222  0.1455  0.9870  0.4098
   68MPD2    C5 1059   1.298   0.488  14.277  0.4501  0.0638  0.7448
   68MPD2     H 1060   1.198   0.845  14.387 -0.7285 -0.3469  0.4596
   68MPD2    H1 1061   1.123   0.498  14.156  1.7618  0.5032 -0.7474
   68MPD2    H2 1062   1.450   0.493  14.421 -0.9019 -1.9264 -1.1068
   68MPD2    H3 1063   1.308   0.384  14.247 -0.1308  0.9075 -2.3524
   68MPD2     N 1064   1.041   0.739  14.209 -0.0088 -0.6691 -0.3644
   68MPD2    H5 1065   1.004   0.679  14.136  2.6028 -0.2466 -2.0597
   68MPD2    N1 1066   1.418   0.757  14.515  0.2029  0.2070  0.1479
   68MPD2    H7 1067   1.375   0.844  14.545 -2.1905 -1.5758  1.9265
   69TMC2    C1 1068   3.877   2.135  12.005  0.0089  0.4210  0.0870
   69TMC2    C2 1069   3.752   2.179  11.973 -0.1819  0.4330  0.1085
   69TMC2    C3 1070   3.723   2.171  11.843 -0.9254  0.9701 -0.0499
   69TMC2    C4 1071   3.973   2.097  11.912  0.9564  0.8732 -0.4302
   69TMC2    C5 1072   3.929   2.081  11.781  0.0327  0.0317  0.6396
   69TMC2    C6 1073   3.800   2.119  11.746 -0.5629 -0.1309 -0.1144
   69TMC2     C 1074   3.906   2.123  12.147  1.0544  0.8375 -0.6022
   69TMC2     O 1075   3.804   2.128  12.212  0.0341  0.3146  0.2138
   69TMC2     H 1076   3.672   2.213  12.038  1.1989  0.9889  1.5020
   69TMC2    H1 1077   4.070   2.058  11.939 -0.0324 -1.5429 -0.3415
   69TMC2    H2 1078   3.761   2.126  11.645 -2.0643 -0.0552  0.4698
   69TMC2    C7 1079   4.023   2.022  11.687  0.1216  0.6857 -0.7927
   69TMC2    C8 1080   3.597   2.224  11.805 -0.4714 -0.4958  0.0824
   69TMC2    O1 1081   4.094   1.930  11.725 -0.2599 -0.1181 -0.2689
   69TMC2    O2 1082   3.497   2.194  11.869 -0.1436  0.6138 -0.7538
   69TMC2    O5 1083   3.606   2.296  11.693 -0.4647 -0.3387  0.1383
   69TMC2    H5 1084   3.698   2.316  11.664 -0.0503 -0.6400  1.2465
   70MPD2     C 1085   4.210   2.011  12.318  0.1074  0.2635 -0.0329
   70MPD2    C1 1086   4.087   2.065  12.299  0.2427  0.1398  0.3023
   70MPD2    C2 1087   4.018   2.105  12.410 -0.1519  0.0616  0.1374
   70MPD2    C3 1088   4.054   2.080  12.544  0.9583 -0.4875 -0.7261
   70MPD2    C4 1089   4.168   2.004  12.558 -0.6195 -0.2404  0.0392
   70MPD2    C5 1090   4.248   1.982  12.448  0.5914 -0.2079  0.6753
   70MPD2     H 1091   3.924   2.157  12.395 -0.0659  0.0599 -0.3989
   70MPD2    H1 1092   4.202   1.982  12.659  1.0445  0.3577 -0.3876
   70MPD2    H2 1093   4.279   1.981  12.240 -0.2654 -2.7171  0.8116
   70MPD2    H3 1094   4.340   1.924  12.454  1.7465  1.6532  0.8013
   70MPD2     N 1095   3.972   2.089  12.658 -0.4687 -0.0957 -0.1932
   70MPD2    H5 1096   3.995   2.034  12.739  0.1416 -1.3366 -1.2077
   70MPD2    N1 1097   4.037   2.081  12.170  0.3300 -0.4707  0.4284
   70MPD2    H7 1098   4.106   2.082  12.096  0.3172  1.4763  0.4543
   71TMC2    C1 1099   1.473   3.933   1.775  0.6483  0.2610 -0.2788
   71TMC2    C2 1100   1.570   4.020   1.802  0.8347  0.1463  0.1910
   71TMC2    C3 1101   1.532   4.145   1.833 -0.5188 -0.3443 -0.2405
   71TMC2    C4 1102   1.338   3.967   1.764 -0.7006 -0.4988 -0.9668
   71TMC2    C5 1103   1.312   4.096   1.794  0.5876 -0.5513 -0.1295
   71TMC2    C6 1104   1.405   4.187   1.827 -0.3652 -0.0740 -0.1894
   71TMC2     C 1105   1.526   3.822   1.700  0.1723 -0.3470  0.0938
   71TMC2     O 1106   1.629   3.838   1.633 -0.5592  0.4391  0.4736
   71TMC2     H 1107   1.672   4.000   1.772  0.7047  0.8795 -0.7159
   71TMC2    H1 1108   1.260   3.899   1.730 -0.1658 -0.3858 -2.4262
   71TMC2    H2 1109   1.370   4.288   1.842 -2.3390 -0.6766 -0.7279
   71TMC2    C7 1110   1.177   4.150   1.783  0.1828  1.0261  0.0709
   71TMC2    C8 1111   1.627   4.252   1.825 -0.3848 -0.2257 -0.2028
   71TMC2    O1 1112   1.139   4.241   1.858  0.4276  0.0113  0.2455
   71TMC2    O2 1113   1.636   4.295   1.710  0.3342 -0.0290  1.0905
   71TMC2    O5 1114   1.736   4.205   1.896 -0.1190  0.9859  0.5731
   71TMC2    H5 1115   1.693   4.159   1.972  0.2250 -0.4651 -0.1206
   72MPD2     C 1116   1.447   3.342   1.538  0.2795 -0.4292  0.0372
   72MPD2    C1 1117   1.531   3.438   1.484  0.4591  0.0652  0.7968
   72MPD2    C2 1118   1.523   3.565   1.541  0.4207 -0.0148  0.4903
   72MPD2    C3 1119   1.443   3.593   1.649 -0.0768 -0.2692  0.0004
   72MPD2    C4 1120   1.353   3.495   1.692  0.2006 -0.3845  0.1003
   72MPD2    C5 1121   1.357   3.374   1.634  0.4232  0.3049  0.6366
   72MPD2     H 1122   1.579   3.643   1.491 -0.3620  0.0947 -0.2218
   72MPD2    H1 1123   1.275   3.525   1.760  0.8245  0.1628  0.5647
   72MPD2    H2 1124   1.432   3.241   1.501  0.3705 -0.1325 -0.8124
   72MPD2    H3 1125   1.283   3.298   1.656  1.5119 -0.4158  1.7557
   72MPD2     N 1126   1.439   3.717   1.711  0.0149 -0.3890  0.6976
   72MPD2    H5 1127   1.378   3.720   1.792 -2.2236  2.2875 -1.0762
   72MPD2    N1 1128   1.617   3.417   1.379 -0.3848  1.1686 -0.6902
   72MPD2    H7 1129   1.671   3.496   1.345  0.7536  1.1036  0.9572
   73TMC2    C1 1130   0.666   0.150  13.836 -0.5674  0.5687  0.6978
   73TMC2    C2 1131   0.673   0.060  13.730 -0.0458 -0.0380  0.3092
   73TMC2    C3 1132   0.707   4.675  13.760 -0.5987  0.5087  0.4299
   73TMC2    C4 1133   0.690   0.102  13.962  0.3795  0.6301  0.5533
   73TMC2    C5 1134   0.721   4.716  13.987 -0.0942  0.0069  0.6363
   73TMC2    C6 1135   0.728   4.629  13.883  0.8658 -0.0134  0.8178
   73TMC2     C 1136   0.726   0.275  13.818  0.0090 -0.1306 -0.3408
   73TMC2     O 1137   0.806   0.318  13.902 -0.2317  0.4048  0.0297
   73TMC2     H 1138   0.645   0.094  13.631  0.2873  0.3662  0.3563
   73TMC2    H1 1139   0.681   0.167  14.048 -1.0827 -1.9194  2.3116
   73TMC2    H2 1140   0.761   4.527  13.898  0.4434 -0.5394 -1.7534
   73TMC2    C7 1141   0.843   4.705  14.064  0.0433 -0.1753  0.4619
   73TMC2    C8 1142   0.739   4.602  13.640 -0.3428 -0.5707  0.1077
   73TMC2    O1 1143   0.871   4.593  14.103 -0.6628 -0.3593 -0.2106
   73TMC2    O2 1144   0.751   4.664  13.537  0.1106 -0.2478  0.3777
   73TMC2    O5 1145   0.676   4.483  13.670 -0.4971  0.6484 -0.2249
   73TMC2    H5 1146   0.624   4.485  13.754  0.3012 -1.4213  0.3113
   74MPD2     C 1147   0.900   0.613  13.456  0.0307  0.3480 -0.5907
   74MPD2    C1 1148   0.950   0.575  13.581  0.0775  0.0791  0.2164
   74MPD2    C2 1149   0.869   0.491  13.655  0.6383 -0.0673  0.1341
   74MPD2    C3 1150   0.748   0.438  13.622 -0.1716  0.0241  0.1124
   74MPD2    C4 1151   0.709   0.468  13.497 -0.3575  0.4782 -0.8273
   74MPD2    C5 1152   0.775   0.563  13.418  0.7134 -0.1495  0.3349
   74MPD2     H 1153   0.903   0.471  13.756 -1.9656 -0.5791  0.9295
   74MPD2    H1 1154   0.631   0.414  13.446 -2.5293  2.8926 -0.0534
   74MPD2    H2 1155   0.954   0.687  13.398 -0.9438  1.5783  0.0966
   74MPD2    H3 1156   0.729   0.585  13.322 -1.8345 -0.2891  1.5109
   74MPD2     N 1157   0.674   0.342  13.701 -0.4247 -0.5689 -0.7363
   74MPD2    H5 1158   0.591   0.298  13.663 -1.1561  0.9614 -0.9189
   74MPD2    N1 1159   1.072   0.632  13.630 -0.2809  0.6218  0.3078
   74MPD2    H7 1160   1.108   0.693  13.558 -0.6081 -0.7172 -1.0076
   75TMC2    C1 1161   0.908   0.904  14.130  0.1649  0.0072 -0.7992
   75TMC2    C2 1162   0.782   0.956  14.147  0.2052  0.2565  0.2154
   75TMC2    C3 1163   0.705   0.982  14.040 -0.4490  0.0093  0.2121
   75TMC2    C4 1164   0.955   0.877  14.012 -0.3176 -0.2948  0.3779
   75TMC2    C5 1165   0.879   0.911  13.901 -0.3110 -0.1537  0.1024
   75TMC2    C6 1166   0.748   0.960  13.910 -0.2976  0.2928 -0.1275
   75TMC2     C 1167   0.982   0.858  14.250 -0.6463  0.4363 -0.0486
   75TMC2     O 1168   0.984   0.915  14.355 -0.1324 -0.0158 -0.3579
   75TMC2     H 1169   0.743   0.972  14.247  0.2482 -1.9579  0.5837
   75TMC2    H1 1170   1.061   0.858  13.997  0.3103  2.6497  1.1643
   75TMC2    H2 1171   0.698   1.001  13.823  1.2763  1.5571 -0.4389
   75TMC2    C7 1172   0.935   0.915  13.769 -0.0793 -0.6031  0.3656
   75TMC2    C8 1173   0.586   1.063  14.057 -0.1048  0.4301  0.2011
   75TMC2    O1 1174   0.847   0.901  13.681  0.3169 -0.3913  0.0956
   75TMC2    O2 1175   0.552   1.150  13.981  0.2045 -0.7578  0.4386
   75TMC2    O5 1176   0.505   1.002  14.144 -0.1538  0.9263  0.0925
   75TMC2    H5 1177   0.533   0.918  14.187  1.0258  1.0765 -0.3771
   76TMC2    C1 1178   4.367   1.058  12.224 -0.2704 -0.6511  0.1744
   76TMC2    C2 1179   4.241   1.030  12.286  0.5544 -0.2240 -0.1609
   76TMC2    C3 1180   4.254   0.954  12.398  0.4617  0.0997 -0.4423
   76TMC2    C4 1181   4.484   1.049  12.292 -0.1142  0.2529 -0.7693
   76TMC2    C5 1182   4.485   0.988  12.416  0.1022 -0.1498  0.3421
   76TMC2    C6 1183   4.373   0.925  12.462  0.1181 -1.4798 -0.4582
   76TMC2     C 1184   4.373   1.081  12.078  0.6875 -0.3963 -0.0424
   76TMC2     O 1185   4.278   1.105  12.016  0.1637  0.3325  0.5700
   76TMC2     H 1186   4.150   1.024  12.227  0.4464 -2.0573  0.1808
   76TMC2    H1 1187   4.574   1.099  12.259 -0.6197 -0.0232 -2.5436
   76TMC2    H2 1188   4.386   0.875  12.557  1.7688  0.0256  0.1030
   76TMC2    C7 1189   4.616   0.944  12.467  0.0630  0.4420 -0.3879
   76TMC2    C8 1190   4.125   0.911  12.461 -0.4628 -0.2866  0.0246
   76TMC2    O1 1191   4.622   0.829  12.505  0.3415  0.2719 -0.4621
   76TMC2    O2 1192   4.117   0.821  12.542  0.3268  0.0861  0.2874
   76TMC2    O5 1193   4.033   1.004  12.445 -0.9369  0.5640  0.4842
   76TMC2    H5 1194   4.069   1.090  12.414 -1.4971 -0.4815 -3.0498
   77MPD2     C 1195   4.665   1.075  11.657 -0.1583 -0.7759  0.0297
   77MPD2    C1 1196   4.537   1.120  11.676  0.0124  0.7447 -0.7159
   77MPD2    C2 1197   4.474   1.106  11.799  0.1988 -0.0541 -0.0679
   77MPD2    C3 1198   4.545   1.047  11.902 -0.2426  0.2587 -0.0567
   77MPD2    C4 1199   4.668   0.992  11.877 -0.1955  0.1700 -0.4494
   77MPD2    C5 1200   4.722   1.005  11.757 -0.4010 -0.4095  0.6185
   77MPD2     H 1201   4.375   1.149  11.806  0.2881  0.3738 -1.6118
   77MPD2    H1 1202   4.725   0.949  11.958  1.9874  1.4041 -1.3376
   77MPD2    H2 1203   4.718   1.076  11.562 -1.6527  1.0726 -0.7827
   77MPD2    H3 1204   0.083   0.977  11.734 -0.2359  2.5716 -2.3205
   77MPD2     N 1205   4.497   1.049  12.034 -0.0794  0.0528 -0.3807
   77MPD2    H5 1206   4.569   1.019  12.099  1.0414 -2.1403 -2.6491
   77MPD2    N1 1207   4.463   1.183  11.573 -0.8716  0.2339  0.5706
   77MPD2    H7 1208   4.367   1.200  11.599 -0.2658 -0.1520  3.0225
   78TMC2    C1 1209   2.382   3.614   1.505 -0.4638 -0.1630 -0.5581
   78TMC2    C2 1210   2.515   3.584   1.474  0.1910 -0.3245 -0.0364
   78TMC2    C3 1211   2.539   3.455   1.425 -0.0514 -0.3911 -0.3391
   78TMC2    C4 1212   2.283   3.513   1.501  0.2880  0.2184 -0.3197
   78TMC2    C5 1213   2.321   3.383   1.462 -0.9616  0.2963  0.3368
   78TMC2    C6 1214   2.444   3.354   1.419 -0.9470 -0.6998  0.1933
   78TMC2     C 1215   2.360   3.735   1.582 -0.1369  1.0360  0.3959
   78TMC2     O 1216   2.447   3.821   1.576  0.1199 -0.4058  0.9501
   78TMC2     H 1217   2.589   3.662   1.459 -0.0673  0.0141  0.4737
   78TMC2    H1 1218   2.179   3.536   1.523 -0.3214 -1.8129 -1.0476
   78TMC2    H2 1219   2.476   3.254   1.391 -2.1354 -1.1449  0.4351
   78TMC2    C7 1220   2.230   3.265   1.462  0.4735 -0.3163 -0.4798
   78TMC2    C8 1221   2.673   3.432   1.374  0.8505  0.2389 -0.3727
   78TMC2    O1 1222   2.278   3.157   1.425 -0.4245 -0.7075  0.1431
   78TMC2    O2 1223   2.725   3.511   1.299  0.2215 -0.0835 -0.8233
   78TMC2    O5 1224   2.708   3.300   1.369  0.0591  0.2204 -0.3928
   78TMC2    H5 1225   2.653   3.249   1.433  0.1924 -0.7389 -1.0491
   79MPD1     C 1226   2.066   4.047   1.867 -0.3424  0.6678  0.5759
   79MPD1    C1 1227   2.184   4.063   1.808  0.2044  0.2219 -0.5628
   79MPD1    C2 1228   2.244   3.959   1.744  0.6517  0.5828 -0.1385
   79MPD1    C3 1229   2.184   3.831   1.728 -0.5654 -0.0616  0.7722
   79MPD1    C4 1230   2.060   3.817   1.784  0.1781  0.2435 -0.6737
   79MPD1    C5 1231   2.005   3.923   1.857 -0.3705  0.2906 -0.4732
   79MPD1     H 1232   2.342   3.987   1.706  0.6823 -1.6197 -1.7177
   79MPD1    H1 1233   2.000   3.728   1.772  2.0370 -1.1688  0.5375
   79MPD1    H2 1234   2.016   4.127   1.920 -2.8339 -1.3458  1.3119
   79MPD1    H3 1235   1.901   3.922   1.889  0.2258  1.5410  1.4586
   79MPD1     N 1236   2.242   3.727   1.649 -0.0373 -0.6125  0.5423
   79MPD1    H5 1237   2.200   3.635   1.652 -0.2200 -0.4886  1.7517
   79MPD1    N1 1238   2.234   4.185   1.815 -0.7441  0.1217 -0.2955
   79MPD1    H6 1239   2.160   4.256   1.819 -1.5638 -0.6631 -1.5058
   79MPD1    H7 1240   2.301   4.194   1.738  2.1121 -1.6857  2.0035
   80TMC2    C1 1241   3.613   1.057  11.425  0.2131 -0.4698 -0.5449
   80TMC2    C2 1242   3.746   1.029  11.397  0.1463 -0.0040  0.2382
   80TMC2    C3 1243   3.802   0.931  11.475 -0.1413  0.7670 -0.0701
   80TMC2    C4 1244   3.550   1.013  11.539  0.0006 -0.2795  1.0491
   80TMC2    C5 1245   3.621   0.943  11.632 -0.1695  0.4214 -0.6233
   80TMC2    C6 1246   3.750   0.901  11.601 -0.2184  0.2132 -0.5660
   80TMC2     C 1247   3.589   1.193  11.389 -0.4300  0.6050 -0.2087
   80TMC2     O 1248   3.609   1.231  11.273 -0.5065  0.1199  0.0512
   80TMC2     H 1249   3.790   1.058  11.303  3.6546 -0.3376  1.7921
   80TMC2    H1 1250   3.442   1.022  11.543  0.0942  1.0397  0.6882
   80TMC2    H2 1251   3.779   0.804  11.641  0.3794 -0.4261 -2.5262
   80TMC2    C7 1252   3.550   0.849  11.707  0.0628 -0.1525 -0.1138
   80TMC2    C8 1253   3.925   0.877  11.436  1.1038 -0.4422  0.3408
   80TMC2    O1 1254   3.467   0.778  11.653  0.1891  0.2293 -0.5325
   80TMC2    O2 1255   4.032   0.885  11.493 -0.1308 -0.7026 -0.2163
   80TMC2    O5 1256   3.908   0.845  11.304 -0.2898  0.2611  0.1829
   80TMC2    H5 1257   3.814   0.839  11.277 -0.1205 -0.9762 -0.1566
   81MPD2     C 1258   3.461   1.463  11.357 -0.2910  0.1764 -0.4540
   81MPD2    C1 1259   3.491   1.398  11.481  0.0458 -0.7585 -0.4404
   81MPD2    C2 1260   3.485   1.474  11.599 -0.0537  0.4050 -0.0922
   81MPD2    C3 1261   3.413   1.594  11.597 -0.4528  0.4550  0.3698
   81MPD2    C4 1262   3.370   1.643  11.476  0.0351  0.4631  0.1652
   81MPD2    C5 1263   3.401   1.582  11.356  0.3607 -0.2803 -0.1391
   81MPD2     H 1264   3.504   1.422  11.691  0.0945 -0.3510 -0.5505
   81MPD2    H1 1265   3.315   1.737  11.474 -1.2657 -0.2909 -0.0384
   81MPD2    H2 1266   3.477   1.420  11.259 -0.1526 -0.4442 -0.1558
   81MPD2    H3 1267   3.370   1.631  11.265  2.3938  2.5922  0.7120
   81MPD2     N 1268   3.373   1.664  11.714  0.3405 -0.0808  0.0423
   81MPD2    H5 1269   3.304   1.736  11.696 -0.0131 -0.3506  0.3168
   81MPD2    N1 1270   3.548   1.266  11.495  0.0151  0.5554  0.0268
   81MPD2    H7 1271   3.561   1.227  11.588 -0.8250  2.4736  0.9381
   82TMC2    C1 1272   2.337   0.355  11.560  0.4469 -0.0806 -0.0633
   82TMC2    C2 1273   2.370   0.304  11.680  0.0451  0.0152 -0.1854
   82TMC2    C3 1274   2.446   0.188  11.669  0.2665  0.2803 -0.4975
   82TMC2    C4 1275   2.364   0.299  11.434  1.0132 -0.9365  0.2723
   82TMC2    C5 1276   2.422   0.177  11.436 -0.3303 -0.3448  0.0221
   82TMC2    C6 1277   2.471   0.125  11.548  0.6563  0.4829  0.2479
   82TMC2     C 1278   2.208   0.425  11.546  0.7516  0.1135  0.2350
   82TMC2     O 1279   2.169   0.461  11.437 -0.2622  0.2949  0.1740
   82TMC2     H 1280   2.349   0.349  11.777 -0.8535 -0.3930 -0.1914
   82TMC2    H1 1281   2.340   0.344  11.339 -1.4186 -1.4574  0.6374
   82TMC2    H2 1282   2.523   0.030  11.545  0.9624  0.5902  1.8765
   82TMC2    C7 1283   2.335   0.075  11.402  0.1276 -0.7126 -0.8566
   82TMC2    C8 1284   2.454   0.105  11.793 -0.0622 -0.2346 -0.8672
   82TMC2    O1 1285   2.318   4.734  11.492 -0.4107  0.3178  0.1544
   82TMC2    O2 1286   2.466   0.145  11.907 -0.3844 -0.4123 -0.0283
   82TMC2    O5 1287   2.400   4.725  11.757  0.2156 -0.4669 -0.4752
   82TMC2    H5 1288   2.381   4.722  11.661 -0.9186  0.3812 -0.2750
   83MPD2     C 1289   1.749   0.549  11.724 -0.1572  0.1373 -0.0686
   83MPD2    C1 1290   1.803   0.572  11.598  0.7024  0.5039  0.4339
   83MPD2    C2 1291   1.935   0.532  11.585 -0.0912  0.7207  0.1743
   83MPD2    C3 1292   2.014   0.475  11.686 -0.4859 -0.2406  0.0975
   83MPD2    C4 1293   1.960   0.468  11.809  0.6171  0.3603  0.0056
   83MPD2    C5 1294   1.828   0.500  11.827  0.0325  0.2721  0.1270
   83MPD2     H 1295   1.985   0.549  11.490 -0.4478  0.8481  0.0080
   83MPD2    H1 1296   2.016   0.427  11.892  0.7299  0.4372 -0.0336
   83MPD2    H2 1297   1.645   0.573  11.743 -0.2853 -0.9013  0.5457
   83MPD2    H3 1298   1.780   0.491  11.924 -2.9525  0.5488 -1.3117
   83MPD2     N 1299   2.147   0.430  11.668  0.0585 -0.4339  0.4628
   83MPD2    H5 1300   2.195   0.382  11.743 -0.0014  1.0224  1.4402
   83MPD2    N1 1301   1.720   0.613  11.488  0.4119  0.0363  0.2828
   83MPD2    H7 1302   1.622   0.614  11.515  0.8507  1.6048  1.7976
   84TMC2    C1 1303   3.488   4.311  10.981  0.5221 -0.5374 -0.3012
   84TMC2    C2 1304   3.587   4.380  11.050 -0.4455  0.1341 -0.4040
   84TMC2    C3 1305   3.718   4.353  11.015 -0.4317 -1.2544  0.1452
   84TMC2    C4 1306   3.511   4.229  10.883 -0.1265 -0.2159  0.8585
   84TMC2    C5 1307   3.643   4.221  10.840 -0.2931 -0.0594  0.1832
   84TMC2    C6 1308   3.753   4.284  10.902  0.0121 -0.0640  0.1120
   84TMC2     C 1309   3.356   4.308  11.043 -0.5728  0.3011 -0.1295
   84TMC2     O 1310   3.286   4.211  11.034 -0.2647  0.1329 -0.0610
   84TMC2     H 1311   3.570   4.438  11.140 -1.4057  0.4889 -0.8030
   84TMC2    H1 1312   3.433   4.181  10.826  1.0757 -1.0163 -0.1208
   84TMC2    H2 1313   3.852   4.249  10.878  0.5278  1.9133 -0.6062
   84TMC2    C7 1314   3.655   4.148  10.716 -1.0805 -0.1795 -0.5685
   84TMC2    C8 1315   3.823   4.426  11.090  0.3913 -0.8807 -0.1384
   84TMC2    O1 1316   3.569   4.076  10.677  0.2537 -0.1683  0.0108
   84TMC2    O2 1317   3.811   4.474  11.203 -0.5120 -0.5573  0.0143
   84TMC2    O5 1318   3.945   4.385  11.047  0.2270  0.4827 -0.0210
   84TMC2    H5 1319   3.944   4.365  10.951 -2.2395 -1.6376  0.4505
   85TMC2    C1 1320   4.164   2.960  15.982  0.3405 -0.8455 -0.7956
   85TMC2    C2 1321   4.045   3.020  15.968  0.6209  0.0158  0.0991
   85TMC2    C3 1322   4.033   3.126  15.885  0.2992 -0.5537  0.2679
   85TMC2    C4 1323   4.269   2.996  15.908 -0.8339 -0.8611 -0.0032
   85TMC2    C5 1324   4.254   3.098  15.815 -0.2983 -0.2780 -0.7095
   85TMC2    C6 1325   4.139   3.177  15.811  0.0554 -0.4592 -0.1677
   85TMC2     C 1326   4.196   2.893  16.106  0.2636  0.1140 -1.0968
   85TMC2     O 1327   4.280   2.944  16.180 -0.7239  0.2204 -0.0900
   85TMC2     H 1328   3.963   2.986  16.030  0.9275  1.2066  1.1429
   85TMC2    H1 1329   4.358   2.937  15.929  0.2892  0.5640 -0.8023
   85TMC2    H2 1330   4.132   3.250  15.731 -0.1064  1.8424  1.9659
   85TMC2    C7 1331   4.356   3.089  15.713  0.7598 -0.0802 -0.5663
   85TMC2    C8 1332   3.906   3.194  15.875 -1.2753 -0.4054 -0.9845
   85TMC2    O1 1333   4.442   2.997  15.722  0.1822  0.3654  0.3228
   85TMC2    O2 1334   3.804   3.138  15.902 -0.2070  0.1024  0.2994
   85TMC2    O5 1335   3.924   3.327  15.867 -0.2189 -0.3167 -0.1848
   85TMC2    H5 1336   4.015   3.349  15.894 -0.1933  1.7689 -2.0499
   86MPD2     C 1337   4.113   2.528  16.461  0.3243 -1.1396  0.1676
   86MPD2    C1 1338   4.031   2.505  16.352 -0.9252 -0.1498  0.9921
   86MPD2    C2 1339   4.039   2.589  16.245  0.4613  0.4460  0.9894
   86MPD2    C3 1340   4.128   2.693  16.238 -0.0545 -0.2773 -0.1112
   86MPD2    C4 1341   4.210   2.717  16.347  0.0454 -0.6263  0.6487
   86MPD2    C5 1342   4.202   2.631  16.455  0.1999  0.0225 -0.6230
   86MPD2     H 1343   3.963   2.594  16.169  1.5141  0.5327 -0.0628
   86MPD2    H1 1344   4.288   2.792  16.350 -0.2236 -0.2091 -3.2385
   86MPD2    H2 1345   4.109   2.466  16.549  0.6977 -2.5786 -0.8389
   86MPD2    H3 1346   4.266   2.656  16.539 -0.7785 -0.4550  0.2713
   86MPD2     N 1347   4.129   2.768  16.118 -0.4466  0.1811  0.3565
   86MPD2    H5 1348   4.064   2.749  16.043  0.9814  2.3492 -1.4256
   86MPD2    N1 1349   3.929   2.402  16.344  0.4864 -0.1782 -0.1342
   86MPD2    H7 1350   3.885   2.386  16.254  1.5554 -1.4919 -0.4307
   87TMC2    C1 1351   1.957   0.762   0.692  0.3571  0.6035 -0.2146
   87TMC2    C2 1352   2.061   0.804   0.770 -0.0047  0.1933  0.2844
   87TMC2    C3 1353   2.036   0.912   0.850  0.0361 -0.0723 -0.5736
   87TMC2    C4 1354   1.833   0.822   0.685 -0.2097  0.6859  0.3813
   87TMC2    C5 1355   1.816   0.929   0.771  0.0075 -0.1582 -1.0322
   87TMC2    C6 1356   1.918   0.980   0.847  0.2053 -0.2953 -0.5913
   87TMC2     C 1357   1.968   0.637   0.619 -0.5113 -0.1474 -0.2380
   87TMC2     O 1358   1.914   0.625   0.511 -0.8490  0.0960  0.4311
   87TMC2     H 1359   2.157   0.755   0.771 -0.6453 -1.0810 -1.0297
   87TMC2    H1 1360   1.764   0.796   0.605 -0.0934  0.9320  0.1987
   87TMC2    H2 1361   1.899   1.054   0.923 -0.2707 -0.6786 -0.3377
   87TMC2    C7 1362   1.698   1.010   0.752 -0.0259 -0.9259 -0.3718
   87TMC2    C8 1363   2.151   0.978   0.903  0.1695 -0.2245  0.0921
   87TMC2    O1 1364   1.706   1.115   0.806 -0.1833 -0.0429 -0.4109
   87TMC2    O2 1365   2.252   0.916   0.932  0.5723  0.3583  0.3441
   87TMC2    O5 1366   2.149   1.104   0.857  0.0309 -0.1502 -0.6228
   87TMC2    H5 1367   2.069   1.139   0.812  1.4674  0.6790 -2.5302
   88MPD2     C 1368   1.388   0.957   0.555  0.1100  0.2488  0.3164
   88MPD2    C1 1369   1.481   1.030   0.631  0.0838  0.8053  0.5843
   88MPD2    C2 1370   1.445   1.161   0.667 -0.3391  0.1534 -0.4680
   88MPD2    C3 1371   1.330   1.218   0.614 -0.0017  0.2149 -0.4413
   88MPD2    C4 1372   1.243   1.142   0.545 -0.2056  0.3407  0.4911
   88MPD2    C5 1373   1.264   1.012   0.522 -0.0435 -0.1876  0.0386
   88MPD2     H 1374   1.501   1.213   0.744 -1.0980  0.2511  0.0228
   88MPD2    H1 1375   1.160   1.186   0.491 -0.0497 -0.2341 -0.2148
   88MPD2    H2 1376   1.403   0.852   0.531  0.3983  0.1443  0.9589
   88MPD2    H3 1377   1.187   0.954   0.471  0.4218 -1.6247  0.9592
   88MPD2     N 1378   1.290   1.353   0.649  0.3002 -0.6543  0.6685
   88MPD2    H5 1379   1.195   1.381   0.627 -0.2633 -2.6214  0.6056
   88MPD2    N1 1380   1.592   0.956   0.684 -0.4735 -0.7949  0.0906
   88MPD2    H7 1381   1.599   0.857   0.662  0.5713  0.0549 -3.5325
   89TMC2    C1 1382   3.444   0.170   2.028 -0.2894  0.2429  0.4799
   89TMC2    C2 1383   3.368   0.190   2.137 -0.5059 -0.0289  0.8427
   89TMC2    C3 1384   3.429   0.204   2.260 -0.4095 -0.3470  0.7084
   89TMC2    C4 1385   3.580   0.149   2.038  0.0450  1.0433 -0.4662
   89TMC2    C5 1386   3.635   0.184   2.152 -0.4737  0.1189  0.2577
   89TMC2    C6 1387   3.563   0.209   2.268 -0.7622 -0.2570  0.0919
   89TMC2     C 1388   3.379   0.125   1.909  0.7153  0.1357 -0.9402
   89TMC2     O 1389   3.457   0.079   1.828 -0.3515  0.0973  0.5827
   89TMC2     H 1390   3.262   0.169   2.146 -0.7009  0.7989  0.4321
   89TMC2    H1 1391   3.631   0.153   1.943 -0.0431  1.5701 -0.4907
   89TMC2    H2 1392   3.602   0.232   2.367 -0.7957  0.0404  0.0353
   89TMC2    C7 1393   3.779   0.208   2.169 -0.2009  0.1682 -0.2935
   89TMC2    C8 1394   3.353   0.192   2.383  0.7124 -0.4944  0.0371
   89TMC2    O1 1395   3.806   0.285   2.256 -0.6637 -0.4147  0.2925
   89TMC2    O2 1396   3.392   0.226   2.496 -0.3499 -0.0598 -0.5090
   89TMC2    O5 1397   3.285   0.082   2.344 -0.8016  0.3986  0.2756
   89TMC2    H5 1398   3.237   0.032   2.413  1.5397 -1.1338  0.8144
   90MPD2     C 1399   3.006   4.717   1.579  0.1010 -0.0889 -0.2145
   90MPD2    C1 1400   2.952   0.043   1.688  0.1227 -0.4283 -0.9880
   90MPD2    C2 1401   3.031   0.094   1.785  0.1329 -0.5369 -0.1099
   90MPD2    C3 1402   3.170   0.075   1.780 -0.3351 -0.4281 -0.1514
   90MPD2    C4 1403   3.223   0.002   1.675 -0.2054  0.3320  0.0404
   90MPD2    C5 1404   3.141   4.702   1.573 -0.1978  0.3362  0.9655
   90MPD2     H 1405   2.986   0.146   1.869  2.0295 -0.3434  0.7982
   90MPD2    H1 1406   3.327   4.717   1.664  0.2668  2.5908 -0.9464
   90MPD2    H2 1407   2.950   4.675   1.497 -0.3366  1.8886 -0.9260
   90MPD2    H3 1408   3.192   4.662   1.486 -3.0395 -0.5377 -0.3005
   90MPD2     N 1409   3.241   0.112   1.903  0.3205  0.1260 -0.0514
   90MPD2    H5 1410   3.182   0.138   1.981  0.4035  0.0509  0.0361
   90MPD2    N1 1411   2.813   0.040   1.699  0.1724  0.3726 -0.3406
   90MPD2    H7 1412   2.771   0.086   1.779  3.4527 -1.2257  2.2523
   91TMC2    C1 1413   3.688   3.554  15.940 -0.0603  0.2474  0.1743
   91TMC2    C2 1414   3.718   3.582  16.072 -0.1788 -1.1728  1.1868
   91TMC2    C3 1415   3.679   3.488  16.163 -0.0380  0.9242 -0.3819
   91TMC2    C4 1416   3.610   3.443  15.899 -0.0716  0.6942 -0.0704
   91TMC2    C5 1417   3.567   3.368  16.005  0.3419  0.1929  0.5701
   91TMC2    C6 1418   3.591   3.385  16.139 -0.3725  0.4332  0.7129
   91TMC2     C 1419   3.777   3.605  15.837 -0.2301  0.1842 -0.0971
   91TMC2     O 1420   3.748   3.610  15.716  0.0202 -0.0659 -0.5584
   91TMC2     H 1421   3.771   3.669  16.108 -1.4122 -0.0354  0.2435
   91TMC2    H1 1422   3.617   3.414  15.795 -1.0627  3.1270 -0.8138
   91TMC2    H2 1423   3.551   3.316  16.213  0.5966  3.1893  3.7954
   91TMC2    C7 1424   3.498   3.240  15.982  0.5384  0.2976 -0.3344
   91TMC2    C8 1425   3.760   3.491  16.283  0.8435 -0.6283 -0.4738
   91TMC2    O1 1426   3.470   3.157  16.066  0.2565  0.3519  0.0033
   91TMC2    O2 1427   3.831   3.582  16.316 -0.3021 -0.3687 -0.5764
   91TMC2    O5 1428   3.771   3.372  16.331 -0.0907  0.4925  0.3678
   91TMC2    H5 1429   3.743   3.297  16.274 -0.9694 -1.2937  3.1404
   92MPD2     C 1430   3.992   3.776  15.694  0.1248 -0.4094 -0.2731
   92MPD2    C1 1431   4.008   3.717  15.821  0.1232  0.4996 -0.0408
   92MPD2    C2 1432   4.121   3.744  15.894 -0.0357 -0.0014 -0.6605
   92MPD2    C3 1433   4.222   3.826  15.844  0.0612  0.6436  0.3231
   92MPD2    C4 1434   4.203   3.882  15.717  0.0255 -0.2375 -0.2991
   92MPD2    C5 1435   4.089   3.860  15.641  0.4885 -0.4084 -1.0768
   92MPD2     H 1436   4.121   3.709  15.997  0.8489 -0.8342 -0.9390
   92MPD2    H1 1437   4.289   3.930  15.670 -0.6946  1.6117  0.2561
   92MPD2    H2 1438   3.906   3.762  15.630 -0.4679  0.6007  0.2963
   92MPD2    H3 1439   4.084   3.898  15.539  1.9545 -1.2158 -1.4477
   92MPD2     N 1440   4.339   3.839  15.919  0.1950 -0.6098  0.2222
   92MPD2    H5 1441   4.345   3.778  16.000  2.4379  1.3596  1.5442
   92MPD2    N1 1442   3.894   3.665  15.888  0.3305 -0.4549 -0.1727
   92MPD2    H7 1443   3.896   3.651  15.988  0.2673 -1.7593 -0.3514
   93TMC2    C1 1444   0.747   3.621  13.577  0.1432  0.2236 -0.6694
   93TMC2    C2 1445   0.656   3.724  13.561  0.2956  0.3579  0.7224
   93TMC2    C3 1446   0.707   3.849  13.589  0.4363 -0.4691 -0.3806
   93TMC2    C4 1447   0.878   3.638  13.611  0.0398 -0.1738 -0.3703
   93TMC2    C5 1448   0.919   3.768  13.631  0.3011 -0.1268 -0.3253
   93TMC2    C6 1449   0.833   3.875  13.628  0.4758  0.3858 -0.0892
   93TMC2     C 1450   0.695   3.488  13.586 -0.3262 -0.2410  0.2214
   93TMC2     O 1451   0.780   3.404  13.584  0.9177  0.6068 -0.4339
   93TMC2     H 1452   0.560   3.718  13.511  1.9685 -0.8065 -2.3270
   93TMC2    H1 1453   0.942   3.554  13.638 -0.2696  0.0094  0.9276
   93TMC2    H2 1454   0.874   3.975  13.616 -3.4709  1.9217 -0.9691
   93TMC2    C7 1455   1.046   3.777  13.696 -0.3675 -0.1611  0.6782
   93TMC2    C8 1456   0.639   3.970  13.555  0.0878 -0.4067 -0.1840
   93TMC2    O1 1457   1.126   3.690  13.699 -0.0415 -0.0029 -0.2400
   93TMC2    O2 1458   0.688   4.084  13.554 -0.4791 -0.9611 -0.4184
   93TMC2    O5 1459   0.508   3.955  13.576 -0.2045  0.1539  0.6395
   93TMC2    H5 1460   0.492   3.865  13.612 -1.8841  0.4109  0.5577
   94MPD2     C 1461   0.544   3.242  13.622  0.5364 -0.0061 -0.1581
   94MPD2    C1 1462   0.495   3.368  13.656  0.4283 -0.5574 -1.0869
   94MPD2    C2 1463   0.371   3.378  13.718  0.4840 -0.0939 -1.2059
   94MPD2    C3 1464   0.294   3.260  13.737 -0.2746 -0.5762  0.0984
   94MPD2    C4 1465   0.345   3.137  13.695 -0.4691  0.0333  0.3260
   94MPD2    C5 1466   0.472   3.124  13.645  0.6854 -0.1030  0.1399
   94MPD2     H 1467   0.324   3.475  13.734  2.1039  0.0122  2.9347
   94MPD2    H1 1468   0.277   3.053  13.702 -2.2370  1.4082 -0.3218
   94MPD2    H2 1469   0.644   3.224  13.584 -0.2239 -0.7715 -1.7923
   94MPD2    H3 1470   0.517   3.029  13.621  1.3487  0.7710 -2.0430
   94MPD2     N 1471   0.159   3.263  13.777  0.6830 -0.4636  0.5853
   94MPD2    H5 1472   0.091   3.195  13.744  0.3904 -0.0555  0.3424
   94MPD2    N1 1473   0.564   3.489  13.627 -0.4859  0.5858 -0.1065
   94MPD2    H7 1474   0.515   3.577  13.644 -0.0516  1.0395 -1.1864
   95TMC2    C1 1475   1.190   1.193  16.198  0.4241 -0.2738 -0.6375
   95TMC2    C2 1476   1.244   1.320  16.214  1.0215 -0.3652 -0.0898
   95TMC2    C3 1477   1.206   1.399  16.320  0.0580 -1.0605  0.1839
   95TMC2    C4 1478   1.115   1.132  16.298 -0.2967 -0.4389  0.2237
   95TMC2    C5 1479   1.085   1.210  16.402  0.0067  0.5390 -0.2863
   95TMC2    C6 1480   1.122   1.349  16.422  0.4995  0.3995  0.0786
   95TMC2     C 1481   1.266   1.118  16.106 -0.0607 -0.1322 -0.8999
   95TMC2     O 1482   1.367   1.165  16.060  0.1869  0.0079  0.1826
   95TMC2     H 1483   1.316   1.365  16.145  0.4735  0.7994  0.0858
   95TMC2    H1 1484   1.080   1.030  16.296 -0.3176 -0.4160 -0.9402
   95TMC2    H2 1485   1.109   1.398  16.518 -0.7320 -0.3172  0.2833
   95TMC2    C7 1486   0.987   1.171  16.503  0.7631  0.8107 -0.0521
   95TMC2    C8 1487   1.261   1.530  16.334  0.2622 -0.5094 -0.0483
   95TMC2    O1 1488   0.936   1.263  16.565 -0.3802 -0.2929  0.1568
   95TMC2    O2 1489   1.378   1.558  16.318  0.0297 -0.9965 -0.1467
   95TMC2    O5 1490   1.177   1.600  16.411 -0.0950  0.1359  0.6835
   95TMC2    H5 1491   1.084   1.569  16.402  0.0625  0.8205 -3.0490
   96MPD2     C 1492   1.319   0.689  15.822  0.4903 -0.6997  0.3593
   96MPD2    C1 1493   1.396   0.804  15.827  0.1741  0.2746  2.2917
   96MPD2    C2 1494   1.369   0.902  15.921  0.6120 -0.3054 -0.6439
   96MPD2    C3 1495   1.254   0.892  15.999  0.6121 -0.0223 -0.1569
   96MPD2    C4 1496   1.186   0.768  16.004 -0.6544 -0.1983  0.6832
   96MPD2    C5 1497   1.222   0.670  15.916  0.1634 -0.6852 -0.4847
   96MPD2     H 1498   1.436   0.987  15.930  1.3180 -1.0911  1.5749
   96MPD2    H1 1499   1.103   0.751  16.071 -0.6641 -1.0306  0.4684
   96MPD2    H2 1500   1.333   0.611  15.748 -0.5868 -0.8000  0.2534
   96MPD2    H3 1501   1.169   0.576  15.927  2.1450 -1.3087  3.7260
   96MPD2     N 1502   1.210   0.990  16.088  0.6824 -0.2004 -0.6044
   96MPD2    H5 1503   1.141   0.957  16.154 -0.6625  1.1433 -1.3166
   96MPD2    N1 1504   1.502   0.813  15.731  0.6233  0.4322  0.6071
   96MPD2    H7 1505   1.496   0.750  15.652  0.3281 -0.7206  1.5539
   97TMC2    C1 1506   3.801   3.141   0.380 -0.4842 -0.0563  0.0213
   97TMC2    C2 1507   3.824   3.053   0.279  0.0179  0.1616 -0.4210
   97TMC2    C3 1508   3.851   3.104   0.152 -0.2690  0.3451  0.3410
   97TMC2    C4 1509   3.785   3.273   0.346 -0.1000 -0.4040  0.2700
   97TMC2    C5 1510   3.800   3.315   0.219  1.0049 -0.1923  0.2864
   97TMC2    C6 1511   3.831   3.234   0.115  0.4487 -0.6123  0.1149
   97TMC2     C 1512   3.810   3.098   0.520  0.1423 -0.7247  0.0874
   97TMC2     O 1513   3.839   3.185   0.601  0.1917 -0.4016  0.4257
   97TMC2     H 1514   3.852   2.952   0.307 -0.6043  0.6057  1.7456
   97TMC2    H1 1515   3.768   3.333   0.435 -0.5318 -1.8454  1.1593
   97TMC2    H2 1516   3.845   3.268   0.014  1.4217  1.2092  0.8546
   97TMC2    C7 1517   3.802   3.453   0.204 -0.4141 -0.4035  0.3313
   97TMC2    C8 1518   3.870   3.015   0.037 -0.2167  0.5080  0.7834
   97TMC2    O1 1519   3.820   3.521   0.308 -0.5065  0.4858  0.1633
   97TMC2    O2 1520   3.836   3.045  17.685  0.0143  0.2741  0.4482
   97TMC2    O5 1521   3.970   2.941   0.075 -0.0436 -0.5556  0.2198
   97TMC2    H5 1522   4.025   2.969   0.151 -1.1146 -3.1756  1.9467
   98MPD2     C 1523   3.841   2.761   0.915  0.1732 -0.0538  0.6388
   98MPD2    C1 1524   3.817   2.896   0.915 -0.0719  0.6894  0.5973
   98MPD2    C2 1525   3.805   2.963   0.794 -0.2463  0.1799  0.6626
   98MPD2    C3 1526   3.820   2.896   0.670 -0.7475  1.2663 -0.0734
   98MPD2    C4 1527   3.837   2.760   0.671 -0.0539 -0.5488 -0.1569
   98MPD2    C5 1528   3.838   2.690   0.792  0.3977  0.6104 -0.8334
   98MPD2     H 1529   3.776   3.067   0.790 -0.6966 -0.1024 -3.0407
   98MPD2    H1 1530   3.860   2.694   0.588  1.3586 -0.9776  0.5894
   98MPD2    H2 1531   3.831   2.701   1.005 -2.6862 -1.0341 -0.3342
   98MPD2    H3 1532   3.843   2.582   0.791 -2.0019  0.5144 -0.8808
   98MPD2     N 1533   3.814   2.960   0.540  0.3073  0.4008  0.2722
   98MPD2    H5 1534   3.802   2.905   0.456 -1.1485  2.0731 -0.6276
   98MPD2    N1 1535   3.791   2.950   1.047 -0.0204 -0.0568  0.3252
   98MPD2    H7 1536   3.799   2.881   1.122  0.4880  0.4815  0.7670
   99TMC2    C1 1537   3.185   0.333   1.542  0.5323  0.3347 -0.0937
   99TMC2    C2 1538   3.279   0.409   1.614  0.1178  0.5110  0.3476
   99TMC2    C3 1539   3.225   0.488   1.707  0.0339 -0.4587 -0.3425
   99TMC2    C4 1540   3.047   0.352   1.561 -0.0952 -0.4591 -0.4892
   99TMC2    C5 1541   3.009   0.440   1.654 -0.1760 -0.6259  0.4884
   99TMC2    C6 1542   3.095   0.512   1.726 -0.2503 -0.1947 -0.1294
   99TMC2     C 1543   3.237   0.252   1.436  0.3900 -1.1453  0.1407
   99TMC2     O 1544   3.354   0.215   1.444 -0.8405  0.6422 -0.5073
   99TMC2     H 1545   3.385   0.394   1.596  1.0789  3.7649  3.2970
   99TMC2    H1 1546   2.971   0.285   1.523 -1.0756 -0.4331  1.4389
   99TMC2    H2 1547   3.065   0.557   1.820 -1.6316 -0.7954 -0.2735
   99TMC2    C7 1548   2.871   0.437   1.705 -0.4379 -0.1187  0.6303
   99TMC2    C8 1549   3.313   0.538   1.814 -0.0101  0.3605  0.0157
   99TMC2    O1 1550   2.842   0.498   1.807 -0.3905 -0.4156 -0.0951
   99TMC2    O2 1551   3.277   0.539   1.930 -0.6262 -0.6622  0.2919
   99TMC2    O5 1552   3.444   0.512   1.780  0.0628  0.0476 -0.9700
   99TMC2    H5 1553   3.464   0.549   1.691  1.3997 -0.2662 -0.8115
  100MPD2     C 1554   3.252   0.008   1.266  0.2707 -0.7689  0.0167
  100MPD2    C1 1555   3.151   0.096   1.263 -0.2472  0.0635  0.5306
  100MPD2    C2 1556   3.056   0.098   1.161 -0.7153  0.5504  0.5225
  100MPD2    C3 1557   3.062   0.002   1.061  0.0993  0.0033 -0.4789
  100MPD2    C4 1558   3.162   4.645   1.064 -0.5920 -0.1003 -0.0445
  100MPD2    C5 1559   3.253   4.658   1.160 -0.2838 -0.4481  0.7286
  100MPD2     H 1560   2.982   0.176   1.161 -1.6413 -0.3319  0.9894
  100MPD2    H1 1561   3.180   4.556   1.005 -0.3151 -0.1781  0.1618
  100MPD2    H2 1562   3.318   4.739   1.351  0.6620 -0.3046 -0.2331
  100MPD2    H3 1563   3.323   4.576   1.164 -0.1540 -0.4297 -1.0010
  100MPD2     N 1564   2.963   0.000   0.960 -0.3425  0.7831  0.1007
  100MPD2    H5 1565   2.893   0.073   0.962  0.1891  1.2313  1.9536
  100MPD2    N1 1566   3.136   0.208   1.349  0.3711 -0.1433  0.1757
  100MPD2    H7 1567   3.045   0.253   1.346  0.4106 -0.2782 -2.6180
  101TMC2    C1 1568   2.489   1.558  12.824  0.1777 -0.0477 -0.2435
  101TMC2    C2 1569   2.359   1.596  12.828 -0.3445  0.1917 -0.1005
  101TMC2    C3 1570   2.329   1.729  12.807  1.2093  0.5346  0.3695
  101TMC2    C4 1571   2.586   1.644  12.783 -0.1817 -0.1670  0.3585
  101TMC2    C5 1572   2.550   1.769  12.757 -0.0272 -0.1233  0.1339
  101TMC2    C6 1573   2.422   1.815  12.765 -0.3631  0.3954  0.2316
  101TMC2     C 1574   2.522   1.439  12.899 -1.3179  0.6624  0.0285
  101TMC2     O 1575   2.427   1.366  12.939 -0.0827  0.4064  0.1406
  101TMC2     H 1576   2.283   1.522  12.850  0.2310 -0.1141  0.8555
  101TMC2    H1 1577   2.682   1.611  12.744  0.0846  1.9767 -0.8253
  101TMC2    H2 1578   2.402   1.918  12.738  0.4850  0.0813 -1.5356
  101TMC2    C7 1579   2.649   1.847  12.693 -0.0463  0.4846  0.4742
  101TMC2    C8 1580   2.216   1.789  12.865 -0.0274 -0.5653 -0.0672
  101TMC2    O1 1581   2.740   1.792  12.631 -0.0187  0.1884 -0.1126
  101TMC2    O2 1582   2.176   1.887  12.814 -0.0254  0.2449 -0.4113
  101TMC2    O5 1583   2.149   1.703  12.933  0.1310  0.3754 -0.1257
  101TMC2    H5 1584   2.215   1.651  12.984 -0.4218  0.8419  1.0590
  102MPD2     C 1585   2.859   1.296  12.986 -0.3737  0.4200 -0.3874
  102MPD2    C1 1586   2.722   1.332  13.006  0.0734 -0.2714 -0.0325
  102MPD2    C2 1587   2.644   1.248  13.079  0.4929 -0.6468  0.2381
  102MPD2    C3 1588   2.703   1.139  13.147 -0.1995 -0.8974  0.0856
  102MPD2    C4 1589   2.838   1.109  13.137  0.1460  0.3846 -0.6017
  102MPD2    C5 1590   2.913   1.191  13.054 -0.1043 -0.0211 -0.0803
  102MPD2     H 1591   2.537   1.263  13.086  0.4656  0.3182 -2.6803
  102MPD2    H1 1592   2.890   1.026  13.185  1.1837 -0.3645 -3.0369
  102MPD2    H2 1593   2.924   1.344  12.915 -2.3849  2.9899 -0.4848
  102MPD2    H3 1594   3.020   1.175  13.046  0.2391  2.0050  0.4613
  102MPD2     N 1595   2.608   1.056  13.198  0.6220  0.1767  0.0029
  102MPD2    H5 1596   2.512   1.086  13.186  0.4543 -0.8778 -1.2692
  102MPD2    N1 1597   2.660   1.431  12.924  0.4963  0.4504  0.2134
  102MPD2    H7 1598   2.719   1.484  12.860 -0.0110  1.2884  0.4432
  103TMC2    C1 1599   0.417   1.484  12.702 -0.0932 -0.3800 -1.8423
  103TMC2    C2 1600   0.547   1.470  12.666  0.5399  0.3265  0.5269
  103TMC2    C3 1601   0.640   1.524  12.751  0.0428  0.2613 -0.2625
  103TMC2    C4 1602   0.379   1.562  12.813  1.0568  0.1449 -0.1184
  103TMC2    C5 1603   0.475   1.621  12.892 -0.2178  0.7453  0.6197
  103TMC2    C6 1604   0.606   1.603  12.859 -0.4605  0.4066 -0.4541
  103TMC2     C 1605   0.317   1.393  12.651  0.5451  0.3649  0.5103
  103TMC2     O 1606   0.201   1.426  12.664 -0.2364  0.1003  0.1746
  103TMC2     H 1607   0.567   1.421  12.572  2.7127  1.0977  0.5847
  103TMC2    H1 1608   0.273   1.579  12.827  1.2725  1.4644 -0.0689
  103TMC2    H2 1609   0.676   1.668  12.911 -1.4199  2.1187 -1.3401
  103TMC2    C7 1610   0.444   1.637  13.036 -0.4039  0.3125  0.3232
  103TMC2    C8 1611   0.778   1.528  12.701 -0.2155  0.0934 -0.5264
  103TMC2    O1 1612   0.325   1.649  13.067 -0.0282 -0.5617  0.5532
  103TMC2    O2 1613   0.855   1.605  12.755 -0.5413 -0.1802 -0.1367
  103TMC2    O5 1614   0.813   1.407  12.651  0.0239 -0.4447 -0.1552
  103TMC2    H5 1615   0.738   1.346  12.634 -1.3668  0.7583  1.6107
  104MPD2     C 1616   0.352   1.028  12.600 -0.0450 -1.1446  0.1281
  104MPD2    C1 1617   0.296   1.155  12.578  0.2262  0.2851 -0.6580
  104MPD2    C2 1618   0.170   1.159  12.527  0.1888  0.2552  0.6904
  104MPD2    C3 1619   0.096   1.040  12.512  0.1177  0.5271  0.4457
  104MPD2    C4 1620   0.153   0.914  12.534  0.3989  0.1025 -0.5032
  104MPD2    C5 1621   0.278   0.913  12.584  0.7991  0.4334  0.4441
  104MPD2     H 1622   0.119   1.252  12.505  0.4995  0.6001  1.4101
  104MPD2    H1 1623   0.112   0.815  12.519 -1.3702  0.9225 -1.1364
  104MPD2    H2 1624   0.448   1.015  12.648 -0.0262  1.1861  0.7298
  104MPD2    H3 1625   0.330   0.824  12.618 -2.2867 -1.0948  1.1236
  104MPD2     N 1626   4.706   1.052  12.472 -0.4009  0.5985 -0.4649
  104MPD2    H5 1627   4.670   1.146  12.460 -0.4740  0.6055 -0.1941
  104MPD2    N1 1628   0.374   1.268  12.621 -0.5374 -0.3049 -0.0219
  104MPD2    H7 1629   0.471   1.249  12.643 -0.6776 -2.7027 -1.5136
  105TMC2    C1 1630   2.072   0.075  17.648 -0.4427 -0.3580  0.0477
  105TMC2    C2 1631   2.001   0.186  17.600  0.1792  0.2584 -0.2210
  105TMC2    C3 1632   1.947   0.266  17.688 -0.1257 -0.3286  0.2832
  105TMC2    C4 1633   2.079   0.052   0.017  0.0851  0.5253 -0.4497
  105TMC2    C5 1634   2.012   0.132   0.104 -0.0409 -0.0082  0.0758
  105TMC2    C6 1635   1.951   0.246   0.063  0.7107 -0.0255  0.6863
  105TMC2     C 1636   2.196   0.060  17.580 -1.4547  0.2478  0.0767
  105TMC2     O 1637   2.250   4.693  17.596 -0.0179 -0.1070 -0.2401
  105TMC2     H 1638   1.995   0.208  17.495 -0.1348 -0.8408 -0.4335
  105TMC2    H1 1639   2.144   4.714   0.052 -1.1298  0.5467  1.8162
  105TMC2    H2 1640   1.893   0.309   0.130  1.9364  0.7613  1.0206
  105TMC2    C7 1641   2.061   0.116   0.244 -0.7474 -0.6489  0.3487
  105TMC2    C8 1642   1.837   0.342  17.635  0.5111  0.6561  0.2356
  105TMC2    O1 1643   2.137   0.028   0.266  0.8112  1.4519 -0.0120
  105TMC2    O2 1644   1.754   0.294  17.560  0.3080 -0.1116 -0.5583
  105TMC2    O5 1645   1.819   0.462  17.699 -0.2613  0.2220 -0.2026
  105TMC2    H5 1646   1.896   0.498  17.746  0.5259 -1.1225 -0.4688
  106MPD2     C 1647   2.652   0.280  17.508 -0.2491  0.3234  0.5653
  106MPD2    C1 1648   2.548   0.374  17.498 -0.6314  0.1238 -0.1400
  106MPD2    C2 1649   2.413   0.335  17.489 -0.3139 -0.1528 -0.4371
  106MPD2    C3 1650   2.384   0.203  17.516  0.5371 -0.7217 -0.1653
  106MPD2    C4 1651   2.483   0.106  17.525 -1.0656  0.3235 -0.7117
  106MPD2    C5 1652   2.616   0.148  17.519 -0.6339 -1.1836  0.1593
  106MPD2     H 1653   2.347   0.414  17.453  0.0906  0.0671 -0.6958
  106MPD2    H1 1654   2.464   0.001  17.512  0.8343 -0.1955  0.7042
  106MPD2    H2 1655   2.752   0.313  17.483  0.5750 -2.4808  0.1793
  106MPD2    H3 1656   2.686   0.072  17.485  0.4126 -0.3419  0.4311
  106MPD2     N 1657   2.241   0.179  17.531 -0.5458  0.2880  0.4447
  106MPD2    H5 1658   2.179   0.259  17.540 -0.7845 -0.0596  1.8258
  106MPD2    N1 1659   2.572   0.505  17.461 -0.5041  0.0219 -0.2562
  106MPD2    H7 1660   2.498   0.568  17.432 -0.0313  0.0062 -1.4783
  107TMC2    C1 1661   2.859   0.325  11.641  0.3785  0.2514 -0.2823
  107TMC2    C2 1662   2.906   0.424  11.557  0.2183 -0.3317 -0.4990
  107TMC2    C3 1663   2.988   0.378  11.447  0.3370  0.3502  0.5319
  107TMC2    C4 1664   2.888   0.193  11.629 -0.0001 -0.0682 -0.4568
  107TMC2    C5 1665   2.974   0.159  11.527 -0.0626 -0.8680 -0.7527
  107TMC2    C6 1666   3.025   0.250  11.437 -0.0011 -0.1396  0.8885
  107TMC2     C 1667   2.779   0.361  11.757 -0.2653  0.0535 -0.5643
  107TMC2     O 1668   2.786   0.291  11.856 -0.6736 -0.0293  0.3033
  107TMC2     H 1669   2.899   0.531  11.572 -2.7756 -1.1070  3.7319
  107TMC2    H1 1670   2.852   0.112  11.690  1.0570  0.0468  0.3202
  107TMC2    H2 1671   3.073   0.207  11.350  0.0474  2.4233 -0.3519
  107TMC2    C7 1672   2.998   0.017  11.509  0.4544 -0.3458  0.2098
  107TMC2    C8 1673   3.030   0.483  11.348 -0.2000  0.9268 -0.4705
  107TMC2    O1 1674   2.932   4.683  11.581  0.1874 -0.4763 -0.2950
  107TMC2    O2 1675   3.112   0.458  11.265  0.2744 -0.3604  0.5282
  107TMC2    O5 1676   2.913   0.538  11.320 -0.5350  0.0664  0.7390
  107TMC2    H5 1677   2.851   0.522  11.394  0.5590 -0.0908  1.6126
  108MPD2     C 1678   2.517   0.631  11.738 -0.0593  0.1246 -0.4362
  108MPD2    C1 1679   2.593   0.530  11.805 -0.4120 -0.0191  0.1663
  108MPD2    C2 1680   2.556   0.479  11.929  0.1874  0.0315 -0.2002
  108MPD2    C3 1681   2.442   0.525  11.986  0.4412 -0.0579  0.0553
  108MPD2    C4 1682   2.373   0.630  11.926  0.0880 -0.7134 -0.7975
  108MPD2    C5 1683   2.413   0.687  11.809 -0.1568 -0.6141 -0.0966
  108MPD2     H 1684   2.617   0.409  11.984  1.8565  2.3323  0.8792
  108MPD2    H1 1685   2.282   0.662  11.975  0.6654  2.4529 -1.7621
  108MPD2    H2 1686   2.540   0.681  11.645  1.1674 -1.0599 -0.7636
  108MPD2    H3 1687   2.354   0.771  11.773  1.8085  0.5555 -0.5567
  108MPD2     N 1688   2.395   0.486  12.113  0.3041 -0.7647 -0.2125
  108MPD2    H5 1689   2.301   0.517  12.134  0.1616 -2.1383  1.2208
  108MPD2    N1 1690   2.698   0.470  11.723  0.6703 -0.0496 -0.5536
  108MPD2    H7 1691   2.714   0.512  11.631 -0.8389 -0.0554 -0.8126
  109TMC2    C1 1692   2.736   2.654   1.046  0.2495  0.0010 -0.1824
  109TMC2    C2 1693   2.680   2.539   1.095  1.0705 -0.1401 -0.5645
  109TMC2    C3 1694   2.741   2.479   1.205  0.6015 -0.4480 -0.4982
  109TMC2    C4 1695   2.845   2.709   1.103 -0.3915  0.7017 -0.0197
  109TMC2    C5 1696   2.908   2.643   1.203  0.1490 -0.0304 -0.7390
  109TMC2    C6 1697   2.863   2.527   1.263  0.3842  0.1879  0.4061
  109TMC2     C 1698   2.643   2.756   0.993  0.0268 -0.5165 -0.1709
  109TMC2     O 1699   2.693   2.864   0.960  0.0845 -0.1683 -0.3861
  109TMC2     H 1700   2.605   2.490   1.034 -0.8680  0.4699  1.3228
  109TMC2    H1 1701   2.890   2.797   1.059  1.6604 -1.0268 -1.3786
  109TMC2    H2 1702   2.903   2.471   1.347 -1.2567 -0.6332  0.6478
  109TMC2    C7 1703   3.031   2.699   1.248  0.2943 -0.2207 -1.0340
  109TMC2    C8 1704   2.696   2.345   1.250  0.2258 -0.7517 -0.1527
  109TMC2    O1 1705   3.086   2.785   1.181  0.4009 -0.0160 -0.4599
  109TMC2    O2 1706   2.781   2.270   1.292 -0.6567  0.4593  0.1273
  109TMC2    O5 1707   2.563   2.348   1.287 -0.0439  0.3397 -0.1609
  109TMC2    H5 1708   2.523   2.428   1.247 -1.1084 -0.2190 -0.2189
  110MPD2     C 1709   2.208   2.881   0.784  1.4064 -0.6938  0.2888
  110MPD2    C1 1710   2.179   2.780   0.867 -0.4997 -1.3313 -0.3536
  110MPD2    C2 1711   2.284   2.715   0.930 -0.1217 -0.4665 -0.3051
  110MPD2    C3 1712   2.409   2.771   0.919 -0.8671  0.5406  0.4481
  110MPD2    C4 1713   2.430   2.887   0.848  0.0879 -0.1130  0.1369
  110MPD2    C5 1714   2.327   2.946   0.778  0.5534  0.6925  0.6677
  110MPD2     H 1715   2.279   2.653   1.018 -0.7358  0.2678  0.1808
  110MPD2    H1 1716   2.526   2.930   0.822  1.1339 -3.7639 -2.1659
  110MPD2    H2 1717   2.129   2.943   0.744  1.5172 -0.6355  0.1607
  110MPD2    H3 1718   2.340   3.041   0.727 -0.3159 -0.9742 -2.6862
  110MPD2     N 1719   2.514   2.707   0.978 -0.4998 -0.1008  0.2411
  110MPD2    H5 1720   2.493   2.615   1.014  0.6121  0.5349  2.5113
  110MPD2    N1 1721   2.046   2.749   0.882  0.5683  0.2146 -0.0486
  110MPD2    H7 1722   1.977   2.806   0.833 -0.1126 -0.4458  0.1382
  111TMC2    C1 1723   2.567   2.693  11.570  0.1995 -0.0536 -0.9899
  111TMC2    C2 1724   2.468   2.729  11.656  0.2671 -0.7882  0.2260
  111TMC2    C3 1725   2.510   2.757  11.784 -1.2043 -0.2582  0.0812
  111TMC2    C4 1726   2.694   2.689  11.603  0.1073 -0.4563 -0.0041
  111TMC2    C5 1727   2.730   2.714  11.731  0.6166  0.4005  0.3610
  111TMC2    C6 1728   2.640   2.762  11.825  0.9126 -0.1334 -0.3187
  111TMC2     C 1729   2.526   2.617  11.454 -0.4923 -0.2508  0.2194
  111TMC2     O 1730   2.600   2.624  11.355 -0.2027  0.0442  0.8916
  111TMC2     H 1731   2.365   2.741  11.626  0.7715 -0.3542 -1.3277
  111TMC2    H1 1732   2.757   2.646  11.526  1.4879 -0.4996  1.1316
  111TMC2    H2 1733   2.668   2.792  11.925  1.0812  0.6146 -0.5939
  111TMC2    C7 1734   2.843   2.644  11.780  0.5008  0.3446 -0.2296
  111TMC2    C8 1735   2.414   2.834  11.864 -0.3973  0.3694 -0.1985
  111TMC2    O1 1736   2.860   2.658  11.901 -0.2063  0.3100 -0.2907
  111TMC2    O2 1737   2.336   2.913  11.816  0.1763 -0.1534 -0.1276
  111TMC2    O5 1738   2.426   2.787  11.986  0.5539  0.0830 -0.2643
  111TMC2    H5 1739   2.469   2.699  11.988 -0.7392 -0.5583 -0.3718
  112MPD2     C 1740   2.190   2.338  11.187 -0.0065 -0.2895  0.3855
  112MPD2    C1 1741   2.300   2.401  11.147 -0.9617 -0.6164  0.6376
  112MPD2    C2 1742   2.373   2.478  11.239  0.3526 -0.3195 -0.1030
  112MPD2    C3 1743   2.323   2.492  11.370 -0.0368 -0.0839 -0.2309
  112MPD2    C4 1744   2.206   2.424  11.403 -0.0478  0.6144  0.4481
  112MPD2    C5 1745   2.128   2.358  11.307 -0.9818  0.2095  0.0872
  112MPD2     H 1746   2.473   2.508  11.208  0.0840 -0.1103 -0.7609
  112MPD2    H1 1747   2.164   2.432  11.503  0.4269  0.4654  0.6568
  112MPD2    H2 1748   2.129   2.278  11.120 -0.0660 -0.1758  0.3366
  112MPD2    H3 1749   2.031   2.313  11.326 -0.6661 -0.8179 -0.7037
  112MPD2     N 1750   2.398   2.562  11.469  0.1612 -0.8459  0.4424
  112MPD2    H5 1751   2.356   2.562  11.561  1.7411  0.3669  1.1495
  112MPD2    N1 1752   2.349   2.389  11.019 -0.2725 -0.4783 -0.1792
  112MPD2    H7 1753   2.448   2.414  11.013 -0.8091  1.0572 -2.9119
  113TMC2    C1 1754   0.789   0.161   0.478 -0.1854 -0.0340  0.1623
  113TMC2    C2 1755   0.703   0.241   0.407  0.6075  0.4800  0.0489
  113TMC2    C3 1756   0.606   0.179   0.334  0.0086 -0.5577 -0.2137
  113TMC2    C4 1757   0.787   0.022   0.475 -0.0477  0.0300  0.8755
  113TMC2    C5 1758   0.687   4.707   0.402 -0.3425  0.2932 -0.0406
  113TMC2    C6 1759   0.587   0.039   0.334 -0.2433  0.4303  0.4401
  113TMC2     C 1760   0.890   0.234   0.561 -0.7149 -0.3765  0.2868
  113TMC2     O 1761   0.895   0.357   0.554  0.0206 -0.0355  0.2526
  113TMC2     H 1762   0.711   0.349   0.411 -1.7574  0.7461 -2.6376
  113TMC2    H1 1763   0.861   4.700   0.522  1.5236  1.5853  0.4847
  113TMC2    H2 1764   0.510   4.730   0.278  0.1624  0.5430 -0.2281
  113TMC2    C7 1765   0.665   4.560   0.408  0.1159  0.6247 -0.0253
  113TMC2    C8 1766   0.496   0.256   0.284  0.5396 -0.7093  0.6807
  113TMC2    O1 1767   0.617   4.509   0.310  0.4038 -0.0311  0.8854
  113TMC2    O2 1768   0.423   0.198   0.205  0.3797  0.7518 -0.3075
  113TMC2    O5 1769   0.447   0.312   0.396  0.1009  0.1435 -0.1173
  113TMC2    H5 1770   0.515   0.304   0.466  1.5422  3.6455 -1.1188
  114MPD2     C 1771   1.300   0.219   0.889  0.5620  0.2166 -0.2733
  114MPD2    C1 1772   1.236   0.329   0.828  0.2160  0.5066 -0.2361
  114MPD2    C2 1773   1.126   0.307   0.745 -0.1233 -0.5519  0.4676
  114MPD2    C3 1774   1.073   0.179   0.722  0.1761  0.0875 -1.1057
  114MPD2    C4 1775   1.138   0.075   0.781  0.5960  0.5256 -0.0789
  114MPD2    C5 1776   1.250   0.097   0.855  0.0940  0.4317  0.6317
  114MPD2     H 1777   1.092   0.393   0.689  0.0178 -1.2439 -0.6817
  114MPD2    H1 1778   1.111   4.715   0.753 -1.1354  0.7528  0.8100
  114MPD2    H2 1779   1.386   0.227   0.953 -0.2435  1.0666  0.6949
  114MPD2    H3 1780   1.303   0.009   0.888 -0.6047  0.0687  0.7841
  114MPD2     N 1781   0.962   0.150   0.639 -0.1603  0.1118 -0.0237
  114MPD2    H5 1782   0.931   0.053   0.641  1.0972 -0.2649  1.0538
  114MPD2    N1 1783   1.277   0.468   0.850  0.1458 -0.3362 -0.2200
  114MPD2    H7 1784   1.245   0.533   0.779 -0.5710  0.3565  0.7410
  115TMC2    C1 1785   2.091   3.218   0.211  0.7053  0.1162  0.4147
  115TMC2    C2 1786   2.228   3.255   0.212  0.5556 -0.3751  0.5187
  115TMC2    C3 1787   2.262   3.388   0.209  0.2925 -0.2223 -0.3088
  115TMC2    C4 1788   1.989   3.312   0.215  0.4845  0.4482 -0.8676
  115TMC2    C5 1789   2.030   3.443   0.232  0.5916  0.6770  0.7010
  115TMC2    C6 1790   2.163   3.483   0.232  0.0671 -0.2332  0.5042
  115TMC2     C 1791   2.063   3.089   0.148 -0.0719  0.0621 -0.3705
  115TMC2     O 1792   1.962   3.090   0.081  0.0826 -0.5255  0.2409
  115TMC2     H 1793   2.304   3.180   0.193  0.1754 -0.9641  1.3186
  115TMC2    H1 1794   1.885   3.284   0.218 -0.6847  4.7235 -1.2530
  115TMC2    H2 1795   2.194   3.587   0.234 -0.3125 -0.0618 -1.8706
  115TMC2    C7 1796   1.931   3.550   0.193  0.7578 -0.8355 -0.4844
  115TMC2    C8 1797   2.398   3.438   0.222 -0.1465  0.0451 -0.6854
  115TMC2    O1 1798   1.817   3.520   0.229  0.1433 -0.6238  0.0419
  115TMC2    O2 1799   2.423   3.534   0.293  0.0740  0.0768 -0.0548
  115TMC2    O5 1800   2.483   3.346   0.182 -0.2459 -0.0251 -0.4314
  115TMC2    H5 1801   2.445   3.285   0.115 -0.6539 -0.7205  0.4235
  116MPD2     C 1802   2.054   2.575   0.162  0.1388  0.1617  0.5847
  116MPD2    C1 1803   1.993   2.668   0.079  0.1178  0.4555 -0.2734
  116MPD2    C2 1804   2.017   2.806   0.094  0.7637 -0.3248  0.0728
  116MPD2    C3 1805   2.097   2.855   0.203  0.8029  0.0895 -0.0927
  116MPD2    C4 1806   2.150   2.760   0.287  0.1681 -1.0130 -0.1563
  116MPD2    C5 1807   2.137   2.623   0.261 -0.5926  0.1555 -0.0291
  116MPD2     H 1808   1.972   2.879   0.029  0.3077  0.3312  1.1285
  116MPD2    H1 1809   2.196   2.786   0.382  2.3479 -0.4385 -1.3489
  116MPD2    H2 1810   2.039   2.468   0.163  4.1336 -0.4423 -2.4817
  116MPD2    H3 1811   2.196   2.554   0.319 -1.2345  0.4684  1.0045
  116MPD2     N 1812   2.126   2.989   0.221 -0.0108 -0.2604  0.3925
  116MPD2    H5 1813   2.190   3.020   0.294  1.6056  1.4119 -1.7408
  116MPD2    N1 1814   1.891   2.612  17.750  0.1454 -0.0381  0.0835
  116MPD2    H7 1815   1.889   2.511  17.746 -1.1130 -0.0389  0.8193
  117TMC2    C1 1816   0.225   4.075  14.127  0.5591  0.1498  0.8974
  117TMC2    C2 1817   0.264   4.017  14.246 -0.1098  0.1446  0.0566
  117TMC2    C3 1818   0.336   4.096  14.325  0.2741  0.8907 -0.0484
  117TMC2    C4 1819   0.254   4.209  14.097 -0.4473 -0.7040 -0.5132
  117TMC2    C5 1820   0.342   4.271  14.181  1.2872 -0.1628  0.3915
  117TMC2    C6 1821   0.386   4.217  14.296 -0.5265  0.2155  0.2236
  117TMC2     C 1822   0.133   3.998  14.052  0.2247 -0.1796  0.3612
  117TMC2     O 1823   0.137   3.875  14.056  0.0619  0.2022  0.2225
  117TMC2     H 1824   0.247   3.913  14.272  3.5164 -0.8764 -1.6501
  117TMC2    H1 1825   0.240   4.250  13.998 -0.9295  3.0149  1.1205
  117TMC2    H2 1826   0.436   4.275  14.372 -1.4573  0.1604  0.8806
  117TMC2    C7 1827   0.376   4.416  14.170 -0.2570 -1.0559  0.6999
  117TMC2    C8 1828   0.371   4.032  14.450  0.0591  0.3419 -0.3943
  117TMC2    O1 1829   0.477   4.450  14.227 -0.0153 -0.4045  0.1328
  117TMC2    O2 1830   0.360   3.911  14.469  0.2035  0.0684  0.5216
  117TMC2    O5 1831   0.382   4.115  14.560  0.5817  0.0348 -0.5795
  117TMC2    H5 1832   0.398   4.211  14.543  0.4229  0.0507 -0.6478
  118MPD2     C 1833   0.127   4.675  14.087 -0.3939 -0.2715 -0.7705
  118MPD2    C1 1834   0.248   4.627  14.125  0.0691  0.0976  0.1552
  118MPD2    C2 1835   0.343   4.721  14.163  0.3534 -0.4979  0.1868
  118MPD2    C3 1836   0.317   0.113  14.164 -0.3088 -0.2589  0.4298
  118MPD2    C4 1837   0.197   0.154  14.114 -0.3463 -0.1753 -0.6252
  118MPD2    C5 1838   0.102   0.066  14.076  0.5853 -0.3911 -0.5058
  118MPD2     H 1839   0.440   4.686  14.197  0.5979 -0.4080 -0.4154
  118MPD2    H1 1840   0.164   0.257  14.114  1.0205  0.2688 -2.7226
  118MPD2    H2 1841   0.038   4.615  14.070 -0.3501 -0.5319 -0.0800
  118MPD2    H3 1842   0.003   0.103  14.054  0.6537 -0.9229 -1.7230
  118MPD2     N 1843   0.409   0.213  14.200 -0.5413  0.2040 -0.3381
  118MPD2    H5 1844   0.381   0.310  14.197  0.9500  0.5849 -1.9968
  118MPD2    N1 1845   0.270   4.488  14.112 -0.5635 -0.3772 -0.0898
  118MPD2    H7 1846   0.193   4.433  14.077  1.0035 -0.1549 -3.8129
  119TMC2    C1 1847   3.590   0.745  13.129 -0.7198  1.2174 -0.3120
  119TMC2    C2 1848   3.693   0.699  13.204  0.4282  0.6251  0.3854
  119TMC2    C3 1849   3.656   0.658  13.328 -0.6377  0.0960  0.2597
  119TMC2    C4 1850   3.459   0.741  13.167 -0.6619 -0.1582  0.2266
  119TMC2    C5 1851   3.433   0.689  13.293 -0.2133  0.1592  0.4149
  119TMC2    C6 1852   3.536   0.645  13.375 -0.2107  0.0791  0.1062
  119TMC2     C 1853   3.625   0.812  13.002  0.0683  0.4963  0.3017
  119TMC2     O 1854   3.559   0.772  12.911 -0.4815  0.0531  0.2348
  119TMC2     H 1855   3.794   0.705  13.166  0.4083 -1.0094  0.0716
  119TMC2    H1 1856   3.381   0.785  13.106  1.3556 -0.0518 -2.2377
  119TMC2    H2 1857   3.518   0.604  13.473 -1.0961  3.4614  1.3731
  119TMC2    C7 1858   3.305   0.710  13.353 -0.5003 -0.1080 -0.7502
  119TMC2    C8 1859   3.733   0.713  13.442 -0.4934  0.2726  0.3117
  119TMC2    O1 1860   3.238   0.797  13.303 -0.2768  0.0672  0.0682
  119TMC2    O2 1861   3.683   0.783  13.529 -0.0868 -0.4232  0.2431
  119TMC2    O5 1862   3.847   0.735  13.387 -0.3880 -0.2064  0.4296
  119TMC2    H5 1863   3.881   0.651  13.350 -3.4377 -2.4090  2.5559
  120MPD2     C 1864   3.921   1.116  13.303  0.4240  0.2552 -0.0748
  120MPD2    C1 1865   3.792   1.081  13.319 -0.0916  0.5868  0.1307
  120MPD2    C2 1866   3.737   1.005  13.216  0.3418 -1.2045 -0.7906
  120MPD2    C3 1867   3.797   0.965  13.101 -0.2283 -0.4570 -0.7834
  120MPD2    C4 1868   3.933   1.004  13.094 -0.1554 -0.3773  0.0625
  120MPD2    C5 1869   3.987   1.077  13.193  0.3306 -0.1380 -0.2233
  120MPD2     H 1870   3.631   0.986  13.224  0.8047 -2.4723  2.1047
  120MPD2    H1 1871   3.985   0.994  12.999  0.3976 -3.2581  0.6816
  120MPD2    H2 1872   3.971   1.184  13.371 -1.9168  0.8657  1.0430
  120MPD2    H3 1873   4.087   1.115  13.177 -0.0677  1.1587  0.4119
  120MPD2     N 1874   3.740   0.885  12.994 -0.5806  0.3044 -0.6788
  120MPD2    H5 1875   3.801   0.882  12.913  1.5148  0.7376  0.8845
  120MPD2    N1 1876   3.714   1.131  13.429 -0.2342 -0.0814  0.0775
  120MPD2    H7 1877   3.757   1.156  13.517  1.9053  0.3280 -1.0765
  121TMC2    C1 1878   0.082   2.388  14.348 -0.5522 -0.8677  0.3542
  121TMC2    C2 1879   0.188   2.323  14.392  0.1448 -0.1904 -0.1546
  121TMC2    C3 1880   0.183   2.276  14.518  0.1865  0.3303 -0.0982
  121TMC2    C4 1881   4.705   2.394  14.421  0.1153  0.1001  0.1582
  121TMC2    C5 1882   4.705   2.329  14.538  0.6006 -0.3523 -0.3796
  121TMC2    C6 1883   0.073   2.267  14.597 -0.1214  0.2799  0.0006
  121TMC2     C 1884   0.119   2.490  14.248  0.9995 -0.1020 -0.5308
  121TMC2     O 1885   0.042   2.589  14.256 -0.4104 -0.1940  0.4163
  121TMC2     H 1886   0.285   2.337  14.347  1.1896 -0.1906  2.0638
  121TMC2    H1 1887   4.626   2.451  14.373  1.0621  0.0025 -1.5529
  121TMC2    H2 1888   0.078   2.226  14.697 -0.6831  3.3998  1.2995
  121TMC2    C7 1889   4.580   2.318  14.609  0.4820 -0.4530 -0.5458
  121TMC2    C8 1890   0.303   2.220  14.583 -0.3201  0.2119 -0.0563
  121TMC2    O1 1891   4.577   2.223  14.686  0.0534  0.3149 -0.3876
  121TMC2    O2 1892   0.321   2.214  14.702 -0.1229 -0.0453 -0.0710
  121TMC2    O5 1893   0.364   2.138  14.494 -0.9437 -0.3465  0.3609
  121TMC2    H5 1894   0.309   2.131  14.413 -0.6495 -0.5229  0.1796
  122MPD2     C 1895   0.220   2.681  14.052 -0.0801 -0.5675  0.2274
  122MPD2    C1 1896   0.236   2.546  14.044 -0.0444  0.0408 -0.6830
  122MPD2    C2 1897   0.301   2.496  13.927 -0.8959 -0.1158  0.2433
  122MPD2    C3 1898   0.344   2.578  13.827 -0.3839  0.6866 -0.6989
  122MPD2    C4 1899   0.321   2.711  13.840  1.1597  0.5926  0.3113
  122MPD2    C5 1900   0.259   2.760  13.945  0.2293  0.2702 -0.2320
  122MPD2     H 1901   0.314   2.389  13.916  0.9661  0.0019  1.1763
  122MPD2    H1 1902   0.370   2.781  13.773 -1.0296 -0.5582 -2.5055
  122MPD2    H2 1903   0.189   2.731  14.143  1.4513 -1.1383  1.0697
  122MPD2    H3 1904   0.236   2.866  13.948 -1.4981 -0.1904  3.2870
  122MPD2     N 1905   0.416   2.534  13.712 -0.0280 -0.1086 -0.0569
  122MPD2    H5 1906   0.440   2.606  13.645 -0.7659 -1.3327 -1.6497
  122MPD2    N1 1907   0.205   2.455  14.147  0.1036  0.3324  0.0673
  122MPD2    H7 1908   0.241   2.361  14.141 -0.1536  0.5200 -3.8973
  123TMC2    C1 1909   3.966   4.618   9.588  0.2436  0.5085 -0.9948
  123TMC2    C2 1910   3.910   4.741   9.592 -0.6271 -0.2573 -0.6234
  123TMC2    C3 1911   3.922   0.079   9.479 -0.0196  0.7842 -0.0083
  123TMC2    C4 1912   4.024   4.567   9.469  0.4325 -1.0090 -0.0772
  123TMC2    C5 1913   4.027   4.639   9.354 -1.1468  0.9455  0.1526
  123TMC2    C6 1914   3.970   0.024   9.359 -0.5938 -0.2604  0.9205
  123TMC2     C 1915   3.930   4.522   9.690  0.0249 -0.3250 -0.1863
  123TMC2     O 1916   3.971   4.411   9.668 -0.0169  0.4077 -0.0393
  123TMC2     H 1917   3.860   0.041   9.679 -0.5834 -1.8516  0.1717
  123TMC2    H1 1918   4.073   4.470   9.473  1.0368 -0.6519  1.3116
  123TMC2    H2 1919   3.975   0.094   9.276 -0.8002 -3.5807 -1.9373
  123TMC2    C7 1920   4.020   4.564   9.232 -0.3841  0.8699  0.6919
  123TMC2    C8 1921   3.854   0.205   9.473 -0.7161  0.4878 -0.0822
  123TMC2    O1 1922   3.995   4.447   9.240  0.4354  0.1767 -0.7228
  123TMC2    O2 1923   3.807   0.255   9.374  0.1575 -0.3228  0.5926
  123TMC2    O5 1924   3.845   0.252   9.597 -1.0757 -0.4548  0.3786
  123TMC2    H5 1925   3.930   0.224   9.638 -0.5194  2.4970  1.2951
  124MPD2     C 1926   3.707   4.316  10.093 -0.7922 -1.1656  0.1214
  124MPD2    C1 1927   3.643   4.437  10.063  0.1442  0.5581  0.2597
  124MPD2    C2 1928   3.698   4.523   9.968 -0.3066 -0.0168 -0.4855
  124MPD2    C3 1929   3.810   4.481   9.894  0.1231 -0.5141  0.6798
  124MPD2    C4 1930   3.870   4.364   9.925 -1.1370 -0.0250 -0.0870
  124MPD2    C5 1931   3.818   4.284  10.025  0.4199 -0.6139  0.5243
  124MPD2     H 1932   3.661   4.618   9.933  2.7162  0.5343 -2.1495
  124MPD2    H1 1933   3.964   4.341   9.876 -0.2858 -0.5453  1.8102
  124MPD2    H2 1934   3.666   4.238  10.155 -4.0690  0.2942 -0.2450
  124MPD2    H3 1935   3.867   4.188  10.030  1.2272 -0.1475  1.4393
  124MPD2     N 1936   3.857   4.565   9.791  0.2553  0.2835  0.3679
  124MPD2    H5 1937   3.825   4.661   9.785 -1.5727 -0.3377  0.3696
  124MPD2    N1 1938   3.522   4.463  10.131  0.1762  0.0134 -0.0914
  124MPD2    H7 1939   3.496   4.385  10.191  0.0411  0.8802  0.9815
  125TMC2    C1 1940   0.017   1.277   9.826 -0.2192  0.7945 -0.6244
  125TMC2    C2 1941   0.140   1.289   9.886  0.2363 -0.8145  0.6461
  125TMC2    C3 1942   0.253   1.262   9.809  0.6954 -0.2373  0.5423
  125TMC2    C4 1943   0.006   1.211   9.709  1.0782 -0.8332 -0.4860
  125TMC2    C5 1944   0.119   1.169   9.644  0.1676  0.0460  0.5449
  125TMC2    C6 1945   0.247   1.205   9.687 -0.9353 -0.1170  0.1579
  125TMC2     C 1946   4.651   1.344   9.891  0.2038 -0.6074  0.1519
  125TMC2     O 1947   4.670   1.357  10.012 -0.3696 -0.5134  0.2658
  125TMC2     H 1948   0.155   1.335   9.983 -0.5752  1.0942 -0.1248
  125TMC2    H1 1949   4.652   1.201   9.657  0.2771  1.9856  0.4368
  125TMC2    H2 1950   0.338   1.169   9.641  0.0919 -0.9989  2.8578
  125TMC2    C7 1951   0.109   1.148   9.499 -0.2503 -0.1258 -0.1289
  125TMC2    C8 1952   0.379   1.251   9.882 -0.2654 -0.1986 -0.4857
  125TMC2    O1 1953   0.008   1.085   9.468  0.1692  0.4390 -0.3889
  125TMC2    O2 1954   0.469   1.173   9.846  0.4569  0.0621  0.2642
  125TMC2    O5 1955   0.410   1.383   9.895 -0.7185  0.1213  0.2145
  125TMC2    H5 1956   0.331   1.438   9.915 -0.8690 -0.5939  1.6101
  126MPD1     C 1957   4.181   1.552   9.934  0.2385 -0.0692 -0.5120
  126MPD1    C1 1958   4.219   1.535   9.798  0.2194  0.3482 -0.1261
  126MPD1    C2 1959   4.337   1.476   9.757  0.0554 -0.2192 -0.8514
  126MPD1    C3 1960   4.426   1.435   9.854  0.4447 -0.0054 -0.0723
  126MPD1    C4 1961   4.394   1.457   9.984 -0.2306 -0.4565 -0.1791
  126MPD1    C5 1962   4.278   1.514  10.024  0.3960 -0.0104  0.1412
  126MPD1     H 1963   4.365   1.455   9.655 -1.1905  1.1526 -1.4884
  126MPD1    H1 1964   4.465   1.446  10.065 -2.5503 -1.5314  1.7077
  126MPD1    H2 1965   4.092   1.601   9.971  0.5988  0.9167 -0.9463
  126MPD1    H3 1966   4.249   1.544  10.124  1.2930 -0.5024  0.5558
  126MPD1     N 1967   4.550   1.382   9.808 -0.4392 -0.6903  0.2004
  126MPD1    H5 1968   4.565   1.362   9.710  0.4961 -1.5309  0.5201
  126MPD1    N1 1969   4.118   1.549   9.707  0.3737  0.9659  0.4509
  126MPD1    H6 1970   4.055   1.618   9.748  0.3758  1.6308 -0.6514
  126MPD1    H7 1971   4.144   1.567   9.610 -0.5315  1.3964  0.2867
  127TMC2    C1 1972   0.701   0.642   9.581  0.4712  0.2253 -0.0517
  127TMC2    C2 1973   0.692   0.662   9.717 -0.2776 -0.1454  0.2559
  127TMC2    C3 1974   0.632   0.567   9.785 -0.3928  0.2178 -0.1717
  127TMC2    C4 1975   0.638   0.536   9.524 -0.0715  1.1069 -0.1050
  127TMC2    C5 1976   0.578   0.443   9.598 -0.6558 -0.1487  0.2529
  127TMC2    C6 1977   0.565   0.461   9.732  0.5094  0.1754  0.5442
  127TMC2     C 1978   0.762   0.747   9.498 -0.8493 -0.2977 -0.3977
  127TMC2     O 1979   0.833   0.824   9.559 -0.0506 -0.0459  0.0402
  127TMC2     H 1980   0.715   0.757   9.765  2.8864 -1.3930  1.1826
  127TMC2    H1 1981   0.639   0.524   9.416 -0.7205  0.0288  0.0099
  127TMC2    H2 1982   0.515   0.387   9.793 -1.8146  0.7023 -0.7297
  127TMC2    C7 1983   0.522   0.329   9.528  0.1561  0.0319  0.1017
  127TMC2    C8 1984   0.604   0.585   9.922 -0.6728 -0.2404 -0.6135
  127TMC2    O1 1985   0.571   0.295   9.420 -0.7941  0.9805  0.2149
  127TMC2    O2 1986   0.508   0.529   9.969  0.2725 -0.0561  0.4091
  127TMC2    O5 1987   0.709   0.637   9.985  0.2450  0.5019  0.3941
  127TMC2    H5 1988   0.785   0.646   9.924  0.8206 -0.5026  0.9591
  128MPD2     C 1989   0.720   0.812   9.130  0.2266  0.5954 -0.7905
  128MPD2    C1 1990   0.759   0.843   9.261  0.1990  0.2908 -0.1279
  128MPD2    C2 1991   0.848   0.952   9.281 -0.2634 -0.0655 -0.1643
  128MPD2    C3 1992   0.880   1.034   9.172 -0.0035 -0.1965 -0.4684
  128MPD2    C4 1993   0.838   0.996   9.043  0.2102 -0.1748 -0.4580
  128MPD2    C5 1994   0.761   0.888   9.030 -0.1609 -1.1907  0.0295
  128MPD2     H 1995   0.882   0.979   9.380  0.5623  0.3005 -0.5487
  128MPD2    H1 1996   0.871   1.044   8.952 -0.7694  0.6498 -0.3712
  128MPD2    H2 1997   0.661   0.724   9.111 -0.7097  1.2025 -0.6715
  128MPD2    H3 1998   0.731   0.865   8.928 -1.1352  1.3045 -0.2401
  128MPD2     N 1999   0.975   1.138   9.190 -0.0833 -0.5900  0.1441
  128MPD2    H5 2000   1.016   1.134   9.282  2.3258 -3.2616 -1.0792
  128MPD2    N1 2001   0.714   0.758   9.367  0.0195 -0.8182  0.0975
  128MPD2    H7 2002   0.656   0.681   9.334 -1.5506  1.4920 -2.5064
  129TMC2    C1 2003   3.464   2.296   1.535 -0.3064  0.0996 -0.1711
  129TMC2    C2 2004   3.393   2.369   1.440 -0.7969  0.1973  0.1364
  129TMC2    C3 2005   3.306   2.297   1.369  0.1201 -0.1693  0.4768
  129TMC2    C4 2006   3.434   2.163   1.567 -0.0309 -1.2178  0.3048
  129TMC2    C5 2007   3.340   2.102   1.487 -0.2245 -0.1071 -0.0097
  129TMC2    C6 2008   3.267   2.166   1.389 -0.0093 -0.0605 -0.2206
  129TMC2     C 2009   3.539   2.364   1.642 -0.6121 -0.3552 -0.2981
  129TMC2     O 2010   3.551   2.298   1.745  0.1670 -0.3067  0.1515
  129TMC2     H 2011   3.414   2.473   1.418  1.6932 -0.6736 -1.5834
  129TMC2    H1 2012   3.485   2.118   1.651  0.8887 -0.1880  0.3135
  129TMC2    H2 2013   3.184   2.112   1.345  1.6376 -4.1158  1.6882
  129TMC2    C7 2014   3.320   1.965   1.504 -0.5557 -0.8342  0.3375
  129TMC2    C8 2015   3.256   2.355   1.254 -0.3463  0.2450 -0.0239
  129TMC2    O1 2016   3.214   1.919   1.479 -0.6190 -0.3876  0.0168
  129TMC2    O2 2017   3.319   2.445   1.204  0.0055  0.1166 -0.6273
  129TMC2    O5 2018   3.124   2.338   1.271 -0.3701  0.1564  0.2865
  129TMC2    H5 2019   3.097   2.293   1.353  0.5134 -0.2932  0.3244
  130MPD2     C 2020   3.671   2.552   1.824 -0.3387 -0.1039 -0.2464
  130MPD2    C1 2021   3.678   2.559   1.689 -0.6248 -0.0387  1.3510
  130MPD2    C2 2022   3.737   2.672   1.635 -0.1092 -0.0187  0.3075
  130MPD2    C3 2023   3.781   2.774   1.712  0.0315  0.6922  0.4139
  130MPD2    C4 2024   3.774   2.761   1.847  0.1778  0.1791  0.1254
  130MPD2    C5 2025   3.720   2.650   1.905  0.4081 -0.3192 -0.3522
  130MPD2     H 2026   3.747   2.682   1.528 -0.6703  0.5297  0.3108
  130MPD2    H1 2027   3.815   2.838   1.912  1.2767  0.2799 -0.6761
  130MPD2    H2 2028   3.620   2.473   1.879 -0.8843  0.6484  0.3226
  130MPD2    H3 2029   3.709   2.645   2.013  2.4966  2.6110  0.0159
  130MPD2     N 2030   3.834   2.886   1.643  0.1418 -0.1089  0.0842
  130MPD2    H5 2031   3.834   2.887   1.542  0.6580  1.5477  0.0905
  130MPD2    N1 2032   3.610   2.471   1.600 -0.1665  0.2150  0.0711
  130MPD2    H7 2033   3.620   2.491   1.501 -0.7259 -1.5150 -0.3176
  131TMC2    C1 2034   3.219   0.731  10.165 -0.2059 -0.2497  0.3073
  131TMC2    C2 2035   3.230   0.829  10.251  0.4859 -0.1066  0.2425
  131TMC2    C3 2036   3.224   0.957  10.201  0.8295 -0.2468 -0.2698
  131TMC2    C4 2037   3.211   0.762  10.030 -0.2076  0.4044 -0.0996
  131TMC2    C5 2038   3.190   0.892   9.991  0.0406 -0.3013 -0.1240
  131TMC2    C6 2039   3.206   0.999  10.073 -0.3011  0.4419  0.4716
  131TMC2     C 2040   3.187   0.600  10.213  0.5870 -0.6655 -0.5758
  131TMC2     O 2041   3.208   0.505  10.136 -0.5782  0.0660 -0.0466
  131TMC2     H 2042   3.244   0.809  10.357 -0.1414 -2.2832 -0.0861
  131TMC2    H1 2043   3.205   0.670   9.972  0.3940 -1.0519  2.1577
  131TMC2    H2 2044   3.185   1.101  10.042 -0.9754 -0.0930 -0.8669
  131TMC2    C7 2045   3.163   0.904   9.850 -0.1875  0.1652 -0.4985
  131TMC2    C8 2046   3.235   1.069  10.296  0.0394 -0.3950  0.0733
  131TMC2    O1 2047   3.104   0.808   9.796 -0.1949 -0.3403  0.0596
  131TMC2    O2 2048   3.277   1.176  10.262  0.0284 -0.6958 -0.4694
  131TMC2    O5 2049   3.186   1.036  10.419  0.4928  0.5885 -0.6121
  131TMC2    H5 2050   3.136   0.951  10.423 -1.5389  1.6485 -3.2160
  132MPD2     C 2051   2.999   0.489  10.505  0.2005  0.5781 -0.2047
  132MPD2    C1 2052   3.068   0.480  10.390 -0.6053  0.1222 -0.2691
  132MPD2    C2 2053   3.104   0.348  10.357 -0.1725  0.3919  1.2148
  132MPD2    C3 2054   3.075   0.244  10.434  0.0461 -0.0552 -0.1127
  132MPD2    C4 2055   2.988   0.261  10.541 -0.7073  0.0158  0.1103
  132MPD2    C5 2056   2.948   0.388  10.573 -0.3019 -0.3367 -0.1730
  132MPD2     H 2057   3.177   0.326  10.280 -2.3753  0.7011 -0.9384
  132MPD2    H1 2058   2.965   0.180  10.610 -1.6642 -0.2857 -0.5597
  132MPD2    H2 2059   2.994   0.588  10.549  2.3062  0.6395 -0.1199
  132MPD2    H3 2060   2.894   0.403  10.666  2.0083 -0.7062  1.2436
  132MPD2     N 2061   3.133   0.120  10.402 -0.1787  0.0081  0.1153
  132MPD2    H5 2062   3.201   0.126  10.327  0.3345 -0.4812  0.5359
  132MPD2    N1 2063   3.116   0.597  10.330 -0.2021 -0.1920 -0.4535
  132MPD2    H7 2064   3.082   0.686  10.364  0.5114 -0.1574  0.1352
  133TMC2    C1 2065   1.237   1.212   8.759  0.3156 -0.2024 -0.0437
  133TMC2    C2 2066   1.273   1.271   8.643  0.0840  0.3838  0.1375
  133TMC2    C3 2067   1.176   1.288   8.553  0.1213 -0.7898  0.3577
  133TMC2    C4 2068   1.127   1.142   8.772  0.2381 -0.4768 -0.1911
  133TMC2    C5 2069   1.036   1.144   8.665  0.8966 -0.1305  0.1231
  133TMC2    C6 2070   1.057   1.229   8.558 -0.0640  0.2866 -0.2955
  133TMC2     C 2071   1.330   1.221   8.866 -0.0878  0.1330  0.6844
  133TMC2     O 2072   1.398   1.320   8.873 -0.2847 -0.0741 -0.0530
  133TMC2     H 2073   1.372   1.307   8.616  0.4377 -1.2920 -0.8165
  133TMC2    H1 2074   1.108   1.089   8.865 -1.2186  0.5496  0.0835
  133TMC2    H2 2075   0.982   1.232   8.479  1.4226  0.2828 -1.7254
  133TMC2    C7 2076   0.921   1.056   8.656 -0.1959  0.3319  0.3068
  133TMC2    C8 2077   1.194   1.386   8.454 -0.6463 -0.3136 -0.3141
  133TMC2    O1 2078   0.829   1.101   8.593 -0.3891 -0.4013 -0.2916
  133TMC2    O2 2079   1.265   1.487   8.468 -0.4546 -0.2211 -0.3174
  133TMC2    O5 2080   1.147   1.332   8.338  0.0283  0.1752 -0.2163
  133TMC2    H5 2081   1.152   1.235   8.345  0.7204  0.1639 -0.8034
  134MPD2     C 2082   1.359   0.974   9.147  0.2549 -0.9466 -0.2998
  134MPD2    C1 2083   1.380   1.098   9.084 -0.0538  0.8746 -0.7651
  134MPD2    C2 2084   1.456   1.197   9.139 -0.1759 -0.7956  0.7239
  134MPD2    C3 2085   1.511   1.184   9.262  0.4340  0.4537 -0.0127
  134MPD2    C4 2086   1.484   1.074   9.337  0.4395 -0.2080 -0.4934
  134MPD2    C5 2087   1.407   0.967   9.277  0.3696  0.4396  0.5486
  134MPD2     H 2088   1.479   1.287   9.083  0.0160 -1.8419 -0.8553
  134MPD2    H1 2089   1.536   1.059   9.431  0.8733  0.4176 -0.6340
  134MPD2    H2 2090   1.309   0.893   9.095  0.5430 -1.6406  0.5110
  134MPD2    H3 2091   1.392   0.879   9.338 -2.2301  0.1311 -0.5192
  134MPD2     N 2092   1.590   1.278   9.318 -0.3225  0.3954  0.2397
  134MPD2    H5 2093   1.633   1.264   9.409  3.4031 -2.9314 -1.9881
  134MPD2    N1 2094   1.319   1.118   8.962  0.1014 -0.5905 -0.1221
  134MPD2    H7 2095   1.266   1.036   8.935  2.0977 -1.9299  0.0664
  135TMC2    C1 2096   4.494   3.366   9.916  0.1955  0.4396  0.2701
  135TMC2    C2 2097   4.504   3.498   9.959 -0.2645 -0.1386 -0.3836
  135TMC2    C3 2098   4.477   3.513  10.092  0.1323 -0.5341 -0.7255
  135TMC2    C4 2099   4.443   3.263   9.993  0.2923  0.1493 -0.9717
  135TMC2    C5 2100   4.428   3.284  10.128  0.7556  0.9112 -0.2662
  135TMC2    C6 2101   4.429   3.415  10.171 -0.1770 -0.0760 -0.3717
  135TMC2     C 2102   4.540   3.337   9.782 -0.7308 -0.4963  0.2481
  135TMC2     O 2103   4.548   3.433   9.708  0.3753  0.1546 -0.3903
  135TMC2     H 2104   4.547   3.572   9.892 -1.5235  0.7057 -0.2409
  135TMC2    H1 2105   4.440   3.164   9.948 -1.7925 -0.7329  1.1385
  135TMC2    H2 2106   4.406   3.436  10.275  0.0861 -2.8329  0.2525
  135TMC2    C7 2107   4.365   3.195  10.220  0.0760  0.1967  0.1504
  135TMC2    C8 2108   4.460   3.653  10.136 -0.2947 -0.3137 -0.2326
  135TMC2    O1 2109   4.299   3.245  10.307 -0.0073 -0.3467 -0.0554
  135TMC2    O2 2110   4.372   3.690  10.219 -0.7859 -0.1004 -0.3577
  135TMC2    O5 2111   4.577   3.719  10.120 -0.8283 -0.0442 -0.1098
  135TMC2    H5 2112   4.635   3.673  10.056 -2.8404 -0.9415 -1.3101
  136MPD2     C 2113   4.727   3.228   9.565  0.1644  0.3184  1.0390
  136MPD2    C1 2114   4.664   3.150   9.658 -0.4615  0.0515  0.3862
  136MPD2    C2 2115   4.685   3.016   9.653  0.4868 -0.0041  0.2071
  136MPD2    C3 2116   0.036   2.960   9.566  0.7855  0.1401 -0.1500
  136MPD2    C4 2117   0.103   3.041   9.478  0.9606 -0.1733  0.1386
  136MPD2    C5 2118   0.084   3.172   9.478  0.1596  0.3084  0.3058
  136MPD2     H 2119   4.641   2.949   9.725  4.1210 -2.1164  0.4729
  136MPD2    H1 2120   0.176   3.000   9.409  1.6809  0.3730  0.5758
  136MPD2    H2 2121   4.706   3.334   9.557  1.2021  0.4584  0.1386
  136MPD2    H3 2122   0.143   3.238   9.416 -2.5191  1.9111 -0.5460
  136MPD2     N 2123   0.069   2.822   9.567  0.2302  0.1873 -0.2046
  136MPD2    H5 2124   0.155   2.788   9.525  0.6350  1.3009 -0.2674
  136MPD2    N1 2125   4.580   3.205   9.764 -0.0389  0.2303 -0.6456
  136MPD2    H7 2126   4.564   3.138   9.838  0.6008  0.5713 -0.1998
  137TMC2    C1 2127   0.072   1.617   9.410 -0.1997 -0.3510  0.7052
  137TMC2    C2 2128   0.041   1.714   9.320  0.3647 -0.7961 -0.0738
  137TMC2    C3 2129   4.664   1.712   9.256 -0.1904  0.8964  0.0985
  137TMC2    C4 2130   4.723   1.515   9.441  0.0998  0.8183  0.8797
  137TMC2    C5 2131   4.603   1.510   9.364  0.6435 -0.1620 -0.3546
  137TMC2    C6 2132   4.577   1.605   9.268 -0.3533 -0.2354 -0.1214
  137TMC2     C 2133   0.176   1.645   9.502  0.5393 -0.0649  0.2669
  137TMC2     O 2134   0.163   1.614   9.621  0.8149  0.2220 -0.2914
  137TMC2     H 2135   0.097   1.806   9.309  0.4876 -0.5406  2.6969
  137TMC2    H1 2136   0.003   1.448   9.524 -2.0967 -0.7725  0.1642
  137TMC2    H2 2137   4.476   1.608   9.228 -0.9287  0.0542  1.3463
  137TMC2    C7 2138   4.498   1.430   9.426 -0.5893  0.3962 -0.3690
  137TMC2    C8 2139   4.637   1.822   9.164 -0.4021  0.3443  0.2399
  137TMC2    O1 2140   4.536   1.353   9.508  0.2628  1.0823  0.0385
  137TMC2    O2 2141   4.720   1.877   9.092  0.6335 -0.2584  0.8478
  137TMC2    O5 2142   4.506   1.827   9.146  0.0866  0.3656  0.0364
  137TMC2    H5 2143   4.463   1.779   9.220  1.9209  1.1569  1.6052
  138MPD2     C 2144   0.517   1.773   9.474 -0.1169  0.5076 -0.5808
  138MPD2    C1 2145   0.393   1.751   9.534 -0.3086  0.4891  0.0851
  138MPD2    C2 2146   0.380   1.800   9.663 -0.0742  0.0996  0.0115
  138MPD2    C3 2147   0.484   1.864   9.732  0.0697  0.7488 -0.4574
  138MPD2    C4 2148   0.609   1.872   9.670  0.2812  0.1199 -0.2642
  138MPD2    C5 2149   0.618   1.838   9.543  0.0361  0.4856 -0.3906
  138MPD2     H 2150   0.283   1.778   9.705  0.5433  0.0782  1.4113
  138MPD2    H1 2151   0.691   1.919   9.723 -1.5858  0.8499  1.9825
  138MPD2    H2 2152   0.543   1.754   9.371  0.2015  1.3612 -0.6629
  138MPD2    H3 2153   0.717   1.837   9.498  1.8152 -2.5218  3.5188
  138MPD2     N 2154   0.456   1.894   9.862 -0.3405 -0.8903 -0.0885
  138MPD2    H5 2155   0.361   1.895   9.900 -0.5946 -1.3939 -0.7131
  138MPD2    N1 2156   0.289   1.699   9.452  0.3771  0.6084  0.1346
  138MPD2    H7 2157   0.305   1.701   9.352  0.1774 -0.0127  0.0925
  139TMC2    C1 2158   0.216   0.526  13.205 -0.0652  0.1042 -0.2825
  139TMC2    C2 2159   0.325   0.606  13.230  1.3975 -0.0454  0.6692
  139TMC2    C3 2160   0.302   0.739  13.236  0.6173 -0.3620  0.1402
  139TMC2    C4 2161   0.088   0.588  13.193  0.4147 -0.0694 -0.6409
  139TMC2    C5 2162   0.080   0.723  13.203 -1.0238  0.2799 -0.1925
  139TMC2    C6 2163   0.185   0.805  13.222 -0.1579 -0.3100 -0.6014
  139TMC2     C 2164   0.233   0.382  13.228  0.1239 -0.2176 -0.3123
  139TMC2     O 2165   0.348   0.346  13.242  0.3962 -0.4212  0.2696
  139TMC2     H 2166   0.422   0.559  13.233  0.1968 -2.4878  1.2203
  139TMC2    H1 2167   0.004   0.526  13.167  0.3710  0.1570 -1.0324
  139TMC2    H2 2168   0.165   0.911  13.221  0.1814 -0.2186  1.8912
  139TMC2    C7 2169   4.687   0.787  13.203  0.0181  0.1971 -0.6343
  139TMC2    C8 2170   0.424   0.814  13.226 -0.1790 -0.5473  0.1418
  139TMC2    O1 2171   4.675   0.904  13.185  0.4481 -0.5630 -0.4819
  139TMC2    O2 2172   0.531   0.762  13.199  0.1966  0.2610 -0.2267
  139TMC2    O5 2173   0.416   0.922  13.302 -0.0618 -0.5047 -0.1067
  139TMC2    H5 2174   0.321   0.933  13.321 -0.7364 -2.7469 -2.2912
  140MPD2     C 2175   4.710   0.139  13.323 -0.2697  0.2707  0.2043
  140MPD2    C1 2176   0.094   0.181  13.298 -0.0375 -0.6448  0.9744
  140MPD2    C2 2177   0.204   0.093  13.317 -0.4372 -0.2263  0.0162
  140MPD2    C3 2178   0.183   4.705  13.360  0.4288  0.2321 -0.1133
  140MPD2    C4 2179   0.050   4.670  13.388  0.8746 -0.3102  0.1890
  140MPD2    C5 2180   4.687   0.005  13.359  0.2214  0.5149 -0.7643
  140MPD2     H 2181   0.303   0.125  13.286 -0.9515 -0.8610 -2.2501
  140MPD2    H1 2182   0.033   4.574  13.435  1.7268  1.0400  3.2656
  140MPD2    H2 2183   4.629   0.207  13.297 -1.1162 -0.8845 -0.1843
  140MPD2    H3 2184   4.586   4.709  13.369  0.5179  0.0335  0.3803
  140MPD2     N 2185   0.297   4.626  13.385  0.1370 -0.2415  0.6799
  140MPD2    H5 2186   0.383   4.670  13.353 -0.8665 -0.0334 -1.7276
  140MPD2    N1 2187   0.112   0.321  13.258 -0.4406  0.6730 -0.0765
  140MPD2    H7 2188   0.033   0.384  13.256  1.0539  2.4985 -1.2718
  141TMC2    C1 2189   0.227   1.774  14.717 -0.1829 -0.0931  0.2491
  141TMC2    C2 2190   0.222   1.669  14.804 -0.0991  0.5562 -0.0600
  141TMC2    C3 2191   0.304   1.672  14.915 -0.5910 -0.2749  0.2182
  141TMC2    C4 2192   0.312   1.884  14.735 -0.4838  0.3586  1.1039
  141TMC2    C5 2193   0.404   1.879  14.836 -0.7235  0.4512 -0.3408
  141TMC2    C6 2194   0.397   1.775  14.932 -0.1450  0.3419  0.0783
  141TMC2     C 2195   0.147   1.776  14.597  0.5163 -0.1821  0.0116
  141TMC2     O 2196   0.180   1.857  14.514 -0.1310 -0.1130  0.4011
  141TMC2     H 2197   0.176   1.573  14.783 -0.0254  0.0696  2.0845
  141TMC2    H1 2198   0.316   1.965  14.663 -1.7062 -0.1510  0.4771
  141TMC2    H2 2199   0.463   1.782  15.018  0.2968 -1.2628 -0.1171
  141TMC2    C7 2200   0.531   1.958  14.839 -0.1685  0.1522  0.5751
  141TMC2    C8 2201   0.280   1.599  15.036  0.5840  0.2432  0.9282
  141TMC2    O1 2202   0.597   1.953  14.943  0.1937 -0.2861  0.0122
  141TMC2    O2 2203   0.345   1.617  15.139  0.1109 -0.5252 -0.4723
  141TMC2    O5 2204   0.182   1.510  15.015  0.1489  0.3875  0.4596
  141TMC2    H5 2205   0.126   1.518  14.935  0.4216  1.7443  0.4052
  142TMC2    C1 2206   3.997   3.886   8.918  0.5074  0.3519 -0.2288
  142TMC2    C2 2207   3.919   3.815   8.830 -0.1153 -1.0644  0.4485
  142TMC2    C3 2208   3.935   3.850   8.697 -0.8186 -0.5132  0.3436
  142TMC2    C4 2209   4.061   4.006   8.878  0.1483 -0.1632 -0.0023
  142TMC2    C5 2210   4.057   4.036   8.752  0.9011 -0.2865 -0.1435
  142TMC2    C6 2211   3.997   3.961   8.654 -0.1566 -0.1202 -0.1689
  142TMC2     C 2212   3.969   3.873   9.061  0.9581 -0.2240  0.0252
  142TMC2     O 2213   3.957   3.979   9.124 -1.0840 -0.1026 -0.0690
  142TMC2     H 2214   3.859   3.729   8.858 -2.0608  0.4285  0.9316
  142TMC2    H1 2215   4.094   4.064   8.964  0.9718 -0.4028 -0.1512
  142TMC2    H2 2216   4.013   3.987   8.550  2.1422  2.5119  0.8482
  142TMC2    C7 2217   4.072   4.177   8.718  0.2469 -0.8865 -0.0287
  142TMC2    C8 2218   3.895   3.746   8.600  0.5251  0.2586  0.3502
  142TMC2    O1 2219   4.084   4.214   8.603 -0.2425  0.0509  0.2399
  142TMC2    O2 2220   3.820   3.653   8.627 -0.5113 -0.0359 -0.0505
  142TMC2    O5 2221   3.978   3.742   8.494 -0.3148 -0.2505  0.0278
  142TMC2    H5 2222   4.057   3.801   8.503 -0.4607 -0.0831  0.2138
  143MPD2     C 2223   3.801   3.638   9.481 -0.2765  0.5390 -0.1880
  143MPD2    C1 2224   3.824   3.773   9.456 -0.6495  0.4417  1.0658
  143MPD2    C2 2225   3.872   3.802   9.330 -0.0882 -0.0582 -0.3641
  143MPD2    C3 2226   3.878   3.713   9.224  0.2191 -0.8686  0.6959
  143MPD2    C4 2227   3.849   3.580   9.246  0.5519 -0.7327 -0.2179
  143MPD2    C5 2228   3.817   3.544   9.380  0.2038 -0.0547 -0.4638
  143MPD2     H 2229   3.920   3.899   9.321 -3.2086  1.3935 -1.3169
  143MPD2    H1 2230   3.861   3.501   9.173 -3.4073 -1.1821 -0.3531
  143MPD2    H2 2231   3.768   3.607   9.579  2.8315 -0.6076  0.5174
  143MPD2    H3 2232   3.803   3.439   9.402 -0.8430  0.6922  2.3489
  143MPD2     N 2233   3.925   3.745   9.099  0.0983  0.1065 -0.3592
  143MPD2    H5 2234   3.939   3.670   9.032  1.0099  1.3553 -1.5667
  143MPD2    N1 2235   3.808   3.867   9.554 -0.1341  0.3896 -0.2072
  143MPD2    H7 2236   3.801   3.832   9.649  0.3171 -3.4488 -1.6120
  144TMC2    C1 2237   1.909   4.011   0.657  0.6939  0.2827  0.2769
  144TMC2    C2 2238   1.950   3.898   0.591 -0.2672 -0.2811 -0.0216
  144TMC2    C3 2239   2.054   3.906   0.507  0.1436 -0.7379  0.1552
  144TMC2    C4 2240   1.967   4.129   0.636  0.1315 -0.3355  0.2467
  144TMC2    C5 2241   2.075   4.130   0.548 -0.5018 -0.4838  0.1612
  144TMC2    C6 2242   2.123   4.017   0.486 -0.2517  0.0747 -0.0904
  144TMC2     C 2243   1.766   4.022   0.657  0.2171  0.0542  0.4786
  144TMC2     O 2244   1.713   3.956   0.572 -0.0082 -0.8429 -0.5289
  144TMC2     H 2245   1.902   3.802   0.581 -0.9140  0.0921 -0.4706
  144TMC2    H1 2246   1.932   4.223   0.676  0.3026 -1.7059  3.5998
  144TMC2    H2 2247   2.199   4.032   0.411 -0.1923 -0.1885 -0.0810
  144TMC2    C7 2248   2.190   4.209   0.592  0.0614  0.0119 -0.7813
  144TMC2    C8 2249   2.096   3.779   0.451 -0.5682  0.2940 -0.0595
  144TMC2    O1 2250   2.300   4.174   0.549 -0.0926 -0.3367 -0.3455
  144TMC2    O2 2251   2.102   3.675   0.514 -0.0781  0.0265  0.1149
  144TMC2    O5 2252   2.168   3.804   0.335  0.8898  0.0324  0.4621
  144TMC2    H5 2253   2.150   3.887   0.287 -0.2897 -0.3049  0.3258
  145MPD2     C 2254   1.309   4.228   0.736 -0.4247 -1.0509 -0.1767
  145MPD2    C1 2255   1.345   4.122   0.654 -0.2935  0.0142 -0.2455
  145MPD2    C2 2256   1.479   4.085   0.663 -0.1103  0.3671 -0.4875
  145MPD2    C3 2257   1.574   4.160   0.734 -0.1037 -0.5768  0.3979
  145MPD2    C4 2258   1.534   4.282   0.783 -0.5101 -0.2365 -0.1545
  145MPD2    C5 2259   1.402   4.319   0.783 -0.5644  0.1940 -0.5238
  145MPD2     H 2260   1.502   3.991   0.614  0.4435 -0.1536  0.7700
  145MPD2    H1 2261   1.600   4.347   0.838  0.2151  1.0153 -2.5250
  145MPD2    H2 2262   1.209   4.266   0.753 -0.4318 -1.3006  0.3342
  145MPD2    H3 2263   1.374   4.403   0.846 -3.0337 -0.4459 -0.7690
  145MPD2     N 2264   1.711   4.123   0.737 -0.6670  0.3057  0.5338
  145MPD2    H5 2265   1.780   4.178   0.786  0.2513 -0.1575 -0.2408
  145MPD2    N1 2266   1.254   4.040   0.582  0.1636  0.2984 -0.2247
  145MPD2    H7 2267   1.289   3.961   0.530 -0.6430  0.1472 -0.5350
  146TMC2    C1 2268   2.268   3.032  12.823 -0.0343 -0.8859  0.0383
  146TMC2    C2 2269   2.226   3.093  12.712 -0.6259  0.3819 -0.5301
  146TMC2    C3 2270   2.186   3.011  12.602 -0.1017 -0.1928 -0.2691
  146TMC2    C4 2271   2.283   2.893  12.819  0.6460 -0.4767 -0.3336
  146TMC2    C5 2272   2.261   2.816  12.708 -0.1064 -0.0461 -0.5639
  146TMC2    C6 2273   2.203   2.876  12.600 -0.3588  0.2474 -0.3257
  146TMC2     C 2274   2.280   3.102  12.953  0.1289 -0.4995  0.1716
  146TMC2     O 2275   2.227   3.213  12.966 -0.0369 -0.2369  0.3844
  146TMC2     H 2276   2.226   3.201  12.717 -0.3285  0.2690  2.1034
  146TMC2    H1 2277   2.302   2.845  12.914  0.7018 -0.5387 -0.3765
  146TMC2    H2 2278   2.187   2.827  12.505 -1.4007 -1.1272  0.5603
  146TMC2    C7 2279   2.277   2.671  12.700 -0.0567 -0.1395  0.1688
  146TMC2    C8 2280   2.135   3.074  12.483 -0.8398  0.4142 -0.3637
  146TMC2    O1 2281   2.236   2.614  12.603  0.6892  0.0056 -0.1572
  146TMC2    O2 2282   2.126   3.015  12.375 -0.2423 -1.1032  0.2645
  146TMC2    O5 2283   2.093   3.203  12.509  0.1548  0.7009 -0.4315
  146TMC2    H5 2284   2.097   3.230  12.604  1.4178 -2.8842  0.5195
  147MPD2     C 2285   2.395   2.221  12.931 -0.5275  0.1977  0.3182
  147MPD2    C1 2286   2.470   2.317  12.996 -0.8251  0.1261 -0.8871
  147MPD2    C2 2287   2.445   2.453  12.953  0.5252  0.2077 -0.2809
  147MPD2    C3 2288   2.362   2.480  12.845  0.8371 -0.0141  0.8066
  147MPD2    C4 2289   2.314   2.369  12.774 -0.0919 -0.2925 -0.2364
  147MPD2    C5 2290   2.315   2.240  12.822 -0.4906  0.0041 -0.4398
  147MPD2     H 2291   2.489   2.535  13.007  1.5995  1.5085 -3.1248
  147MPD2    H1 2292   2.258   2.393  12.685  1.3675  0.0172 -1.0667
  147MPD2    H2 2293   2.401   2.116  12.956 -0.7781 -0.2953 -1.6960
  147MPD2    H3 2294   2.271   2.150  12.782  0.5135 -0.3347 -0.7670
  147MPD2     N 2295   2.335   2.618  12.814  0.2124  0.7144 -0.3251
  147MPD2    H5 2296   2.380   2.685  12.875 -0.8988  0.5345  0.6780
  147MPD2    N1 2297   2.571   2.278  13.084 -0.2498  0.0142  0.1551
  147MPD2    H7 2298   2.597   2.180  13.093 -3.1240 -0.6710  1.0373
  148TMC2    C1 2299   2.664   1.507  10.365  0.3107 -0.3163  0.2465
  148TMC2    C2 2300   2.750   1.596  10.433 -0.2286 -0.0988  0.1116
  148TMC2    C3 2301   2.835   1.546  10.523  0.0597 -0.3538 -0.1219
  148TMC2    C4 2302   2.674   1.373  10.380  0.0889 -0.0080  0.4835
  148TMC2    C5 2303   2.758   1.324  10.473 -0.0850  0.3959 -0.4883
  148TMC2    C6 2304   2.846   1.406  10.539  0.9255  0.4423  0.0088
  148TMC2     C 2305   2.567   1.561  10.268  0.0855  1.4328  0.1819
  148TMC2     O 2306   2.560   1.684  10.272 -0.0753  0.3335 -0.3776
  148TMC2     H 2307   2.730   1.701  10.419  0.3561 -0.2661 -1.9643
  148TMC2    H1 2308   2.612   1.301  10.329  0.2224 -0.1185  0.4776
  148TMC2    H2 2309   2.885   1.379  10.637 -1.9407  1.4800  1.4421
  148TMC2    C7 2310   2.745   1.181  10.502 -0.4483 -1.0961  0.0697
  148TMC2    C8 2311   2.909   1.637  10.611  0.4757  0.2805  0.4049
  148TMC2    O1 2312   2.663   1.120  10.437 -0.5845  0.0856  0.0090
  148TMC2    O2 2313   2.895   1.760  10.603 -0.1752 -0.5609  0.1052
  148TMC2    O5 2314   3.038   1.590  10.599 -0.0001 -0.4190 -0.2817
  148TMC2    H5 2315   3.045   1.496  10.572 -1.1455 -0.0798 -1.7838
  149MPD2     C 2316   2.315   1.636  10.152 -0.1695  0.2166 -0.6767
  149MPD2    C1 2317   2.357   1.502  10.164 -0.1555  0.7183 -0.6462
  149MPD2    C2 2318   2.271   1.405  10.120  0.3923  0.4424  0.9157
  149MPD2    C3 2319   2.151   1.443  10.062 -0.2310  0.1561 -0.7295
  149MPD2    C4 2320   2.126   1.577  10.044 -0.2889  0.7165  0.0111
  149MPD2    C5 2321   2.198   1.673  10.102  0.1468 -0.2706 -0.2649
  149MPD2     H 2322   2.301   1.304  10.143  1.3371  1.3831  3.8074
  149MPD2    H1 2323   2.031   1.600   9.996 -0.3261  0.6413  0.0480
  149MPD2    H2 2324   2.368   1.723  10.190 -1.3946  0.5752  0.1904
  149MPD2    H3 2325   2.173   1.779  10.101 -1.9022 -0.7409  1.5584
  149MPD2     N 2326   2.053   1.348  10.031 -0.3454 -0.0219 -0.4097
  149MPD2    H5 2327   1.961   1.379  10.002  0.2824  1.9338 -0.2977
  149MPD2    N1 2328   2.484   1.465  10.222  0.2110 -0.5588  0.0402
  149MPD2    H7 2329   2.498   1.367  10.242  1.4818 -0.5247 -0.7380
  150TMC2    C1 2330   4.479   0.556  12.236 -0.4190 -0.1804 -0.4266
  150TMC2    C2 2331   4.476   0.591  12.103 -0.5963 -0.1415  0.6044
  150TMC2    C3 2332   4.594   0.619  12.046 -0.5721 -0.9053  0.3487
  150TMC2    C4 2333   4.595   0.552  12.312 -0.1090  0.1312 -0.1027
  150TMC2    C5 2334   4.714   0.551  12.241  0.0263 -0.0983 -0.4843
  150TMC2    C6 2335   4.711   0.595  12.110 -0.2796  0.9560  0.5857
  150TMC2     C 2336   4.356   0.550  12.310  0.1791  1.1092 -0.6000
  150TMC2     O 2337   4.369   0.576  12.427 -0.0604 -0.5193 -0.2449
  150TMC2     H 2338   4.383   0.587  12.047 -1.1070  0.0279  1.4340
  150TMC2    H1 2339   4.583   0.512  12.412 -3.0421  1.4641  0.0712
  150TMC2    H2 2340   0.062   0.627  12.063 -1.0361  0.8097 -0.9692
  150TMC2    C7 2341   0.099   0.585  12.307 -0.1698  0.1432  0.1547
  150TMC2    C8 2342   4.602   0.608  11.901 -0.4093  0.8574 -0.6446
  150TMC2    O1 2343   0.168   0.679  12.272  0.2599 -0.0464  0.4847
  150TMC2    O2 2344   4.704   0.554  11.861 -0.0503 -0.0892  0.6406
  150TMC2    O5 2345   4.508   0.688  11.843 -0.8904 -0.1391  0.4292
  150TMC2    H5 2346   4.437   0.711  11.907  0.3483  0.9219  1.4060
  151MPD2     C 2347   3.834   0.512  12.323 -0.2242  0.1581 -0.4751
  151MPD2    C1 2348   3.882   0.508  12.190 -0.1598 -0.0692 -0.3906
  151MPD2    C2 2349   4.021   0.527  12.169  0.3175 -0.4805 -0.4264
  151MPD2    C3 2350   4.109   0.536  12.278  0.1670  0.0885  0.4641
  151MPD2    C4 2351   4.062   0.526  12.407 -0.1019  0.3952 -0.1566
  151MPD2    C5 2352   3.926   0.522  12.427  0.0594  0.6105 -0.6293
  151MPD2     H 2353   4.057   0.539  12.068  0.8829 -1.2352 -0.3132
  151MPD2    H1 2354   4.135   0.519  12.486  1.0432 -0.2462 -1.2794
  151MPD2    H2 2355   3.730   0.498  12.350 -0.2259  2.3621  0.6237
  151MPD2    H3 2356   3.885   0.500  12.524  0.1881  4.0364  0.1738
  151MPD2     N 2357   4.245   0.529  12.235 -0.3052 -0.1596 -0.0999
  151MPD2    H5 2358   4.251   0.514  12.134  0.0331 -0.5587 -0.0210
  151MPD2    N1 2359   3.797   0.483  12.081  0.2926  0.4966 -0.0928
  151MPD2    H7 2360   3.714   0.426  12.096  1.4916 -0.8018  1.6938
  152TMC2    C1 2361   4.514   0.965  12.832 -0.1308 -0.1009  0.3734
  152TMC2    C2 2362   4.549   0.834  12.793  0.4055 -0.1881 -0.0741
  152TMC2    C3 2363   4.683   0.811  12.794  0.3190  0.7659  0.0933
  152TMC2    C4 2364   4.605   1.061  12.881  0.2344 -0.8633  1.0059
  152TMC2    C5 2365   4.736   1.023  12.885  0.1334  0.4685 -0.1714
  152TMC2    C6 2366   0.035   0.894  12.850 -0.2076  0.3214 -0.0705
  152TMC2     C 2367   4.376   0.995  12.816 -0.2779 -0.1603 -0.0614
  152TMC2     O 2368   4.303   0.905  12.796 -0.1216  0.0090  0.6138
  152TMC2     H 2369   4.474   0.767  12.752  1.4382 -1.2445 -0.2443
  152TMC2    H1 2370   4.579   1.162  12.913  1.4840 -0.0960 -0.4141
  152TMC2    H2 2371   0.138   0.861  12.863  0.1822  3.1778  3.8671
  152TMC2    C7 2372   0.091   1.116  12.932  0.3221  0.6817 -0.1184
  152TMC2    C8 2373   4.721   0.675  12.792  0.1803 -0.1714 -0.4140
  152TMC2    O1 2374   0.042   1.219  12.978  0.3558  0.3807  0.2952
  152TMC2    O2 2375   0.070   0.631  12.856  0.4308 -0.7049  0.1654
  152TMC2    O5 2376   4.660   0.626  12.678  0.5949  0.7028  0.2572
  152TMC2    H5 2377   4.615   0.692  12.620  1.4864  0.4161 -0.7518
  153MPD2     C 2378   4.205   1.326  12.841  0.7251 -0.3303  0.4667
  153MPD2    C1 2379   4.223   1.191  12.809  0.2585 -0.0941 -0.7323
  153MPD2    C2 2380   4.108   1.122  12.769 -0.4900  0.5228  0.8644
  153MPD2    C3 2381   3.982   1.180  12.754 -0.0062 -0.3697 -0.7229
  153MPD2    C4 2382   3.965   1.315  12.804 -0.2936  0.3048 -0.0855
  153MPD2    C5 2383   4.080   1.381  12.834 -0.8901  0.0718  0.5635
  153MPD2     H 2384   4.113   1.014  12.756 -0.1168  0.6115  0.2930
  153MPD2    H1 2385   3.869   1.360  12.821  0.4436  1.6011  0.6262
  153MPD2    H2 2386   4.282   1.387  12.887 -1.0526  0.8643  1.8155
  153MPD2    H3 2387   4.075   1.479  12.880  2.1902  0.3952  0.1579
  153MPD2     N 2388   3.869   1.096  12.725 -0.8755  0.0906  0.3995
  153MPD2    H5 2389   3.893   0.999  12.704 -1.4960  0.3239 -1.3496
  153MPD2    N1 2390   4.349   1.131  12.824 -0.2922 -0.0743 -0.5615
  153MPD2    H7 2391   4.421   1.201  12.824 -0.2342 -0.1342  2.1232
  154TMC2    C1 2392   1.174   0.229  17.753 -0.4687 -0.1162 -0.1081
  154TMC2    C2 2393   1.299   0.227   0.047 -0.6306 -0.4699 -0.5390
  154TMC2    C3 2394   1.390   0.126   0.023  0.3664  0.0222  0.1884
  154TMC2    C4 2395   1.138   0.126  17.671  0.7874 -0.1982 -0.2478
  154TMC2    C5 2396   1.225   0.021  17.657 -0.7980  0.0407 -0.0707
  154TMC2    C6 2397   1.348   0.021  17.712 -0.6360  0.0489 -0.0643
  154TMC2     C 2398   1.107   0.356  17.731  0.5094 -0.1909 -0.4300
  154TMC2     O 2399   1.142   0.447   0.048  0.2393  0.5255 -0.2966
  154TMC2     H 2400   1.319   0.293   0.130 -1.0344 -0.0860 -0.7465
  154TMC2    H1 2401   1.040   0.123  17.626 -0.0116  1.3127  1.3759
  154TMC2    H2 2402   1.398   4.666  17.700 -1.2300 -0.0808 -1.5494
  154TMC2    C7 2403   1.165   4.628  17.647 -0.2276  0.2489 -0.3459
  154TMC2    C8 2404   1.505   0.127   0.104  0.3627  0.3524 -0.0731
  154TMC2    O1 2405   1.214   4.549  17.721 -0.5772 -0.0576  0.0369
  154TMC2    O2 2406   1.566   0.028   0.133 -0.0694  0.5318 -0.2858
  154TMC2    O5 2407   1.559   0.243   0.082  0.8162 -0.1207  0.4289
  154TMC2    H5 2408   1.502   0.306   0.032  0.9995 -1.5535 -1.5895
  155MPD2     C 2409   0.920   0.484  17.447 -0.2759 -0.1811  0.4105
  155MPD2    C1 2410   0.970   0.473  17.575 -0.2190 -0.0539 -0.4575
  155MPD2    C2 2411   0.936   0.576  17.660 -0.0661  0.2556 -0.1092
  155MPD2    C3 2412   0.860   0.684  17.623  0.1323 -0.0314  0.1288
  155MPD2    C4 2413   0.821   0.697  17.493 -0.0997  0.2477 -0.5076
  155MPD2    C5 2414   0.844   0.595  17.408 -0.4057  0.4882  0.6854
  155MPD2     H 2415   0.942   0.573   0.007  0.2957 -1.5651 -0.1937
  155MPD2    H1 2416   0.767   0.781  17.450 -2.5297 -1.3220 -0.5108
  155MPD2    H2 2417   0.940   0.403  17.378 -0.9259 -0.0219  0.0281
  155MPD2    H3 2418   0.807   0.608  17.307 -0.4804  0.6275  0.7315
  155MPD2     N 2419   0.825   0.781  17.716  0.4219  0.0836  0.2501
  155MPD2    H5 2420   0.866   0.760   0.044 -0.3004  1.1056  0.8313
  155MPD2    N1 2421   1.047   0.365  17.607  0.0809  0.3075  0.2676
  155MPD2    H7 2422   1.067   0.294  17.537 -1.4246  1.7217 -1.5859
  156TMC2    C1 2423   0.137   2.335  12.275 -0.8268 -0.1168 -0.3583
  156TMC2    C2 2424   0.249   2.266  12.314 -0.2961 -0.0999  0.4308
  156TMC2    C3 2425   0.358   2.277  12.225 -0.2467  0.0137 -0.8496
  156TMC2    C4 2426   0.122   2.396  12.155  0.2399  0.1805 -0.4899
  156TMC2    C5 2427   0.238   2.407  12.079 -0.1762  0.0244 -1.3156
  156TMC2    C6 2428   0.358   2.350  12.112 -0.5654 -0.0183  0.6278
  156TMC2     C 2429   0.023   2.331  12.359  0.0296 -0.4946 -0.4643
  156TMC2     O 2430   4.693   2.428  12.362  0.8113 -0.1581 -0.2202
  156TMC2     H 2431   0.261   2.219  12.410  1.5381 -2.8937 -1.1564
  156TMC2    H1 2432   0.030   2.451  12.137 -0.0556 -0.5853 -1.3324
  156TMC2    H2 2433   0.443   2.373  12.050 -0.3212  0.5431  1.1756
  156TMC2    C7 2434   0.242   2.473  11.953  0.4967  0.4503 -0.4716
  156TMC2    C8 2435   0.482   2.222  12.275 -0.7248  0.1158  0.0268
  156TMC2    O1 2436   0.321   2.436  11.869  0.1092 -0.0192 -0.1524
  156TMC2    O2 2437   0.505   2.206  12.394  0.4494  0.7462  0.2380
  156TMC2    O5 2438   0.550   2.169  12.176  0.3385  0.0397  0.1081
  156TMC2    H5 2439   0.503   2.181  12.091 -0.2897  0.8029  0.5554
  157MPD2     C 2440   4.652   2.062  12.581  0.3436  0.4206  0.4685
  157MPD2    C1 2441   4.642   2.178  12.514 -0.5696 -0.4457  0.4933
  157MPD2    C2 2442   4.530   2.258  12.544 -0.0947  0.3499  0.5028
  157MPD2    C3 2443   4.442   2.221  12.638 -0.4540 -0.0301  0.1278
  157MPD2    C4 2444   4.442   2.100  12.691 -0.3548  0.4575  0.1369
  157MPD2    C5 2445   4.552   2.022  12.661  0.5263 -0.1853  0.2178
  157MPD2     H 2446   4.512   2.354  12.498  0.9448 -0.6527 -1.9787
  157MPD2    H1 2447   4.362   2.061  12.754 -0.4338  0.4316  0.0193
  157MPD2    H2 2448   4.738   1.996  12.581  0.8237  1.0536  1.2658
  157MPD2    H3 2449   4.558   1.923  12.705  0.5066 -0.2315  0.1146
  157MPD2     N 2450   4.325   2.305  12.671 -0.1191  0.5532 -0.5126
  157MPD2    H5 2451   4.319   2.393  12.621  0.8631  0.1742 -1.3250
  157MPD2    N1 2452   0.005   2.213  12.424 -0.7273  0.0701  0.0576
  157MPD2    H7 2453   0.058   2.131  12.395  0.2835  2.0770 -3.7348
  158TMC2    C1 2454   4.401   1.718  13.434  0.2193 -0.3882  0.4788
  158TMC2    C2 2455   4.395   1.847  13.406 -0.3583  0.3650 -0.2731
  158TMC2    C3 2456   4.297   1.914  13.467 -0.6420  0.0968  0.4522
  158TMC2    C4 2457   4.292   1.646  13.480  0.3510  0.1467 -0.0657
  158TMC2    C5 2458   4.184   1.714  13.534 -0.5837  0.0695  0.7478
  158TMC2    C6 2459   4.192   1.848  13.532 -0.5297  0.3988 -0.2562
  158TMC2     C 2460   4.524   1.652  13.416  0.3630  0.1285 -0.8356
  158TMC2     O 2461   4.606   1.713  13.351 -0.2296 -0.0194  0.0755
  158TMC2     H 2462   4.477   1.905  13.367  0.5462 -1.8913 -1.7216
  158TMC2    H1 2463   4.283   1.539  13.465 -0.5409 -0.2245  3.1774
  158TMC2    H2 2464   4.110   1.906  13.573 -2.7263 -1.7922 -1.5527
  158TMC2    C7 2465   4.060   1.645  13.572 -0.5010 -0.0150 -0.3199
  158TMC2    C8 2466   4.315   2.049  13.509  0.6048  0.0039  0.0733
  158TMC2    O1 2467   3.955   1.714  13.568  0.2545  0.2582 -0.2753
  158TMC2    O2 2468   4.276   2.097  13.616 -0.3529 -0.1186  0.4691
  158TMC2    O5 2469   4.347   2.124  13.404  0.3189  0.2393  0.0637
  158TMC2    H5 2470   4.373   2.071  13.325  0.1641 -0.3822  0.4284
  159MPD2     C 2471   0.162   1.330  13.511 -0.0996  0.2074 -0.2524
  159MPD2    C1 2472   0.077   1.326  13.622 -0.5715  0.4324  0.2209
  159MPD2    C2 2473   4.700   1.401  13.610 -0.0221  0.3167 -0.0929
  159MPD2    C3 2474   4.668   1.473  13.499 -0.4540 -0.7303  0.6037
  159MPD2    C4 2475   0.004   1.472  13.384 -0.1407 -0.0006  0.5949
  159MPD2    C5 2476   0.119   1.398  13.393 -0.0282 -0.6750 -0.1731
  159MPD2     H 2477   4.622   1.387  13.684 -1.7106  0.3827 -1.8651
  159MPD2    H1 2478   4.728   1.516  13.286 -1.2812 -1.0489  0.3319
  159MPD2    H2 2479   0.255   1.274  13.504  0.6913  1.3015  1.4257
  159MPD2    H3 2480   0.195   1.401  13.315 -0.5276 -2.2670 -0.7179
  159MPD2     N 2481   4.551   1.549  13.505 -0.2815 -0.3717  0.5171
  159MPD2    H5 2482   4.484   1.521  13.576 -2.0286 -1.6610 -1.6699
  159MPD2    N1 2483   0.095   1.252  13.742  0.7473  0.5478  0.6144
  159MPD2    H7 2484   0.181   1.197  13.745 -0.6270 -1.5370  1.7764
  160TMC2    C1 2485   0.140   0.126   1.190 -0.3864 -0.0559 -0.1305
  160TMC2    C2 2486   0.044   0.038   1.145  0.7493  0.4027  0.1436
  160TMC2    C3 2487   0.087   4.656   1.116  0.3304 -1.0032 -0.3733
  160TMC2    C4 2488   0.266   0.087   1.213 -0.5556  0.1036 -0.7005
  160TMC2    C5 2489   0.301   4.697   1.187  0.0577  0.3426  0.5325
  160TMC2    C6 2490   0.208   4.609   1.153  0.0446  0.1391  0.5982
  160TMC2     C 2491   0.116   0.268   1.212 -0.2039 -0.6576 -0.2492
  160TMC2     O 2492   0.218   0.336   1.220  0.3077  0.5492  0.1860
  160TMC2     H 2493   4.682   0.065   1.129  0.5525 -1.6159 -1.8563
  160TMC2    H1 2494   0.334   0.151   1.269 -0.8632 -0.9391  0.8483
  160TMC2    H2 2495   0.241   4.508   1.134  0.5639  0.0314  2.0620
  160TMC2    C7 2496   0.441   4.659   1.150  0.5729  0.1579  0.3010
  160TMC2    C8 2497   4.730   4.556   1.085 -0.4137  0.2065  0.0391
  160TMC2    O1 2498   0.457   4.542   1.111  0.1806  0.5991  0.3480
  160TMC2    O2 2499   4.676   4.534   0.978 -0.6588  0.5114  0.3855
  160TMC2    O5 2500   4.647   4.574   1.189 -0.2617 -0.5275 -0.0095
  160TMC2    H5 2501   4.692   4.588   1.275 -1.7957  0.2937  0.6511
  161MPD2     C 2502   4.740   0.536   1.144 -0.3796  0.7590 -0.1571
  161MPD2    C1 2503   4.675   0.436   1.209  0.1135  0.3265 -0.4304
  161MPD2    C2 2504   4.547   0.455   1.256  0.2154 -1.0277  0.1414
  161MPD2    C3 2505   4.491   0.579   1.247 -0.1652 -0.1578  0.7617
  161MPD2    C4 2506   4.559   0.681   1.184  1.1993  0.3174 -0.9501
  161MPD2    C5 2507   4.689   0.663   1.144  0.5562  0.1133  0.0760
  161MPD2     H 2508   4.500   0.375   1.312  0.6383  0.9004  3.2236
  161MPD2    H1 2509   4.513   0.779   1.187  1.9473  0.6494 -0.3152
  161MPD2    H2 2510   0.098   0.511   1.109 -0.5990  0.5552 -0.6295
  161MPD2    H3 2511   4.736   0.745   1.090  0.1951 -2.1581 -3.6840
  161MPD2     N 2512   4.372   0.610   1.313  0.1155  0.0924 -0.2356
  161MPD2    H5 2513   4.351   0.708   1.328  0.6619 -0.1609  2.1212
  161MPD2    N1 2514   4.719   0.304   1.211  0.0210 -0.1264 -0.1408
  161MPD2    H7 2515   4.647   0.234   1.227  1.8229 -1.8989  0.3396
  162TMC2    C1 2516   2.143   1.696   1.310 -0.1810  0.5701 -0.5442
  162TMC2    C2 2517   2.044   1.778   1.363 -0.9690  0.2195 -0.2481
  162TMC2    C3 2518   2.001   1.748   1.492 -0.2264 -0.3449 -0.3815
  162TMC2    C4 2519   2.197   1.590   1.382  0.2533  0.0607 -0.9949
  162TMC2    C5 2520   2.138   1.560   1.500  0.0496 -0.0373  0.6885
  162TMC2    C6 2521   2.037   1.634   1.558  0.0013  0.1964  0.5326
  162TMC2     C 2522   2.203   1.723   1.177  0.1297 -0.0454  0.2162
  162TMC2     O 2523   2.309   1.670   1.155 -0.3804  0.2048  0.1378
  162TMC2     H 2524   2.005   1.859   1.303  0.1037 -1.3520 -3.0915
  162TMC2    H1 2525   2.267   1.523   1.333  1.4324 -0.5461  1.5229
  162TMC2    H2 2526   1.998   1.604   1.655  3.8760  0.0401  2.0298
  162TMC2    C7 2527   2.188   1.438   1.567  0.2721  0.5258 -0.4421
  162TMC2    C8 2528   1.880   1.815   1.540 -0.3771  0.7404  0.6427
  162TMC2    O1 2529   2.115   1.375   1.646 -0.1339  0.1637 -0.2854
  162TMC2    O2 2530   1.789   1.841   1.470  0.0201 -0.0597 -0.2380
  162TMC2    O5 2531   1.895   1.860   1.658  0.6558 -0.4499  0.0009
  162TMC2    H5 2532   1.986   1.851   1.692 -0.7418 -3.2679  2.9969
  163MPD2     C 2533   2.129   1.790   0.673  0.9018 -0.2946 -0.7482
  163MPD2    C1 2534   2.247   1.758   0.740  0.3599 -0.0307 -0.1253
  163MPD2    C2 2535   2.248   1.770   0.878 -0.0689  0.6240 -0.3421
  163MPD2    C3 2536   2.126   1.781   0.942  0.1316 -0.6914 -0.7783
  163MPD2    C4 2537   2.010   1.824   0.873 -0.2246 -0.8274  0.4914
  163MPD2    C5 2538   2.015   1.832   0.738 -0.8055 -0.0646 -0.3141
  163MPD2     H 2539   2.339   1.757   0.936 -0.4209  0.7471  0.2392
  163MPD2    H1 2540   1.914   1.837   0.921 -1.4683 -0.7454 -2.0107
  163MPD2    H2 2541   2.133   1.771   0.567  3.3562 -0.2495 -0.6603
  163MPD2    H3 2542   1.928   1.870   0.685 -0.0484 -0.9929 -2.2114
  163MPD2     N 2543   2.109   1.770   1.088 -0.8556  0.3488  0.2240
  163MPD2    H5 2544   2.013   1.769   1.120 -1.0015  0.3673 -0.2128
  163MPD2    N1 2545   2.355   1.727   0.662 -0.5354  0.9338  0.0771
  163MPD2    H7 2546   2.345   1.742   0.562  0.1826 -3.0358 -0.6041
  164TMC2    C1 2547   3.341   1.045  10.710 -0.0321  0.0883  0.3794
  164TMC2    C2 2548   3.448   1.109  10.650  1.1548 -0.0274 -0.3964
  164TMC2    C3 2549   3.444   1.247  10.648  0.1458  0.0693 -0.2992
  164TMC2    C4 2550   3.235   1.117  10.757 -0.2558  0.1403  0.2540
  164TMC2    C5 2551   3.248   1.253  10.753  0.4867 -0.2041 -0.6796
  164TMC2    C6 2552   3.350   1.328  10.708  0.6275  0.2625 -0.4299
  164TMC2     C 2553   3.329   0.897  10.704  0.3396  0.2973  0.5157
  164TMC2     O 2554   3.240   0.846  10.775  0.1446  0.3341 -0.9515
  164TMC2     H 2555   3.542   1.060  10.626  0.1393 -1.3039 -1.7381
  164TMC2    H1 2556   3.150   1.057  10.787 -0.3111 -0.0186 -0.2157
  164TMC2    H2 2557   3.344   1.427  10.665 -1.4927  0.8287  1.1958
  164TMC2    C7 2558   3.140   1.336  10.808  0.4395 -0.5283  0.8627
  164TMC2    C8 2559   3.554   1.317  10.580  0.3609 -0.1671  0.3557
  164TMC2    O1 2560   3.023   1.295  10.797  0.0954  0.2138  0.0816
  164TMC2    O2 2561   3.608   1.282  10.479  0.2469  0.2296  0.2351
  164TMC2    O5 2562   3.601   1.406  10.672  0.0362 -0.7772 -0.9951
  164TMC2    H5 2563   3.558   1.405  10.760  3.7031 -0.2716  0.7800
  165TMC2    C1 2564   4.290   4.029   0.917  0.4846  0.2012  0.4334
  165TMC2    C2 2565   4.289   3.895   0.888  1.2359  0.3745  0.8377
  165TMC2    C3 2566   4.402   3.828   0.885  0.4374  0.5185 -0.7024
  165TMC2    C4 2567   4.406   4.098   0.954 -0.6966 -0.2844 -0.4407
  165TMC2    C5 2568   4.522   4.027   0.931 -0.2251 -0.6261 -0.5236
  165TMC2    C6 2569   4.526   3.887   0.895  0.2104 -0.1550 -0.4227
  165TMC2     C 2570   4.165   4.094   0.942  0.2554 -0.5967 -0.4439
  165TMC2     O 2571   4.172   4.195   1.014 -0.1770  0.2381  0.2305
  165TMC2     H 2572   4.199   3.836   0.879  1.6023 -0.1091  0.3251
  165TMC2    H1 2573   4.402   4.206   0.966 -0.1876 -0.5569  2.0871
  165TMC2    H2 2574   4.619   3.833   0.878 -0.5686 -2.4479  2.6501
  165TMC2    C7 2575   4.647   4.080   0.988  0.2237 -0.4180  0.8547
  165TMC2    C8 2576   4.396   3.684   0.898 -0.2219 -0.1956 -0.0298
  165TMC2    O1 2577   0.006   4.026   0.939 -0.5096 -0.2967  0.1117
  165TMC2    O2 2578   4.304   3.612   0.869  0.1379  0.0320 -0.0810
  165TMC2    O5 2579   4.475   3.650   0.995 -0.2527  0.1028  0.1738
  165TMC2    H5 2580   4.517   3.724   1.044 -0.3812  0.6273 -0.4953
  166MPD2     C 2581   3.667   4.217   0.883 -0.2212  0.3849 -0.3826
  166MPD2    C1 2582   3.741   4.205   0.995  0.2138 -0.1985 -0.1873
  166MPD2    C2 2583   3.878   4.168   0.982  0.5860 -0.1008 -0.3748
  166MPD2    C3 2584   3.930   4.109   0.865 -0.2330  0.5173 -0.3098
  166MPD2    C4 2585   3.851   4.110   0.755 -0.0910  0.7077  0.0680
  166MPD2    C5 2586   3.728   4.167   0.765 -0.1216 -0.0587  1.0953
  166MPD2     H 2587   3.942   4.175   1.069  0.6833  1.8130 -0.5999
  166MPD2    H1 2588   3.890   4.079   0.659 -0.4976  0.0703  0.1110
  166MPD2    H2 2589   3.563   4.248   0.880 -0.2226  0.2587 -1.7423
  166MPD2    H3 2590   3.663   4.172   0.678 -0.8293 -3.4560  1.4343
  166MPD2     N 2591   4.063   4.059   0.857  0.0069  0.6020  0.2860
  166MPD2    H5 2592   4.080   3.994   0.780  0.7933  1.0509  0.0840
  166MPD2    N1 2593   3.697   4.241   1.119 -0.3913 -0.0849 -0.0543
  166MPD2    H7 2594   3.771   4.240   1.189 -0.6175 -2.1011  0.1526
  167TMC2    C1 2595   2.422   1.237  12.647 -0.8029 -0.4563  0.1240
  167TMC2    C2 2596   2.302   1.262  12.704  0.4854 -0.3648 -0.3537
  167TMC2    C3 2597   2.244   1.152  12.767  0.5357 -0.2238  0.3701
  167TMC2    C4 2598   2.480   1.116  12.657  0.1345  1.1874  0.8724
  167TMC2    C5 2599   2.431   1.005  12.718  0.0443  0.1408 -0.1872
  167TMC2    C6 2600   2.311   1.029  12.786 -0.3708  0.2664  0.1276
  167TMC2     C 2601   2.470   1.344  12.561  0.6612  0.5328 -0.2116
  167TMC2     O 2602   2.405   1.449  12.554 -0.1567  0.2002 -0.3696
  167TMC2     H 2603   2.243   1.350  12.683  0.6493  0.3234  2.0213
  167TMC2    H1 2604   2.575   1.096  12.609 -0.8264 -0.4251 -0.3595
  167TMC2    H2 2605   2.267   0.945  12.839  1.2495 -0.7965 -0.2091
  167TMC2    C7 2606   2.489   0.869  12.713  0.2921  0.1282 -0.2107
  167TMC2    C8 2607   2.127   1.178  12.838  0.0144  0.2140  0.6724
  167TMC2    O1 2608   2.446   0.780  12.782  0.2131 -0.6116  0.5835
  167TMC2    O2 2609   2.022   1.113  12.849  0.3886 -0.0142  0.5098
  167TMC2    O5 2610   2.173   1.266  12.930  0.4409  0.0914 -0.0546
  167TMC2    H5 2611   2.267   1.292  12.918 -0.4729  3.1626 -0.7808
  168MPD2     C 2612   2.640   1.539  12.394  0.1837  0.1985  0.2268
  168MPD2    C1 2613   2.642   1.401  12.391 -0.0884  0.1572  0.0344
  168MPD2    C2 2614   2.715   1.346  12.287  0.3602  0.3907 -0.2422
  168MPD2    C3 2615   2.774   1.431  12.193 -0.1286 -0.7153 -0.2803
  168MPD2    C4 2616   2.762   1.565  12.201  0.4669 -0.6613  0.2249
  168MPD2    C5 2617   2.686   1.621  12.302  0.2510  0.1641  0.9004
  168MPD2     H 2618   2.728   1.239  12.275 -0.5792  0.2283  0.2173
  168MPD2    H1 2619   2.801   1.623  12.117  1.5751 -1.7213  0.0145
  168MPD2    H2 2620   2.603   1.592  12.481 -2.0996 -1.3856  0.2304
  168MPD2    H3 2621   2.670   1.728  12.310  2.7404  0.5189  0.9661
  168MPD2     N 2622   2.853   1.375  12.093  0.0073  0.8697 -0.4326
  168MPD2    H5 2623   2.872   1.277  12.114 -2.6014  0.3162 -0.6727
  168MPD2    N1 2624   2.588   1.312  12.490  0.1515  0.6210 -0.1422
  168MPD2    H7 2625   2.612   1.214  12.483  1.6332  0.7560  3.5786
  169MPD1     C 2626   0.950   4.027   9.240 -0.6640  0.2192  0.3991
  169MPD1    C1 2627   1.020   4.113   9.314 -0.6163  0.2417 -0.9361
  169MPD1    C2 2628   0.933   4.211   9.381  0.8775 -0.2945  0.3553
  169MPD1    C3 2629   0.795   4.201   9.386  0.4058  0.1819  0.3633
  169MPD1    C4 2630   0.737   4.101   9.313  0.2182 -0.1518  1.1531
  169MPD1    C5 2631   0.811   4.016   9.240  0.5043 -0.1501  0.2756
  169MPD1     H 2632   0.970   4.297   9.435 -0.5290  0.1129  0.6633
  169MPD1    H1 2633   0.630   4.086   9.300 -0.1034  1.5822  1.7573
  169MPD1    H2 2634   1.002   3.947   9.188 -1.6639 -0.4461  0.4081
  169MPD1    H3 2635   0.755   3.944   9.181 -0.2530 -0.4810  1.3827
  169MPD1     N 2636   0.721   4.308   9.446 -0.2311 -0.1566  0.1989
  169MPD1    H5 2637   0.775   4.381   9.492  0.2866 -0.4101  0.0049
  169MPD1    N1 2638   1.156   4.140   9.292  0.5319  0.0578 -0.2366
  169MPD1    H6 2639   1.200   4.182   9.373  1.9943 -1.0555 -0.4701
  169MPD1    H7 2640   1.204   4.056   9.262 -0.5823 -1.3050  1.8530
  170MPD1     C 2641   3.553   2.947  13.176 -0.5517 -0.4089  0.8401
  170MPD1    C1 2642   3.440   2.999  13.117  0.3204  0.1577  0.2031
  170MPD1    C2 2643   3.357   3.078  13.194 -0.4913  0.5038  1.0215
  170MPD1    C3 2644   3.400   3.117  13.324 -0.3934 -1.0835 -0.0839
  170MPD1    C4 2645   3.519   3.070  13.376  0.4729 -0.0833  0.1925
  170MPD1    C5 2646   3.601   2.991  13.297  0.0365 -0.5161  0.0608
  170MPD1     H 2647   3.264   3.116  13.155  0.4531  1.0353 -0.7253
  170MPD1    H1 2648   3.554   3.085  13.477 -1.3228 -1.6039  1.0508
  170MPD1    H2 2649   3.618   2.874  13.128 -0.3778  0.1108  0.2944
  170MPD1    H3 2650   3.694   2.951  13.335  1.7047  1.8182 -1.5432
  170MPD1     N 2651   3.329   3.219  13.397 -0.3845 -0.5760  0.1726
  170MPD1    H5 2652   3.245   3.253  13.351  0.1740  2.0725  1.1460
  170MPD1    N1 2653   3.397   2.955  12.989  0.7210  0.1693 -0.0405
  170MPD1    H6 2654   3.469   2.947  12.918  1.7991 -1.9968  1.2818
  170MPD1    H7 2655   3.321   3.013  12.955 -0.8277  0.2147  3.4962
  171MPD1     C 2656   2.504   0.331  15.476  0.8029  0.3821 -0.7924
  171MPD1    C1 2657   2.433   0.237  15.406 -1.0447 -0.0748 -0.3497
  171MPD1    C2 2658   2.362   0.150  15.482 -0.2915 -0.0758  0.9215
  171MPD1    C3 2659   2.376   0.137  15.621  0.4124 -0.1135 -0.2398
  171MPD1    C4 2660   2.457   0.235  15.686 -0.2274  0.0918  0.2676
  171MPD1    C5 2661   2.517   0.326  15.609  0.5447 -0.0863 -0.5393
  171MPD1     H 2662   2.292   0.087  15.428  0.1918 -0.8768  1.2267
  171MPD1    H1 2663   2.456   0.235  15.794 -0.2631 -0.1851  0.2655
  171MPD1    H2 2664   2.571   0.394  15.418 -1.3381  1.3066 -2.2791
  171MPD1    H3 2665   2.577   0.402  15.658  1.7983 -2.3780  1.4180
  171MPD1     N 2666   2.316   0.031  15.698 -0.4226 -0.3720  0.1679
  171MPD1    H5 2667   2.340   0.027  15.797 -3.9257 -0.1326  1.0407
  171MPD1    N1 2668   2.404   0.246  15.267  0.0898 -0.0213  0.4752
  171MPD1    H6 2669   2.385   0.155  15.226 -0.8848 -0.6769  2.4087
  171MPD1    H7 2670   2.472   0.287  15.203 -0.1017 -1.7715 -0.8513
  172MPD1     C 2671   1.446   3.601   0.235 -0.3253 -0.3041 -0.5296
  172MPD1    C1 2672   1.415   3.703   0.154 -0.2062 -0.5715 -0.5527
  172MPD1    C2 2673   1.443   3.831   0.195 -0.0256  0.0333  0.2706
  172MPD1    C3 2674   1.505   3.850   0.316  0.8007 -1.0261 -0.0918
  172MPD1    C4 2675   1.540   3.745   0.397  0.2179  0.5951  0.0226
  172MPD1    C5 2676   1.507   3.622   0.350 -0.2123 -0.1324  0.1303
  172MPD1     H 2677   1.444   3.902   0.114  1.6500  2.1267  2.1366
  172MPD1    H1 2678   1.585   3.766   0.493  1.4774  1.1066 -0.6742
  172MPD1    H2 2679   1.418   3.499   0.211  0.3237 -0.2433 -1.5251
  172MPD1    H3 2680   1.534   3.542   0.418 -0.5324  0.3894  0.8681
  172MPD1     N 2681   1.554   3.979   0.342 -0.1000  0.3261 -0.0241
  172MPD1    H5 2682   1.617   3.995   0.420  0.1662 -1.7371  0.1709
  172MPD1    N1 2683   1.360   3.695   0.023 -0.2501 -0.3188  0.4805
  172MPD1    H6 2684   1.312   3.607   0.008  0.9953 -0.6917 -1.3076
  172MPD1    H7 2685   1.291   3.767   0.001  1.2438  0.7827 -0.5305
  173MPD1     C 2686   2.697   4.064  14.259 -0.5974 -0.2628  0.0289
  173MPD1    C1 2687   2.789   3.975  14.294  0.0442  0.2373  0.0977
  173MPD1    C2 2688   2.753   3.878  14.385  0.7652  0.9553 -0.1679
  173MPD1    C3 2689   2.629   3.886  14.454 -0.3643  0.6808  0.0576
  173MPD1    C4 2690   2.536   3.972  14.407 -0.0874  0.0198  0.2312
  173MPD1    C5 2691   2.577   4.061  14.314  0.5780 -0.2589 -0.5910
  173MPD1     H 2692   2.824   3.801  14.414 -2.7867 -1.5044  2.0832
  173MPD1    H1 2693   2.432   3.973  14.441 -0.0954 -1.0866  0.2526
  173MPD1    H2 2694   2.717   4.150  14.195 -0.0291  1.3273  2.3548
  173MPD1    H3 2695   2.507   4.134  14.275 -0.4247 -1.0250 -0.2435
  173MPD1     N 2696   2.603   3.784  14.555 -0.2306  0.7446 -0.7157
  173MPD1    H5 2697   2.685   3.725  14.566 -1.8442 -1.1376  1.1745
  173MPD1    N1 2698   2.910   3.962  14.227  0.7924  0.0135  0.2189
  173MPD1    H6 2699   2.951   4.054  14.208 -0.5440  0.9860  2.0651
  173MPD1    H7 2700   2.979   3.922  14.290  0.7354 -1.6398 -0.7831
  174MPD1     C 2701   2.679   2.826  14.641 -0.6929 -0.3976  0.5493
  174MPD1    C1 2702   2.767   2.933  14.638 -0.2679  0.0338 -0.7626
  174MPD1    C2 2703   2.714   3.057  14.647 -0.3968  0.4067  0.7729
  174MPD1    C3 2704   2.589   3.078  14.688  0.5599  0.3909 -0.6261
  174MPD1    C4 2705   2.513   2.974  14.713  0.2018  0.0012  0.5372
  174MPD1    C5 2706   2.557   2.847  14.694 -0.1784 -0.0376 -0.0766
  174MPD1     H 2707   2.777   3.141  14.620 -0.4605  0.7738  1.7575
  174MPD1    H1 2708   2.409   2.983  14.743 -0.4715 -0.6947 -1.5644
  174MPD1    H2 2709   2.715   2.724  14.638  0.4139  0.0293 -0.4112
  174MPD1    H3 2710   2.495   2.758  14.699  0.9989 -0.8328  0.2862
  174MPD1     N 2711   2.534   3.203  14.723  0.4614  0.8352  0.3640
  174MPD1    H5 2712   2.436   3.208  14.751 -0.6402  2.9268 -3.8830
  174MPD1    N1 2713   2.891   2.909  14.578  0.0555  0.4467  0.1196
  174MPD1    H6 2714   2.922   2.813  14.596  0.6840  0.1204 -2.7128
  174MPD1    H7 2715   2.963   2.975  14.607  0.9868  0.2566 -1.7347
  175MPD1     C 2716   0.960   4.581  15.134 -0.0231 -0.3545 -0.5046
  175MPD1    C1 2717   1.053   4.491  15.182  0.8953  0.3944  0.0088
  175MPD1    C2 2718   1.049   4.470  15.319  0.3415 -0.4910  0.3450
  175MPD1    C3 2719   0.982   4.552  15.406 -0.3157 -0.3189 -0.1449
  175MPD1    C4 2720   0.896   4.654  15.357  0.0896 -0.0404  0.4275
  175MPD1    C5 2721   0.893   4.664  15.222  0.2148 -0.2800  0.1729
  175MPD1     H 2722   1.107   4.387  15.359 -0.1779 -1.2542 -0.4917
  175MPD1    H1 2723   0.841   4.716  15.427  0.5559 -1.1549  1.7816
  175MPD1    H2 2724   0.944   4.592  15.027  1.1085  2.0677 -0.4267
  175MPD1    H3 2725   0.825   4.738  15.181  0.6659 -0.2771 -0.5779
  175MPD1     N 2726   0.983   4.548  15.549  0.6231 -0.1817  0.1301
  175MPD1    H5 2727   0.929   4.620  15.595 -1.5472 -1.8237  0.1607
  175MPD1    N1 2728   1.102   4.395  15.094 -0.3338 -0.1091  0.1007
  175MPD1    H6 2729   1.188   4.364  15.138  1.1172 -0.2345 -2.8344
  175MPD1    H7 2730   1.119   4.427  14.999  0.8925 -1.0236  0.0164
  176MPD1     C 2731   2.395   1.643  17.724 -0.2180 -0.6816 -0.1711
  176MPD1    C1 2732   2.309   1.755  17.704  0.3144 -0.6804 -0.0150
  176MPD1    C2 2733   2.302   1.803  17.575 -0.2337  0.0665 -0.0055
  176MPD1    C3 2734   2.395   1.763  17.483 -0.2680  0.1366 -0.2116
  176MPD1    C4 2735   2.486   1.658  17.509  0.3770 -0.2186 -0.3336
  176MPD1    C5 2736   2.495   1.601  17.634 -0.4574 -0.2031 -0.0611
  176MPD1     H 2737   2.236   1.884  17.547 -0.8793 -0.4182  0.1060
  176MPD1    H1 2738   2.557   1.620  17.437 -1.5851  2.9581 -3.8988
  176MPD1    H2 2739   2.393   1.603   0.063 -1.5437 -0.5390 -0.1397
  176MPD1    H3 2740   2.573   1.530  17.657  0.1319  0.6988  0.7040
  176MPD1     N 2741   2.386   1.826  17.361 -0.6417  0.0246  0.0200
  176MPD1    H5 2742   2.306   1.887  17.348 -0.9269 -0.5391 -0.8824
  176MPD1    N1 2743   2.200   1.783   0.029  0.0038  0.4860 -0.5666
  176MPD1    H6 2744   2.165   1.876   0.009  1.6070  0.8846 -1.5192
  176MPD1    H7 2745   2.207   1.756   0.127 -1.3228  0.7584 -0.3987
  177MPD1     C 2746   1.462   1.134   9.874  0.6153  0.4558  0.3750
  177MPD1    C1 2747   1.420   1.042   9.778  1.4133  0.2027  0.6378
  177MPD1    C2 2748   1.380   1.094   9.657  0.1004 -0.5471 -0.5163
  177MPD1    C3 2749   1.362   1.224   9.630 -0.5589  0.0825  0.6083
  177MPD1    C4 2750   1.414   1.309   9.717 -0.5727 -0.4187 -0.1545
  177MPD1    C5 2751   1.467   1.267   9.839  0.2331 -0.2395  0.7712
  177MPD1     H 2752   1.343   1.024   9.583  0.3967  1.1047 -2.2033
  177MPD1    H1 2753   1.413   1.418   9.709  1.5417 -0.2496  2.0603
  177MPD1    H2 2754   1.494   1.108   9.974  2.8290  0.3180 -0.3790
  177MPD1    H3 2755   1.506   1.330   9.918  0.2147 -1.1766  1.5274
  177MPD1     N 2756   1.302   1.264   9.507 -0.5644 -0.7222 -0.0055
  177MPD1    H5 2757   1.268   1.184   9.455 -2.0463  1.4702 -2.4163
  177MPD1    N1 2758   1.413   0.903   9.805 -0.7045  0.0088 -0.5932
  177MPD1    H6 2759   1.429   0.837   9.730 -0.2797  0.1933 -0.6668
  177MPD1    H7 2760   1.483   0.879   9.875  0.7999 -1.8500 -2.7694
  178MPD1     C 2761   3.340   2.547   0.355  0.0255 -0.3959 -0.3329
  178MPD1    C1 2762   3.479   2.556   0.365  0.4516 -0.2683  0.3180
  178MPD1    C2 2763   3.549   2.592   0.248  1.0286  0.4808  0.4153
  178MPD1    C3 2764   3.484   2.635   0.137  0.8225  0.8362 -0.6152
  178MPD1    C4 2765   3.342   2.633   0.133 -0.0620 -0.2733 -0.1952
  178MPD1    C5 2766   3.272   2.585   0.239  0.1660  0.3409  0.2836
  178MPD1     H 2767   3.658   2.589   0.242  0.9818  2.4758 -1.5156
  178MPD1    H1 2768   3.284   2.665   0.047 -0.7238 -1.8022 -0.3116
  178MPD1    H2 2769   3.282   2.518   0.442 -2.1149  0.9813 -1.2974
  178MPD1    H3 2770   3.164   2.584   0.234  0.2089 -2.5000 -0.0038
  178MPD1     N 2771   3.552   2.670   0.014 -0.1160 -0.1939 -0.8243
  178MPD1    H5 2772   3.497   2.684  17.691 -0.8552 -0.3353 -0.3668
  178MPD1    N1 2773   3.540   2.506   0.480  0.7069 -0.2906 -0.5415
  178MPD1    H6 2774   3.496   2.547   0.561  0.6360  1.4396 -1.4567
  178MPD1    H7 2775   3.641   2.518   0.484  0.8178 -2.2698  2.5664
  179MPD1     C 2776   3.060   1.518  15.823  0.2080 -0.3075 -0.3827
  179MPD1    C1 2777   3.161   1.459  15.892 -0.1402 -0.1875  0.2808
  179MPD1    C2 2778   3.151   1.328  15.926  0.0920  0.4494 -0.3749
  179MPD1    C3 2779   3.041   1.248  15.884  0.0853 -0.2888  0.2219
  179MPD1    C4 2780   2.939   1.311  15.817 -0.5521 -0.2362  0.3824
  179MPD1    C5 2781   2.955   1.436  15.782  0.1212  0.7990 -0.1201
  179MPD1     H 2782   3.237   1.283  15.975  1.2392  0.1971 -2.6096
  179MPD1    H1 2783   2.857   1.258  15.770  1.3556 -0.2802 -2.8608
  179MPD1    H2 2784   3.058   1.618  15.783  0.5721 -0.3361 -0.4755
  179MPD1    H3 2785   2.880   1.480  15.717  0.1213 -0.7399 -1.1820
  179MPD1     N 2786   3.025   1.106  15.897 -0.2091 -0.0639  0.0053
  179MPD1    H5 2787   2.931   1.070  15.891 -0.3663  0.7478 -2.2391
  179MPD1    N1 2788   3.254   1.530  15.965 -0.7414 -0.0349 -0.3804
  179MPD1    H6 2789   3.330   1.468  15.994  0.7012  1.7832 -0.2683
  179MPD1    H7 2790   3.294   1.611  15.917 -0.2340 -0.8389 -1.3242
  180MPD1     C 2791   2.828   2.052  15.555  0.2002 -0.7087  0.4704
  180MPD1    C1 2792   2.932   2.052  15.465 -0.0414 -0.4614  0.0568
  180MPD1    C2 2793   2.892   2.088  15.338 -0.7425  0.2815 -0.2287
  180MPD1    C3 2794   2.774   2.153  15.307  0.0235 -0.3704  0.3800
  180MPD1    C4 2795   2.671   2.155  15.401  0.9872 -0.5417 -0.6343
  180MPD1    C5 2796   2.701   2.112  15.529 -0.2043  1.1207 -0.1473
  180MPD1     H 2797   2.966   2.082  15.259 -1.6082  0.9565 -1.0866
  180MPD1    H1 2798   2.576   2.206  15.388 -0.1961 -2.5807  0.0967
  180MPD1    H2 2799   2.851   2.031  15.659  1.2071 -0.6962  0.2492
  180MPD1    H3 2800   2.625   2.120  15.607  1.1494  0.9264  1.1834
  180MPD1     N 2801   2.760   2.209  15.178  0.2699 -0.3139  0.1879
  180MPD1    H5 2802   2.841   2.203  15.118 -0.5164 -0.6600 -0.8382
  180MPD1    N1 2803   3.053   1.981  15.487  0.0434 -0.2670 -0.4364
  180MPD1    H6 2804   3.092   1.987  15.581  0.5708  0.2555 -0.6962
  180MPD1    H7 2805   3.122   2.019  15.423  0.6914  0.0390  0.4424
  181MPD1     C 2806   4.193   4.148  10.014 -0.2526 -0.2253 -0.2329
  181MPD1    C1 2807   4.205   4.252  10.105 -0.5979 -0.0848 -0.3051
  181MPD1    C2 2808   4.310   4.236  10.198 -0.4735  0.2597  0.1189
  181MPD1    C3 2809   4.375   4.120  10.218 -0.9611 -0.1242 -0.0716
  181MPD1    C4 2810   4.344   4.016  10.137 -0.1315  0.2548 -0.3001
  181MPD1    C5 2811   4.250   4.026  10.038  0.6088  0.6971  0.2628
  181MPD1     H 2812   4.334   4.327  10.252  0.7305 -0.7095  1.2004
  181MPD1    H1 2813   4.412   3.931  10.140  0.0059  0.4115  1.6048
  181MPD1    H2 2814   4.115   4.145   9.938  0.1762 -0.5228 -0.6573
  181MPD1    H3 2815   4.233   3.947   9.966  1.2461  0.9024 -0.1111
  181MPD1     N 2816   4.481   4.100  10.308  0.5827  0.0576 -0.0692
  181MPD1    H5 2817   4.538   4.016  10.305 -0.8934 -0.9029 -1.5376
  181MPD1    N1 2818   4.136   4.373  10.090 -0.0543  0.9398  0.7542
  181MPD1    H6 2819   4.050   4.362  10.037  0.6315 -0.1686 -0.1286
  181MPD1    H7 2820   4.122   4.431  10.173  2.1020  0.4360  1.4760
  182MPD1     C 2821   0.371   4.172   1.951 -0.4512 -1.3597 -0.7612
  182MPD1    C1 2822   0.439   4.075   1.877  0.1073  0.4669 -0.0803
  182MPD1    C2 2823   0.386   4.026   1.760 -0.5057 -0.3332 -0.0768
  182MPD1    C3 2824   0.283   4.089   1.696 -0.1090  0.2275  0.3183
  182MPD1    C4 2825   0.218   4.195   1.766 -0.3082  0.4799 -0.2217
  182MPD1    C5 2826   0.261   4.229   1.893  0.5536 -0.1621  0.5359
  182MPD1     H 2827   0.433   3.939   1.715  1.5683 -0.1671  1.7826
  182MPD1    H1 2828   0.129   4.237   1.722 -0.7585  1.1459  1.3585
  182MPD1    H2 2829   0.391   4.202   2.053  1.7719  1.7740 -2.0971
  182MPD1    H3 2830   0.205   4.289   1.964  0.4865  0.0384  0.3138
  182MPD1     N 2831   0.223   4.044   1.578  0.3941 -0.2583  0.0467
  182MPD1    H5 2832   0.124   4.061   1.561  0.1341 -1.7928  0.0001
  182MPD1    N1 2833   0.550   4.007   1.932  0.6629 -0.6007 -0.2026
  182MPD1    H6 2834   0.596   4.069   1.998  1.7822 -0.3524 -1.2149
  182MPD1    H7 2835   0.612   3.985   1.855  1.0415  0.4186 -0.1909
  183MPD1     C 2836   0.486   3.658   9.120  0.5960 -0.5075  0.5995
  183MPD1    C1 2837   0.445   3.748   9.216  0.4729  0.3720 -0.0926
  183MPD1    C2 2838   0.529   3.787   9.322  0.5165  0.1087  0.0293
  183MPD1    C3 2839   0.644   3.719   9.345  0.1094 -0.2699  0.9771
  183MPD1    C4 2840   0.685   3.618   9.255  0.0240  0.6348 -0.0276
  183MPD1    C5 2841   0.603   3.590   9.149  0.4796 -0.1330  0.7580
  183MPD1     H 2842   0.517   3.879   9.377  2.6700  1.2452 -1.3998
  183MPD1    H1 2843   0.775   3.558   9.266 -0.3337  0.4549  1.7990
  183MPD1    H2 2844   0.430   3.624   9.034  0.6466  1.9975 -0.4401
  183MPD1    H3 2845   0.644   3.530   9.068 -1.5603  0.1193 -0.4535
  183MPD1     N 2846   0.725   3.764   9.458 -0.2806  0.2338 -0.4105
  183MPD1    H5 2847   0.694   3.849   9.503  1.4779  0.4657  0.3536
  183MPD1    N1 2848   0.329   3.822   9.185 -0.3295 -0.5814  0.2043
  183MPD1    H6 2849   0.274   3.859   9.263 -0.0810  1.4540 -0.5772
  183MPD1    H7 2850   0.265   3.776   9.121 -0.2666 -0.5708  0.1344
  184MPD1     C 2851   0.321   0.761   9.727 -0.1866 -0.2636  1.3620
  184MPD1    C1 2852   0.274   0.723   9.605 -0.7415  1.0046  0.2319
  184MPD1    C2 2853   0.317   0.791   9.495  0.0905  0.0355 -0.3146
  184MPD1    C3 2854   0.398   0.901   9.500 -0.0002  0.0829 -0.4856
  184MPD1    C4 2855   0.445   0.940   9.621 -0.3357 -0.1308 -0.0419
  184MPD1    C5 2856   0.413   0.867   9.736  0.9236 -0.2106 -0.3540
  184MPD1     H 2857   0.279   0.767   9.396 -2.2579  0.8010  0.4087
  184MPD1    H1 2858   0.525   1.013   9.635  0.8811 -1.0924 -2.1624
  184MPD1    H2 2859   0.288   0.721   9.822 -0.3306  0.5114  1.6405
  184MPD1    H3 2860   0.435   0.909   9.833  2.5519 -0.9253 -0.4197
  184MPD1     N 2861   0.433   0.975   9.384  0.1529 -0.7409  0.8424
  184MPD1    H5 2862   0.508   1.041   9.402  0.4324 -0.4972 -1.2692
  184MPD1    N1 2863   0.177   0.622   9.597  0.0004 -0.4598 -0.2854
  184MPD1    H6 2864   0.199   0.552   9.668 -0.0657 -0.4992 -0.3044
  184MPD1    H7 2865   0.183   0.565   9.513  3.0871  1.4557 -1.3912
  185MPD1     C 2866   0.233   0.771   8.391  0.0683  0.8589 -0.6400
  185MPD1    C1 2867   0.275   0.899   8.399 -0.4335  0.5088 -0.8907
  185MPD1    C2 2868   0.325   0.953   8.517 -0.0419 -0.1245 -0.3181
  185MPD1    C3 2869   0.340   0.876   8.634 -0.6661  0.2999 -0.0603
  185MPD1    C4 2870   0.296   0.745   8.615  0.1791  0.3249  0.6902
  185MPD1    C5 2871   0.248   0.692   8.499 -0.4993 -0.0974 -0.4353
  185MPD1     H 2872   0.347   1.059   8.521  0.9257 -0.3036 -1.0519
  185MPD1    H1 2873   0.304   0.677   8.699 -0.3882  0.3989  0.8055
  185MPD1    H2 2874   0.201   0.728   8.297 -0.5057  3.0340 -1.4606
  185MPD1    H3 2875   0.221   0.587   8.504 -0.5431 -0.0887 -0.4873
  185MPD1     N 2876   0.397   0.923   8.755  0.4567 -0.3701  0.4794
  185MPD1    H5 2877   0.421   0.852   8.824 -0.9119  0.5619  1.9300
  185MPD1    N1 2878   0.285   0.968   8.275 -0.0124  0.3228  0.1847
  185MPD1    H6 2879   0.285   1.070   8.273  1.2627  0.3274 -0.0025
  185MPD1    H7 2880   0.226   0.922   8.206 -0.3951  2.3596 -0.8527
  186MPD1     C 2881   4.045   0.861  16.157 -0.5253  0.3676 -0.5429
  186MPD1    C1 2882   3.958   0.810  16.247 -0.1446 -0.1889  0.2704
  186MPD1    C2 2883   3.886   0.894  16.326  0.0596 -0.5530  0.4276
  186MPD1    C3 2884   3.870   1.026  16.282 -0.4834 -0.3454 -0.0725
  186MPD1    C4 2885   3.942   1.074  16.178  0.4295  0.6596  0.1469
  186MPD1    C5 2886   4.035   0.989  16.123 -0.1343  0.8835 -0.2811
  186MPD1     H 2887   3.826   0.857  16.408  0.6369 -0.1339  1.0454
  186MPD1    H1 2888   3.931   1.177  16.146 -0.8402  0.6848  0.6477
  186MPD1    H2 2889   4.114   0.795  16.106  2.0140  1.3993  1.5334
  186MPD1    H3 2890   4.110   1.024  16.052 -1.7793  0.8984 -2.0146
  186MPD1     N 2891   3.787   1.117  16.336 -0.1425  0.2690 -0.4765
  186MPD1    H5 2892   3.795   1.210  16.295 -2.8578  0.4645 -0.5654
  186MPD1    N1 2893   3.969   0.672  16.276  0.2521  0.0520 -0.0927
  186MPD1    H6 2894   3.978   0.618  16.190 -0.3503  0.0387 -0.1513
  186MPD1    H7 2895   3.892   0.635  16.331  0.3626  0.9653  0.6699
  187MPD1     C 2896   3.258   3.251   0.219 -0.5415  0.0883  0.5560
  187MPD1    C1 2897   3.252   3.116   0.179  0.2252  0.2257 -0.1900
  187MPD1    C2 2898   3.211   3.092   0.049  0.1212 -0.1744 -0.5058
  187MPD1    C3 2899   3.171   3.191  17.728 -0.0508  0.0111 -0.4574
  187MPD1    C4 2900   3.173   3.320   0.009 -0.2606 -0.2366 -0.0771
  187MPD1    C5 2901   3.210   3.350   0.139  0.4608 -0.1716  0.2971
  187MPD1     H 2902   3.202   2.991   0.012 -0.3316  0.0637 -1.0484
  187MPD1    H1 2903   3.147   3.401  17.704 -0.1195 -0.1559 -0.0355
  187MPD1    H2 2904   3.315   3.287   0.304 -0.1063  1.1390 -0.1735
  187MPD1    H3 2905   3.207   3.456   0.161 -1.0342 -0.2595  0.5417
  187MPD1     N 2906   3.125   3.165  17.598 -0.3401 -0.1808  0.3967
  187MPD1    H5 2907   3.107   3.245  17.538 -0.0381  0.5609  1.2987
  187MPD1    N1 2908   3.317   3.017   0.254  0.6008 -0.0255  0.6869
  187MPD1    H6 2909   3.270   2.927   0.241  0.1983  0.0967  1.2665
  187MPD1    H7 2910   3.323   3.039   0.354 -0.2980 -0.2546  0.7983
  188MPD1     C 2911   2.909   3.069   9.886 -0.3103  0.5649  0.0179
  188MPD1    C1 2912   2.949   2.977   9.982  0.2506 -0.2533  0.2874
  188MPD1    C2 2913   2.951   2.845   9.957 -0.4102 -0.5224  0.0218
  188MPD1    C3 2914   2.897   2.793   9.839 -0.8620  0.0646  0.5095
  188MPD1    C4 2915   2.860   2.884   9.740  0.4093  0.3491  0.7097
  188MPD1    C5 2916   2.866   3.020   9.763  0.1048 -0.3089  0.0213
  188MPD1     H 2917   2.995   2.778  10.030 -0.3930  0.1350  0.6109
  188MPD1    H1 2918   2.815   2.858   9.645  0.1063 -1.1677  1.2712
  188MPD1    H2 2919   2.921   3.177   9.895  0.1135  0.5744 -0.6329
  188MPD1    H3 2920   2.847   3.084   9.678 -1.3600 -1.1811 -0.3144
  188MPD1     N 2921   2.902   2.656   9.804 -0.2929 -0.9722  0.0354
  188MPD1    H5 2922   2.867   2.636   9.710 -0.9429  0.0405  0.0708
  188MPD1    N1 2923   3.007   3.022  10.096 -0.0746  0.3503 -0.1901
  188MPD1    H6 2924   3.029   2.954  10.168 -1.5492 -0.8894 -0.9055
  188MPD1    H7 2925   2.965   3.104  10.139 -1.8504 -0.8783  0.4167
  189MPD1     C 2926   0.127   3.817   0.205 -0.1222 -0.5955  1.4238
  189MPD1    C1 2927   0.019   3.736   0.209  0.5361 -0.5098 -0.0616
  189MPD1    C2 2928   4.637   3.797   0.204  0.6746  0.0051  0.0633
  189MPD1    C3 2929   4.616   3.933   0.210 -0.4512  1.2358  0.2412
  189MPD1    C4 2930   4.722   4.011   0.213 -1.0104 -0.5039  0.8980
  189MPD1    C5 2931   0.107   3.952   0.193 -0.0103  0.0099 -0.3281
  189MPD1     H 2932   4.548   3.736   0.193  0.8138 -0.1278 -0.3355
  189MPD1    H1 2933   4.720   4.119   0.209 -0.5186 -0.6115 -2.5102
  189MPD1    H2 2934   0.226   3.775   0.215  0.9036  1.4398 -0.1453
  189MPD1    H3 2935   0.197   4.013   0.197  0.2400 -0.3356 -0.7118
  189MPD1     N 2936   4.484   3.980   0.202 -0.0333 -0.0068 -0.5793
  189MPD1    H5 2937   4.406   3.916   0.197 -0.9994  1.0516  0.9830
  189MPD1    N1 2938   0.035   3.596   0.188  0.2057  0.1315 -0.7380
  189MPD1    H6 2939   0.121   3.562   0.229  1.0229 -0.2809 -2.7750
  189MPD1    H7 2940   4.695   3.551   0.232  1.8280 -0.0879  2.0022
  190MPD1     C 2941   2.641   2.370  15.735  0.7376  0.1980  0.1310
  190MPD1    C1 2942   2.652   2.258  15.811  0.5391  0.5912  1.0861
  190MPD1    C2 2943   2.778   2.201  15.828  0.1704  0.7806  0.5974
  190MPD1    C3 2944   2.891   2.260  15.765  0.2239  0.6466  0.6273
  190MPD1    C4 2945   2.873   2.367  15.682  0.8438 -0.7058  0.3338
  190MPD1    C5 2946   2.748   2.416  15.663 -0.0991 -0.4799 -0.2579
  190MPD1     H 2947   2.798   2.119  15.896  1.2245  0.8605  0.3792
  190MPD1    H1 2948   2.955   2.405  15.622  1.5872  0.3140  2.0122
  190MPD1    H2 2949   2.551   2.427  15.715  0.7936 -0.0819 -0.9297
  190MPD1    H3 2950   2.748   2.496  15.590  0.4098 -1.4427 -1.3193
  190MPD1     N 2951   3.020   2.220  15.805  0.2432 -0.5127 -0.4735
  190MPD1    H5 2952   3.021   2.155  15.883 -1.2648  1.5591  1.2358
  190MPD1    N1 2953   2.539   2.218  15.887  0.3807  0.0092 -0.2352
  190MPD1    H6 2954   2.529   2.119  15.908 -1.4270  0.2632  0.1621
  190MPD1    H7 2955   2.450   2.251  15.851  2.6845  2.1943 -3.9202
  191MPD1     C 2956   2.378   3.946  13.189  0.1858  0.2390 -0.1569
  191MPD1    C1 2957   2.430   3.943  13.062 -0.3427 -0.0070 -0.3111
  191MPD1    C2 2958   2.365   4.014  12.965 -0.1255  0.2397  0.9179
  191MPD1    C3 2959   2.246   4.081  12.982  0.6542 -0.1100 -0.4350
  191MPD1    C4 2960   2.195   4.084  13.111 -0.4559  1.3708  0.0861
  191MPD1    C5 2961   2.261   4.012  13.212  0.5129 -1.0101  0.2191
  191MPD1     H 2962   2.414   4.022  12.869 -1.3470  0.6557  0.3265
  191MPD1    H1 2963   2.113   4.145  13.146  0.6440  1.3852  2.6156
  191MPD1    H2 2964   2.424   3.899  13.275 -0.2695 -0.4521 -0.2913
  191MPD1    H3 2965   2.227   4.019  13.315  1.2269  1.7167  0.2912
  191MPD1     N 2966   2.200   4.150  12.870 -0.6915  1.4227 -0.3989
  191MPD1    H5 2967   2.249   4.138  12.782 -2.2711 -1.5936 -0.8604
  191MPD1    N1 2968   2.560   3.887  13.043 -0.0549  0.0666 -0.2234
  191MPD1    H6 2969   2.601   3.826  13.113 -0.3107 -2.5035 -2.2955
  191MPD1    H7 2970   2.593   3.879  12.947  0.8403 -0.3994  0.1235
  192MPD1     C 2971   1.704   0.334  12.822  1.0445  0.1681  0.0716
  192MPD1    C1 2972   1.661   0.254  12.723 -0.1126  0.6245 -1.0031
  192MPD1    C2 2973   1.734   0.141  12.693 -0.3391  0.0487  0.6559
  192MPD1    C3 2974   1.831   0.094  12.776  0.3345 -0.2450  0.7554
  192MPD1    C4 2975   1.871   0.166  12.877  0.3683 -0.2398 -0.1174
  192MPD1    C5 2976   1.807   0.287  12.903 -0.4093  0.0825 -0.2219
  192MPD1     H 2977   1.718   0.090  12.599  3.8045 -0.9803  0.5328
  192MPD1    H1 2978   1.943   0.130  12.950 -0.4242 -1.0618  0.2573
  192MPD1    H2 2979   1.653   0.426  12.847 -0.3453 -0.9867  1.4666
  192MPD1    H3 2980   1.828   0.344  12.992  2.5758  0.5549 -1.2149
  192MPD1     N 2981   1.912   4.717  12.746 -0.7115  0.4573 -0.4739
  192MPD1    H5 2982   1.984   4.709  12.817 -0.7235  3.0084 -0.1601
  192MPD1    N1 2983   1.556   0.299  12.636 -0.0131 -0.5126  0.0861
  192MPD1    H6 2984   1.513   0.223  12.584 -1.2931  0.9901 -1.0273
  192MPD1    H7 2985   1.488   0.367  12.669 -0.1271 -1.0891  1.0396
  193MPD1     C 2986   2.426   4.352  17.448  0.8196  0.0390  0.1267
  193MPD1    C1 2987   2.367   4.267  17.356  0.1506 -0.1147  0.4516
  193MPD1    C2 2988   2.379   4.301  17.220  0.0410 -0.6563  0.8349
  193MPD1    C3 2989   2.465   4.394  17.178  0.1747 -0.1101 -0.3182
  193MPD1    C4 2990   2.529   4.470  17.270 -0.2188 -0.4751  0.5173
  193MPD1    C5 2991   2.512   4.455  17.407  0.0385  0.9353  0.9433
  193MPD1     H 2992   2.318   4.250  17.146  2.4434 -3.0399  0.4700
  193MPD1    H1 2993   2.594   4.552  17.241  1.4727 -1.3601  1.7515
  193MPD1    H2 2994   2.426   4.325  17.553 -0.6518 -0.8468 -0.1041
  193MPD1    H3 2995   2.557   4.526  17.476 -1.1150  1.8618  0.7573
  193MPD1     N 2996   2.490   4.419  17.039  0.1297 -0.0632 -0.3774
  193MPD1    H5 2997   2.534   4.509  17.024 -1.5068  0.8954  0.5840
  193MPD1    N1 2998   2.266   4.181  17.398  0.1161 -0.1586 -0.8556
  193MPD1    H6 2999   2.216   4.117  17.337  0.2993 -0.5313 -0.6170
  193MPD1    H7 3000   2.287   4.143  17.490  0.1449 -0.2986 -0.9203
  194MPD1     C 3001   4.544   1.730  16.974 -0.8907  0.1928  0.5071
  194MPD1    C1 3002   4.524   1.702  17.108  0.3460  0.0596 -0.4338
  194MPD1    C2 3003   4.543   1.570  17.152 -0.2303  0.1156 -0.5755
  194MPD1    C3 3004   4.590   1.474  17.063 -0.5722  0.2703 -0.1298
  194MPD1    C4 3005   4.605   1.500  16.932 -0.0711  0.4358 -0.5021
  194MPD1    C5 3006   4.580   1.629  16.889 -0.4675  0.5778 -0.2164
  194MPD1     H 3007   4.521   1.536  17.252  1.0063  2.7270  0.5659
  194MPD1    H1 3008   4.646   1.433  16.858 -0.2272  0.3604 -0.5207
  194MPD1    H2 3009   4.529   1.834  16.945 -2.5552  0.3131  1.7813
  194MPD1    H3 3010   4.611   1.650  16.788  0.6097  1.5440  0.3156
  194MPD1     N 3011   4.596   1.336  17.089 -0.0580 -0.1055  0.0782
  194MPD1    H5 3012   4.624   1.281  17.008  0.8230  0.8037 -0.2362
  194MPD1    N1 3013   4.501   1.806  17.203 -0.1946  0.8555  0.1905
  194MPD1    H6 3014   4.457   1.893  17.173  1.0802  1.0507 -1.1155
  194MPD1    H7 3015   4.457   1.773  17.289 -0.0221  0.4674  0.1303
  195MPD1     C 3016   2.410   3.581  17.404  0.2195  0.7108 -0.6044
  195MPD1    C1 3017   2.470   3.537  17.516 -0.1329  0.1728 -0.3628
  195MPD1    C2 3018   2.437   3.417  17.568  0.5947 -0.2923  0.5410
  195MPD1    C3 3019   2.356   3.334  17.502 -0.0664  0.0637  0.0015
  195MPD1    C4 3020   2.304   3.373  17.382 -0.0567  0.5445 -0.9167
  195MPD1    C5 3021   2.329   3.499  17.335 -0.7083 -0.8627  0.0836
  195MPD1     H 3022   2.464   3.396  17.671  1.6009 -1.9628 -0.0652
  195MPD1    H1 3023   2.241   3.316  17.315 -2.7578  1.4985  0.8035
  195MPD1    H2 3024   2.419   3.682  17.366 -1.9271  1.7575  1.7289
  195MPD1    H3 3025   2.279   3.541  17.248 -1.1607  0.2620  0.8806
  195MPD1     N 3026   2.328   3.203  17.550  0.3485  0.3055 -0.1301
  195MPD1    H5 3027   2.278   3.147  17.481 -0.5723 -1.2213  1.7891
  195MPD1    N1 3028   2.530   3.627  17.609 -0.7055  0.7741 -0.4022
  195MPD1    H6 3029   2.570   3.713  17.571 -1.3396  1.2085 -0.0718
  195MPD1    H7 3030   2.602   3.574  17.657 -0.1379  1.4111 -0.5504
  196MPD1     C 3031   1.685   2.734   0.644  0.0476  0.3665 -0.7806
  196MPD1    C1 3032   1.784   2.824   0.610 -0.2536  0.6373 -0.0259
  196MPD1    C2 3033   1.822   2.922   0.703 -0.4832  0.1947  0.0902
  196MPD1    C3 3034   1.738   2.949   0.814 -0.0710  0.5388  0.4823
  196MPD1    C4 3035   1.645   2.853   0.843 -0.2571  0.1646  0.7859
  196MPD1    C5 3036   1.621   2.750   0.765 -0.4667  0.2580 -0.3318
  196MPD1     H 3037   1.915   2.977   0.692  0.6174 -2.0038 -1.5090
  196MPD1    H1 3038   1.587   2.855   0.934 -1.1636 -0.3216  0.2207
  196MPD1    H2 3039   1.661   2.646   0.585 -1.6802  0.1386  0.2413
  196MPD1    H3 3040   1.554   2.672   0.799  0.9768  0.0345  1.9957
  196MPD1     N 3041   1.752   3.052   0.905  0.4177  0.0184  0.3771
  196MPD1    H5 3042   1.669   3.054   0.963 -0.2994 -3.0358 -0.5434
  196MPD1    N1 3043   1.874   2.798   0.503 -0.0256 -0.1775 -0.4356
  196MPD1    H6 3044   1.824   2.791   0.415 -3.7845 -0.0107  1.6680
  196MPD1    H7 3045   1.919   2.887   0.485  0.6457 -1.0395 -2.8902
  197MPD1     C 3046   0.340   4.368  17.098 -0.1084 -0.3991 -0.3566
  197MPD1    C1 3047   0.418   4.467  17.164  0.5486 -0.0280 -0.5856
  197MPD1    C2 3048   0.535   4.513  17.100  0.7717  0.2822 -0.3067
  197MPD1    C3 3049   0.562   4.476  16.967 -0.5775 -0.3626 -0.2921
  197MPD1    C4 3050   0.470   4.397  16.900 -0.0080 -0.1324 -0.6665
  197MPD1    C5 3051   0.374   4.331  16.974  0.7635  0.1722 -0.7454
  197MPD1     H 3052   0.593   4.584  17.157 -0.9197  0.2858  1.4129
  197MPD1    H1 3053   0.488   4.370  16.797  1.4776 -0.2887 -0.3673
  197MPD1    H2 3054   0.254   4.322  17.146 -0.0982 -1.6162 -1.5068
  197MPD1    H3 3055   0.311   4.255  16.930 -1.0194  0.6503  0.9455
  197MPD1     N 3056   0.682   4.522  16.901 -0.0535  0.6056  0.1807
  197MPD1    H5 3057   0.687   4.520  16.800  0.3106  3.7131  0.1348
  197MPD1    N1 3058   0.398   4.504  17.301  0.1371 -0.3305 -0.1571
  197MPD1    H6 3059   0.297   4.508  17.315  0.0909  2.2655 -1.3133
  197MPD1    H7 3060   0.427   4.598  17.325  0.5487  0.6314 -4.4216
  198MPD1     C 3061   3.156   3.212  14.567 -1.0037  0.9633  1.4752
  198MPD1    C1 3062   3.120   3.337  14.616 -0.0225 -0.1842  0.3068
  198MPD1    C2 3063   3.058   3.346  14.742  0.1509  0.4205 -0.0250
  198MPD1    C3 3064   3.017   3.232  14.807 -0.1174  0.0520 -0.3524
  198MPD1    C4 3065   3.051   3.109  14.749  0.0826  0.1160  0.9535
  198MPD1    C5 3066   3.128   3.100  14.640 -0.3533  0.3964  0.2739
  198MPD1     H 3067   3.023   3.439  14.787 -0.5055  0.1047  0.1176
  198MPD1    H1 3068   3.009   3.022  14.797  3.3843 -0.4299  2.8621
  198MPD1    H2 3069   3.199   3.201  14.468 -1.6786  1.3028  1.1385
  198MPD1    H3 3070   3.147   3.004  14.594 -0.9391 -0.2445  1.3784
  198MPD1     N 3071   2.972   3.245  14.938 -0.3160  0.6914  0.3262
  198MPD1    H5 3072   2.944   3.337  14.970  2.8452  1.9561 -0.5724
  198MPD1    N1 3073   3.150   3.459  14.548  0.1331 -0.1581  0.7065
  198MPD1    H6 3074   3.148   3.548  14.599 -0.9372  0.3360 -0.1852
  198MPD1    H7 3075   3.242   3.452  14.506 -0.2171  0.9784 -0.2479
  199MPD1     C 3076   4.466   4.281   8.595 -0.5925  0.7122 -0.1467
  199MPD1    C1 3077   4.484   4.142   8.621 -0.4884 -0.5533  0.5626
  199MPD1    C2 3078   4.450   4.100   8.754 -0.3856 -0.1566 -0.9111
  199MPD1    C3 3079   4.424   4.192   8.854  0.0818 -0.3859 -0.1023
  199MPD1    C4 3080   4.434   4.327   8.826  0.0935 -0.0934 -0.0531
  199MPD1    C5 3081   4.450   4.373   8.695 -0.6995 -0.1374 -0.1580
  199MPD1     H 3082   4.449   3.995   8.778  2.1452  0.4493  1.7391
  199MPD1    H1 3083   4.424   4.412   8.893 -2.2041  0.6490 -1.3371
  199MPD1    H2 3084   4.447   4.314   8.494 -0.5642 -0.9725 -0.6894
  199MPD1    H3 3085   4.438   4.479   8.675 -1.1894 -0.2669 -0.5505
  199MPD1     N 3086   4.402   4.153   8.987 -0.7358 -0.3688  0.0449
  199MPD1    H5 3087   4.404   4.223   9.061 -0.8247 -0.3248  0.0048
  199MPD1    N1 3088   4.495   4.048   8.508 -0.4003 -0.3991 -0.1250
  199MPD1    H6 3089   4.562   3.978   8.539  0.8362  0.9395  0.2387
  199MPD1    H7 3090   4.543   4.098   8.433 -0.0595 -2.3685 -1.1984
  200MPD1     C 3091   3.838   4.501  16.283 -0.3001  0.2381 -0.2140
  200MPD1    C1 3092   3.937   4.587  16.322  0.2244  0.0969 -0.0272
  200MPD1    C2 3093   4.039   4.606  16.235  0.6198  0.3089 -0.4396
  200MPD1    C3 3094   4.042   4.557  16.103  0.4757  0.4989 -0.5980
  200MPD1    C4 3095   3.935   4.483  16.058 -0.2774  0.2362 -0.3548
  200MPD1    C5 3096   3.837   4.459  16.153 -0.9181 -0.0874  0.8754
  200MPD1     H 3097   4.132   4.650  16.269 -0.0186 -0.0513  1.7727
  200MPD1    H1 3098   3.927   4.432  15.963 -2.3217 -1.1350  0.5478
  200MPD1    H2 3099   3.756   4.475  16.349 -0.8373 -1.3912 -1.5360
  200MPD1    H3 3100   3.755   4.395  16.124 -1.3494  0.8283  0.0839
  200MPD1     N 3101   4.161   4.570  16.032 -0.0904  0.0975  0.4754
  200MPD1    H5 3102   4.249   4.603  16.071  0.0538  1.2872 -0.8194
  200MPD1    N1 3103   3.939   4.623  16.455 -0.0726  0.2869 -0.2340
  200MPD1    H6 3104   3.843   4.643  16.482  0.6952  0.0786  2.7417
  200MPD1    H7 3105   3.992   4.710  16.456  0.5962 -0.1230  1.2818
  201MPD1     C 3106   1.407   3.959  13.152  0.5560 -0.0404  0.2117
  201MPD1    C1 3107   1.481   3.909  13.260  0.0077  0.5440  0.1356
  201MPD1    C2 3108   1.569   3.805  13.232 -0.9129 -0.6594 -0.5987
  201MPD1    C3 3109   1.577   3.748  13.106  0.3845  0.1359 -0.6818
  201MPD1    C4 3110   1.496   3.788  13.007  0.3148 -0.0763 -0.1851
  201MPD1    C5 3111   1.410   3.892  13.032 -0.2789 -0.9958 -0.2236
  201MPD1     H 3112   1.636   3.770  13.310 -0.0026  0.9542 -0.6560
  201MPD1    H1 3113   1.499   3.749  12.906  0.2206  0.0131 -0.2234
  201MPD1    H2 3114   1.342   4.045  13.157  1.2453  0.4093  1.4536
  201MPD1    H3 3115   1.359   3.949  12.955 -2.8297 -0.2338  2.0182
  201MPD1     N 3116   1.649   3.626  13.096 -0.2729 -0.2762  0.2145
  201MPD1    H5 3117   1.688   3.586  13.181  0.4330  0.3224  0.1753
  201MPD1    N1 3118   1.492   3.971  13.381 -0.0797  0.3564  0.6726
  201MPD1    H6 3119   1.527   3.904  13.449 -0.3206 -1.2611 -0.7915
  201MPD1    H7 3120   1.406   4.019  13.407 -0.4275 -0.4021  0.9224
  202MPD1     C 3121   1.090   2.835   9.356  0.0873 -0.4766 -0.0014
  202MPD1    C1 3122   1.200   2.748   9.342 -0.3662 -0.2460 -0.9046
  202MPD1    C2 3123   1.320   2.818   9.351  0.1517 -0.2895  0.1905
  202MPD1    C3 3124   1.335   2.947   9.392 -0.1492  0.3730 -0.1129
  202MPD1    C4 3125   1.222   3.017   9.426  0.4616  0.2065 -0.3274
  202MPD1    C5 3126   1.100   2.958   9.414 -0.7846  0.3548 -0.5299
  202MPD1     H 3127   1.403   2.748   9.339  0.7181  0.4551 -0.1886
  202MPD1    H1 3128   1.226   3.113   9.477 -1.6991 -0.2273  0.6731
  202MPD1    H2 3129   0.990   2.800   9.335  0.3911 -1.7227  0.5637
  202MPD1    H3 3130   1.011   3.015   9.434 -0.8778  0.2455 -0.6306
  202MPD1     N 3131   1.458   3.009   9.428  0.4931 -0.2737  0.0951
  202MPD1    H5 3132   1.457   3.104   9.464  4.4975  0.5924 -2.0003
  202MPD1    N1 3133   1.198   2.636   9.260  0.8003  0.2783 -0.3288
  202MPD1    H6 3134   1.263   2.564   9.290  1.7235 -0.3834 -3.8372
  202MPD1    H7 3135   1.109   2.589   9.277  1.1249  0.4172  1.6680
  203MPD1     C 3136   0.279   3.504  12.056  0.2522 -0.3479 -0.5713
  203MPD1    C1 3137   0.340   3.403  11.983  0.1890  0.6322  0.2362
  203MPD1    C2 3138   0.411   3.313  12.065 -0.0251  0.1688  0.3798
  203MPD1    C3 3139   0.409   3.315  12.205  0.0834 -0.3085  0.8669
  203MPD1    C4 3140   0.334   3.414  12.264 -0.0781 -0.8513 -0.5155
  203MPD1    C5 3141   0.278   3.510  12.190  0.0267 -0.2773  0.7017
  203MPD1     H 3142   0.467   3.237  12.013  0.8540  0.9087  0.2563
  203MPD1    H1 3143   0.324   3.423  12.371 -1.1845  2.0149 -0.8598
  203MPD1    H2 3144   0.223   3.584  12.009  1.1761  0.9699  0.5652
  203MPD1    H3 3145   0.250   3.600  12.243 -0.7407 -0.3840  0.4867
  203MPD1     N 3146   0.473   3.208  12.275  0.1040  0.5805 -0.1838
  203MPD1    H5 3147   0.510   3.130  12.221 -0.2801 -1.4079  2.4064
  203MPD1    N1 3148   0.354   3.413  11.845 -0.0794  0.1265  0.1693
  203MPD1    H6 3149   0.359   3.326  11.791  3.7952  1.0992 -1.0657
  203MPD1    H7 3150   0.283   3.472  11.803 -1.2510 -0.0146  1.9505
  204MPD1     C 3151   4.374   0.736  17.263 -0.0643 -0.0989  0.9286
  204MPD1    C1 3152   4.401   0.670  17.149  0.1133 -0.3514  0.5014
  204MPD1    C2 3153   4.501   0.578  17.145 -0.3511 -0.2424  0.0725
  204MPD1    C3 3154   4.566   0.544  17.265  0.1437 -0.5350  0.2387
  204MPD1    C4 3155   4.529   0.602  17.382  0.5773  0.1742 -0.3522
  204MPD1    C5 3156   4.439   0.702  17.377 -0.5644 -0.3099 -0.0161
  204MPD1     H 3157   4.527   0.541  17.047 -0.3352  0.3940 -0.1653
  204MPD1    H1 3158   4.594   0.597  17.469 -2.9066 -2.8863  2.0971
  204MPD1    H2 3159   4.288   0.797  17.290 -1.0105 -1.6056  1.2742
  204MPD1    H3 3160   4.416   0.764  17.463  0.4076 -1.1976  0.8742
  204MPD1     N 3161   4.675   0.448  17.251 -0.0670  0.1776 -0.2902
  204MPD1    H5 3162   4.687   0.411  17.157  2.0144  1.4036 -0.5118
  204MPD1    N1 3163   4.352   0.724  17.030 -0.0056  0.5149  0.2765
  204MPD1    H6 3164   4.254   0.753  17.036 -0.0727  0.7193 -1.7506
  204MPD1    H7 3165   4.367   0.660  16.953 -0.4281  0.3653  0.3158
  205MPD1     C 3166   4.376   3.226   0.074  0.1857  0.8921  0.0311
  205MPD1    C1 3167   4.325   3.302  17.741 -0.0667 -0.1193  0.6808
  205MPD1    C2 3168   4.389   3.422  17.702 -0.5806 -0.0440 -0.4844
  205MPD1    C3 3169   4.519   3.443  17.757  0.3714 -0.5749 -0.0604
  205MPD1    C4 3170   4.575   3.346   0.078  0.0455  0.2143  1.3481
  205MPD1    C5 3171   4.500   3.246   0.119  0.3156 -0.4721  0.0489
  205MPD1     H 3172   4.338   3.489  17.634  0.7267  2.3893  0.9070
  205MPD1    H1 3173   4.671   3.368   0.122  1.5339  0.4614 -2.0490
  205MPD1    H2 3174   4.327   3.147   0.129  1.3561 -0.6740 -1.1747
  205MPD1    H3 3175   4.530   3.190   0.207  3.0164  1.2472  0.2360
  205MPD1     N 3176   4.596   3.564  17.729 -0.3719 -0.3896  0.4899
  205MPD1    H5 3177   4.682   3.570   0.021  0.7741 -2.7730 -1.0487
  205MPD1    N1 3178   4.191   3.276  17.696  0.1710 -0.2952 -0.1651
  205MPD1    H6 3179   4.178   3.285  17.596 -0.5879 -3.4958 -0.3437
  205MPD1    H7 3180   4.154   3.183  17.714 -3.2170  1.6968  3.0181
  206MPD1     C 3181   0.031   2.467  17.347 -0.0296 -0.4539  0.0646
  206MPD1    C1 3182   4.680   2.537  17.272 -0.3645 -0.1158 -0.2275
  206MPD1    C2 3183   4.680   2.521  17.131 -0.5596  0.1133 -0.8046
  206MPD1    C3 3184   0.030   2.434  17.073 -0.0337  0.0924 -0.7785
  206MPD1    C4 3185   0.114   2.360  17.156  0.1214 -0.3573 -0.0482
  206MPD1    C5 3186   0.108   2.377  17.286 -0.2550 -0.0396  0.3341
  206MPD1     H 3187   4.605   2.578  17.077  2.1364  1.4336 -3.1811
  206MPD1    H1 3188   0.176   2.279  17.122  0.3131 -0.1067 -0.2921
  206MPD1    H2 3189   0.036   2.475  17.455 -2.5996 -2.4719  0.3294
  206MPD1    H3 3190   0.164   2.307  17.347  1.1654  1.3125  0.5803
  206MPD1     N 3191   0.039   2.413  16.928 -0.3961 -0.5340 -0.1772
  206MPD1    H5 3192   0.103   2.341  16.894 -0.7165 -1.4531  1.1579
  206MPD1    N1 3193   4.592   2.620  17.345  0.6904 -0.3423  0.1480
  206MPD1    H6 3194   4.528   2.681  17.295 -2.6764 -3.6962  0.3659
  206MPD1    H7 3195   4.634   2.665  17.426  1.5783 -2.0170  0.6171
  207MPD1     C 3196   3.474   0.012   9.336  0.1470 -0.3205  0.0915
  207MPD1    C1 3197   3.419   4.737   9.460 -0.1026 -0.1266  0.8345
  207MPD1    C2 3198   3.460   4.632   9.541  0.1994 -0.0146  0.1460
  207MPD1    C3 3199   3.560   4.547   9.494  0.0445 -0.8999  0.4421
  207MPD1    C4 3200   3.624   4.576   9.377 -0.1459  0.0411 -0.3568
  207MPD1    C5 3201   3.579   4.675   9.295 -0.9243  0.0957  0.3280
  207MPD1     H 3202   3.413   4.612   9.636 -1.2055 -0.5990 -0.6682
  207MPD1    H1 3203   3.706   4.518   9.336 -0.6121 -0.4834 -0.5513
  207MPD1    H2 3204   3.432   0.081   9.264  2.0472  2.0526  1.2801
  207MPD1    H3 3205   3.620   4.688   9.195  0.3434 -2.1457  0.5545
  207MPD1     N 3206   3.618   4.440   9.560  0.3179  0.0775 -0.2691
  207MPD1    H5 3207   3.699   4.398   9.516  0.4389 -0.6102  0.5913
  207MPD1    N1 3208   3.304   0.064   9.505  0.9107  0.1140 -0.0655
  207MPD1    H6 3209   3.272   0.050   9.600 -0.1704  0.5949 -0.3548
  207MPD1    H7 3210   3.300   0.165   9.490  0.0875 -0.3599 -3.1689
  208MPD1     C 3211   1.512   3.788   0.830  0.0743  0.8641  0.4277
  208MPD1    C1 3212   1.401   3.843   0.883 -0.5183 -0.9364 -0.2789
  208MPD1    C2 3213   1.281   3.804   0.829  0.0144 -0.1600 -0.2509
  208MPD1    C3 3214   1.266   3.711   0.725 -0.4558  0.3858 -0.1562
  208MPD1    C4 3215   1.379   3.664   0.666 -0.0585  0.2639  0.4069
  208MPD1    C5 3216   1.497   3.695   0.729 -0.2767 -0.4268 -0.1645
  208MPD1     H 3217   1.185   3.838   0.866  0.7513 -0.5231  2.0054
  208MPD1    H1 3218   1.385   3.584   0.594 -0.4208  2.6212 -2.2243
  208MPD1    H2 3219   1.605   3.813   0.879  0.1147 -1.3977  1.5273
  208MPD1    H3 3220   1.591   3.654   0.693  0.5697  1.3180  0.0340
  208MPD1     N 3221   1.136   3.683   0.677  0.2786  0.6119  0.2475
  208MPD1    H5 3222   1.063   3.728   0.731  1.2917  1.6526  0.7668
  208MPD1    N1 3223   1.409   3.927   0.993  0.1733 -0.0062 -0.6609
  208MPD1    H6 3224   1.340   4.001   0.986  0.1720  0.1425  0.9233
  208MPD1    H7 3225   1.503   3.962   1.013  0.3607 -0.9546  0.1041
  209MPD1     C 3226   3.255   3.009  11.009 -0.1031 -0.0450  0.2489
  209MPD1    C1 3227   3.273   3.116  11.094 -0.6461  0.2592 -0.0674
  209MPD1    C2 3228   3.286   3.241  11.039 -1.0897  0.3590 -0.0777
  209MPD1    C3 3229   3.280   3.257  10.900 -0.0547 -0.5912 -0.8983
  209MPD1    C4 3230   3.266   3.147  10.813  0.5530 -0.1243 -0.2478
  209MPD1    C5 3231   3.255   3.026  10.876  0.1118 -0.1398  0.0207
  209MPD1     H 3232   3.303   3.327  11.101  0.9810  0.1815 -0.4211
  209MPD1    H1 3233   3.272   3.154  10.705 -1.5323 -0.1478 -0.3480
  209MPD1    H2 3234   3.255   2.905  11.039 -2.9412 -0.3431 -0.8488
  209MPD1    H3 3235   3.244   2.935  10.818  0.1417 -1.9227  2.8070
  209MPD1     N 3236   3.285   3.391  10.844 -0.4559  0.1787  0.3061
  209MPD1    H5 3237   3.310   3.454  10.920 -3.3256 -1.1983  2.3968
  209MPD1    N1 3238   3.304   3.092  11.229  0.5482 -0.3037 -0.7760
  209MPD1    H6 3239   3.285   3.169  11.293 -0.0388  0.4653 -1.8670
  209MPD1    H7 3240   3.249   3.018  11.270 -0.7269 -1.1834 -4.0306
  210MPD1     C 3241   3.975   4.078  11.032  0.2175  0.8363 -0.1372
  210MPD1    C1 3242   3.854   4.050  11.090 -0.5387 -0.8749 -0.4365
  210MPD1    C2 3243   3.773   3.953  11.022 -0.2227  0.3289  0.7146
  210MPD1    C3 3244   3.802   3.908  10.895 -0.4189 -0.2059  0.5132
  210MPD1    C4 3245   3.923   3.940  10.839 -0.7243  0.8137  0.3104
  210MPD1    C5 3246   4.009   4.031  10.907 -0.4674 -0.2994 -0.4311
  210MPD1     H 3247   3.675   3.932  11.064 -0.8368  3.4786  0.8577
  210MPD1    H1 3248   3.943   3.919  10.734  0.8311  2.2956  0.3036
  210MPD1    H2 3249   4.046   4.148  11.075 -1.3479  1.3673  1.5713
  210MPD1    H3 3250   4.098   4.070  10.857  0.2769 -1.3141  0.0901
  210MPD1     N 3251   3.711   3.832  10.812  0.1299  0.1832  0.1346
  210MPD1    H5 3252   3.735   3.802  10.718 -0.5769  2.1198 -0.6601
  210MPD1    N1 3253   3.840   4.092  11.217 -0.1716  0.1400 -0.6945
  210MPD1    H6 3254   3.742   4.105  11.242 -0.0880  1.4036 -1.0202
  210MPD1    H7 3255   3.893   4.178  11.226 -0.7975  0.6004 -1.4538
  211MPD1     C 3256   0.238   3.303  16.452  0.6363  0.1447  0.3843
  211MPD1    C1 3257   0.317   3.408  16.420  0.4595  0.3253  0.4094
  211MPD1    C2 3258   0.256   3.510  16.353 -0.4448 -0.3969 -0.3854
  211MPD1    C3 3259   0.128   3.499  16.300  0.8599  0.4780 -0.3013
  211MPD1    C4 3260   0.061   3.374  16.315  0.3862  0.1377 -0.3974
  211MPD1    C5 3261   0.113   3.281  16.400 -0.2009  0.6766  0.4387
  211MPD1     H 3262   0.311   3.603  16.346 -0.9766 -0.0604 -0.0936
  211MPD1    H1 3263   4.706   3.351  16.271  0.0007  0.1334  0.4535
  211MPD1    H2 3264   0.262   3.233  16.531  1.6939  0.4304  0.3270
  211MPD1    H3 3265   0.060   3.197  16.442  2.3164 -1.2503 -0.1954
  211MPD1     N 3266   0.090   3.611  16.221 -0.6362 -0.0349  0.0520
  211MPD1    H5 3267   0.150   3.693  16.229  0.1158 -0.4913 -0.9769
  211MPD1    N1 3268   0.435   3.419  16.494  0.1350 -0.3832  0.4835
  211MPD1    H6 3269   0.489   3.332  16.497  0.3359 -0.2688  0.1019
  211MPD1    H7 3270   0.497   3.490  16.458 -1.1552  0.7096  0.4292
  212MPD1     C 3271   4.404   2.122  16.627  0.0729  0.0799 -0.3507
  212MPD1    C1 3272   4.319   2.184  16.715 -0.5249 -0.2520 -0.8752
  212MPD1    C2 3273   4.266   2.115  16.814  0.1880 -0.5411 -0.4340
  212MPD1    C3 3274   4.294   1.977  16.842  0.2691 -0.2131  0.0815
  212MPD1    C4 3275   4.374   1.917  16.741 -0.2899 -0.0260 -0.1135
  212MPD1    C5 3276   4.421   1.989  16.632  0.1003 -1.1036  0.3365
  212MPD1     H 3277   4.204   2.174  16.880 -0.6734  0.8751 -2.5056
  212MPD1    H1 3278   4.393   1.812  16.726  0.2686 -0.2219  1.9479
  212MPD1    H2 3279   4.434   2.178  16.540  2.5342 -2.4598 -1.1103
  212MPD1    H3 3280   4.498   1.941  16.572  1.8605 -0.9617  2.4687
  212MPD1     N 3281   4.246   1.903  16.945 -0.2495  0.3070 -0.2947
  212MPD1    H5 3282   4.269   1.804  16.941  1.1026  0.6129 -0.2814
  212MPD1    N1 3283   4.287   2.322  16.686  0.2368 -0.7209  0.2972
  212MPD1    H6 3284   4.344   2.375  16.620 -0.0830 -1.7971 -0.8505
  212MPD1    H7 3285   4.254   2.382  16.761 -2.5202 -0.3451 -1.2149
  213MPD1     C 3286   2.640   2.662  16.170  0.0993  0.4423 -0.2881
  213MPD1    C1 3287   2.620   2.587  16.055  0.0475 -0.3756 -0.4496
  213MPD1    C2 3288   2.526   2.633  15.963 -0.4151  0.3482  0.3096
  213MPD1    C3 3289   2.467   2.756  15.975  0.4632 -0.3569 -0.2006
  213MPD1    C4 3290   2.507   2.843  16.084  0.2067 -0.4721  0.4736
  213MPD1    C5 3291   2.592   2.790  16.177 -0.2755  0.4635 -0.2434
  213MPD1     H 3292   2.487   2.571  15.883 -0.2154  0.7406 -0.0912
  213MPD1    H1 3293   2.477   2.947  16.082  2.5907  0.2171  0.0221
  213MPD1    H2 3294   2.706   2.623  16.246 -0.4909  0.3694  0.1897
  213MPD1    H3 3295   2.620   2.848  16.265 -0.5469 -1.4776  1.1195
  213MPD1     N 3296   2.389   2.799  15.866  0.5918  0.3792 -0.5699
  213MPD1    H5 3297   2.379   2.736  15.787 -2.3292  0.3704 -0.2085
  213MPD1    N1 3298   2.647   2.450  16.061 -0.1638 -0.3288  1.0266
  213MPD1    H6 3299   2.653   2.406  15.969 -0.1124 -0.0892  0.9149
  213MPD1    H7 3300   2.737   2.430  16.103  0.4892  1.2796  0.3867
  214MPD1     C 3301   1.821   2.272  15.314  0.7714 -0.6812  0.2487
  214MPD1    C1 3302   1.788   2.308  15.442 -0.1298 -0.0957 -0.1888
  214MPD1    C2 3303   1.861   2.416  15.495 -1.1636  0.4850  0.2803
  214MPD1    C3 3304   1.948   2.491  15.418 -0.3234  0.4867 -0.9785
  214MPD1    C4 3305   1.970   2.455  15.284 -0.6332 -0.2630  0.0488
  214MPD1    C5 3306   1.903   2.348  15.235  0.2253  0.5505 -0.0652
  214MPD1     H 3307   1.848   2.450  15.597  0.6380  0.0123  0.6619
  214MPD1    H1 3308   2.036   2.516  15.223 -0.2547 -0.9689 -0.2486
  214MPD1    H2 3309   1.771   2.184  15.274 -0.5623  1.4567 -2.7972
  214MPD1    H3 3310   1.912   2.313  15.132  1.7451  2.6964 -0.6652
  214MPD1     N 3311   2.023   2.602  15.454  0.2119 -0.4798 -0.2208
  214MPD1    H5 3312   2.093   2.629  15.386  0.8811 -1.0571  0.2284
  214MPD1    N1 3313   1.703   2.223  15.509  0.4542 -0.5574 -0.7315
  214MPD1    H6 3314   1.678   2.259  15.601  0.8726 -0.0371 -0.8180
  214MPD1    H7 3315   1.729   2.131  15.543 -1.6506 -1.4630 -1.5673
  215MPD1     C 3316   2.417   2.799  10.528 -0.2570 -0.3210 -0.0559
  215MPD1    C1 3317   2.480   2.800  10.647 -0.3837 -0.2270  0.2147
  215MPD1    C2 3318   2.577   2.895  10.675  0.3956 -0.3971 -0.5089
  215MPD1    C3 3319   2.605   2.996  10.578  0.3592  0.0397  0.1181
  215MPD1    C4 3320   2.523   2.996  10.465  0.2184  0.1553  0.3456
  215MPD1    C5 3321   2.435   2.894  10.436 -0.1810 -0.8096 -0.6007
  215MPD1     H 3322   2.631   2.898  10.769  0.7705 -1.7374 -0.6846
  215MPD1    H1 3323   2.539   3.073  10.390  0.5753  0.2784  0.5515
  215MPD1    H2 3324   2.357   2.715  10.495  0.6690 -1.4613  1.1940
  215MPD1    H3 3325   2.383   2.892  10.341 -1.0343 -2.9771 -0.0791
  215MPD1     N 3326   2.698   3.099  10.596 -1.1695 -0.3786 -0.4649
  215MPD1    H5 3327   2.688   3.176  10.530  0.4198  0.1324 -0.1192
  215MPD1    N1 3328   2.454   2.690  10.734 -0.1140  0.2605 -0.4634
  215MPD1    H6 3329   2.355   2.686  10.756 -0.1826 -0.6060 -0.9348
  215MPD1    H7 3330   2.489   2.718  10.825  0.0378  2.1174 -1.0995
  216MPD1     C 3331   3.413   1.493   0.714  0.9205 -0.0637 -0.1743
  216MPD1    C1 3332   3.507   1.584   0.755  0.3432  0.1743  0.7020
  216MPD1    C2 3333   3.638   1.578   0.709 -0.0390 -0.3322 -0.1232
  216MPD1    C3 3334   3.670   1.473   0.626 -0.7691 -0.1294 -0.3576
  216MPD1    C4 3335   3.579   1.370   0.603 -0.9805  0.2505 -0.1528
  216MPD1    C5 3336   3.451   1.384   0.647 -0.1299 -0.5291 -0.0135
  216MPD1     H 3337   3.705   1.662   0.725 -1.5871  0.4478  2.2651
  216MPD1    H1 3338   3.611   1.286   0.541 -2.6970 -0.9791  0.6454
  216MPD1    H2 3339   3.309   1.492   0.742  0.4814 -1.0708 -1.8757
  216MPD1    H3 3340   3.389   1.298   0.631 -0.0192 -0.5599 -0.2802
  216MPD1     N 3341   3.800   1.459   0.576  0.0928 -0.1714  0.3384
  216MPD1    H5 3342   3.871   1.515   0.622  0.8959 -0.7735 -0.1784
  216MPD1    N1 3343   3.471   1.703   0.827 -0.6644 -0.2211 -0.1048
  216MPD1    H6 3344   3.390   1.700   0.888  0.9664 -0.2991  2.0729
  216MPD1    H7 3345   3.546   1.733   0.890  0.3090  1.2442 -1.9778
  217MPD1     C 3346   4.284   1.931   9.716 -0.0882 -0.4576 -0.1681
  217MPD1    C1 3347   4.402   1.918   9.788  0.2971 -0.8098 -0.4521
  217MPD1    C2 3348   4.500   2.018   9.764  0.4086 -0.5243  0.8896
  217MPD1    C3 3349   4.469   2.135   9.688  0.9957  0.3906 -0.4193
  217MPD1    C4 3350   4.348   2.144   9.628  0.4704  0.1836  0.1001
  217MPD1    C5 3351   4.260   2.046   9.643 -0.8756 -0.3893  0.3668
  217MPD1     H 3352   4.593   2.002   9.816  1.5531 -0.3715 -1.1045
  217MPD1    H1 3353   4.322   2.240   9.585  0.5835  0.1123 -0.1270
  217MPD1    H2 3354   4.201   1.862   9.718  1.5312 -2.4611 -2.7406
  217MPD1    H3 3355   4.166   2.055   9.590 -1.3774 -0.4716  1.2406
  217MPD1     N 3356   4.557   2.240   9.678 -0.0398 -0.7712 -1.2585
  217MPD1    H5 3357   4.512   2.327   9.654  1.3948  0.0042 -1.1496
  217MPD1    N1 3358   4.440   1.802   9.847 -0.2793  0.6648 -0.2231
  217MPD1    H6 3359   4.500   1.811   9.928  0.0124  0.6101 -0.4311
  217MPD1    H7 3360   4.356   1.756   9.880  0.6640 -1.5078 -0.8367
  218MPD1     C 3361   1.684   4.691  13.158  0.2233  0.0751  0.2620
  218MPD1    C1 3362   1.707   4.585  13.243  0.3973 -0.2911  0.0643
  218MPD1    C2 3363   1.722   4.457  13.186  0.0295 -0.2871 -0.0519
  218MPD1    C3 3364   1.712   4.439  13.046  0.4824 -0.4998  0.1661
  218MPD1    C4 3365   1.687   4.547  12.967 -0.0117  0.0639  0.4193
  218MPD1    C5 3366   1.672   4.671  13.023  0.3161  0.2569  0.1957
  218MPD1     H 3367   1.739   4.369  13.246  1.0698  0.2590  0.4622
  218MPD1    H1 3368   1.673   4.534  12.860  0.6052 -0.1507  0.3646
  218MPD1    H2 3369   1.665   0.046  13.204 -0.5791  0.5062 -0.9798
  218MPD1    H3 3370   1.646   0.015  12.961  0.6473 -1.4472 -2.2617
  218MPD1     N 3371   1.718   4.304  12.990  0.2540 -0.0366  0.2170
  218MPD1    H5 3372   1.733   4.229  13.056  0.4341  1.2923  1.6626
  218MPD1    N1 3373   1.686   4.603  13.383 -0.3529  0.1540 -0.6816
  218MPD1    H6 3374   1.727   4.690  13.416  0.0782 -0.1767 -0.3363
  218MPD1    H7 3375   1.731   4.525  13.431 -2.2857 -0.9550 -0.6885
  219MPD1     C 3376   1.321   4.004  12.162  0.5871 -0.4168 -0.4943
  219MPD1    C1 3377   1.339   3.887  12.233 -0.2601 -0.2289 -0.3166
  219MPD1    C2 3378   1.431   3.873  12.331  0.0316 -0.0908 -1.2709
  219MPD1    C3 3379   1.512   3.980  12.364 -0.2500  0.1729  0.3340
  219MPD1    C4 3380   1.497   4.098  12.297  0.0149 -0.3452  0.6683
  219MPD1    C5 3381   1.400   4.114  12.196 -0.1380  0.3529 -0.1638
  219MPD1     H 3382   1.447   3.782  12.388  1.4655  0.7685 -0.2960
  219MPD1    H1 3383   1.556   4.184  12.326  1.8240 -1.0177 -0.9992
  219MPD1    H2 3384   1.235   4.021  12.098  0.4973 -0.3596 -0.3580
  219MPD1    H3 3385   1.378   4.210  12.151 -0.0983 -0.6589 -2.3843
  219MPD1     N 3386   1.599   3.985  12.472 -0.3704 -0.3366  0.5101
  219MPD1    H5 3387   1.659   4.067  12.475 -1.8374  0.7342  0.4845
  219MPD1    N1 3388   1.243   3.788  12.219  0.6403 -0.4771 -0.0248
  219MPD1    H6 3389   1.274   3.695  12.246 -2.6447 -1.9163 -1.1030
  219MPD1    H7 3390   1.230   3.784  12.118  0.2305 -0.3654  0.0207
  220MPD1     C 3391   2.088   4.129   9.176 -0.5275  0.4927 -0.0155
  220MPD1    C1 3392   1.999   4.093   9.274  0.1401  0.0031 -0.5526
  220MPD1    C2 3393   2.045   4.016   9.382 -0.1671 -0.4271  0.0749
  220MPD1    C3 3394   2.184   4.003   9.408  0.9971  0.2019 -0.0786
  220MPD1    C4 3395   2.270   4.055   9.316  0.0199  0.1521  0.0196
  220MPD1    C5 3396   2.222   4.107   9.198 -0.6872 -0.0479 -0.7958
  220MPD1     H 3397   1.976   3.968   9.450 -0.3995  1.1982  0.9935
  220MPD1    H1 3398   2.378   4.056   9.327  0.0819 -2.3370 -0.3271
  220MPD1    H2 3399   2.062   4.178   9.083  1.1832  0.0306 -0.7317
  220MPD1    H3 3400   2.286   4.143   9.118 -1.2381 -0.1068 -1.2655
  220MPD1     N 3401   2.226   3.927   9.526  0.0330  0.4180 -0.5114
  220MPD1    H5 3402   2.149   3.873   9.564  0.9273 -0.8306 -0.4700
  220MPD1    N1 3403   1.861   4.106   9.251  0.5257 -0.1098 -0.0649
  220MPD1    H6 3404   1.807   4.116   9.336 -1.6995  0.1603 -1.5198
  220MPD1    H7 3405   1.835   4.190   9.198 -0.4265 -0.6954 -0.5233
  221MPD1     C 3406   0.580   3.750  15.994 -0.1354  0.3856 -0.7187
  221MPD1    C1 3407   0.460   3.696  15.995 -0.7215 -0.4540  0.0831
  221MPD1    C2 3408   0.439   3.569  16.038 -0.5867  0.8798 -0.3582
  221MPD1    C3 3409   0.550   3.495  16.074  0.2392 -0.0472 -0.2084
  221MPD1    C4 3410   0.676   3.556  16.082  0.0539 -0.1717  0.7664
  221MPD1    C5 3411   0.694   3.684  16.033  0.2055 -0.4194 -0.4951
  221MPD1     H 3412   0.335   3.538  16.042 -0.0160 -1.2346 -1.5218
  221MPD1    H1 3413   0.768   3.505  16.111 -0.2479 -0.6902  0.8151
  221MPD1    H2 3414   0.596   3.851  15.958  2.7713 -0.3936 -1.6456
  221MPD1    H3 3415   0.789   3.736  16.033  0.4727 -0.9099 -2.2259
  221MPD1     N 3416   0.546   3.361  16.117 -0.1564  0.1106 -0.6274
  221MPD1    H5 3417   0.626   3.329  16.171 -1.6094 -0.7890  0.9699
  221MPD1    N1 3418   0.345   3.783  15.981  0.3999 -0.3241  0.3580
  221MPD1    H6 3419   0.266   3.728  15.949 -0.8250 -0.2084  3.1652
  221MPD1    H7 3420   0.357   3.873  15.934 -2.0943  0.4933  1.3214
  222MPD1     C 3421   3.395   1.535   0.294  0.8216  0.1292  0.1951
  222MPD1    C1 3422   3.315   1.643   0.349 -0.2395 -0.1198 -0.5477
  222MPD1    C2 3423   3.330   1.768   0.290 -0.1395  0.3510  0.0067
  222MPD1    C3 3424   3.423   1.783   0.191  0.1021  0.0807  0.1627
  222MPD1    C4 3425   3.502   1.682   0.139 -0.2784  0.1097  0.0849
  222MPD1    C5 3426   3.478   1.557   0.189 -0.7399  0.0367 -0.1853
  222MPD1     H 3427   3.279   1.856   0.328 -0.1719  0.1449  0.4399
  222MPD1    H1 3428   3.587   1.695   0.073 -0.1254 -1.8850 -0.0884
  222MPD1    H2 3429   3.398   1.434   0.333  0.3058 -0.0478 -0.2100
  222MPD1    H3 3430   3.529   1.470   0.148  0.5321  1.3874 -1.4612
  222MPD1     N 3431   3.464   1.907   0.146 -0.2815 -0.0064 -0.3642
  222MPD1    H5 3432   3.543   1.910   0.082  0.4536 -1.1923  0.4904
  222MPD1    N1 3433   3.239   1.630   0.467 -0.5911  0.0298 -0.3226
  222MPD1    H6 3434   3.222   1.534   0.495  0.7901 -0.1705 -0.1906
  222MPD1    H7 3435   3.144   1.663   0.448 -0.4915 -0.3579 -1.4973
  223MPD1     C 3436   2.907   2.586  17.453 -0.6010  0.4046  0.2071
  223MPD1    C1 3437   2.881   2.454  17.468  0.0862  0.8506  0.3575
  223MPD1    C2 3438   2.992   2.374  17.518 -0.1131  0.4126  0.3799
  223MPD1    C3 3439   3.122   2.428  17.542  0.2584  0.4300  0.0525
  223MPD1    C4 3440   3.136   2.562  17.513 -0.2405  0.3299  0.2107
  223MPD1    C5 3441   3.032   2.636  17.470 -0.4720  0.0709  0.4225
  223MPD1     H 3442   2.969   2.269  17.531  1.3147 -0.2292 -2.2538
  223MPD1    H1 3443   3.225   2.618  17.539  0.1223  1.4220 -3.3826
  223MPD1    H2 3444   2.830   2.656  17.423  0.0909  0.0008 -2.4869
  223MPD1    H3 3445   3.051   2.742  17.454 -0.0796  0.0007  0.4313
  223MPD1     N 3446   3.219   2.357  17.608 -0.0324  1.0413 -0.4883
  223MPD1    H5 3447   3.189   2.263  17.629 -1.6620  1.5403 -0.5022
  223MPD1    N1 3448   2.748   2.410  17.470 -0.3660 -0.0384  0.1636
  223MPD1    H6 3449   2.684   2.460  17.408  0.1791 -0.8590 -1.0494
  223MPD1    H7 3450   2.757   2.311  17.449 -1.3041 -0.0487 -0.1932
  224MPD1     C 3451   4.606   3.600   9.181 -0.1160  0.1188 -0.0593
  224MPD1    C1 3452   4.688   3.486   9.196 -0.1569  0.1262  0.4954
  224MPD1    C2 3453   0.061   3.483   9.270  0.1091  0.1948 -1.0575
  224MPD1    C3 3454   0.088   3.593   9.362 -0.2388 -0.1920 -0.1604
  224MPD1    C4 3455   0.005   3.700   9.360  0.0439  0.3113 -0.0363
  224MPD1    C5 3456   4.638   3.705   9.271 -0.6637 -0.4535 -0.4508
  224MPD1     H 3457   0.125   3.396   9.279  0.2581  0.2556 -1.5460
  224MPD1    H1 3458   0.016   3.792   9.416 -2.3586  1.2832 -1.1431
  224MPD1    H2 3459   4.523   3.602   9.112  0.6226 -1.9073 -1.0051
  224MPD1    H3 3460   4.581   3.796   9.285  0.2852  0.0363  0.2885
  224MPD1     N 3461   0.189   3.599   9.459 -0.4940 -0.5837 -0.4185
  224MPD1    H5 3462   0.187   3.680   9.520  2.0607 -1.1635  0.4142
  224MPD1    N1 3463   4.663   3.380   9.104 -0.0685  0.0853 -0.2634
  224MPD1    H6 3464   4.566   3.386   9.074  0.5122 -1.0159 -2.4270
  224MPD1    H7 3465   4.673   3.288   9.146 -1.0651 -0.1530 -0.5643
  225MPD1     C 3466   2.175   0.012  12.138  0.1066 -0.2197 -0.6026
  225MPD1    C1 3467   2.117   4.666  12.051 -0.0518  0.4071  0.4499
  225MPD1    C2 3468   1.986   4.630  12.079 -0.2324 -0.0110  0.1352
  225MPD1    C3 3469   1.919   4.673  12.199 -0.0708  0.5318 -0.2774
  225MPD1    C4 3470   1.996   0.002  12.287  0.1447  0.0415  0.3189
  225MPD1    C5 3471   2.118   0.040  12.255 -0.0545  1.0293  0.3613
  225MPD1     H 3472   1.923   4.573  12.012  1.6613  0.1745 -1.8052
  225MPD1    H1 3473   1.954   0.040  12.379 -0.9503 -0.5009  0.0500
  225MPD1    H2 3474   2.275   0.054  12.128 -0.6074  1.3434 -1.1324
  225MPD1    H3 3475   2.166   0.110  12.322 -0.4190  0.1515  1.5492
  225MPD1     N 3476   1.784   4.656  12.224 -0.0299  0.4958  0.4907
  225MPD1    H5 3477   1.741   4.682  12.311 -2.5565 -0.6777 -0.4169
  225MPD1    N1 3478   2.175   4.642  11.930  0.0832  0.2498  0.1671
  225MPD1    H6 3479   2.143   4.560  11.879  1.5726  1.3754 -2.5631
  225MPD1    H7 3480   2.277   4.635  11.936 -0.0358 -1.7654 -0.3830
  226MPD1     C 3481   1.645   4.615  10.029 -0.6543  0.3140  0.7560
  226MPD1    C1 3482   1.541   4.531   9.988  0.6812  0.1908  0.1540
  226MPD1    C2 3483   1.415   4.559  10.016  0.6177  0.4479 -0.3930
  226MPD1    C3 3484   1.389   4.656  10.104  0.4384  0.5642 -0.4114
  226MPD1    C4 3485   1.486   4.740  10.149 -0.8161 -0.3864 -0.3598
  226MPD1    C5 3486   1.615   4.714  10.122  0.0417 -0.0962 -0.1386
  226MPD1     H 3487   1.334   4.495   9.980 -0.0581  0.6873  0.7065
  226MPD1    H1 3488   1.470   0.080  10.219 -0.1954 -0.4881 -0.0978
  226MPD1    H2 3489   1.746   4.587  10.001 -0.9738 -0.8823  0.7679
  226MPD1    H3 3490   1.694   0.036  10.161 -0.5428  0.6340 -0.1401
  226MPD1     N 3491   1.253   4.676  10.146 -0.0867 -0.3485  0.5790
  226MPD1    H5 3492   1.179   4.613  10.116  0.3212  0.0259 -1.1642
  226MPD1    N1 3493   1.570   4.429   9.895 -0.5192 -0.4709 -0.2591
  226MPD1    H6 3494   1.494   4.361   9.887  2.0436 -3.5463  1.5890
  226MPD1    H7 3495   1.646   4.373   9.933 -0.5214 -0.6367 -0.4972
  227MPD1     C 3496   0.574   0.428  10.837  0.2767  0.0471  0.2667
  227MPD1    C1 3497   0.524   0.446  10.712  0.1739  0.4823 -0.5354
  227MPD1    C2 3498   0.580   0.372  10.609  0.1612  0.1480  0.1121
  227MPD1    C3 3499   0.675   0.274  10.642  0.1650 -0.1251  0.8107
  227MPD1    C4 3500   0.714   0.254  10.769  0.5406  0.5402 -0.3825
  227MPD1    C5 3501   0.666   0.333  10.871 -0.4276  0.1155  0.4323
  227MPD1     H 3502   0.559   0.389  10.505 -0.1907 -0.6370  0.0523
  227MPD1    H1 3503   0.785   0.176  10.796 -0.8089 -0.8851 -0.9522
  227MPD1    H2 3504   0.535   0.494  10.914 -2.4888 -1.5601  0.2541
  227MPD1    H3 3505   0.703   0.324  10.972  0.0536  0.8375  0.3211
  227MPD1     N 3506   0.731   0.196  10.540  0.0174 -0.3886  0.2622
  227MPD1    H5 3507   0.670   0.183  10.459 -0.5192  1.6463  0.3617
  227MPD1    N1 3508   0.459   0.564  10.679  0.0915 -0.0959 -0.0815
  227MPD1    H6 3509   0.410   0.555  10.590  0.8306  0.9723 -0.5976
  227MPD1    H7 3510   0.382   0.592  10.739  0.2023  0.4643 -0.2033
  228MPD1     C 3511   3.631   2.132  13.178 -0.5616 -0.4901  0.3765
  228MPD1    C1 3512   3.568   2.028  13.251 -0.5078  0.7278  0.1509
  228MPD1    C2 3513   3.434   2.051  13.287  0.7534  0.5859  0.6074
  228MPD1    C3 3514   3.363   2.158  13.242  0.8224 -0.3855 -0.5444
  228MPD1    C4 3515   3.425   2.251  13.159  0.1814 -0.2153 -0.6167
  228MPD1    C5 3516   3.556   2.235  13.128  0.3631 -0.3455 -0.5150
  228MPD1     H 3517   3.392   1.979  13.356  0.1454  0.6899  0.3409
  228MPD1    H1 3518   3.374   2.333  13.111 -2.8653 -2.6932 -1.6348
  228MPD1    H2 3519   3.739   2.127  13.165 -0.5254  2.1178 -0.1480
  228MPD1    H3 3520   3.597   2.315  13.067  1.4952  0.4603  1.3013
  228MPD1     N 3521   3.222   2.157  13.273  0.2923 -0.2008  0.0520
  228MPD1    H5 3522   3.197   2.081  13.335  2.7099 -0.6874  0.4465
  228MPD1    N1 3523   3.640   1.909  13.281  0.0318 -0.4096 -0.2386
  228MPD1    H6 3524   3.742   1.914  13.284 -0.0882 -0.6509  4.7249
  228MPD1    H7 3525   3.611   1.869  13.370  0.1317  2.3207  1.0210
  229MPD1     C 3526   2.389   1.422  15.247  0.5164  1.0071  0.0150
  229MPD1    C1 3527   2.442   1.456  15.365 -0.4075 -0.1804 -0.4602
  229MPD1    C2 3528   2.554   1.388  15.401  0.1212  0.0156 -0.3375
  229MPD1    C3 3529   2.629   1.310  15.312  0.2059  0.6266 -0.2670
  229MPD1    C4 3530   2.571   1.275  15.194 -0.0785  0.6168 -0.3305
  229MPD1    C5 3531   2.457   1.338  15.166  0.4341 -0.6268  0.7444
  229MPD1     H 3532   2.579   1.396  15.506  1.9184  2.2348 -0.9181
  229MPD1    H1 3533   2.604   1.192  15.134  0.2899 -0.0464  0.7928
  229MPD1    H2 3534   2.288   1.446  15.216  0.1894  2.6112  2.3149
  229MPD1    H3 3535   2.409   1.307  15.074 -1.5508  1.3714  1.0937
  229MPD1     N 3536   2.754   1.257  15.354  0.1964  0.5877 -1.1559
  229MPD1    H5 3537   2.798   1.172  15.320 -2.0183 -0.4279 -1.5204
  229MPD1    N1 3538   2.371   1.528  15.465  0.9474  0.0298  0.4846
  229MPD1    H6 3539   2.344   1.618  15.425 -1.6020 -1.0213 -0.1623
  229MPD1    H7 3540   2.425   1.552  15.548 -0.8429  2.4384  0.9530
  230MPD1     C 3541   3.733   1.431  15.839 -0.6384  0.2191 -0.0871
  230MPD1    C1 3542   3.713   1.297  15.833 -0.9872  0.1955 -0.2506
  230MPD1    C2 3543   3.590   1.252  15.788 -0.5793 -0.8460  0.6282
  230MPD1    C3 3544   3.501   1.334  15.717 -0.7741  0.1448 -0.4696
  230MPD1    C4 3545   3.541   1.469  15.698  0.2436  0.7345 -0.1138
  230MPD1    C5 3546   3.647   1.516  15.771  0.1233 -0.0873 -0.9600
  230MPD1     H 3547   3.568   1.147  15.801 -0.9689 -0.7835  0.4834
  230MPD1    H1 3548   3.480   1.542  15.647 -0.3603  0.8942  0.8393
  230MPD1    H2 3549   3.816   1.480  15.888  1.3109 -1.3749 -1.8030
  230MPD1    H3 3550   3.684   1.616  15.750  0.3287  0.2087  0.8344
  230MPD1     N 3551   3.381   1.276  15.672  0.2949  0.3197  0.4547
  230MPD1    H5 3552   3.362   1.182  15.704 -0.4353  0.7536  1.3129
  230MPD1    N1 3553   3.804   1.221  15.904 -0.1344  0.2199 -0.7861
  230MPD1    H6 3554   3.900   1.254  15.913 -0.3653  0.8468 -0.6288
  230MPD1    H7 3555   3.804   1.125  15.870  2.3707 -0.1431  0.2326
  231MPD1     C 3556   1.302   2.440  15.618  0.5412  0.3873  0.5070
  231MPD1    C1 3557   1.421   2.472  15.673  1.1561  0.0864 -0.5561
  231MPD1    C2 3558   1.513   2.542  15.595  0.3075  0.0849  0.3847
  231MPD1    C3 3559   1.485   2.570  15.464 -0.6504  0.2327  0.0167
  231MPD1    C4 3560   1.364   2.533  15.413  0.0050  0.7348  0.4535
  231MPD1    C5 3561   1.273   2.469  15.490  0.0275  0.3128  0.0994
  231MPD1     H 3562   1.605   2.572  15.644 -0.8011  3.2301  0.5322
  231MPD1    H1 3563   1.350   2.538  15.306  0.4444 -1.8821  0.2814
  231MPD1    H2 3564   1.221   2.396  15.675  0.5925 -0.6631 -0.2453
  231MPD1    H3 3565   1.178   2.457  15.439  1.2230 -1.1443 -1.7956
  231MPD1     N 3566   1.578   2.655  15.391 -0.6654  0.1335 -0.2910
  231MPD1    H5 3567   1.664   2.680  15.438 -1.8220 -0.9384  2.3777
  231MPD1    N1 3568   1.445   2.420  15.796  0.4094  0.1115  0.0541
  231MPD1    H6 3569   1.515   2.476  15.843 -0.0966  0.1667  0.7386
  231MPD1    H7 3570   1.362   2.415  15.855  0.5618  0.3782  0.2865
  232MPD1     C 3571   4.121   1.082   1.123 -0.0825  0.1071 -0.5045
  232MPD1    C1 3572   3.988   1.101   1.088 -0.0173  0.6221  0.7538
  232MPD1    C2 3573   3.925   0.996   1.031 -0.7110 -0.1845  0.6480
  232MPD1    C3 3574   3.982   0.870   1.036  0.8106 -0.4777 -0.4442
  232MPD1    C4 3575   4.117   0.853   1.065  0.0480  0.0917  0.4667
  232MPD1    C5 3576   4.193   0.960   1.109 -0.1718 -0.2092  1.2079
  232MPD1     H 3577   3.825   1.011   0.992 -0.3216 -0.8641 -0.6132
  232MPD1    H1 3578   4.168   0.757   1.064 -0.4061 -0.1582  1.2912
  232MPD1    H2 3579   4.167   1.170   1.168 -1.7971  0.4220  0.6167
  232MPD1    H3 3580   4.297   0.952   1.137  0.1895 -1.9915 -0.6149
  232MPD1     N 3581   3.904   0.757   0.984 -0.0686  0.1624 -0.4595
  232MPD1    H5 3582   3.805   0.767   0.965  0.0793  0.9296 -0.8315
  232MPD1    N1 3583   3.913   1.224   1.103 -0.0062  0.1901  0.2385
  232MPD1    H6 3584   3.940   1.265   1.192  0.7377  1.2364 -0.4698
  232MPD1    H7 3585   3.813   1.208   1.096  0.0418 -0.4905  1.0591
  233MPD1     C 3586   4.533   3.119   0.664  0.4980  0.2549  0.1489
  233MPD1    C1 3587   4.499   3.057   0.783  0.1798 -0.4721  0.8471
  233MPD1    C2 3588   4.467   3.136   0.894 -0.1166  0.1984  0.2900
  233MPD1    C3 3589   4.451   3.272   0.890  0.0585 -0.0366  0.1974
  233MPD1    C4 3590   4.470   3.330   0.772 -0.0549 -0.4332 -0.7361
  233MPD1    C5 3591   4.520   3.257   0.662 -0.2627  0.1773  0.3756
  233MPD1     H 3592   4.446   3.084   0.987 -1.1551  0.1836  0.0377
  233MPD1    H1 3593   4.469   3.438   0.767  1.6233 -0.3503  0.9161
  233MPD1    H2 3594   4.562   3.064   0.575 -0.3308 -0.2595  0.1993
  233MPD1    H3 3595   4.556   3.304   0.572 -0.4630  1.6300  1.0550
  233MPD1     N 3596   4.394   3.343   0.999 -0.2391  0.6090 -0.4280
  233MPD1    H5 3597   4.360   3.438   0.984  0.2749  1.2048  2.0839
  233MPD1    N1 3598   4.529   2.923   0.808  0.3362 -0.4878  0.5178
  233MPD1    H6 3599   4.545   2.875   0.720 -2.2043 -1.2458  0.4703
  233MPD1    H7 3600   4.456   2.883   0.867 -1.2147 -0.8962 -1.6477
  234MPD1     C 3601   1.928   2.503   9.612  0.2955 -0.9551  1.1602
  234MPD1    C1 3602   1.891   2.602   9.696  1.0424 -0.0173 -0.2341
  234MPD1    C2 3603   1.753   2.621   9.720 -0.1491  0.2057  0.5367
  234MPD1    C3 3604   1.655   2.549   9.655 -0.4199  0.9174  0.0524
  234MPD1    C4 3605   1.696   2.448   9.568  0.3031 -0.0594 -0.1407
  234MPD1    C5 3606   1.832   2.429   9.550 -0.4904 -0.0257  0.3514
  234MPD1     H 3607   1.723   2.691   9.797  1.2359  1.3014  0.0869
  234MPD1    H1 3608   1.626   2.375   9.530 -0.1553 -0.3674  1.2858
  234MPD1    H2 3609   2.032   2.489   9.586  0.5381  2.3016  0.3493
  234MPD1    H3 3610   1.852   2.362   9.467  1.6424 -0.5824  1.3072
  234MPD1     N 3611   1.521   2.590   9.675 -0.2076  0.4148 -0.0472
  234MPD1    H5 3612   1.502   2.664   9.742  0.4051 -0.3466  0.9630
  234MPD1    N1 3613   1.994   2.662   9.773 -0.5062 -0.3019 -0.5928
  234MPD1    H6 3614   2.080   2.644   9.723 -0.9519 -2.0004 -0.7390
  234MPD1    H7 3615   1.987   2.764   9.775  1.1748 -0.1677 -1.5021
  235MPD1     C 3616   3.157   3.891  10.661  0.8716 -0.1849 -0.4405
  235MPD1    C1 3617   3.199   3.997  10.733 -0.0244  0.8693  0.0882
  235MPD1    C2 3618   3.182   4.122  10.673 -0.5887 -0.0660  0.6136
  235MPD1    C3 3619   3.170   4.123  10.538 -0.1682 -0.2996 -0.5133
  235MPD1    C4 3620   3.132   4.014  10.463  0.0841 -0.2096  0.3240
  235MPD1    C5 3621   3.111   3.902  10.529 -0.3755  0.2137  0.7576
  235MPD1     H 3622   3.200   4.206  10.739 -0.5707  1.2024 -1.0248
  235MPD1    H1 3623   3.096   4.022  10.362  2.9797  2.7190 -0.4890
  235MPD1    H2 3624   3.152   3.790  10.701 -2.2233 -0.8181 -2.4459
  235MPD1    H3 3625   3.093   3.807  10.478  1.2642  1.1301 -1.5730
  235MPD1     N 3626   3.161   4.255  10.480  0.4174  0.3766 -0.0422
  235MPD1    H5 3627   3.190   4.335  10.535 -1.5587  1.9974 -1.3331
  235MPD1    N1 3628   3.221   3.985  10.871 -0.4985 -0.0065 -0.3736
  235MPD1    H6 3629   3.277   3.904  10.895  1.8402  1.8372  0.3651
  235MPD1    H7 3630   3.271   4.070  10.895  0.0282  0.3709 -2.7700
  236MPD1     C 3631   2.044   1.168   9.180 -0.0042 -0.6235 -0.1518
  236MPD1    C1 3632   1.918   1.121   9.221 -0.4933 -0.4138  0.5994
  236MPD1    C2 3633   1.888   1.103   9.356  0.0646 -0.1223 -0.2204
  236MPD1    C3 3634   1.968   1.155   9.453  0.5915 -0.0193 -0.0863
  236MPD1    C4 3635   2.089   1.207   9.410  0.0978 -0.1993  0.4353
  236MPD1    C5 3636   2.130   1.211   9.276  0.4985 -0.1295  0.6569
  236MPD1     H 3637   1.787   1.064   9.368 -0.2581  1.1141  1.0677
  236MPD1    H1 3638   2.155   1.231   9.493 -0.2941 -0.5138  0.8385
  236MPD1    H2 3639   2.081   1.172   9.078  2.0732  1.2210  0.6749
  236MPD1    H3 3640   2.219   1.265   9.247 -0.3069  0.7655 -0.1635
  236MPD1     N 3641   1.947   1.149   9.593  0.0243  0.2389 -0.1330
  236MPD1    H5 3642   2.028   1.174   9.649 -2.1939  1.8653  2.3555
  236MPD1    N1 3643   1.827   1.077   9.119 -0.3841  0.3633 -0.5070
  236MPD1    H6 3644   1.728   1.081   9.141 -0.5541  0.7195 -1.3205
  236MPD1    H7 3645   1.851   1.103   9.023 -0.5454  1.9476 -0.1035
  237MPD1     C 3646   2.255   3.244  14.480  0.0310  0.0088  0.3165
  237MPD1    C1 3647   2.169   3.177  14.566 -0.5978 -0.5235  0.3185
  237MPD1    C2 3648   2.087   3.253  14.637 -0.5461  0.2667  0.4233
  237MPD1    C3 3649   2.094   3.387  14.644 -0.1028  0.1783  0.0914
  237MPD1    C4 3650   2.181   3.448  14.559 -0.2418  0.7782 -0.5818
  237MPD1    C5 3651   2.264   3.375  14.477 -0.0517  0.3641 -0.5436
  237MPD1     H 3652   2.012   3.200  14.694 -0.0355 -0.3087  0.5482
  237MPD1    H1 3653   2.182   3.556  14.554  1.4645  0.7916  0.1215
  237MPD1    H2 3654   2.320   3.194  14.410 -0.8623  1.1474 -1.3057
  237MPD1    H3 3655   2.326   3.420  14.400 -1.3546  0.6787 -1.4306
  237MPD1     N 3656   2.018   3.468  14.729  0.0899 -0.3678  0.4380
  237MPD1    H5 3657   2.027   3.569  14.720  0.2347 -0.5369 -1.3076
  237MPD1    N1 3658   2.144   3.041  14.559 -0.1047  0.7245 -0.8528
  237MPD1    H6 3659   2.220   3.004  14.502 -0.1766 -2.1909  0.9617
  237MPD1    H7 3660   2.146   2.982  14.642  2.3118  1.0205 -0.6989
  238MPD1     C 3661   3.588   2.639  15.542 -0.0339 -0.3322  0.0688
  238MPD1    C1 3662   3.589   2.541  15.450 -0.2417  0.7125 -0.5234
  238MPD1    C2 3663   3.503   2.544  15.343  0.0661 -0.4485  0.9277
  238MPD1    C3 3664   3.416   2.651  15.320  0.1629  0.0295  0.1791
  238MPD1    C4 3665   3.399   2.739  15.421 -0.2709  0.3343 -0.1060
  238MPD1    C5 3666   3.493   2.734  15.527  0.8516 -0.4987 -0.2202
  238MPD1     H 3667   3.498   2.460  15.274  3.5554  0.6831 -0.6966
  238MPD1    H1 3668   3.318   2.811  15.425 -0.5849 -0.0103 -0.4475
  238MPD1    H2 3669   3.639   2.637  15.637  0.6768 -0.3824 -0.3189
  238MPD1    H3 3670   3.484   2.815  15.599 -0.2185  1.1925 -2.2541
  238MPD1     N 3671   3.312   2.646  15.224  0.2616 -0.0503  0.3290
  238MPD1    H5 3672   3.252   2.728  15.219 -1.4201 -1.3214 -0.5406
  238MPD1    N1 3673   3.671   2.429  15.466 -0.1191 -0.5418  0.0730
  238MPD1    H6 3674   3.688   2.388  15.558 -1.2215 -2.5053 -0.6037
  238MPD1    H7 3675   3.640   2.352  15.407  1.2457  0.3996 -1.8623
  239MPD1     C 3676   4.060   4.510  14.676 -0.3735  0.2667 -0.1963
  239MPD1    C1 3677   3.929   4.553  14.704  0.0491 -0.5042  0.6011
  239MPD1    C2 3678   3.826   4.471  14.666 -0.1458 -0.5566  0.0370
  239MPD1    C3 3679   3.847   4.344  14.613  0.0986  0.0896 -0.5536
  239MPD1    C4 3680   3.981   4.310  14.582 -0.3650  0.6932 -0.2147
  239MPD1    C5 3681   4.090   4.386  14.619 -0.4395 -0.3481 -0.5383
  239MPD1     H 3682   3.723   4.504  14.679  0.0536 -0.5471  1.5517
  239MPD1    H1 3683   3.991   4.214  14.533 -1.6087  0.8728 -0.8153
  239MPD1    H2 3684   4.140   4.576  14.707 -0.4832 -0.2629  1.2383
  239MPD1    H3 3685   4.190   4.347  14.607 -1.0363 -1.5814 -1.5849
  239MPD1     N 3686   3.744   4.281  14.546 -0.3271 -0.4472 -0.5037
  239MPD1    H5 3687   3.779   4.217  14.475  3.2587  0.4094  0.5007
  239MPD1    N1 3688   3.908   4.670  14.780  0.4874  0.0939  0.3947
  239MPD1    H6 3689   3.979   0.001  14.776 -0.8607  1.4099 -0.0010
  239MPD1    H7 3690   3.817   4.714  14.765  0.2667 -0.5326 -0.0813
  240MPD1     C 3691   2.810   4.196  13.675 -0.4267 -0.4706  0.3890
  240MPD1    C1 3692   2.846   4.230  13.805  0.9525 -0.4892  0.2635
  240MPD1    C2 3693   2.841   4.128  13.894  0.1643 -0.2829  0.5638
  240MPD1    C3 3694   2.792   4.000  13.868  0.8374 -0.7581  0.3890
  240MPD1    C4 3695   2.756   3.974  13.740 -0.1886  0.0549  0.5993
  240MPD1    C5 3696   2.761   4.075  13.642 -0.3136 -0.5838 -0.0944
  240MPD1     H 3697   2.893   4.143  13.988 -0.0013  2.5500  0.2070
  240MPD1    H1 3698   2.731   3.875  13.705  0.9064 -1.1568  3.2049
  240MPD1    H2 3699   2.835   4.269  13.599 -3.4031  0.9379  0.7758
  240MPD1    H3 3700   2.758   4.048  13.537  0.0406  1.3347 -0.5960
  240MPD1     N 3701   2.786   3.905  13.967  0.6226 -0.8080  0.1493
  240MPD1    H5 3702   2.837   3.933  14.051 -1.2093  0.9623  0.6678
  240MPD1    N1 3703   2.900   4.356  13.829 -0.1750  1.1071 -0.5008
  240MPD1    H6 3704   2.917   4.377  13.927 -1.5080 -1.6375  0.3019
  240MPD1    H7 3705   2.851   4.437  13.791 -2.2783  0.9112  1.8039
  241MPD1     C 3706   3.473   3.328  14.232 -0.3160 -0.4783  0.0741
  241MPD1    C1 3707   3.431   3.448  14.283  0.2275  0.3350 -0.6677
  241MPD1    C2 3708   3.304   3.486  14.259 -0.1547 -0.0471 -0.1043
  241MPD1    C3 3709   3.219   3.408  14.180 -0.1854 -0.0425  0.1161
  241MPD1    C4 3710   3.263   3.293  14.121  1.0489 -0.4865 -0.1198
  241MPD1    C5 3711   3.394   3.253  14.148 -0.1524 -0.2503 -0.1361
  241MPD1     H 3712   3.283   3.583  14.301  0.5346 -0.0586  0.2754
  241MPD1    H1 3713   3.194   3.236  14.060 -1.6455  0.8864  1.6608
  241MPD1    H2 3714   3.567   3.283  14.261 -1.4291 -0.7176  3.3228
  241MPD1    H3 3715   3.431   3.165  14.097  0.6760 -0.2709  0.5141
  241MPD1     N 3716   3.090   3.445  14.146  0.0596 -0.5305 -0.6512
  241MPD1    H5 3717   3.029   3.381  14.095 -1.4914  0.1437  0.3443
  241MPD1    N1 3718   3.507   3.519  14.378  0.4105  0.4043  0.4442
  241MPD1    H6 3719   3.603   3.487  14.367 -0.1961 -1.5944  1.0764
  241MPD1    H7 3720   3.506   3.615  14.342  0.2716 -0.3497 -1.5636
  242MPD1     C 3721   2.536   1.868  15.858 -0.4127  0.4461  0.1713
  242MPD1    C1 3722   2.421   1.886  15.788  0.7813  0.6383  0.5745
  242MPD1    C2 3723   2.426   1.887  15.648 -0.7966 -0.5905 -0.0239
  242MPD1    C3 3724   2.539   1.833  15.581 -0.2147  0.8609 -0.5606
  242MPD1    C4 3725   2.645   1.801  15.661 -0.1483  0.4298 -0.0269
  242MPD1    C5 3726   2.643   1.824  15.799 -0.1512 -0.2454  0.4160
  242MPD1     H 3727   2.340   1.931  15.599  0.0222  0.0589 -0.8691
  242MPD1    H1 3728   2.724   1.741  15.618 -0.4616  0.6768 -0.9432
  242MPD1    H2 3729   2.536   1.867  15.966 -2.1144  1.5021  0.1817
  242MPD1    H3 3730   2.726   1.790  15.860  0.0664 -2.2102 -0.9806
  242MPD1     N 3731   2.546   1.823  15.441  0.2684 -1.0153 -0.3098
  242MPD1    H5 3732   2.635   1.794  15.401  1.1548  0.5743  0.5119
  242MPD1    N1 3733   2.320   1.938  15.862 -0.5719 -0.1690  0.1790
  242MPD1    H6 3734   2.232   1.902  15.826  0.3222 -4.1905  2.0360
  242MPD1    H7 3735   2.321   1.896  15.954 -0.3303 -4.2377 -1.7019
  243MPD1     C 3736   3.794   0.773   0.242  0.1558  0.6145  0.3239
  243MPD1    C1 3737   3.923   0.802   0.277  0.1620  0.4631  0.2651
  243MPD1    C2 3738   4.027   0.727   0.226  0.1310  0.0355  0.3977
  243MPD1    C3 3739   4.008   0.628   0.128 -0.7472  0.0247 -0.5290
  243MPD1    C4 3740   3.879   0.590   0.098 -0.6402  0.2900 -0.2462
  243MPD1    C5 3741   3.776   0.661   0.160  0.0742 -0.4607 -0.7227
  243MPD1     H 3742   4.126   0.762   0.252 -0.3420  0.3480  1.8186
  243MPD1    H1 3743   3.856   0.511   0.028 -0.6779 -0.7089  0.9067
  243MPD1    H2 3744   3.703   0.818   0.278 -0.7490 -0.8718 -0.1068
  243MPD1    H3 3745   3.673   0.636   0.139  0.6513 -1.9828 -1.7483
  243MPD1     N 3746   4.129   0.579   0.073  0.4703 -0.4274  0.1754
  243MPD1    H5 3747   4.214   0.600   0.123 -0.7966  1.1603  1.6764
  243MPD1    N1 3748   3.948   0.896   0.383 -0.9269  0.1348  0.0332
  243MPD1    H6 3749   4.041   0.922   0.413 -2.0284  4.5166 -0.3115
  243MPD1    H7 3750   3.898   0.871   0.468  0.0964 -3.1292 -0.3497
  244MPD1     C 3751   4.644   4.503   0.323 -0.1098 -0.6183  0.6533
  244MPD1    C1 3752   4.595   4.611   0.400 -0.1229 -0.3182  0.1827
  244MPD1    C2 3753   4.571   4.738   0.330  0.1416  0.0098  0.2291
  244MPD1    C3 3754   4.587   4.739   0.193 -0.3407 -0.1053 -0.7348
  244MPD1    C4 3755   4.621   4.629   0.122 -0.6652 -0.3631 -0.0783
  244MPD1    C5 3756   4.641   4.508   0.188 -0.0662  0.4902  0.1939
  244MPD1     H 3757   4.533   0.084   0.382  2.2891  0.9859  0.1556
  244MPD1    H1 3758   4.649   4.626   0.018 -1.0496  2.1840 -0.2536
  244MPD1    H2 3759   4.685   4.409   0.360 -0.4930  0.2248  3.1936
  244MPD1    H3 3760   4.674   4.426   0.125 -2.3763 -0.0310 -0.3250
  244MPD1     N 3761   4.537   0.102   0.111 -0.2052 -0.5177 -0.1865
  244MPD1    H5 3762   4.547   0.095   0.010  1.2304  0.4549 -0.1108
  244MPD1    N1 3763   4.611   4.617   0.535 -0.0327  0.2329 -0.0043
  244MPD1    H6 3764   4.583   4.532   0.585 -1.0944 -0.6162 -2.0390
  244MPD1    H7 3765   4.553   4.693   0.570  0.0759  0.1134  0.4311
  245MPD1     C 3766   2.083   0.463  13.908 -0.0443 -1.0329  0.0119
  245MPD1    C1 3767   2.105   0.504  14.037 -0.8161 -0.7485 -0.0500
  245MPD1    C2 3768   1.995   0.571  14.098 -0.3757  0.5496 -0.7411
  245MPD1    C3 3769   1.883   0.606  14.019  0.0900  0.3736  0.0533
  245MPD1    C4 3770   1.872   0.573  13.889  0.2887  0.5029 -0.1591
  245MPD1    C5 3771   1.969   0.495  13.837  0.2618  0.0573  0.4633
  245MPD1     H 3772   1.996   0.590  14.204  1.0829 -0.6641 -0.5389
  245MPD1    H1 3773   1.797   0.607  13.820 -0.9327  0.2692  1.0478
  245MPD1    H2 3774   2.152   0.404  13.847 -0.1152 -1.1213  0.0170
  245MPD1    H3 3775   1.958   0.432  13.749  0.8024  1.3908 -0.5596
  245MPD1     N 3776   1.775   0.671  14.088  0.3173 -0.4643 -0.2214
  245MPD1    H5 3777   1.796   0.690  14.186 -2.3099 -0.8456  0.4388
  245MPD1    N1 3778   2.204   0.447  14.122  0.4642 -0.1279  0.1772
  245MPD1    H6 3779   2.233   0.507  14.199 -4.7873  0.7894  1.4531
  245MPD1    H7 3780   2.289   0.417  14.074 -0.4735 -2.2621 -0.1649
  246MPD1     C 3781   0.685   0.591   8.627 -0.9534  0.0791 -0.0455
  246MPD1    C1 3782   0.801   0.584   8.697 -0.8287  0.2784 -0.0688
  246MPD1    C2 3783   0.875   0.698   8.720 -0.5314 -0.1808  0.3343
  246MPD1    C3 3784   0.845   0.826   8.671 -0.2929 -0.4103 -0.4534
  246MPD1    C4 3785   0.729   0.829   8.598  0.2605  0.1993  0.2484
  246MPD1    C5 3786   0.651   0.718   8.587 -0.1940  0.2892 -0.2713
  246MPD1     H 3787   0.968   0.691   8.776 -0.2777 -2.1945 -0.3677
  246MPD1    H1 3788   0.693   0.920   8.550  1.2671 -1.0212 -2.8155
  246MPD1    H2 3789   0.627   0.505   8.595 -1.2074  0.4547 -0.6067
  246MPD1    H3 3790   0.561   0.735   8.530  1.8435  2.1837 -2.9408
  246MPD1     N 3791   0.938   0.929   8.703  0.7997 -0.3284 -0.0697
  246MPD1    H5 3792   1.025   0.899   8.746 -0.0097  0.3231  1.9809
  246MPD1    N1 3793   0.829   0.460   8.749  0.2539 -1.1174  0.8623
  246MPD1    H6 3794   0.802   0.381   8.690 -3.7218  0.6672  0.3439
  246MPD1    H7 3795   0.926   0.447   8.778  1.2676  2.9752 -0.6705
  247MPD1     C 3796   0.781   0.842  16.818  0.1515  0.5687  0.4541
  247MPD1    C1 3797   0.762   0.973  16.811 -0.0582 -0.8911  0.1057
  247MPD1    C2 3798   0.827   1.039  16.709  0.4360 -0.3750  0.9273
  247MPD1    C3 3799   0.906   0.969  16.616 -0.5728 -0.4675  0.1789
  247MPD1    C4 3800   0.920   0.831  16.627 -0.2577  0.3208  0.5129
  247MPD1    C5 3801   0.857   0.773  16.732 -0.1680  0.2689 -0.5766
  247MPD1     H 3802   0.799   1.141  16.685 -1.1497 -0.9310  0.3727
  247MPD1    H1 3803   0.989   0.773  16.567 -0.0563  1.6985 -0.5907
  247MPD1    H2 3804   0.725   0.791  16.896 -0.3015  0.5254  0.0999
  247MPD1    H3 3805   0.864   0.667  16.756  0.4679  0.9267  2.0956
  247MPD1     N 3806   0.986   1.032  16.521  0.4593 -0.1728 -0.5571
  247MPD1    H5 3807   1.038   0.965  16.465  0.9752 -0.3035  0.0718
  247MPD1    N1 3808   0.703   1.037  16.923 -0.4903 -0.3676 -0.3473
  247MPD1    H6 3809   0.637   0.974  16.969 -0.3194  0.4024  0.9459
  247MPD1    H7 3810   0.665   1.129  16.903  0.9856  0.6255  1.5173
  248MPD1     C 3811   0.861   4.268  17.478 -0.0871  0.1753  0.6798
  248MPD1    C1 3812   0.839   4.371  17.397 -0.0002  0.1818 -0.2889
  248MPD1    C2 3813   0.916   4.481  17.419  0.4342  0.5659 -0.3869
  248MPD1    C3 3814   1.002   4.490  17.530  0.6084 -0.3625  0.2595
  248MPD1    C4 3815   1.030   4.377  17.605  0.4623 -0.9504 -0.5160
  248MPD1    C5 3816   0.956   4.270  17.576 -0.1144 -0.8293 -0.0638
  248MPD1     H 3817   0.905   4.558  17.343  0.7183  2.7336  1.7564
  248MPD1    H1 3818   1.096   4.375  17.692 -1.4404 -2.1644  0.8875
  248MPD1    H2 3819   0.806   4.174  17.477  0.2584  0.0144 -2.7843
  248MPD1    H3 3820   0.966   4.188  17.646 -0.0225 -1.3161 -0.6423
  248MPD1     N 3821   1.066   4.616  17.555  0.4478  0.1953  0.4018
  248MPD1    H5 3822   1.041   4.688  17.488 -1.4460 -2.2670 -1.5538
  248MPD1    N1 3823   0.741   4.366  17.294  0.1688 -0.6909 -0.0237
  248MPD1    H6 3824   0.730   4.281  17.240 -1.2515 -0.1656 -0.5538
  248MPD1    H7 3825   0.753   4.442  17.228 -3.7627  0.1021  0.1320
  249MPD1     C 3826   3.694   3.313  10.882 -0.8365  0.1571  0.7530
  249MPD1    C1 3827   3.765   3.430  10.854 -0.0463 -0.6785 -0.3962
  249MPD1    C2 3828   3.761   3.460  10.720 -0.3167 -0.1724 -0.1838
  249MPD1    C3 3829   3.681   3.402  10.620  0.5872  0.2225  0.0969
  249MPD1    C4 3830   3.600   3.296  10.659 -0.9048 -0.4310  0.1789
  249MPD1    C5 3831   3.607   3.255  10.787  0.0257 -0.1949  0.3977
  249MPD1     H 3832   3.834   3.534  10.687 -0.5386  0.2992  0.3861
  249MPD1    H1 3833   3.542   3.232  10.593 -0.6203  0.5152 -0.9845
  249MPD1    H2 3834   3.723   3.263  10.974  1.0735 -0.6319 -0.2722
  249MPD1    H3 3835   3.555   3.161  10.800 -3.7231  1.6037 -1.6786
  249MPD1     N 3836   3.681   3.453  10.492 -0.5570 -0.0827 -0.5403
  249MPD1    H5 3837   3.755   3.520  10.479 -0.8154  0.1686 -0.7132
  249MPD1    N1 3838   3.864   3.488  10.937  0.5216  0.0920 -0.1999
  249MPD1    H6 3839   3.832   3.482  11.034 -0.5631  2.3077 -0.4039
  249MPD1    H7 3840   3.877   3.584  10.906  2.3499 -0.1558 -0.2050
  250MPD2     C 3841   4.543   3.840  13.404 -0.0841 -0.0532 -0.9716
  250MPD2    C1 3842   4.590   3.876  13.279  0.4499 -0.0383  1.2048
  250MPD2    C2 3843   4.556   3.795  13.170 -0.1692  0.3996  0.4573
  250MPD2    C3 3844   4.474   3.689  13.188 -0.2885  0.6817 -0.2502
  250MPD2    C4 3845   4.427   3.652  13.313 -0.0464  0.1734 -0.0148
  250MPD2    C5 3846   4.460   3.731  13.422  0.1964 -0.3666 -0.3181
  250MPD2     H 3847   4.593   3.828  13.073 -1.2672  0.2139 -0.0286
  250MPD2    H1 3848   4.376   3.558  13.329  2.2512 -0.9287  0.6432
  250MPD2    H2 3849   4.562   3.902  13.491  1.4966 -1.2297 -0.4926
  250MPD2    H3 3850   4.434   3.698  13.522  0.7623 -0.6519 -0.2630
  250MPD2     N 3851   4.426   3.614  13.083 -0.4384 -0.4899  0.1618
  250MPD2    H5 3852   4.372   3.532  13.108 -1.1742  0.7829  2.7968
  250MPD2    N1 3853   4.656   3.999  13.273  0.3612  0.1522 -1.1883
  250MPD2    H7 3854   4.658   4.056  13.356  1.5099 -1.5449 -0.0484
  251TMC3    C1 3855   4.726   4.193  13.154 -0.1585  0.5470 -0.6408
  251TMC3    C2 3856   4.617   4.270  13.196  0.1463  0.4105  0.0748
  251TMC3    C3 3857   4.635   4.403  13.181 -1.2875  0.0856  0.1040
  251TMC3    C4 3858   0.096   4.244  13.086 -0.0861  0.0765 -0.0236
  251TMC3    C5 3859   0.104   4.385  13.074 -0.3006 -0.0459 -0.2577
  251TMC3    C6 3860   0.008   4.468  13.131  0.7956  0.5999  0.1767
  251TMC3     C 3861   4.719   4.047  13.160  0.2430 -0.3369 -0.2305
  251TMC3     O 3862   0.021   3.988  13.062  0.2286 -0.2029  0.0784
  251TMC3     H 3863   4.528   4.225  13.238  1.2016  0.3878  2.2839
  251TMC3    H1 3864   0.172   4.176  13.047  0.9433  1.2002  0.0417
  251TMC3    H2 3865   0.017   4.576  13.117 -1.1282  0.5300 -1.6307
  251TMC3    C7 3866   0.237   4.439  13.051  0.4451 -0.4515  0.1622
  251TMC3    C8 3867   4.524   4.488  13.205  0.2790 -0.3891 -0.3637
  251TMC3    O1 3868   0.330   4.358  13.058  0.2609 -0.4322  0.0443
  251TMC3    O2 3869   4.456   4.454  13.304 -0.7414 -0.1192 -0.1795
  252TMC3    C1 3870   0.520   4.394   9.544  0.6111 -0.0706  0.1821
  252TMC3    C2 3871   0.574   4.520   9.550  0.2765 -0.3567 -0.1749
  252TMC3    C3 3872   0.529   4.602   9.650  0.0088 -0.2156 -0.6608
  252TMC3    C4 3873   0.415   4.361   9.621 -0.0623 -0.5191 -0.1058
  252TMC3    C5 3874   0.373   4.452   9.715 -0.3733 -0.4383 -0.3718
  252TMC3    C6 3875   0.429   4.573   9.730 -0.3209  0.4258 -0.8858
  252TMC3     C 3876   0.585   4.285   9.483 -0.3637 -0.3825  0.3697
  252TMC3     O 3877   0.516   4.184   9.481 -0.6836  0.5307 -0.4041
  252TMC3     H 3878   0.661   4.544   9.491 -0.0634  1.1811 -0.0333
  252TMC3    H1 3879   0.374   4.261   9.620  1.2577 -1.0588 -0.4708
  252TMC3    H2 3880   0.392   4.634   9.812  0.0493 -1.8633  0.9879
  252TMC3    C7 3881   0.250   4.426   9.789 -0.2193  0.1594  0.4007
  252TMC3    C8 3882   0.630   4.698   9.683 -0.5329  0.3137 -0.1074
  252TMC3    O1 3883   0.217   4.490   9.888  0.3326  0.4790 -0.3267
  252TMC3    O2 3884   0.730   4.701   9.612  0.2643 -0.1200 -0.3793
  253MPD2     C 3885   1.244   3.962  14.808 -0.4177 -0.3541 -0.4335
  253MPD2    C1 3886   1.116   3.941  14.858  0.1921 -0.0348  0.1007
  253MPD2    C2 3887   1.091   3.962  14.989 -0.1700 -0.6568 -0.0316
  253MPD2    C3 3888   1.192   4.000  15.082  0.8119  0.5557 -0.4802
  253MPD2    C4 3889   1.318   4.026  15.029 -0.4467  0.2717 -0.7104
  253MPD2    C5 3890   1.342   4.009  14.894  0.2822 -0.0579 -0.5485
  253MPD2     H 3891   0.985   3.956  15.010 -0.0989 -1.3886  0.1307
  253MPD2    H1 3892   1.403   4.065  15.083  1.6845  1.9877 -5.3319
  253MPD2    H2 3893   1.271   3.955  14.703 -0.2007  1.2205 -0.4849
  253MPD2    H3 3894   1.440   4.037  14.855  0.1396  2.2141  0.7516
  253MPD2     N 3895   1.176   4.010  15.223 -0.1625 -0.7965  0.7638
  253MPD2    H5 3896   1.255   4.053  15.271 -1.1220  1.8305  0.0021
  253MPD2    N1 3897   1.003   3.916  14.775  0.2809  0.2543 -0.5165
  253MPD2    H7 3898   0.917   3.894  14.824  0.5487  3.4574  1.4213
  254TMC3    C1 3899   1.053   4.023  15.432 -0.0145 -0.0786 -0.0349
  254TMC3    C2 3900   0.932   4.057  15.485 -0.2188  0.7657  0.2590
  254TMC3    C3 3901   0.927   4.081  15.621  0.1430  0.6275 -0.0036
  254TMC3    C4 3902   1.164   4.000  15.515 -0.0674 -0.3292 -0.9022
  254TMC3    C5 3903   1.148   4.012  15.649  0.1129  0.5677 -0.7096
  254TMC3    C6 3904   1.030   4.055  15.704  0.3429  0.5247 -0.1274
  254TMC3     C 3905   1.051   4.000  15.287 -0.0488  0.2950  0.3160
  254TMC3     O 3906   0.938   3.989  15.237  0.0460 -0.4672 -0.1553
  254TMC3     H 3907   0.845   4.072  15.422  1.1457  1.3145 -1.4791
  254TMC3    H1 3908   1.259   3.968  15.474  1.1464  0.7398  1.0869
  254TMC3    H2 3909   1.021   4.059  15.812 -1.8097  0.2830 -0.2851
  254TMC3    C7 3910   1.272   4.033  15.716  0.6303  0.1677  0.8178
  254TMC3    C8 3911   0.801   4.095  15.690 -0.3169 -0.3118  0.7258
  254TMC3    O1 3912   1.367   4.072  15.646  0.0995  0.5230 -0.9385
  254TMC3    O2 3913   0.809   4.048  15.806  0.3813  0.4217  0.5203
  255MPD2     C 3914   4.400   1.809  10.165 -0.0289 -0.4536  0.4486
  255MPD2    C1 3915   4.445   1.936  10.139  0.1866  0.0561 -0.2151
  255MPD2    C2 3916   4.579   1.964  10.164  0.4722  0.4151  0.4758
  255MPD2    C3 3917   4.671   1.860  10.199  0.0080 -0.0732 -0.2116
  255MPD2    C4 3918   4.623   1.729  10.217 -0.6672  0.0629 -0.3197
  255MPD2    C5 3919   4.486   1.709  10.208  0.2252 -0.2710 -0.1116
  255MPD2     H 3920   4.615   2.066  10.162  2.4940 -0.2864  0.4609
  255MPD2    H1 3921   4.695   1.650  10.236  1.0155  1.5528 -0.4683
  255MPD2    H2 3922   4.296   1.782  10.154 -0.0634 -0.2508  0.2553
  255MPD2    H3 3923   4.457   1.605  10.216  0.1590 -0.3080 -0.8751
  255MPD2     N 3924   0.065   1.898  10.207 -0.1731 -0.0171 -0.4205
  255MPD2    H5 3925   0.087   1.996  10.196 -4.3999  0.6418 -2.9367
  255MPD2    N1 3926   4.350   2.023  10.088 -0.5595  0.1470 -0.1059
  255MPD2    H7 3927   4.260   1.982  10.069 -0.0101 -1.2271  0.2001
  256TMC3    C1 3928   4.258   2.222  10.000 -0.0339  0.1220 -0.2952
  256TMC3    C2 3929   4.246   2.356  10.034 -0.0768 -0.1348  0.2420
  256TMC3    C3 3930   4.117   2.407  10.044  0.0214  0.0072 -0.1537
  256TMC3    C4 3931   4.152   2.151   9.961 -0.0552 -0.4274  0.1434
  256TMC3    C5 3932   4.027   2.204   9.961 -0.6306  0.4862  0.8001
  256TMC3    C6 3933   4.008   2.330  10.012 -0.2342  0.1143  0.2113
  256TMC3     C 3934   4.375   2.154  10.061 -0.0526  0.0713  0.6039
  256TMC3     O 3935   4.470   2.227  10.081  0.3360  0.6370  0.2236
  256TMC3     H 3936   4.337   2.409  10.062 -0.9566  2.2153 -1.4059
  256TMC3    H1 3937   4.158   2.050   9.921 -3.0073 -0.5723  0.0521
  256TMC3    H2 3938   3.909   2.373  10.012  0.3996  1.6062 -1.0707
  256TMC3    C7 3939   3.920   2.135   9.906 -0.3033  0.5461  0.7042
  256TMC3    C8 3940   4.095   2.524  10.131  0.3985  0.0366 -0.1800
  256TMC3    O1 3941   3.945   2.083   9.794  0.1169  0.5787 -0.0219
  256TMC3    O2 3942   3.987   2.540  10.189 -0.1580  0.3031  0.0230
  257MPD2     C 3943   2.952   3.651  12.853  0.4246 -0.1410  0.2763
  257MPD2    C1 3944   3.010   3.754  12.922 -0.1910 -0.7256 -0.0157
  257MPD2    C2 3945   3.056   3.724  13.051 -0.2797 -0.3487 -0.4023
  257MPD2    C3 3946   3.043   3.595  13.105 -0.1372 -0.1464  0.0412
  257MPD2    C4 3947   2.980   3.497  13.035  0.8925 -0.2571  0.0745
  257MPD2    C5 3948   2.937   3.528  12.907  0.3829 -0.0779  1.0165
  257MPD2     H 3949   3.098   3.809  13.104  2.2468 -1.2316 -0.9867
  257MPD2    H1 3950   2.964   3.396  13.070 -1.4616 -0.5879 -1.9551
  257MPD2    H2 3951   2.908   3.661  12.754  1.9579 -0.5024 -0.4490
  257MPD2    H3 3952   2.886   3.459  12.841 -0.9498  2.5777 -0.7206
  257MPD2     N 3953   3.079   3.564  13.239  0.3642  0.3576  0.0822
  257MPD2    H5 3954   3.057   3.469  13.266 -2.2395  0.8444 -0.2975
  257MPD2    N1 3955   3.029   3.875  12.861  0.8511  0.3265 -0.2792
  257MPD2    H7 3956   2.969   3.888  12.780 -0.5226  1.3558  0.8962
  258TMC3    C1 3957   3.168   3.579  13.455 -0.4436 -0.4345  0.2956
  258TMC3    C2 3958   3.234   3.460  13.439  0.0060  0.6672 -0.0495
  258TMC3    C3 3959   3.271   3.394  13.545  0.3651 -0.2140 -0.3256
  258TMC3    C4 3960   3.146   3.631  13.582 -0.8798 -0.5208  0.7274
  258TMC3    C5 3961   3.208   3.564  13.680 -0.4201  0.2865 -0.2263
  258TMC3    C6 3962   3.269   3.440  13.671 -0.7084  0.4720 -0.3861
  258TMC3     C 3963   3.125   3.653  13.335  0.7468  0.2956 -0.3761
  258TMC3     O 3964   3.104   3.773  13.340  0.5462  0.1851  0.1515
  258TMC3     H 3965   3.261   3.429  13.338  1.7101 -1.1737  0.9434
  258TMC3    H1 3966   3.097   3.727  13.592 -1.7864 -0.8957 -0.2115
  258TMC3    H2 3967   3.301   3.384  13.759  0.4850 -0.8735 -1.6796
  258TMC3    C7 3968   3.218   3.639  13.806  0.5567  0.6092 -0.8221
  258TMC3    C8 3969   3.352   3.272  13.526 -0.4724 -0.6638 -0.4255
  258TMC3    O1 3970   3.153   3.742  13.818 -0.4317  0.5283 -0.5542
  258TMC3    O2 3971   3.442   3.238  13.602  0.0457 -0.2881 -0.2884
  259MPD2     C 3972   2.451   0.779   0.469  0.4958 -0.2112  0.4851
  259MPD2    C1 3973   2.533   0.676   0.509 -0.5175 -0.0690 -0.0705
  259MPD2    C2 3974   2.638   0.632   0.430 -0.9500 -0.1476  0.0478
  259MPD2    C3 3975   2.655   0.685   0.299  0.1390  0.1119 -0.7499
  259MPD2    C4 3976   2.565   0.785   0.261 -0.1198  0.2804 -0.0486
  259MPD2    C5 3977   2.462   0.829   0.346  0.2523 -0.1695  0.3119
  259MPD2     H 3978   2.703   0.554   0.470 -0.7186  0.1310  0.2127
  259MPD2    H1 3979   2.567   0.832   0.163 -1.9007 -1.2513 -0.8210
  259MPD2    H2 3980   2.371   0.824   0.527 -0.4600 -1.3612  0.0695
  259MPD2    H3 3981   2.399   0.909   0.309 -0.4221 -1.4956 -1.4685
  259MPD2     N 3982   2.755   0.631   0.219 -0.2929 -0.4287 -0.0985
  259MPD2    H5 3983   2.808   0.553   0.255 -2.2698 -0.8663  1.8597
  259MPD2    N1 3984   2.513   0.634   0.638 -0.1512 -0.9218  0.3491
  259MPD2    H7 3985   2.449   0.694   0.690  1.0220  1.5287 -0.9988
  260TMC3    C1 3986   2.916   0.624   0.050  0.2536  0.1198  0.2913
  260TMC3    C2 3987   3.030   0.694   0.068 -0.2608  0.0894  0.0772
  260TMC3    C3 3988   3.142   0.630   0.107  0.2403  0.8415 -0.4722
  260TMC3    C4 3989   2.919   0.485   0.053  0.5574  0.4132  0.0699
  260TMC3    C5 3990   3.040   0.420   0.069 -0.4545  0.1725 -0.0399
  260TMC3    C6 3991   3.155   0.492   0.101 -0.4483  0.3075  0.5003
  260TMC3     C 3992   2.800   0.689   0.100  0.3222  0.3216  0.3999
  260TMC3     O 3993   2.765   0.792   0.046 -0.5527  0.8197  0.3645
  260TMC3     H 3994   3.024   0.802   0.062 -2.7183  0.1193  3.1712
  260TMC3    H1 3995   2.826   0.433   0.031  1.0384 -0.8361  0.9878
  260TMC3    H2 3996   3.251   0.443   0.111 -1.9251 -2.4936  1.1194
  260TMC3    C7 3997   3.062   0.303  17.753  0.5975  0.3531  0.1003
  260TMC3    C8 3998   3.253   0.713   0.152  0.5780 -0.0768 -0.4708
  260TMC3    O1 3999   2.960   0.269  17.691 -0.5652 -0.0489 -0.1822
  260TMC3    O2 4000   3.253   0.829   0.111 -0.5407 -0.1923  0.1417
  261MPD2     C 4001   4.111   3.597  12.270 -0.0333  0.5680 -0.1460
  261MPD2    C1 4002   4.195   3.667  12.345 -0.3311  0.1706 -0.2498
  261MPD2    C2 4003   4.231   3.800  12.305  0.1500 -0.2960  0.1671
  261MPD2    C3 4004   4.165   3.858  12.193 -0.1178 -0.2434 -0.0498
  261MPD2    C4 4005   4.081   3.777  12.121  0.3767  0.2882  0.7569
  261MPD2    C5 4006   4.055   3.644  12.156 -0.1264 -0.7099  0.5425
  261MPD2     H 4007   4.300   3.853  12.370  0.8430 -1.2779  0.2235
  261MPD2    H1 4008   4.044   3.813  12.026  0.1565 -1.8591  0.0390
  261MPD2    H2 4009   4.077   3.499  12.301  0.6878  0.7688  1.3188
  261MPD2    H3 4010   3.992   3.577  12.099 -0.5337  1.3549 -1.4653
  261MPD2     N 4011   4.188   3.992  12.148  0.2284 -1.0294 -0.4480
  261MPD2    H5 4012   4.135   4.020  12.066 -0.0451 -0.3160 -0.0301
  261MPD2    N1 4013   4.266   3.612  12.456 -0.3158 -0.2403  0.2511
  261MPD2    H7 4014   4.340   3.668  12.497 -1.2188 -0.2742  1.9090
  262TMC3    C1 4015   4.262   4.215  12.133  0.8558 -1.1883  0.5238
  262TMC3    C2 4016   4.150   4.245  12.068  0.0206  0.1306  0.1816
  262TMC3    C3 4017   4.140   4.342  11.981 -0.3321 -0.0513  0.2373
  262TMC3    C4 4018   4.367   4.297  12.131  0.0561  0.7051 -0.1605
  262TMC3    C5 4019   4.364   4.392  12.030 -0.6967 -0.1453  0.1357
  262TMC3    C6 4020   4.250   4.416  11.954 -0.7868  0.4302 -0.3199
  262TMC3     C 4021   4.275   4.084  12.199 -0.2935 -0.1331 -0.1797
  262TMC3     O 4022   4.357   4.074  12.292  0.9837 -0.2961 -0.4116
  262TMC3     H 4023   4.063   4.182  12.088 -0.1904 -0.2868 -2.0367
  262TMC3    H1 4024   4.456   4.273  12.187 -0.8117 -0.0766  0.8809
  262TMC3    H2 4025   4.240   4.497  11.882 -0.1621 -1.2505 -2.3181
  262TMC3    C7 4026   4.483   4.461  12.005 -0.0036  0.6524  0.2997
  262TMC3    C8 4027   4.010   4.383  11.931  0.6601  0.2229  0.3433
  262TMC3    O1 4028   4.587   4.395  12.013 -0.2089 -0.3564  0.1701
  262TMC3    O2 4029   4.002   4.409  11.814 -0.4466 -0.2122  0.0263
  263MPD2     C 4030   0.388   3.074  11.309 -0.2331 -0.6516 -0.6994
  263MPD2    C1 4031   0.509   3.127  11.273 -0.5569 -0.1297  0.0919
  263MPD2    C2 4032   0.514   3.228  11.178  0.2414 -0.2404 -0.1777
  263MPD2    C3 4033   0.395   3.265  11.113 -0.1930 -0.3937 -0.1160
  263MPD2    C4 4034   0.271   3.206  11.147 -0.3937 -0.5943  0.3961
  263MPD2    C5 4035   0.270   3.115  11.249 -0.3461  0.2875  0.0894
  263MPD2     H 4036   0.603   3.277  11.140 -0.8482  1.6729 -0.2351
  263MPD2    H1 4037   0.177   3.225  11.098 -0.4201 -0.3013  0.5595
  263MPD2    H2 4038   0.394   2.995  11.383  0.4449 -1.2115 -1.3520
  263MPD2    H3 4039   0.176   3.064  11.267  0.6579 -1.6395 -0.1375
  263MPD2     N 4040   0.403   3.355  11.007  0.0644  0.2879 -0.2939
  263MPD2    H5 4041   0.499   3.375  10.980 -1.2883  3.2675 -2.9477
  263MPD2    N1 4042   0.617   3.077  11.341 -0.2351  0.7080  0.8857
  263MPD2    H7 4043   0.600   3.007  11.412 -1.0435  0.1703  0.1647
  264TMC3    C1 4044   0.339   3.528  10.848 -0.0091  0.5920  0.2974
  264TMC3    C2 4045   0.254   3.632  10.836 -0.2806  0.2858  0.2454
  264TMC3    C3 4046   0.275   3.718  10.730  0.1268 -0.4895  0.0743
  264TMC3    C4 4047   0.451   3.509  10.769 -1.4380 -0.3389  0.1054
  264TMC3    C5 4048   0.468   3.596  10.660  0.3833  0.0303  0.4347
  264TMC3    C6 4049   0.375   3.691  10.646  0.0650  1.0081  0.2850
  264TMC3     C 4050   0.302   3.435  10.955  0.0528 -0.0952 -0.1677
  264TMC3     O 4051   0.182   3.432  10.988 -0.4208 -0.2811 -0.2412
  264TMC3     H 4052   0.164   3.651  10.894 -1.6535 -1.0569 -1.4506
  264TMC3    H1 4053   0.522   3.430  10.788  0.6156  1.2171 -1.1350
  264TMC3    H2 4054   0.373   3.751  10.555  0.1774  1.6381  0.6930
  264TMC3    C7 4055   0.588   3.609  10.589  0.0437  0.0510  0.8751
  264TMC3    C8 4056   0.294   3.859  10.761  1.0998 -0.4372  0.9896
  264TMC3    O1 4057   0.674   3.519  10.587 -0.4366  0.0381  0.4696
  264TMC3    O2 4058   0.387   3.909  10.704 -0.1120  0.0345  0.0078
  265MPD2     C 4059   2.152   3.939  15.542 -0.5601  0.2499  0.1727
  265MPD2    C1 4060   2.248   4.038  15.516 -0.2221 -0.1155 -1.0325
  265MPD2    C2 4061   2.329   4.016  15.403 -0.2018 -0.2578 -0.8199
  265MPD2    C3 4062   2.306   3.906  15.319  0.1387 -0.1480  0.2801
  265MPD2    C4 4063   2.201   3.821  15.341 -0.0863  0.1987 -0.2617
  265MPD2    C5 4064   2.123   3.840  15.448 -0.7144 -0.2790  0.1719
  265MPD2     H 4065   2.409   4.088  15.392 -0.5192  0.2396  0.1355
  265MPD2    H1 4066   2.183   3.740  15.271 -0.4857 -1.2988  1.5770
  265MPD2    H2 4067   2.083   3.943  15.626 -0.4452 -1.1284  0.3291
  265MPD2    H3 4068   2.037   3.775  15.456 -1.3476  0.7425  1.6780
  265MPD2     N 4069   2.382   3.874  15.205 -0.6444 -0.1607 -0.9463
  265MPD2    H5 4070   2.369   3.792  15.146  1.1096 -1.3830  0.3678
  265MPD2    N1 4071   2.277   4.149  15.596  0.3938 -0.3597  0.0724
  265MPD2    H7 4072   2.362   4.199  15.576  0.9242 -0.5395  1.8946
  266TMC3    C1 4073   2.236   4.317  15.761  0.0024  1.1412 -1.3081
  266TMC3    C2 4074   2.225   4.335  15.900 -0.1674  0.6510 -0.3803
  266TMC3    C3 4075   2.216   4.465  15.948 -0.1719 -0.3129 -0.2635
  266TMC3    C4 4076   2.248   4.422  15.679  0.1304  0.0471 -0.4619
  266TMC3    C5 4077   2.250   4.545  15.733  0.0033 -0.4324  1.0576
  266TMC3    C6 4078   2.226   4.570  15.864 -1.2091 -0.1230 -0.1814
  266TMC3     C 4079   2.195   4.188  15.706  0.0012 -0.3946 -0.5606
  266TMC3     O 4080   2.104   4.122  15.760 -0.2367  0.3422  0.4724
  266TMC3     H 4081   2.200   4.254  15.968  0.3805  0.7379 -0.0795
  266TMC3    H1 4082   2.251   4.410  15.572 -1.0287  1.0334 -0.6090
  266TMC3    H2 4083   2.216   4.671  15.900  0.5156  0.5518 -1.6033
  266TMC3    C7 4084   2.247   4.659  15.647 -0.2701 -0.3721 -0.1757
  266TMC3    C8 4085   2.171   4.495  16.086  0.4324 -0.1519  0.0908
  266TMC3    O1 4086   2.204   4.642  15.535 -0.1183  0.3665 -0.7550
  266TMC3    O2 4087   2.106   4.414  16.149  0.4187 -0.7965 -0.0238
  267MPD2     C 4088   4.583   0.894   0.786  0.1323 -0.5644 -0.1081
  267MPD2    C1 4089   4.633   0.952   0.668 -0.2801  0.3935 -0.0154
  267MPD2    C2 4090   4.567   1.062   0.609  0.5941  0.1419 -0.2253
  267MPD2    C3 4091   4.450   1.114   0.656 -0.3172 -0.6168  0.1154
  267MPD2    C4 4092   4.400   1.050   0.770  0.1748 -0.3859 -0.4896
  267MPD2    C5 4093   4.471   0.953   0.839 -0.7997  0.8970  0.4483
  267MPD2     H 4094   4.608   1.104   0.518 -0.9094  2.7267  0.2750
  267MPD2    H1 4095   4.308   1.081   0.818 -0.1711 -0.6647 -0.9745
  267MPD2    H2 4096   4.633   0.815   0.841  1.7446 -1.3706 -2.6901
  267MPD2    H3 4097   4.432   0.891   0.919  2.6089 -0.6610  0.8688
  267MPD2     N 4098   4.381   1.222   0.584  0.2464  0.3952 -0.5533
  267MPD2    H5 4099   4.426   1.244   0.496  0.7585 -1.1129 -0.6788
  267MPD2    N1 4100   0.011   0.902   0.616  0.5636 -0.1858  0.0328
  267MPD2    H7 4101   0.051   0.825   0.669 -2.7730 -0.3095  2.4552
  268TMC3    C1 4102   0.186   0.846   0.484 -0.1174 -0.7791 -0.0508
  268TMC3    C2 4103   0.227   0.805   0.361  0.2661 -0.2632  0.5563
  268TMC3    C3 4104   0.359   0.761   0.347  0.3426 -0.4760  0.4648
  268TMC3    C4 4105   0.274   0.862   0.587 -0.1891  0.0186 -0.1023
  268TMC3    C5 4106   0.397   0.808   0.564 -0.3638 -0.1807 -0.1185
  268TMC3    C6 4107   0.443   0.759   0.446 -0.6580  0.3977  0.2202
  268TMC3     C 4108   0.068   0.929   0.494 -0.1806  0.2806  0.0927
  268TMC3     O 4109   0.028   0.991   0.393 -0.0035  0.3030  0.2121
  268TMC3     H 4110   0.153   0.807   0.281  0.8557 -0.0564  0.0173
  268TMC3    H1 4111   0.244   0.902   0.683  0.7841 -1.5383  0.8588
  268TMC3    H2 4112   0.543   0.720   0.436 -1.4589 -1.5615  0.0048
  268TMC3    C7 4113   0.501   0.813   0.663  0.5904 -0.1988 -0.1737
  268TMC3    C8 4114   0.406   0.744   0.217  0.0769 -0.6858  0.2910
  268TMC3    O1 4115   0.590   0.730   0.645  0.2765  0.5825  0.1238
  268TMC3    O2 4116   0.517   0.690   0.212  0.3114  0.2280  0.2027
  269MPD2     C 4117   0.160   4.550  15.401  0.0762 -0.2049 -0.0598
  269MPD2    C1 4118   0.106   4.538  15.533 -0.0452 -0.2868 -0.1582
  269MPD2    C2 4119   0.114   4.646  15.617  0.5018 -1.0070  0.2227
  269MPD2    C3 4120   0.154   0.029  15.559  0.2914  0.0179 -0.1625
  269MPD2    C4 4121   0.183   0.040  15.424 -0.0965  0.3015  0.1490
  269MPD2    C5 4122   0.184   4.672  15.342 -0.0559  0.0190 -0.2031
  269MPD2     H 4123   0.098   4.638  15.724  0.5291  0.7531  0.3626
  269MPD2    H1 4124   0.218   0.131  15.376  2.0874  0.5737  2.2469
  269MPD2    H2 4125   0.168   4.469  15.329  1.8018 -0.1318  0.0501
  269MPD2    H3 4126   0.204   4.676  15.235 -2.1201 -1.4167 -0.6605
  269MPD2     N 4127   0.159   0.141  15.650  0.1899 -0.2299  0.2565
  269MPD2    H5 4128   0.151   0.120  15.749 -0.2991  1.2989  0.5495
  269MPD2    N1 4129   0.057   4.412  15.570 -0.4780  0.0847  0.2359
  269MPD2    H7 4130   0.065   4.339  15.500  1.1112 -1.4627  2.0314
  270TMC3    C1 4131   0.010   4.231  15.713 -0.3402 -0.9049 -0.5186
  270TMC3    C2 4132   4.657   4.160  15.636  1.0074 -0.3302 -0.0502
  270TMC3    C3 4133   4.665   4.024  15.636 -0.9895  0.2549  0.6020
  270TMC3    C4 4134   0.104   4.160  15.784 -0.6016  0.4559  0.4864
  270TMC3    C5 4135   0.115   4.025  15.782 -0.4768 -1.2718  0.6890
  270TMC3    C6 4136   0.025   3.958  15.708  0.2291 -0.0849 -0.2545
  270TMC3     C 4137   0.028   4.375  15.698 -0.1049 -0.1481  0.1626
  270TMC3     O 4138   0.059   4.434  15.800  0.1176  0.0815 -0.6501
  270TMC3     H 4139   4.582   4.215  15.580 -0.3689 -1.2423  0.9098
  270TMC3    H1 4140   0.179   4.212  15.842 -1.0959  0.6352  0.9610
  270TMC3    H2 4141   0.036   3.850  15.714  0.8292  0.0481  0.8523
  270TMC3    C7 4142   0.243   3.976  15.750 -0.1557 -0.3505  0.7881
  270TMC3    C8 4143   4.629   3.963  15.516 -0.4638  0.6488 -0.3655
  270TMC3    O1 4144   0.329   3.995  15.831 -0.2891 -0.5506 -0.5222
  270TMC3    O2 4145   4.721   3.896  15.466  0.3978 -0.3379 -0.3908
  271MPD2     C 4146   4.077   3.739  13.619 -0.0089 -0.3649 -0.5793
  271MPD2    C1 4147   4.074   3.829  13.729  0.2825 -0.3217  1.1555
  271MPD2    C2 4148   3.991   3.941  13.721 -0.5418  0.2150 -0.4270
  271MPD2    C3 4149   3.895   3.951  13.621  0.1730  0.0246 -0.1176
  271MPD2    C4 4150   3.894   3.849  13.522 -0.3238 -0.4734  0.4904
  271MPD2    C5 4151   3.988   3.748  13.518  0.3700 -0.7391  0.2224
  271MPD2     H 4152   3.991   4.016  13.800  1.4663 -0.9112  0.6460
  271MPD2    H1 4153   3.829   3.854  13.435 -0.6512 -1.2048  0.6977
  271MPD2    H2 4154   4.143   3.654  13.625 -0.8577 -1.0840 -1.4089
  271MPD2    H3 4155   3.978   3.672  13.442  1.2560  0.4902 -1.1132
  271MPD2     N 4156   3.804   4.060  13.612 -0.2345 -0.1191 -0.4572
  271MPD2    H5 4157   3.751   4.072  13.527 -0.6049 -1.2406 -0.3819
  271MPD2    N1 4158   4.153   3.828  13.847  0.6080  0.6199  0.0149
  271MPD2    H7 4159   4.132   3.888  13.927  1.5837  0.4005  0.4388
  272TMC3    C1 4160   4.325   3.760  13.996 -0.0422  0.3175  0.0392
  272TMC3    C2 4161   4.433   3.676  14.015 -0.6445 -1.0106 -0.1839
  272TMC3    C3 4162   4.470   3.663  14.149  0.4424  0.1925  0.4144
  272TMC3    C4 4163   4.267   3.838  14.095  0.6085 -0.1529 -0.2465
  272TMC3    C5 4164   4.325   3.837  14.221  0.4087 -0.4430 -0.5923
  272TMC3    C6 4165   4.422   3.745  14.254  0.3215  0.1637 -0.2249
  272TMC3     C 4166   4.261   3.753  13.866  0.2535  0.0811 -0.6471
  272TMC3     O 4167   4.316   3.680  13.783 -0.0167  0.1122 -0.0187
  272TMC3     H 4168   4.483   3.631  13.930  0.5257  1.6862 -0.9143
  272TMC3    H1 4169   4.188   3.908  14.073  0.5586 -0.6234 -1.6048
  272TMC3    H2 4170   4.460   3.735  14.355  0.8212  0.8587 -0.3463
  272TMC3    C7 4171   4.245   3.893  14.335 -0.3302  0.5120  0.5940
  272TMC3    C8 4172   4.601   3.595  14.162  0.6551  0.4704 -0.1108
  272TMC3    O1 4173   4.134   3.938  14.307  0.2530  0.2109  0.3739
  272TMC3    O2 4174   4.652   3.556  14.059 -0.0897  0.3399 -0.1223
  273MPD2     C 4175   0.903   1.793  11.014  0.0511  0.8886  0.1737
  273MPD2    C1 4176   0.978   1.891  11.073  0.2563  0.4292  0.2000
  273MPD2    C2 4177   1.011   2.000  11.005 -0.0480  0.3024 -0.1241
  273MPD2    C3 4178   0.968   2.020  10.876 -0.4357  0.2606  0.5541
  273MPD2    C4 4179   0.905   1.911  10.809 -0.0170  0.6324 -0.2241
  273MPD2    C5 4180   0.869   1.803  10.884 -0.2437 -0.5535 -0.1694
  273MPD2     H 4181   1.035   2.085  11.067  0.6076 -0.9911  1.4045
  273MPD2    H1 4182   0.883   1.913  10.703 -1.9738  0.1444  0.1671
  273MPD2    H2 4183   0.884   1.700  11.067  0.3012  0.7811  0.0744
  273MPD2    H3 4184   0.816   1.720  10.840 -3.6091  1.2960  0.4024
  273MPD2     N 4185   0.996   2.139  10.798  0.0763 -0.2463  0.2698
  273MPD2    H5 4186   0.957   2.153  10.705 -1.5824  1.6812  1.2575
  273MPD2    N1 4187   1.026   1.857  11.197 -0.0810  0.0851  0.0847
  273MPD2    H7 4188   1.001   1.774  11.250 -1.2536  1.4006  1.6370
  274TMC3    C1 4189   1.084   2.347  10.749 -0.4961  0.2223 -0.8499
  274TMC3    C2 4190   0.984   2.379  10.663 -0.0316  1.3138 -0.5592
  274TMC3    C3 4191   0.992   2.489  10.582 -0.1737  0.6174  0.6844
  274TMC3    C4 4192   1.176   2.436  10.766  0.4006 -0.4031  0.0929
  274TMC3    C5 4193   1.190   2.550  10.691  0.2274  0.2723 -0.1910
  274TMC3    C6 4194   1.102   2.572  10.596 -0.6209  0.0329 -0.1575
  274TMC3     C 4195   1.066   2.243  10.844  0.3026 -0.1162  0.1872
  274TMC3     O 4196   1.119   2.263  10.955  0.1379  0.2939 -0.1386
  274TMC3     H 4197   0.896   2.317  10.657  1.2429 -0.5128 -0.5349
  274TMC3    H1 4198   1.255   2.420  10.839 -0.5920  0.7897  1.4462
  274TMC3    H2 4199   1.115   2.662  10.537 -0.2894 -0.5902 -1.0328
  274TMC3    C7 4200   1.293   2.646  10.729  0.2928  0.0747 -0.3071
  274TMC3    C8 4201   0.871   2.527  10.512  0.0981  0.8020  0.0957
  274TMC3    O1 4202   1.361   2.702  10.643  0.6230 -0.0740 -0.3468
  274TMC3    O2 4203   0.788   2.443  10.476  0.2622 -0.6628 -0.1511
  275MPD2     C 4204   0.653   0.537  14.718 -0.7903  0.1230  0.4189
  275MPD2    C1 4205   0.664   0.397  14.743  0.1361  0.2952  0.1016
  275MPD2    C2 4206   0.567   0.311  14.689  0.0382 -0.2107 -0.4902
  275MPD2    C3 4207   0.460   0.363  14.623 -0.3021  0.4988 -0.0159
  275MPD2    C4 4208   0.450   0.502  14.606  0.1521  0.3781 -0.0790
  275MPD2    C5 4209   0.547   0.583  14.651  0.1482  0.3711 -0.5351
  275MPD2     H 4210   0.563   0.205  14.710 -0.6427  0.1734  1.3437
  275MPD2    H1 4211   0.380   0.549  14.538  1.9595  1.0692 -1.4902
  275MPD2    H2 4212   0.725   0.611  14.751 -0.0023 -0.8481  0.9043
  275MPD2    H3 4213   0.537   0.684  14.613  0.8392  0.3985 -0.6460
  275MPD2     N 4214   0.349   0.281  14.588 -1.0372  0.7256  0.6782
  275MPD2    H5 4215   0.276   0.333  14.541 -1.4647 -1.4342 -1.0540
  275MPD2    N1 4216   0.777   0.339  14.801 -0.3285  0.5740 -0.3018
  275MPD2    H7 4217   0.772   0.238  14.814 -0.3357  0.4536 -1.2151
  276TMC3    C1 4218   0.987   0.319  14.926  0.5859  0.2757  0.4020
  276TMC3    C2 4219   1.020   0.200  14.868 -0.2467 -0.2988 -0.1442
  276TMC3    C3 4220   1.140   0.145  14.904  0.1702 -0.0616  0.2403
  276TMC3    C4 4221   1.072   0.386  15.008  0.5580 -0.1015  0.1425
  276TMC3    C5 4222   1.190   0.326  15.047  0.9810  0.2740  0.4327
  276TMC3    C6 4223   1.226   0.206  14.992 -0.1903 -0.3194 -0.0848
  276TMC3     C 4224   0.883   0.406  14.859  0.4755  0.1243 -0.2397
  276TMC3     O 4225   0.898   0.524  14.885  0.0557 -0.0374 -0.3508
  276TMC3     H 4226   0.957   0.155  14.792 -1.0327 -1.1225  0.9964
  276TMC3    H1 4227   1.043   0.482  15.047  1.3066  0.5189 -0.8315
  276TMC3    H2 4228   1.312   0.151  15.027  1.1778  2.0017  0.2496
  276TMC3    C7 4229   1.298   0.414  15.079  0.3299 -0.1456  0.1177
  276TMC3    C8 4230   1.192   0.019  14.850  0.0413  0.1484 -0.3356
  276TMC3    O1 4231   1.264   0.525  15.127 -0.5937 -0.5641 -0.4125
  276TMC3    O2 4232   1.308   4.734  14.880  0.3290 -0.0198  0.1693
  277MPD2     C 4233   2.416   4.133  13.466 -0.6890 -0.2655 -0.0169
  277MPD2    C1 4234   2.293   4.199  13.490  0.0217 -0.3384 -0.9060
  277MPD2    C2 4235   2.215   4.156  13.604 -0.4827 -0.1894 -0.5958
  277MPD2    C3 4236   2.268   4.048  13.681 -0.2013 -0.4872  0.2408
  277MPD2    C4 4237   2.382   3.977  13.646  0.3820 -0.6633 -0.5600
  277MPD2    C5 4238   2.451   4.022  13.539 -0.2231 -0.0381  0.2825
  277MPD2     H 4239   2.110   4.182  13.605 -0.4938 -0.3320  0.7495
  277MPD2    H1 4240   2.427   3.899  13.705  0.2491 -2.2497 -2.5651
  277MPD2    H2 4241   2.484   4.163  13.387 -0.8431  1.2127  0.4167
  277MPD2    H3 4242   2.538   3.971  13.502 -1.9556 -3.2832  0.6325
  277MPD2     N 4243   2.194   3.986  13.784 -0.1843 -0.2065 -0.0700
  277MPD2    H5 4244   2.239   3.915  13.840  2.1371 -0.5353 -2.3631
  277MPD2    N1 4245   2.241   4.297  13.412 -0.7066  0.1197 -0.0702
  277MPD2    H7 4246   2.291   4.308  13.324 -0.2534  0.5406  0.2410
  278TMC3    C1 4247   1.996   3.946  13.907 -1.2865  0.2077  0.4526
  278TMC3    C2 4248   2.015   3.806  13.893  0.2034 -0.0399  0.0938
  278TMC3    C3 4249   1.908   3.728  13.873  0.2724  1.0023 -0.0015
  278TMC3    C4 4250   1.871   4.002  13.919 -0.2226  0.8213 -0.2503
  278TMC3    C5 4251   1.764   3.925  13.902 -0.0157 -1.1556 -0.6376
  278TMC3    C6 4252   1.782   3.795  13.873  0.3152 -0.1017 -0.0639
  278TMC3     C 4253   2.073   4.034  13.832 -0.1393  0.5712 -0.2716
  278TMC3     O 4254   2.016   4.138  13.808 -0.6216 -0.2062  0.7222
  278TMC3     H 4255   2.104   3.747  13.877 -0.2318 -0.8217  0.5713
  278TMC3    H1 4256   1.857   4.106  13.944 -1.8415  0.2217  1.3000
  278TMC3    H2 4257   1.696   3.731  13.861 -0.8400  1.6448 -1.1147
  278TMC3    C7 4258   1.635   3.983  13.938  0.0495  0.0150  0.1421
  278TMC3    C8 4259   1.926   3.650  13.751 -0.3045  1.0223  0.6821
  278TMC3    O1 4260   1.635   4.094  13.991 -0.4159  0.0433  0.5445
  278TMC3    O2 4261   1.840   3.664  13.664 -0.4530  0.6496 -0.3122
  279MPD2     C 4262   2.119   4.431   0.249 -0.3522  0.1314 -0.0116
  279MPD2    C1 4263   2.007   4.377   0.190  0.0215 -0.7871 -0.0098
  279MPD2    C2 4264   1.999   4.380   0.054 -0.5015 -0.1230  0.7734
  279MPD2    C3 4265   2.107   4.429  17.738 -0.2521  0.8990 -0.4921
  279MPD2    C4 4266   2.223   4.465   0.046  0.1415 -0.3267 -0.1533
  279MPD2    C5 4267   2.226   4.470   0.178 -0.7659 -0.5857  0.1739
  279MPD2     H 4268   1.906   4.354   0.005 -0.5103 -0.1674  0.8139
  279MPD2    H1 4269   2.300   4.507  17.742  1.7217 -1.1300  1.1846
  279MPD2    H2 4270   2.127   4.449   0.355  1.1811  1.2651 -0.3294
  279MPD2    H3 4271   2.309   4.503   0.239 -1.1880  0.1918  0.3164
  279MPD2     N 4272   2.100   4.450  17.595  0.4996 -0.5758  0.2067
  279MPD2    H5 4273   2.164   4.514  17.552  0.0495 -0.2561  0.0108
  279MPD2    N1 4274   1.888   4.339   0.261  0.2466 -0.1844 -0.1384
  279MPD2    H7 4275   1.804   4.319   0.208 -1.4835  1.5258  1.9396
  280TMC3    C1 4276   1.727   4.323   0.419  0.4895  0.0794 -0.0450
  280TMC3    C2 4277   1.675   4.215   0.358  0.0720  0.1193  0.6534
  280TMC3    C3 4278   1.533   4.212   0.348 -0.5014 -0.6817  0.1835
  280TMC3    C4 4279   1.641   4.426   0.461  0.4152  0.4410  0.5419
  280TMC3    C5 4280   1.508   4.424   0.441 -0.2273  0.2908  0.2038
  280TMC3    C6 4281   1.449   4.309   0.388  0.1598  0.6543  0.7111
  280TMC3     C 4282   1.868   4.354   0.393 -0.9199  0.9905  0.3293
  280TMC3     O 4283   1.922   4.426   0.477 -0.2132 -0.7700  0.0479
  280TMC3     H 4284   1.743   4.134   0.338  0.3512  0.3437  0.7000
  280TMC3    H1 4285   1.684   4.518   0.499  2.5957 -1.4122  2.5938
  280TMC3    H2 4286   1.344   4.294   0.368  0.6085 -0.9774 -0.4223
  280TMC3    C7 4287   1.431   4.548   0.460  0.2692  0.2965 -0.4410
  280TMC3    C8 4288   1.485   4.089   0.296  0.1110  0.0719 -0.1358
  280TMC3    O1 4289   1.487   4.626   0.537 -0.4318 -0.1691  0.2706
  280TMC3    O2 4290   1.374   4.089   0.246  0.3383  0.5040 -0.3479
  281TMC3    C1 4291   0.444   4.435  13.397  0.5293  0.1831  0.8227
  281TMC3    C2 4292   0.544   4.513  13.340 -0.7260 -0.1809  0.3602
  281TMC3    C3 4293   0.640   4.450  13.269 -0.9025 -0.1298  0.4524
  281TMC3    C4 4294   0.434   4.300  13.381  0.2301 -0.4941  0.2997
  281TMC3    C5 4295   0.536   4.233  13.319  0.5420  0.9102  0.4474
  281TMC3    C6 4296   0.643   4.311  13.264 -0.9337 -0.6379 -0.5581
  281TMC3     C 4297   0.307   4.496  13.423  0.2936  0.0968 -0.1990
  281TMC3     O 4298   0.217   4.420  13.453 -0.4440  0.1022 -0.2466
  281TMC3     H 4299   0.547   4.621  13.339 -2.5404 -0.1343 -0.2762
  281TMC3    H1 4300   0.351   4.248  13.427 -1.6420  0.1263 -2.3514
  281TMC3    H2 4301   0.718   4.253  13.211  0.5029  1.4208 -0.7690
  281TMC3    C7 4302   0.517   4.104  13.252  0.1366 -0.3704 -0.1567
  281TMC3    C8 4303   0.747   4.514  13.202 -0.1055  0.6004 -0.5408
  281TMC3    O1 4304   0.599   4.060  13.174  0.1621  0.6351  0.2705
  281TMC3    O2 4305   0.861   4.467  13.217  0.1942 -0.4359 -0.4801
  282MPD2     C 4306   2.343   0.989  15.045  0.1829  0.2006  0.3628
  282MPD2    C1 4307   2.238   1.026  15.127 -1.0519  0.0866 -0.0520
  282MPD2    C2 4308   2.104   1.004  15.087  0.0988  0.7807 -0.0742
  282MPD2    C3 4309   2.077   0.951  14.959  0.0616 -0.2328  0.1822
  282MPD2    C4 4310   2.181   0.922  14.880 -0.3037  0.5853 -0.8284
  282MPD2    C5 4311   2.311   0.936  14.925  0.2119  0.0142  0.6116
  282MPD2     H 4312   2.026   1.038  15.154  0.7181  1.3985  0.3319
  282MPD2    H1 4313   2.171   0.885  14.778  0.9242 -0.4465 -0.5860
  282MPD2    H2 4314   2.448   0.984  15.071 -0.0424 -0.1442  1.2100
  282MPD2    H3 4315   2.390   0.925  14.852 -0.3474 -1.5767  0.2635
  282MPD2     N 4316   1.941   0.929  14.925 -0.1913  0.5698 -0.2954
  282MPD2    H5 4317   1.876   0.952  14.999  2.8803  2.0164  1.9792
  282MPD2    N1 4318   2.276   1.066  15.254  0.2057  0.3168  0.0427
  282MPD2    H7 4319   2.368   1.045  15.292  0.9058  1.0255 -1.2842
  283TMC3    C1 4320   2.231   1.148  15.468  0.0958 -0.0279  0.2866
  283TMC3    C2 4321   2.214   1.260  15.538 -0.3135 -0.3029 -0.5552
  283TMC3    C3 4322   2.234   1.251  15.671  0.1614 -0.1543 -0.2105
  283TMC3    C4 4323   2.266   1.024  15.518  0.5077 -0.1473 -0.4741
  283TMC3    C5 4324   2.258   1.018  15.658  0.0369  0.0633  0.3531
  283TMC3    C6 4325   2.253   1.129  15.734  0.4642 -0.4520 -0.4930
  283TMC3     C 4326   2.192   1.145  15.335 -0.3447 -0.0839 -0.7867
  283TMC3     O 4327   2.090   1.209  15.308  0.9049  0.1585  0.8818
  283TMC3     H 4328   2.193   1.349  15.479 -1.0529 -1.1012 -1.4990
  283TMC3    H1 4329   2.270   0.938  15.451  0.9015  0.5371 -1.3313
  283TMC3    H2 4330   2.249   1.127  15.843  0.0865  1.2365 -0.4883
  283TMC3    C7 4331   2.159   0.920  15.703 -0.0121  0.3975 -0.6451
  283TMC3    C8 4332   2.176   1.360  15.754 -0.0696  0.4935 -0.2334
  283TMC3    O1 4333   2.116   0.934  15.814  0.1887 -0.6518 -0.2419
  283TMC3    O2 4334   2.142   1.336  15.869 -0.5240  0.2982 -0.7269
  284MPD2     C 4335   0.073   0.266  12.081  0.5013 -0.5352  0.2548
  284MPD2    C1 4336   0.204   0.264  12.035 -0.2263 -0.2411  0.0132
  284MPD2    C2 4337   0.300   0.193  12.103 -0.2171  0.4025 -0.0371
  284MPD2    C3 4338   0.265   0.131  12.221 -0.3740  0.4482  0.0737
  284MPD2    C4 4339   0.135   0.129  12.261  0.1911 -0.4157 -0.7595
  284MPD2    C5 4340   0.040   0.204  12.198 -0.0071 -0.1621  0.8785
  284MPD2     H 4341   0.403   0.204  12.074  0.6657 -0.2473  2.8465
  284MPD2    H1 4342   0.094   0.060  12.334  1.0133 -0.2803 -0.1827
  284MPD2    H2 4343   4.736   0.306  12.017  0.5695  1.5988  1.5050
  284MPD2    H3 4344   4.681   0.200  12.239 -0.0814  0.2917  0.7406
  284MPD2     N 4345   0.353   0.049  12.291 -0.1484  0.3194 -0.3640
  284MPD2    H5 4346   0.317   4.729  12.363  2.0753 -2.0343 -1.2490
  284MPD2    N1 4347   0.237   0.335  11.915  0.5649  0.1312  0.1517
  284MPD2    H7 4348   0.172   0.403  11.875 -0.2983 -1.3970 -1.0209
  285TMC3    C1 4349   0.382   0.379  11.734  0.0161 -0.1624  0.0227
  285TMC3    C2 4350   0.439   0.317  11.629  0.8721 -0.5983  0.1839
  285TMC3    C3 4351   0.505   0.395  11.534 -0.3209 -0.3826 -0.5914
  285TMC3    C4 4352   0.382   0.515  11.750  1.0071  0.4328  0.4627
  285TMC3    C5 4353   0.461   0.583  11.658  0.2650 -0.0740  0.9562
  285TMC3    C6 4354   0.528   0.526  11.553  0.3470  0.5855 -0.6206
  285TMC3     C 4355   0.350   0.300  11.847 -0.4013 -0.1152 -0.3907
  285TMC3     O 4356   0.422   0.203  11.858  0.3176 -0.1024 -0.6235
  285TMC3     H 4357   0.444   0.208  11.630  0.1835 -0.6442 -1.2661
  285TMC3    H1 4358   0.348   0.560  11.843  0.2089  1.3133 -0.2480
  285TMC3    H2 4359   0.564   0.585  11.470 -0.9137  1.0626 -0.8244
  285TMC3    C7 4360   0.478   0.728  11.659 -0.8091 -0.4697  0.0489
  285TMC3    C8 4361   0.588   0.311  11.443  0.4949 -0.2841 -0.2223
  285TMC3    O1 4362   0.545   0.779  11.573 -0.0412  0.4053  0.4188
  285TMC3    O2 4363   0.548   0.197  11.416  0.2595 -0.5782 -0.2105
  286MPD2     C 4364   1.136   4.457   1.536 -0.4809  0.5262  0.2991
  286MPD2    C1 4365   1.136   4.352   1.442  0.1243  0.1393  0.9134
  286MPD2    C2 4366   1.245   4.271   1.426 -0.7481  0.4867 -0.5823
  286MPD2    C3 4367   1.363   4.284   1.492  1.2493  1.1614  0.5662
  286MPD2    C4 4368   1.369   4.402   1.568 -0.2313 -0.7381  0.9649
  286MPD2    C5 4369   1.260   4.474   1.596 -0.0113 -0.3730  0.2893
  286MPD2     H 4370   1.229   4.194   1.351  2.0801  1.0968 -1.7597
  286MPD2    H1 4371   1.467   4.427   1.609 -0.1504 -0.0044  0.3231
  286MPD2    H2 4372   1.048   4.518   1.552 -0.7272  0.1353  0.4556
  286MPD2    H3 4373   1.277   4.562   1.656 -1.5293 -0.0712  0.2717
  286MPD2     N 4374   1.467   4.196   1.487  0.0400  0.7138  0.1754
  286MPD2    H5 4375   1.542   4.233   1.545  1.5069 -0.9658 -0.6768
  286MPD2    N1 4376   1.023   4.320   1.365  0.1408  0.2016  0.5496
  286MPD2    H7 4377   1.026   4.232   1.314  1.9564  2.0517 -2.5188
  287TMC3    C1 4378   1.602   4.029   1.391 -0.3990 -0.3345 -0.4571
  287TMC3    C2 4379   1.607   3.917   1.319 -0.4542  0.8008 -0.1987
  287TMC3    C3 4380   1.725   3.887   1.261 -0.2438 -0.1433 -0.5793
  287TMC3    C4 4381   1.709   4.097   1.431  0.2285 -0.0872 -0.4417
  287TMC3    C5 4382   1.829   4.059   1.383 -0.5489  0.3858  0.2914
  287TMC3    C6 4383   1.839   3.952   1.300 -0.1191  0.0487  0.5579
  287TMC3     C 4384   1.471   4.085   1.412  0.0796  1.2044 -0.1887
  287TMC3     O 4385   1.377   4.026   1.357 -0.0308  0.1324 -0.5268
  287TMC3     H 4386   1.518   3.863   1.288  0.3534 -0.7980  0.2415
  287TMC3    H1 4387   1.703   4.184   1.496 -0.6768  0.1732 -0.8785
  287TMC3    H2 4388   1.930   3.918   1.252  0.5211 -0.9063  2.4552
  287TMC3    C7 4389   1.949   4.142   1.422 -0.2094  0.0388  0.3244
  287TMC3    C8 4390   1.732   3.758   1.207 -0.1465 -0.1022  0.1076
  287TMC3    O1 4391   1.932   4.246   1.479 -0.2396 -0.2633  0.2339
  287TMC3    O2 4392   1.645   3.678   1.237  0.2126 -0.4607 -0.0909
  288TMC3    C1 4393   2.538   3.430  14.739 -0.0544  0.4546  0.3844
  288TMC3    C2 4394   2.456   3.411  14.846  0.5980 -0.6643 -0.1979
  288TMC3    C3 4395   2.390   3.525  14.887 -0.4472  0.2823  0.8451
  288TMC3    C4 4396   2.555   3.547  14.672  0.1970 -0.2806  0.3208
  288TMC3    C5 4397   2.485   3.652  14.716 -0.1048  0.6915 -0.7736
  288TMC3    C6 4398   2.404   3.647  14.830  1.0505 -0.1636  1.3780
  288TMC3     C 4399   2.606   3.320  14.688 -0.2440 -0.2108 -0.2243
  288TMC3     O 4400   2.711   3.344  14.629  0.3625 -0.1555 -0.1005
  288TMC3     H 4401   2.457   3.324  14.910  0.7806  0.5310  1.4309
  288TMC3    H1 4402   2.603   3.546  14.574  0.1520  1.1818  0.2841
  288TMC3    H2 4403   2.368   3.741  14.871 -0.0148  1.0969 -2.4725
  288TMC3    C7 4404   2.491   3.776  14.642 -0.0230 -0.3669 -0.3003
  288TMC3    C8 4405   2.305   3.516  15.006  0.8387  1.1399  0.3759
  288TMC3    O1 4406   2.406   3.859  14.651  0.0813 -0.3686  0.2548
  288TMC3    O2 4407   2.304   3.620  15.072 -0.1411  0.2955  0.0363
  289MPD2     C 4408   2.590   3.067  14.332  0.7609  0.1414 -0.9416
  289MPD2    C1 4409   2.555   3.147  14.236  0.3741 -0.8670 -0.7107
  289MPD2    C2 4410   2.446   3.115  14.158 -0.4366  0.2073 -0.1983
  289MPD2    C3 4411   2.382   2.994  14.166 -0.4245  0.2768 -0.2284
  289MPD2    C4 4412   2.424   2.909  14.265 -0.3489  0.1245  0.0650
  289MPD2    C5 4413   2.523   2.950  14.346 -0.1620  0.2944 -0.1168
  289MPD2     H 4414   2.407   3.198  14.101 -3.4281 -1.5158 -0.6641
  289MPD2    H1 4415   2.371   2.815  14.277 -0.1718 -0.0420 -0.4383
  289MPD2    H2 4416   2.671   3.087  14.402  1.6254 -2.9593 -1.0340
  289MPD2    H3 4417   2.542   2.887  14.433  0.2838 -0.7066 -0.9418
  289MPD2     N 4418   2.266   2.950  14.092  0.2553 -0.0721  0.4434
  289MPD2    H5 4419   2.232   2.857  14.117  0.7481 -1.0516 -2.6381
  289MPD2    N1 4420   2.634   3.264  14.225 -0.1506  0.3722 -0.2867
  289MPD2    H7 4421   2.724   3.262  14.272  0.5659  1.7536 -1.6077
  290TMC3    C1 4422   2.073   2.993  13.968 -0.3300  0.3876 -0.6278
  290TMC3    C2 4423   1.982   3.091  13.927  1.2315 -0.4314  0.4576
  290TMC3    C3 4424   1.848   3.055  13.943 -0.2825 -0.4396 -0.4018
  290TMC3    C4 4425   2.042   2.862  13.989 -0.4900 -0.0962  0.0834
  290TMC3    C5 4426   1.909   2.827  13.987 -0.1241  0.1725 -0.0692
  290TMC3    C6 4427   1.814   2.922  13.965 -0.4280  0.5467  0.8259
  290TMC3     C 4428   2.200   3.041  14.010  0.7354  0.5247 -0.4062
  290TMC3     O 4429   2.234   3.151  13.969 -0.2099  0.5027 -0.2449
  290TMC3     H 4430   2.013   3.189  13.890  2.1019 -0.5146  0.9760
  290TMC3    H1 4431   2.115   2.783  14.005 -0.4530 -0.1978 -0.6237
  290TMC3    H2 4432   1.706   2.909  13.965  0.1166 -3.7776  1.5665
  290TMC3    C7 4433   1.875   2.686  13.987 -0.3004 -0.3542  0.4774
  290TMC3    C8 4434   1.752   3.156  13.985  0.3392  0.1123 -0.1188
  290TMC3    O1 4435   1.963   2.606  14.017  0.3656  0.0057  0.5095
  290TMC3    O2 4436   1.630   3.134  13.968 -0.1710  0.4571  0.0352
  291MPD2     C 4437   2.502   2.626   0.595 -0.0818 -0.5075 -0.2408
  291MPD2    C1 4438   2.460   2.538   0.498  0.1393  0.7923 -0.0971
  291MPD2    C2 4439   2.472   2.575   0.363 -0.2802 -0.5159  0.7643
  291MPD2    C3 4440   2.535   2.692   0.328 -0.4061 -0.0597 -0.5006
  291MPD2    C4 4441   2.593   2.775   0.419 -0.5735 -0.4678 -0.3746
  291MPD2    C5 4442   2.568   2.740   0.546 -0.4760 -0.1008 -0.3092
  291MPD2     H 4443   2.427   2.513   0.286  0.7035 -0.5817  0.2474
  291MPD2    H1 4444   2.638   2.870   0.394  0.2587 -0.8153 -0.2031
  291MPD2    H2 4445   2.500   2.615   0.703 -1.3557  0.8144 -0.1356
  291MPD2    H3 4446   2.600   2.815   0.617 -2.6419  0.8275 -0.2947
  291MPD2     N 4447   2.521   2.746   0.201 -0.3887  0.4848  0.1552
  291MPD2    H5 4448   2.556   2.842   0.195 -0.2711  0.2698 -2.5970
  291MPD2    N1 4449   2.387   2.421   0.520  0.0138  0.4346 -0.2104
  291MPD2    H7 4450   2.356   2.367   0.440 -0.9726  3.0485 -1.5912
  292TMC3    C1 4451   2.240   2.279   0.635 -0.0327  0.2802  0.0162
  292TMC3    C2 4452   2.145   2.293   0.731 -0.3892  0.4042 -0.4593
  292TMC3    C3 4453   2.030   2.219   0.726 -0.6152 -0.2417 -0.5260
  292TMC3    C4 4454   2.202   2.230   0.511  0.1691 -0.2485  0.3131
  292TMC3    C5 4455   2.075   2.172   0.502 -0.4348 -0.2427 -0.1169
  292TMC3    C6 4456   1.990   2.159   0.609 -0.1260  0.5773  0.0847
  292TMC3     C 4457   2.335   2.387   0.640  0.0895  0.2315  0.1228
  292TMC3     O 4458   2.360   2.433   0.747 -0.3122  0.3416 -0.1056
  292TMC3     H 4459   2.157   2.353   0.821  0.7547 -0.4523 -0.0489
  292TMC3    H1 4460   2.274   2.202   0.435 -1.9799  2.3223 -2.6489
  292TMC3    H2 4461   1.902   2.096   0.606  0.1605  0.1019  1.5099
  292TMC3    C7 4462   2.041   2.094   0.385  0.6758  0.5125  0.3177
  292TMC3    C8 4463   1.972   2.187   0.855 -0.1729  0.2879  0.3220
  292TMC3    O1 4464   2.129   2.047   0.312 -0.5425 -0.6716  0.1672
  292TMC3    O2 4465   2.024   2.236   0.950 -0.1870 -0.0456  0.5739
  293MPD2     C 4466   3.459   3.559  12.525  0.6650 -0.1580  0.0519
  293MPD2    C1 4467   3.415   3.687  12.547  0.3729  0.2427 -0.1221
  293MPD2    C2 4468   3.429   3.749  12.674  0.4820 -0.0183 -0.5962
  293MPD2    C3 4469   3.480   3.680  12.776 -0.3385 -0.6427 -0.1846
  293MPD2    C4 4470   3.534   3.552  12.750  0.3375  0.5831 -0.5734
  293MPD2    C5 4471   3.522   3.497  12.625 -0.5234 -0.3547  0.0815
  293MPD2     H 4472   3.398   3.850  12.701  2.3904  0.8278 -1.5324
  293MPD2    H1 4473   3.575   3.492  12.830  1.9465  1.3464 -0.8202
  293MPD2    H2 4474   3.448   3.490  12.442 -0.8940  0.3692 -0.1787
  293MPD2    H3 4475   3.571   3.402  12.606 -1.0652 -0.6033 -0.0705
  293MPD2     N 4476   3.482   3.745  12.905  0.8820  0.7523  0.2571
  293MPD2    H5 4477   3.439   3.836  12.913  2.6049  1.7316 -1.6818
  293MPD2    N1 4478   3.358   3.752  12.433 -0.1971  0.0521 -0.0902
  293MPD2    H7 4479   3.340   3.702  12.347  0.9732 -1.0745  0.3182
  294TMC3    C1 4480   3.256   3.916  12.295 -0.0650 -0.8088 -1.2396
  294TMC3    C2 4481   3.139   3.985  12.303  0.5878  0.4155  0.2009
  294TMC3    C3 4482   3.048   3.972  12.208  0.2549 -0.5678  0.0740
  294TMC3    C4 4483   3.286   3.830  12.196  0.3816  0.0919 -0.4388
  294TMC3    C5 4484   3.194   3.816  12.093  0.7731  0.2268 -0.1977
  294TMC3    C6 4485   3.078   3.891  12.100 -0.2217 -0.7315  0.6044
  294TMC3     C 4486   3.322   3.889  12.422  0.2394  0.0658 -0.0247
  294TMC3     O 4487   3.322   3.974  12.512  0.5393 -0.2272 -0.1825
  294TMC3     H 4488   3.126   4.030  12.401  0.2982  0.2907  0.2197
  294TMC3    H1 4489   3.381   3.778  12.182  0.4494  0.1850 -0.3275
  294TMC3    H2 4490   3.013   3.897  12.013 -2.1970 -2.1769  1.9727
  294TMC3    C7 4491   3.227   3.768  11.957  0.2488  0.3328  0.2188
  294TMC3    C8 4492   2.915   3.978  12.256 -0.2608  0.6576  0.3567
  294TMC3    O1 4493   3.179   3.831  11.861 -0.0744 -0.3166  0.8381
  294TMC3    O2 4494   2.901   4.030  12.369 -0.0567  0.2716  0.3391
  295MPD2     C 4495   4.350   2.756   1.026  0.6731 -0.1310  0.1384
  295MPD2    C1 4496   4.251   2.851   0.979 -0.3834 -1.2152 -0.4302
  295MPD2    C2 4497   4.181   2.942   1.062 -0.3232  0.1476 -0.2009
  295MPD2    C3 4498   4.218   2.940   1.196 -0.4360 -0.5568 -0.4081
  295MPD2    C4 4499   4.319   2.859   1.242 -0.0029 -0.0289 -0.7722
  295MPD2    C5 4500   4.383   2.770   1.159  0.5681 -0.1458  0.1931
  295MPD2     H 4501   4.113   3.013   1.016  0.5325  1.2968  0.2896
  295MPD2    H1 4502   4.343   2.854   1.348  1.7332 -0.6236 -1.1841
  295MPD2    H2 4503   4.413   2.692   0.965  0.1306 -0.3899 -0.1496
  295MPD2    H3 4504   4.466   2.707   1.191 -0.2178 -0.7773  0.9666
  295MPD2     N 4505   4.161   3.019   1.294  0.3274 -0.8464 -0.0264
  295MPD2    H5 4506   4.177   2.993   1.391  0.5557  0.0481  0.1735
  295MPD2    N1 4507   4.211   2.852   0.843  0.0031 -0.4106  0.4226
  295MPD2    H7 4508   4.181   2.941   0.804 -0.7425 -1.3131 -1.0676
  296TMC3    C1 4509   3.999   3.165   1.398 -0.1494  0.2859  0.1869
  296TMC3    C2 4510   4.023   3.292   1.441 -0.1393 -0.3031 -0.2769
  296TMC3    C3 4511   4.006   3.312   1.569  0.3242 -0.3209 -0.2245
  296TMC3    C4 4512   3.966   3.061   1.479  0.4238  0.6570  0.4261
  296TMC3    C5 4513   3.950   3.090   1.605 -0.5854 -0.7593  0.4806
  296TMC3    C6 4514   3.976   3.218   1.650  0.5088 -0.2964  0.3072
  296TMC3     C 4515   4.067   3.118   1.274 -0.5224 -0.2571 -0.1070
  296TMC3     O 4516   4.066   3.196   1.183 -0.7023 -0.1390 -0.0111
  296TMC3     H 4517   4.054   3.363   1.365 -1.3033 -0.0455 -0.5086
  296TMC3    H1 4518   3.971   2.960   1.439  0.5742  0.2748  1.4071
  296TMC3    H2 4519   3.953   3.238   1.754  2.8990  0.0036  0.7771
  296TMC3    C7 4520   3.900   2.994   1.697  0.2172 -0.2427 -0.4930
  296TMC3    C8 4521   4.049   3.446   1.622 -0.2011  0.1784  1.6783
  296TMC3    O1 4522   3.927   3.010   1.817  0.1759 -0.5040 -0.1811
  296TMC3    O2 4523   4.131   3.451   1.714  0.1878 -0.2644  0.5641
  297MPD2     C 4524   1.319   4.401  16.297 -0.8675  0.1444  0.2801
  297MPD2    C1 4525   1.311   4.467  16.176  0.9728  0.1653  0.2934
  297MPD2    C2 4526   1.418   4.556  16.143 -0.3161 -0.6538  0.1915
  297MPD2    C3 4527   1.511   4.596  16.236  0.0478  0.5504 -0.0143
  297MPD2    C4 4528   1.507   4.530  16.355  0.0601 -0.1901  0.3361
  297MPD2    C5 4529   1.408   4.438  16.388 -0.5831  0.3759 -0.6258
  297MPD2     H 4530   1.415   4.598  16.043  1.7953 -0.2857  0.2893
  297MPD2    H1 4531   1.581   4.552  16.431  0.8795  0.5630 -0.6741
  297MPD2    H2 4532   1.254   4.320  16.328 -0.1003 -0.0249  1.4406
  297MPD2    H3 4533   1.404   4.390  16.485  0.9109  0.8731 -0.3129
  297MPD2     N 4534   1.612   4.693  16.208 -0.3271 -0.5075  0.2662
  297MPD2    H5 4535   1.603   0.004  16.122  1.2844 -0.4061  0.1546
  297MPD2    N1 4536   1.215   4.432  16.080 -0.7031  0.3712  0.7210
  297MPD2    H7 4537   1.231   4.477  15.991  1.0007  0.6718  1.1965
  298TMC3    C1 4538   1.014   4.363  15.978  0.2372 -0.2440 -0.6268
  298TMC3    C2 4539   1.067   4.398  15.855  0.2367  0.4279  0.0467
  298TMC3    C3 4540   0.997   4.462  15.759  0.0477 -1.0505 -0.1071
  298TMC3    C4 4541   0.876   4.383  16.002 -0.0463 -0.0115 -0.3840
  298TMC3    C5 4542   0.808   4.452  15.906  0.1899 -0.4702 -0.8600
  298TMC3    C6 4543   0.862   4.480  15.786  0.5777  0.1826  0.4928
  298TMC3     C 4544   1.097   4.356  16.097  0.2405 -0.0406 -0.1797
  298TMC3     O 4545   1.045   4.312  16.199  0.5283  0.1882  0.0488
  298TMC3     H 4546   1.172   4.376  15.841  0.0228  0.1217 -1.0202
  298TMC3    H1 4547   0.847   4.371  16.106 -1.8537 -0.3804 -0.9369
  298TMC3    H2 4548   0.810   4.535  15.708  0.8600 -0.2714 -0.0128
  298TMC3    C7 4549   0.709   4.549  15.963  0.1823 -0.6278  0.0101
  298TMC3    C8 4550   1.043   4.453  15.625  0.4974 -0.7423 -0.0406
  298TMC3    O1 4551   0.690   4.551  16.086 -0.5768  0.0668 -0.6885
  298TMC3    O2 4552   1.116   4.362  15.590  0.0344  0.0436  0.2668
  299MPD2     C 4553   2.347   4.183   9.869  0.5898 -0.0306 -0.1448
  299MPD2    C1 4554   2.351   4.153  10.004  0.2688 -0.5430 -0.1909
  299MPD2    C2 4555   2.238   4.171  10.084  0.5070 -0.3978 -0.1393
  299MPD2    C3 4556   2.119   4.205  10.020  0.4880  0.3517 -0.0631
  299MPD2    C4 4557   2.115   4.214   9.886  0.2752 -0.0290 -0.5254
  299MPD2    C5 4558   2.227   4.204   9.811  0.2045  0.4395 -0.5730
  299MPD2     H 4559   2.244   4.156  10.191  1.3908  0.3935 -0.0839
  299MPD2    H1 4560   2.021   4.223   9.833 -1.2043  1.3054  2.3184
  299MPD2    H2 4561   2.443   4.184   9.818 -0.3609  1.0102 -1.9344
  299MPD2    H3 4562   2.213   4.224   9.705  0.7068  2.2537 -0.3023
  299MPD2     N 4563   2.006   4.232  10.100 -0.3883  0.1969 -0.1646
  299MPD2    H5 4564   2.017   4.228  10.201  0.4290 -1.8630 -0.3376
  299MPD2    N1 4565   2.473   4.117  10.066  0.8323 -0.2883  0.0116
  299MPD2    H7 4566   2.558   4.128  10.011  0.5189  0.9907 -0.2278
  300TMC3    C1 4567   1.795   4.315  10.167  0.6849  0.2091  0.0364
  300TMC3    C2 4568   1.854   4.391  10.268  0.1772 -0.2438 -0.1722
  300TMC3    C3 4569   1.764   4.445  10.358 -0.2474  0.6516 -0.2778
  300TMC3    C4 4570   1.659   4.283  10.167 -0.2824  0.4134  0.0156
  300TMC3    C5 4571   1.575   4.338  10.264  0.1222 -0.1364  0.1208
  300TMC3    C6 4572   1.632   4.414  10.365 -0.0466  0.0666 -0.3685
  300TMC3     C 4573   1.882   4.279  10.057 -0.4136  1.3235 -0.0900
  300TMC3     O 4574   1.832   4.264   9.949  0.0877  0.6433 -0.4608
  300TMC3     H 4575   1.951   4.437  10.258 -0.8100  1.7663 -0.6478
  300TMC3    H1 4576   1.620   4.218  10.089 -0.0919  0.3546 -0.0307
  300TMC3    H2 4577   1.574   4.456  10.446  1.8575 -0.7056  1.4104
  300TMC3    C7 4578   1.444   4.295  10.265  0.8572  0.4650  0.6798
  300TMC3    C8 4579   1.818   4.520  10.472 -0.2272  0.3059  0.0528
  300TMC3    O1 4580   1.414   4.220  10.178 -0.3808  0.7848 -0.1773
  300TMC3    O2 4581   1.745   4.608  10.513  0.4409  0.6026 -0.5647
  301MPD2     C 4582   4.010   1.387   1.416 -0.7344  0.1300 -0.2990
  301MPD2    C1 4583   3.900   1.306   1.423  0.2822  0.4807 -0.4538
  301MPD2    C2 4584   3.912   1.171   1.448 -0.0927  1.3491 -0.2639
  301MPD2    C3 4585   4.033   1.110   1.456  0.0357  0.3939 -0.0875
  301MPD2    C4 4586   4.145   1.189   1.440 -0.6007 -0.5337  0.7604
  301MPD2    C5 4587   4.129   1.326   1.425  0.1172  0.4905 -0.1649
  301MPD2     H 4588   3.823   1.110   1.456 -0.9599  2.7865  0.8547
  301MPD2    H1 4589   4.240   1.137   1.443 -0.5839 -0.3424  2.9407
  301MPD2    H2 4590   4.009   1.493   1.396  0.9088  0.2560  0.3081
  301MPD2    H3 4591   4.216   1.388   1.438 -0.7025  1.3883  1.0409
  301MPD2     N 4592   4.051   0.969   1.454 -0.3359  0.3733  0.5138
  301MPD2    H5 4593   4.145   0.933   1.450 -0.6294 -0.0569 -2.3782
  301MPD2    N1 4594   3.767   1.344   1.389 -0.2652  0.1091  0.2556
  301MPD2    H7 4595   3.694   1.275   1.375 -0.4052  0.1636  0.7130
  302TMC3    C1 4596   3.992   0.739   1.438 -0.3766  0.2800  0.2412
  302TMC3    C2 4597   4.123   0.704   1.427  0.0149 -0.4607  0.6164
  302TMC3    C3 4598   4.155   0.575   1.395 -0.1264  0.1632 -0.3530
  302TMC3    C4 4599   3.891   0.652   1.416 -0.6210 -0.6791  0.1767
  302TMC3    C5 4600   3.932   0.523   1.382  0.0973 -0.2715  0.4920
  302TMC3    C6 4601   4.058   0.479   1.370  0.1789 -0.4058 -0.0248
  302TMC3     C 4602   3.951   0.879   1.436 -0.0462 -0.3563  0.5836
  302TMC3     O 4603   3.832   0.900   1.407  0.0038  0.1587  1.3587
  302TMC3     H 4604   4.204   0.772   1.449 -0.0679 -0.5434  1.1842
  302TMC3    H1 4605   3.790   0.686   1.435 -0.4868 -0.1434 -0.0780
  302TMC3    H2 4606   4.081   0.377   1.344  0.8489 -0.8042  2.0865
  302TMC3    C7 4607   3.832   0.444   1.318 -0.5157  0.1876  0.1452
  302TMC3    C8 4608   4.289   0.519   1.377  0.2534 -0.9333 -0.2294
  302TMC3    O1 4609   3.871   0.333   1.284 -0.1077  0.3188  0.4528
  302TMC3    O2 4610   4.297   0.396   1.389  0.2485 -0.1920  0.1435
  303MPD2     C 4611   4.310   3.869  10.747 -0.5230  0.0737 -0.3151
  303MPD2    C1 4612   4.273   3.734  10.763  0.2923  0.2600  0.2612
  303MPD2    C2 4613   4.230   3.661  10.655 -0.2166 -0.0204 -0.2774
  303MPD2    C3 4614   4.236   3.720  10.533  0.1541  0.2322 -0.1780
  303MPD2    C4 4615   4.276   3.852  10.515  0.1957 -0.9761 -0.5576
  303MPD2    C5 4616   4.316   3.926  10.621 -0.3465 -0.6692 -0.0773
  303MPD2     H 4617   4.212   3.555  10.671  1.9615 -0.1468  1.2492
  303MPD2    H1 4618   4.281   3.901  10.419 -0.1466 -0.5912 -0.3796
  303MPD2    H2 4619   4.328   3.928  10.836  0.2870  0.1036 -0.4996
  303MPD2    H3 4620   4.341   4.031  10.613 -2.6596  0.0096  1.3422
  303MPD2     N 4621   4.195   3.646  10.419 -0.2039 -0.2829 -0.7957
  303MPD2    H5 4622   4.245   3.661  10.331 -0.1267 -1.8800 -1.0132
  303MPD2    N1 4623   4.272   3.678  10.896 -0.2358 -0.5127 -0.2068
  303MPD2    H7 4624   4.284   3.747  10.969  1.2002 -0.0992 -0.8238
  304TMC3    C1 4625   4.313   3.522  11.061  0.4163  0.1984 -0.7118
  304TMC3    C2 4626   4.252   3.602  11.159  0.6011 -0.2676  0.2105
  304TMC3    C3 4627   4.210   3.540  11.271  0.3469  0.7035 -0.9559
  304TMC3    C4 4628   4.353   3.394  11.085 -0.8817  0.3121 -0.0274
  304TMC3    C5 4629   4.329   3.339  11.210  0.0152  0.4964 -0.6292
  304TMC3    C6 4630   4.258   3.420  11.299 -0.6976 -0.3965  0.5768
  304TMC3     C 4631   4.295   3.547  10.921  0.3532  0.2183  0.6724
  304TMC3     O 4632   4.315   3.455  10.843  0.0016  0.4373 -0.1120
  304TMC3     H 4633   4.202   3.696  11.135 -0.6415 -1.0792 -0.4078
  304TMC3    H1 4634   4.381   3.322  11.009 -2.8628 -0.8769  0.3735
  304TMC3    H2 4635   4.230   3.378  11.395 -1.1620  0.5797  0.8668
  304TMC3    C7 4636   4.281   3.202  11.212  0.5416 -0.2050 -0.1465
  304TMC3    C8 4637   4.064   3.552  11.297 -0.7097  0.0958  0.0616
  304TMC3    O1 4638   4.167   3.197  11.254  0.7001 -0.2555 -0.0447
  304TMC3    O2 4639   4.012   3.662  11.313 -0.1080 -0.1115  0.0914
  305MPD2     C 4640   2.017   0.930  14.031 -0.0747 -0.3638 -0.1331
  305MPD2    C1 4641   2.155   0.950  14.021  0.9074 -0.3480  0.3698
  305MPD2    C2 4642   2.212   0.948  13.893 -0.6444 -0.1469 -0.2224
  305MPD2    C3 4643   2.136   0.927  13.778 -0.7772  0.9814 -0.5244
  305MPD2    C4 4644   2.000   0.915  13.797  0.0594 -0.1718  0.7697
  305MPD2    C5 4645   1.946   0.921  13.914  0.6081 -0.1927  0.0412
  305MPD2     H 4646   2.319   0.967  13.885 -0.9072  1.5329  0.3064
  305MPD2    H1 4647   1.935   0.910  13.711  0.0085  0.0072  0.7979
  305MPD2    H2 4648   1.972   0.921  14.129 -1.9417  0.6965 -0.9012
  305MPD2    H3 4649   1.839   0.904  13.921  0.1991  2.7257  1.0614
  305MPD2     N 4650   2.190   0.912  13.648 -0.1789  0.5255  0.1082
  305MPD2    H5 4651   2.123   0.912  13.572  1.6396 -0.0804 -1.5221
  305MPD2    N1 4652   2.229   0.974  14.143  0.5601  0.1039 -0.0531
  305MPD2    H7 4653   2.171   0.968  14.226 -0.6515  0.0312 -0.9017
  306TMC3    C1 4654   2.407   1.006  14.291 -0.6532  0.7564 -0.0789
  306TMC3    C2 4655   2.542   1.022  14.307 -0.2597 -0.3128  0.1611
  306TMC3    C3 4656   2.594   1.057  14.427 -0.3732 -0.3296  0.1357
  306TMC3    C4 4657   2.322   1.039  14.387  0.4660  0.2636 -0.4542
  306TMC3    C5 4658   2.379   1.080  14.509 -0.3696  0.2069  0.2783
  306TMC3    C6 4659   2.514   1.083  14.536  0.1332 -0.3163 -0.0310
  306TMC3     C 4660   2.363   0.998  14.151  0.6767  0.3458 -0.0180
  306TMC3     O 4661   2.450   1.010  14.067  0.1678 -0.8285  0.0431
  306TMC3     H 4662   2.607   0.991  14.227 -2.4112 -0.8200 -1.3966
  306TMC3    H1 4663   2.216   1.060  14.373  0.3859  0.9771  1.1311
  306TMC3    H2 4664   2.541   1.100  14.640 -0.5876  0.5288  0.0145
  306TMC3    C7 4665   2.298   1.118  14.615 -0.0985  0.5594 -0.4975
  306TMC3    C8 4666   2.736   1.039  14.457  0.1342 -0.6983 -0.1890
  306TMC3    O1 4667   2.179   1.082  14.611 -0.6643  0.1676  0.0437
  306TMC3    O2 4668   2.788   0.945  14.405  0.4082  0.0968 -0.0262
  307MPD2     C 4669   0.308   4.531  17.676  0.3996  0.0713  0.5202
  307MPD2    C1 4670   0.310   4.622   0.013 -0.8744  0.1663 -0.0364
  307MPD2    C2 4671   0.293   4.585   0.147  0.1630  0.4573 -0.1736
  307MPD2    C3 4672   0.263   4.454   0.185 -0.8504 -0.7195 -0.0214
  307MPD2    C4 4673   0.257   4.364   0.079 -0.1968 -0.8130  0.0358
  307MPD2    C5 4674   0.285   4.396  17.714  0.3819  0.2190 -0.1370
  307MPD2     H 4675   0.292   4.658   0.228  0.8094 -0.0995  0.3331
  307MPD2    H1 4676   0.242   4.259   0.098 -1.3010 -0.8316 -0.9769
  307MPD2    H2 4677   0.321   4.556  17.572 -2.6225  0.3245  0.2027
  307MPD2    H3 4678   0.295   4.313  17.645  1.3211  0.3544 -0.1505
  307MPD2     N 4679   0.245   4.423   0.320  0.4037 -0.1352 -0.6853
  307MPD2    H5 4680   0.237   4.495   0.390  0.8238  0.0625 -0.8397
  307MPD2    N1 4681   0.333   0.018  17.753  0.4544 -0.2122 -0.2372
  307MPD2    H7 4682   0.353   0.061   0.082 -5.0595 -0.3992  1.1140
  308TMC3    C1 4683   0.006   4.245   0.657  0.2348 -0.7173  0.1757
  308TMC3    C2 4684   0.067   4.338   0.747 -0.1183 -0.1747  0.4549
  308TMC3    C3 4685   0.179   4.401   0.709 -0.0420 -0.2991  0.0034
  308TMC3    C4 4686   0.058   4.229   0.535 -0.3314  0.0781  0.2440
  308TMC3    C5 4687   0.168   4.305   0.502  0.2034  0.2667  0.3403
  308TMC3    C6 4688   0.227   4.396   0.588 -0.0236 -0.6799  0.3428
  308TMC3     C 4689   4.604   4.232   0.669  0.0826  0.0825 -0.0868
  308TMC3     O 4690   4.550   4.330   0.720  0.1936 -0.5654 -0.1033
  308TMC3     H 4691   0.031   4.359   0.847 -1.4955  0.8521 -0.2513
  308TMC3    H1 4692   0.011   4.157   0.468 -2.0870  1.0925  0.3810
  308TMC3    H2 4693   0.323   4.443   0.569 -0.7682  0.5625 -0.3563
  308TMC3    C7 4694   0.210   4.304   0.368 -0.2259  0.0248  0.3268
  308TMC3    C8 4695   0.215   4.519   0.784  0.2733  0.2122  0.3359
  308TMC3    O1 4696   0.192   4.201   0.306  0.1689  0.2514 -0.0346
  308TMC3    O2 4697   0.338   4.550   0.784  0.3178  0.3518 -0.3309
  309MPD2     C 4698   4.273   4.588  17.199 -0.2379 -0.1776  0.2080
  309MPD2    C1 4699   4.207   4.635  17.082 -0.2681 -0.8042 -0.2490
  309MPD2    C2 4700   4.079   4.689  17.101  1.0638  0.2631 -0.6351
  309MPD2    C3 4701   4.016   4.679  17.220 -0.4511 -0.2533  0.2521
  309MPD2    C4 4702   4.082   4.624  17.332 -0.0308 -0.6627 -0.3801
  309MPD2    C5 4703   4.213   4.585  17.322  0.2517  0.1903 -0.1284
  309MPD2     H 4704   4.033   4.732  17.013 -0.2197 -0.8342 -0.4917
  309MPD2    H1 4705   4.036   4.619  17.430 -1.6425 -0.3645 -1.1236
  309MPD2    H2 4706   4.374   4.551  17.195 -0.6593 -1.3052  0.0478
  309MPD2    H3 4707   4.274   4.546  17.402 -1.5391 -2.2142  0.0837
  309MPD2     N 4708   3.880   4.718  17.241 -0.3197  0.8717  0.5286
  309MPD2    H5 4709   3.844   4.731  17.334 -0.6095  2.3052  0.2208
  309MPD2    N1 4710   4.256   4.632  16.951  0.1697 -0.5722  0.4250
  309MPD2    H7 4711   4.194   4.658  16.875  0.0389  2.0153  1.4188
  310TMC3    C1 4712   4.421   4.622  16.780  0.5394 -0.2259  0.1509
  310TMC3    C2 4713   4.344   4.702  16.704 -0.3812  0.0910 -0.7245
  310TMC3    C3 4714   4.386   4.733  16.582  0.0627  0.6277  0.2232
  310TMC3    C4 4715   4.534   4.559  16.727 -0.6032  0.0512  0.6916
  310TMC3    C5 4716   4.574   4.598  16.599 -0.3394 -0.2298  0.3198
  310TMC3    C6 4717   4.504   4.692  16.526 -0.7235 -0.6281 -0.8922
  310TMC3     C 4718   4.380   4.587  16.913 -0.4953 -0.1563 -0.4623
  310TMC3     O 4719   4.458   4.523  16.984 -0.2343 -0.3031  0.3572
  310TMC3     H 4720   4.257   0.015  16.742  0.0012 -0.0118  0.2949
  310TMC3    H1 4721   4.586   4.477  16.776  0.1175  1.4771  2.3244
  310TMC3    H2 4722   4.540   4.722  16.428 -2.2313  0.3588 -1.1371
  310TMC3    C7 4723   4.666   4.528  16.519  0.4367  0.3635  0.5748
  310TMC3    C8 4724   4.285   0.066  16.506  0.0710  0.1614  0.5612
  310TMC3    O1 4725   4.636   4.513  16.403  0.3044  0.3042  0.3601
  310TMC3    O2 4726   4.170   0.036  16.535  0.3309 -0.8946 -0.4753
  311MPD2     C 4727   1.533   0.971  12.345 -0.6187 -0.3328  0.2001
  311MPD2    C1 4728   1.572   1.000  12.472 -0.2497  0.2377 -0.2078
  311MPD2    C2 4729   1.481   0.992  12.575 -0.4412 -0.5793 -0.3349
  311MPD2    C3 4730   1.349   0.956  12.554  0.0897 -0.3948  0.2977
  311MPD2    C4 4731   1.302   0.950  12.423 -0.0339  0.3259  0.0222
  311MPD2    C5 4732   1.396   0.956  12.319 -0.6810  0.0999  0.0918
  311MPD2     H 4733   1.511   1.007  12.678  1.2900  1.1961 -1.0995
  311MPD2    H1 4734   1.199   0.938  12.392  0.1049 -0.2816 -0.1964
  311MPD2    H2 4735   1.602   0.959  12.263 -1.2652  0.5960 -0.4821
  311MPD2    H3 4736   1.363   0.942  12.217 -1.5950  0.9878  0.2706
  311MPD2     N 4737   1.266   0.946  12.669  0.0486  0.3779  0.2015
  311MPD2    H5 4738   1.302   0.955  12.763 -0.1593 -0.3909  0.3511
  311MPD2    N1 4739   1.709   1.046  12.495 -0.2017  0.1691 -0.2243
  311MPD2    H7 4740   1.736   1.063  12.592 -0.6161  0.9500 -0.2431
  312TMC3    C1 4741   1.074   0.929  12.797 -0.3162 -0.0206 -0.1775
  312TMC3    C2 4742   0.941   0.965  12.793 -0.5668 -0.1690  0.0610
  312TMC3    C3 4743   0.890   1.001  12.914  0.4762 -0.0487  0.0599
  312TMC3    C4 4744   1.148   0.933  12.911  0.4168  0.0973 -0.7374
  312TMC3    C5 4745   1.087   0.962  13.032  0.5957 -0.4418  0.5399
  312TMC3    C6 4746   0.960   1.006  13.030 -0.6173 -0.2958  0.2839
  312TMC3     C 4747   1.134   0.916  12.665 -0.3649  0.0015 -0.8698
  312TMC3     O 4748   1.064   0.881  12.574  0.5755 -0.5068  0.3542
  312TMC3     H 4749   0.879   0.979  12.705 -0.4053  0.5629  0.0596
  312TMC3    H1 4750   1.251   0.898  12.907 -0.0650 -1.4188  0.3821
  312TMC3    H2 4751   0.914   1.029  13.126 -0.0472  3.3878 -0.3554
  312TMC3    C7 4752   1.180   0.956  13.151  0.5054  0.1952  0.4840
  312TMC3    C8 4753   0.752   1.023  12.913  0.1016  0.2321  0.1144
  312TMC3    O1 4754   1.300   0.960  13.123 -1.0156  0.1699  0.4019
  312TMC3    O2 4755   0.695   0.969  12.821 -0.2420  0.2425  0.0294
  313MPD2     C 4756   0.171   0.830  11.496  0.0036  0.1380 -0.5737
  313MPD2    C1 4757   0.229   0.799  11.377  0.0855 -0.5998  0.0275
  313MPD2    C2 4758   0.240   0.665  11.339  0.5790 -1.3357  0.4653
  313MPD2    C3 4759   0.192   0.571  11.424 -0.2813  0.6144  0.6336
  313MPD2    C4 4760   0.119   0.604  11.528 -0.4892  0.0090  0.1917
  313MPD2    C5 4761   0.122   0.730  11.576 -0.4162 -0.7285  0.2364
  313MPD2     H 4762   0.283   0.641  11.242 -0.3515  3.3197 -1.0672
  313MPD2    H1 4763   0.076   0.533  11.598 -0.2304 -0.9925 -0.6753
  313MPD2    H2 4764   0.164   0.933  11.527  1.3055  0.1493 -0.3197
  313MPD2    H3 4765   0.075   0.764  11.668  0.0907 -0.4481  0.3977
  313MPD2     N 4766   0.214   0.438  11.389 -0.5102 -0.4849 -0.0554
  313MPD2    H5 4767   0.288   0.427  11.321  2.5004 -0.1068  3.1692
  313MPD2    N1 4768   0.281   0.901  11.295  0.3267 -0.1846 -0.3400
  313MPD2    H7 4769   0.316   0.862  11.208  0.6480  0.3436 -0.4465
  314TMC3    C1 4770   0.356   1.096  11.217 -0.0853  0.0757 -0.1599
  314TMC3    C2 4771   0.490   1.111  11.226  0.0001 -0.0814  0.4715
  314TMC3    C3 4772   0.546   1.133  11.103 -0.2622 -1.1153 -0.0745
  314TMC3    C4 4773   0.274   1.108  11.106 -0.4376 -0.6719  0.0969
  314TMC3    C5 4774   0.337   1.129  10.991  0.0513 -0.1419 -0.4197
  314TMC3    C6 4775   0.475   1.142  10.984 -0.6247  0.1649 -0.3886
  314TMC3     C 4776   0.288   1.034  11.325  0.5605  0.0532  0.3572
  314TMC3     O 4777   0.263   1.100  11.424  0.1535  0.1533  0.1014
  314TMC3     H 4778   0.546   1.104  11.318 -2.5871  0.2145  2.0621
  314TMC3    H1 4779   0.167   1.094  11.114 -0.5014 -0.1462  0.1779
  314TMC3    H2 4780   0.534   1.159  10.895 -0.0310  2.3565  0.4449
  314TMC3    C7 4781   0.260   1.103  10.871  0.0634  0.4906 -0.3031
  314TMC3    C8 4782   0.687   1.158  11.095  0.0340  0.5951  0.5731
  314TMC3    O1 4783   0.143   1.071  10.890  0.2374  0.9329 -0.1618
  314TMC3    O2 4784   0.727   1.218  10.998  0.0065  0.6081 -0.0046
  315MPD2     C 4785   0.555   3.987   0.133 -0.1634  0.4159  0.9412
  315MPD2    C1 4786   0.633   4.075   0.205  0.1546 -0.0040  0.3643
  315MPD2    C2 4787   0.661   4.196   0.159 -0.4471 -0.7321 -0.4871
  315MPD2    C3 4788   0.614   4.240   0.035 -0.5380  0.1446  0.6231
  315MPD2    C4 4789   0.530   4.162  17.722 -0.5529 -0.3822 -0.4262
  315MPD2    C5 4790   0.497   4.037   0.018 -0.8448  0.0189 -0.2644
  315MPD2     H 4791   0.725   4.267   0.211  3.7824 -3.4024 -2.0619
  315MPD2    H1 4792   0.488   4.192  17.627 -3.4757  0.1120  1.0199
  315MPD2    H2 4793   0.523   3.887   0.161  1.5362 -0.1149  0.9834
  315MPD2    H3 4794   0.421   3.982  17.725  0.6381 -0.2516 -2.0751
  315MPD2     N 4795   0.642   4.377   0.006 -0.5200  0.3351  0.1759
  315MPD2    H5 4796   0.708   4.420   0.069 -0.5997  1.4152 -0.4814
  315MPD2    N1 4797   0.719   4.035   0.316 -0.0781  0.3777  0.2700
  315MPD2    H7 4798   0.787   4.103   0.347  0.4839  0.1620 -0.4808
  316TMC3    C1 4799   0.660   4.587  17.644  0.1681 -0.4081 -0.6107
  316TMC3    C2 4800   0.726   4.636  17.756 -0.6161 -0.2383 -0.2877
  316TMC3    C3 4801   0.777   0.021  17.738  0.1654 -1.1009 -0.3823
  316TMC3    C4 4802   0.659   4.658  17.521  0.6473 -0.2302  0.0341
  316TMC3    C5 4803   0.725   0.039  17.510  0.0294  0.3454  0.6053
  316TMC3    C6 4804   0.774   0.093  17.624 -0.1384 -0.7569  0.7301
  316TMC3     C 4805   0.605   4.451  17.655  0.1147 -0.3219  0.3676
  316TMC3     O 4806   0.544   4.409  17.557 -0.4481  0.4197  0.0518
  316TMC3     H 4807   0.737   4.587   0.090  2.1585  0.8386 -0.0450
  316TMC3    H1 4808   0.603   4.628  17.434 -0.0661  0.4803  0.2419
  316TMC3    H2 4809   0.817   0.193  17.623 -1.1766 -0.3314 -1.7642
  316TMC3    C7 4810   0.799   0.083  17.393 -0.7375  0.0823  0.0125
  316TMC3    C8 4811   0.867   0.078   0.082 -0.5997 -0.5932  0.6345
  316TMC3    O1 4812   0.922   0.109  17.413 -0.1530 -0.3272 -0.3763
  316TMC3    O2 4813   0.872   0.201   0.084  0.1079  0.1445 -0.1951
  317MPD2     C 4814   2.356   3.186  13.232  0.3513  0.0437  0.0678
  317MPD2    C1 4815   2.407   3.071  13.169  0.5651  0.1096  0.2885
  317MPD2    C2 4816   2.496   2.999  13.243  0.2460  0.1034 -0.4208
  317MPD2    C3 4817   2.547   3.028  13.360  0.0632  0.2465 -0.1159
  317MPD2    C4 4818   2.491   3.131  13.427  0.1387 -0.0556 -0.5356
  317MPD2    C5 4819   2.395   3.204  13.362  0.4368 -1.2482 -0.3212
  317MPD2     H 4820   2.537   2.915  13.188  3.3020  0.4077  1.4005
  317MPD2    H1 4821   2.509   3.155  13.531  3.4340 -0.5497 -1.0004
  317MPD2    H2 4822   2.276   3.247  13.192  0.4120  0.5938  0.7865
  317MPD2    H3 4823   2.350   3.286  13.417  3.3002 -0.2623  0.5153
  317MPD2     N 4824   2.623   2.931  13.421  0.2547  0.3773 -0.3190
  317MPD2    H5 4825   2.645   2.856  13.357  0.3654  0.2469 -0.1270
  317MPD2    N1 4826   2.361   3.029  13.039 -0.0305 -0.2332 -0.2528
  317MPD2    H7 4827   2.401   2.945  13.000  0.4674  0.8112 -2.0017
  318TMC3    C1 4828   2.728   2.811  13.581 -0.2640 -0.1697  0.0383
  318TMC3    C2 4829   2.662   2.695  13.544  0.0084  0.4705 -0.1425
  318TMC3    C3 4830   2.715   2.574  13.592 -0.1995 -0.2154 -0.2053
  318TMC3    C4 4831   2.832   2.807  13.670 -1.0864  0.5022  0.4549
  318TMC3    C5 4832   2.875   2.685  13.714 -0.3903 -0.1011  0.4713
  318TMC3    C6 4833   2.820   2.561  13.677  0.0034  1.1492 -0.4794
  318TMC3     C 4834   2.675   2.939  13.550 -0.1234 -0.4175 -0.1746
  318TMC3     O 4835   2.692   3.026  13.631 -0.1039 -0.3370 -0.1097
  318TMC3     H 4836   2.561   2.698  13.505  0.4436  1.5257 -1.2042
  318TMC3    H1 4837   2.874   2.898  13.711  0.7317  0.3148 -1.0139
  318TMC3    H2 4838   2.827   2.469  13.735 -0.4880  1.4081 -0.0031
  318TMC3    C7 4839   2.978   2.685  13.822  0.5613  0.0886 -0.3303
  318TMC3    C8 4840   2.666   2.452  13.545 -0.4249 -0.5573 -0.6024
  318TMC3    O1 4841   3.007   2.795  13.882  0.1117 -0.0865 -0.1259
  318TMC3    O2 4842   2.743   2.357  13.556  0.3588 -0.0357  0.0302
  319MPD2     C 4843   3.933   4.054  16.344 -0.5067  0.0497  0.0645
  319MPD2    C1 4844   3.906   3.944  16.420 -0.1469  0.4411  0.7658
  319MPD2    C2 4845   3.780   3.890  16.421  0.0886  0.4512 -0.5825
  319MPD2    C3 4846   3.682   3.939  16.337  0.0260  0.1400 -0.2747
  319MPD2    C4 4847   3.710   4.053  16.267  0.0160  0.0921 -0.2874
  319MPD2    C5 4848   3.836   4.109  16.267  0.3639  0.0374  0.0787
  319MPD2     H 4849   3.768   3.804  16.486 -0.6510  0.4364 -0.7387
  319MPD2    H1 4850   3.636   4.102  16.205 -0.3602 -1.7663 -1.2875
  319MPD2    H2 4851   4.027   4.107  16.340 -0.8214  0.6357  0.5734
  319MPD2    H3 4852   3.863   4.198  16.211 -0.6172 -0.2515 -0.8443
  319MPD2     N 4853   3.561   3.870  16.313  0.3591 -0.1629 -0.2993
  319MPD2    H5 4854   3.503   3.912  16.241  0.9343  2.4586  0.7685
  319MPD2    N1 4855   4.000   3.885  16.504  0.6414 -0.2164 -1.2377
  319MPD2    H7 4856   3.977   3.799  16.553  1.5524  0.3289  0.1371
  320TMC3    C1 4857   3.383   3.723  16.332  0.8828 -0.0997 -0.3612
  320TMC3    C2 4858   3.295   3.806  16.266  0.4519 -0.0419 -0.4138
  320TMC3    C3 4859   3.174   3.760  16.224 -0.1133  0.5510  0.4910
  320TMC3    C4 4860   3.359   3.588  16.347 -0.0982 -0.6047 -0.0568
  320TMC3    C5 4861   3.238   3.548  16.298 -0.5760  0.0211 -0.0609
  320TMC3    C6 4862   3.143   3.628  16.243 -0.4552  0.3431 -0.4615
  320TMC3     C 4863   3.513   3.763  16.384  0.2997  0.0142 -0.2076
  320TMC3     O 4864   3.560   3.697  16.477  0.8369  0.1317  0.0135
  320TMC3     H 4865   3.314   3.913  16.271  2.5780 -0.3814 -1.3004
  320TMC3    H1 4866   3.425   3.515  16.392  1.6303 -0.2733 -2.0423
  320TMC3    H2 4867   3.048   3.580  16.218  0.5561 -0.9997 -1.7407
  320TMC3    C7 4868   3.205   3.404  16.293  1.0358 -0.2204  0.2473
  320TMC3    C8 4869   3.068   3.855  16.196  0.3519 -0.7564 -0.3189
  320TMC3    O1 4870   3.111   3.377  16.216  0.5825  0.1602 -0.7040
  320TMC3    O2 4871   3.100   3.953  16.132 -0.0613 -0.9583  0.2378
  321TMC3    C1 4872   4.201   3.857  16.617  0.2228  0.2151 -0.1134
  321TMC3    C2 4873   4.167   3.725  16.617  0.0295  0.6702  0.3024
  321TMC3    C3 4874   4.261   3.642  16.681  0.1395 -0.4698  0.0076
  321TMC3    C4 4875   4.299   3.917  16.690  0.4328 -0.4125  0.0835
  321TMC3    C5 4876   4.381   3.831  16.755  0.2727  0.6354  0.1958
  321TMC3    C6 4877   4.366   3.697  16.749 -0.5358  0.5346  0.6797
  321TMC3     C 4878   4.116   3.951  16.543 -0.1286  0.4256  0.4182
  321TMC3     O 4879   4.146   4.063  16.509  0.6587  0.5203 -0.0889
  321TMC3     H 4880   4.085   3.673  16.569 -0.8353  0.5698  1.8603
  321TMC3    H1 4881   4.308   4.025  16.685 -0.2433 -0.4347 -1.7919
  321TMC3    H2 4882   4.437   3.634  16.801  0.2548  2.8236  2.3350
  321TMC3    C7 4883   4.418   3.869  16.888  0.0339  0.5862  0.3790
  321TMC3    C8 4884   4.194   3.537  16.753 -0.6255  0.7403 -0.1763
  321TMC3    O1 4885   4.430   3.773  16.966 -0.2789 -0.4100 -0.2216
  321TMC3    O2 4886   4.100   3.479  16.698 -0.3629 -0.3358 -0.3735
  322MPD2     C 4887   2.239   0.580  13.607 -0.1308  0.1823 -0.1080
  322MPD2    C1 4888   2.329   0.522  13.692  0.2415 -0.6188 -0.2841
  322MPD2    C2 4889   2.385   0.400  13.662  0.4467 -0.0403  1.0886
  322MPD2    C3 4890   2.338   0.332  13.545 -0.5002 -0.6199 -0.3554
  322MPD2    C4 4891   2.237   0.385  13.472 -0.8511  0.5588 -0.0620
  322MPD2    C5 4892   2.193   0.510  13.502  0.1442  0.3130 -0.5822
  322MPD2     H 4893   2.464   0.351  13.717  0.4452 -1.1703  0.0929
  322MPD2    H1 4894   2.195   0.332  13.387 -0.7968 -0.8891  0.8120
  322MPD2    H2 4895   2.181   0.667  13.635 -0.2919  0.1935 -0.4823
  322MPD2    H3 4896   2.105   0.542  13.448  0.3545  0.6783 -0.7108
  322MPD2     N 4897   2.392   0.202  13.529 -0.3391 -0.3924 -0.8516
  322MPD2    H5 4898   2.465   0.171  13.592  0.9788 -0.6365 -2.5013
  322MPD2    N1 4899   2.369   0.592  13.807  0.0591  0.5821  0.3867
  322MPD2    H7 4900   2.341   0.689  13.819 -0.2343  0.8004 -2.0856
  323TMC3    C1 4901   2.478   0.643  13.996  0.4457 -0.7132 -0.4747
  323TMC3    C2 4902   2.558   0.731  13.931 -0.4673  0.0043 -0.0161
  323TMC3    C3 4903   2.651   0.794  14.001 -1.1099  0.5940 -0.1822
  323TMC3    C4 4904   2.506   0.598  14.120  0.5662  0.1585  0.0349
  323TMC3    C5 4905   2.613   0.660  14.190  0.1697 -0.4494  0.2386
  323TMC3    C6 4906   2.677   0.765  14.133 -0.7673  0.0572 -0.5781
  323TMC3     C 4907   2.433   0.542  13.911 -0.2363  0.6865 -0.2460
  323TMC3     O 4908   2.472   0.428  13.934 -0.4000 -0.2861  0.0910
  323TMC3     H 4909   2.555   0.738  13.823 -0.0310 -1.1394 -0.0965
  323TMC3    H1 4910   2.454   0.511  14.158  1.2751 -0.3787 -0.2142
  323TMC3    H2 4911   2.757   0.815  14.186 -2.5241  0.1148  2.0311
  323TMC3    C7 4912   2.652   0.597  14.315 -0.3866  0.1547 -0.1937
  323TMC3    C8 4913   2.728   0.900  13.935  0.0483  0.2915  0.5953
  323TMC3    O1 4914   2.594   0.491  14.346  0.0318  0.4669  0.3257
  323TMC3    O2 4915   2.820   0.950  13.998  0.7192  0.2439  0.7374
  324MPD2     C 4916   4.072   1.663  14.096 -0.4247 -0.3871 -0.7280
  324MPD2    C1 4917   4.043   1.722  14.216  0.2566  0.1239  0.3267
  324MPD2    C2 4918   3.903   1.734  14.257  0.6646 -0.6368  0.7361
  324MPD2    C3 4919   3.813   1.700  14.157 -0.1895  0.0535  0.2070
  324MPD2    C4 4920   3.847   1.643  14.036  0.9245  0.2223  0.5072
  324MPD2    C5 4921   3.976   1.623  14.012  0.5012 -0.7141  0.1471
  324MPD2     H 4922   3.869   1.788  14.345 -0.2703 -0.1748  0.0808
  324MPD2    H1 4923   3.770   1.599  13.975  1.5659  1.6665 -1.3598
  324MPD2    H2 4924   4.172   1.637  14.063  0.7721  1.2141  1.5740
  324MPD2    H3 4925   4.013   1.572  13.923  1.4210  1.1998 -0.5737
  324MPD2     N 4926   3.671   1.708  14.175  0.2633 -0.5180  0.5826
  324MPD2    H5 4927   3.613   1.673  14.099 -0.1245  0.8976  0.2220
  324MPD2    N1 4928   4.154   1.767  14.294  0.0775 -0.5432  0.4375
  324MPD2    H7 4929   4.246   1.770  14.250  0.3300  0.6284  1.0455
  325TMC3    C1 4930   3.464   1.729  14.280 -0.0588  0.1692 -0.2010
  325TMC3    C2 4931   3.402   1.647  14.189 -0.1991 -0.2801  0.1622
  325TMC3    C3 4932   3.267   1.641  14.184 -0.6774  0.1851  0.5743
  325TMC3    C4 4933   3.394   1.802  14.372  0.0422  0.7020  0.0448
  325TMC3    C5 4934   3.257   1.797  14.361  0.0570  0.3317  0.0397
  325TMC3    C6 4935   3.189   1.716  14.273 -0.1081  0.1104 -0.4447
  325TMC3     C 4936   3.608   1.736  14.291 -0.2224  0.4911  0.6366
  325TMC3     O 4937   3.644   1.786  14.398 -0.1624 -0.1070 -0.1607
  325TMC3     H 4938   3.465   1.584  14.128 -1.3849 -0.8413 -0.4889
  325TMC3    H1 4939   3.433   1.872  14.446 -0.5763  1.2527 -0.1504
  325TMC3    H2 4940   3.081   1.722  14.268 -0.0791  0.0289 -1.1900
  325TMC3    C7 4941   3.179   1.913  14.407 -0.0302  0.2329 -0.9826
  325TMC3    C8 4942   3.192   1.606  14.074  0.0037  0.5169  0.4597
  325TMC3    O1 4943   3.062   1.890  14.444  1.0219  0.0700  0.0200
  325TMC3    O2 4944   3.256   1.605  13.970  0.2072  0.6204 -0.0027
  326MPD2     C 4945   0.319   2.510  10.789  0.2606 -0.3645 -0.0902
  326MPD2    C1 4946   0.337   2.618  10.701  0.3430 -0.2743  1.1707
  326MPD2    C2 4947   0.428   2.713  10.735  0.9598 -0.0045 -0.1062
  326MPD2    C3 4948   0.521   2.693  10.838 -0.0618 -0.8492 -0.1413
  326MPD2    C4 4949   0.516   2.578  10.902 -0.0535  0.1338 -0.1597
  326MPD2    C5 4950   0.410   2.488  10.887  0.2284  0.9037 -0.0421
  326MPD2     H 4951   0.447   2.796  10.667 -1.1553  0.7948  0.2841
  326MPD2    H1 4952   0.592   2.565  10.977 -0.1586 -1.4489 -0.3259
  326MPD2    H2 4953   0.239   2.437  10.785 -0.3995  0.3919 -0.8057
  326MPD2    H3 4954   0.400   2.406  10.957 -1.1069 -0.5475 -1.9277
  326MPD2     N 4955   0.625   2.784  10.876 -0.0093 -0.2951  0.0551
  326MPD2    H5 4956   0.683   2.752  10.952 -0.1854 -0.3402  0.1706
  326MPD2    N1 4957   0.257   2.634  10.587 -0.0678  0.2518  0.1834
  326MPD2    H7 4958   0.263   2.721  10.535  0.8512 -1.3190 -2.3213
  327TMC3    C1 4959   0.116   2.603  10.409  0.5594 -0.9060 -0.6320
  327TMC3    C2 4960   0.016   2.689  10.434 -0.2491  0.3157  0.0202
  327TMC3    C3 4961   0.014   2.801  10.357  0.1956  0.3047 -0.2466
  327TMC3    C4 4962   0.213   2.633  10.321  0.4625  0.0061 -0.0279
  327TMC3    C5 4963   0.218   2.750  10.257 -0.1470 -0.4830  0.4694
  327TMC3    C6 4964   0.109   2.828  10.265 -0.4089 -0.6513 -0.1724
  327TMC3     C 4965   0.170   2.540  10.530  0.8675 -0.0377 -0.2616
  327TMC3     O 4966   0.156   2.419  10.550  0.5189 -0.0939  0.6121
  327TMC3     H 4967   4.675   2.663  10.500 -2.2107  0.3825 -2.3908
  327TMC3    H1 4968   0.284   2.554  10.299 -2.0417 -2.2212 -0.0965
  327TMC3    H2 4969   0.104   2.909  10.193 -0.7673 -1.2976 -0.8704
  327TMC3    C7 4970   0.346   2.818  10.242  0.0213  0.6228 -0.1872
  327TMC3    C8 4971   4.668   2.911  10.386 -0.5401 -0.3507  0.5953
  327TMC3    O1 4972   0.336   2.938  10.226  0.3656 -0.3353 -0.3621
  327TMC3    O2 4973   4.692   3.022  10.334  0.5901  0.2971 -0.0806
  328MPD2     C 4974   2.817   2.394  17.105 -0.4289 -0.2985  0.4285
  328MPD2    C1 4975   2.721   2.389  17.008  0.5148  0.1399  0.8678
  328MPD2    C2 4976   2.672   2.507  16.950 -0.7145 -0.0795 -0.6182
  328MPD2    C3 4977   2.713   2.634  16.994  1.0298 -0.3759  0.4630
  328MPD2    C4 4978   2.820   2.640  17.086 -0.5491  0.3696  0.0445
  328MPD2    C5 4979   2.872   2.519  17.129  0.0066  0.4151 -0.0683
  328MPD2     H 4980   2.596   2.491  16.875  0.8595  2.9549 -2.8284
  328MPD2    H1 4981   2.882   2.728  17.097  0.0624 -0.0578  0.0035
  328MPD2    H2 4982   2.847   2.314  17.172 -0.3740 -0.3147  0.3843
  328MPD2    H3 4983   2.947   2.523  17.208 -0.2749 -0.5797  0.2480
  328MPD2     N 4984   2.655   2.757  16.948 -0.0332  0.2530  0.2134
  328MPD2    H5 4985   2.704   2.843  16.972  1.4609 -0.4161 -0.4125
  328MPD2    N1 4986   2.652   2.274  16.980  0.0188 -0.2920 -0.5299
  328MPD2    H7 4987   2.578   2.271  16.911  0.6808 -0.9954 -1.2060
  329TMC3    C1 4988   2.556   2.072  17.013  0.4828  0.2740 -0.2048
  329TMC3    C2 4989   2.435   2.131  16.994 -0.0657 -0.3755  0.0794
  329TMC3    C3 4990   2.328   2.067  17.054 -0.8127 -0.5830 -0.0309
  329TMC3    C4 4991   2.566   1.951  17.072 -1.5071  0.4398  0.6528
  329TMC3    C5 4992   2.456   1.895  17.142 -0.6392 -0.4784  0.2534
  329TMC3    C6 4993   2.335   1.954  17.127 -0.1572  0.4854  0.0825
  329TMC3     C 4994   2.674   2.152  17.024  0.0102 -0.1256  0.7088
  329TMC3     O 4995   2.766   2.109  17.090 -0.5322  0.1953 -0.2063
  329TMC3     H 4996   2.422   2.225  16.940 -2.7615 -0.7976 -0.0060
  329TMC3    H1 4997   2.664   1.913  17.097 -1.2368  0.6912 -0.0432
  329TMC3    H2 4998   2.242   1.919  17.170  0.8549 -1.3107  0.7810
  329TMC3    C7 4999   2.483   1.826  17.265  0.1664  0.3524 -0.5455
  329TMC3    C8 5000   2.214   2.150  17.085 -0.0838  0.8375 -0.2291
  329TMC3    O1 5001   2.585   1.759  17.257  0.1901 -0.5183  0.1365
  329TMC3    O2 5002   2.117   2.133  17.010  0.0022  0.3277  0.0020
  330TMC3    C1 5003   1.183   1.544   9.149  0.0871 -0.2606  0.5508
  330TMC3    C2 5004   1.108   1.446   9.090  0.0033  0.2823  0.2918
  330TMC3    C3 5005   1.109   1.327   9.152  0.6356 -0.7046 -0.6009
  330TMC3    C4 5006   1.250   1.519   9.266 -0.3662 -0.6107 -0.4147
  330TMC3    C5 5007   1.245   1.399   9.327 -0.2302  0.5382  0.1326
  330TMC3    C6 5008   1.161   1.299   9.279  0.0780  0.0229  0.1689
  330TMC3     C 5009   1.162   1.682   9.102 -0.6074  0.9993 -0.2253
  330TMC3     O 5010   1.243   1.771   9.123  0.1666 -0.2710  0.2612
  330TMC3     H 5011   1.056   1.458   8.995  2.1485  2.3854 -0.6272
  330TMC3    H1 5012   1.298   1.605   9.313 -3.4068  0.7152  0.2465
  330TMC3    H2 5013   1.180   1.198   9.315 -0.2358  0.1765  0.7601
  330TMC3    C7 5014   1.295   1.390   9.454 -0.3691  0.5785  1.0087
  330TMC3    C8 5015   1.012   1.232   9.098 -0.2058  0.5598  0.1862
  330TMC3    O1 5016   1.347   1.493   9.506  0.1230  1.1184  0.1608
  330TMC3    O2 5017   0.962   1.246   8.987 -0.6438  0.3996 -0.3694
  331MPD2     C 5018   2.990   1.409  12.526 -0.4817  0.1713 -0.4918
  331MPD2    C1 5019   3.112   1.419  12.464  1.0624  0.0487 -0.3282
  331MPD2    C2 5020   3.212   1.324  12.494  0.4945  0.1746 -0.5666
  331MPD2    C3 5021   3.189   1.231  12.592  0.0506  0.0175  0.2208
  331MPD2    C4 5022   3.064   1.217  12.654  0.9013 -0.9945  0.1289
  331MPD2    C5 5023   2.972   1.309  12.618 -1.2888 -0.3812  0.3337
  331MPD2     H 5024   3.313   1.323  12.456  0.7408  1.0554  0.0757
  331MPD2    H1 5025   3.045   1.135  12.722  0.2608 -1.5304 -0.7071
  331MPD2    H2 5026   2.908   1.480  12.516  0.0659  0.8571 -0.1539
  331MPD2    H3 5027   2.874   1.294  12.661 -1.3134  0.7469  0.6566
  331MPD2     N 5028   3.300   1.144  12.613 -0.5512  0.1233  0.4124
  331MPD2    H5 5029   3.388   1.159  12.565  0.2041 -2.6661  0.9145
  331MPD2    N1 5030   3.122   1.517  12.363  0.0258 -0.0762  0.2034
  331MPD2    H7 5031   3.042   1.579  12.357 -0.6404 -0.9092  0.4166
  332TMC3    C1 5032   3.421   0.978  12.672  0.5576 -0.3599 -0.0551
  332TMC3    C2 5033   3.448   0.901  12.560 -0.0633 -0.3697  0.5308
  332TMC3    C3 5034   3.577   0.882  12.527 -0.3461  0.4567 -0.4500
  332TMC3    C4 5035   3.524   1.039  12.743  0.6481  0.4149  0.0563
  332TMC3    C5 5036   3.650   1.029  12.701 -0.0233 -0.2813  0.6798
  332TMC3    C6 5037   3.676   0.949  12.597  0.4957 -0.3548 -0.0096
  332TMC3     C 5038   3.291   1.037  12.693 -0.0008  0.1574  0.1071
  332TMC3     O 5039   3.199   0.982  12.752 -0.1996 -0.0866 -0.6179
  332TMC3     H 5040   3.371   0.856  12.498 -0.0038 -1.0905  0.9805
  332TMC3    H1 5041   3.503   1.094  12.834  1.4907  0.0850  0.4524
  332TMC3    H2 5042   3.772   0.956  12.548  0.7641 -0.4730  0.4975
  332TMC3    C7 5043   3.743   1.125  12.761  0.6110  0.5408  0.2522
  332TMC3    C8 5044   3.605   0.878  12.382  0.7452 -0.3869  0.4086
  332TMC3    O1 5045   3.690   1.224  12.814 -0.2326  0.0136 -0.1081
  332TMC3    O2 5046   3.696   0.946  12.336  0.1250 -0.3203  0.0954
  333MPD2     C 5047   3.782   1.124  10.768 -0.6052  0.6110  0.8658
  333MPD2    C1 5048   3.814   1.029  10.674 -0.2618  1.0370 -0.5274
  333MPD2    C2 5049   3.769   0.897  10.691  0.8814  0.1710  0.3012
  333MPD2    C3 5050   3.689   0.865  10.806  0.4539  0.3551  0.0733
  333MPD2    C4 5051   3.655   0.965  10.894 -0.0380 -0.3226 -0.1893
  333MPD2    C5 5052   3.703   1.094  10.871 -0.3565  0.9303 -0.2115
  333MPD2     H 5053   3.783   0.815  10.622 -1.7512 -0.4317  0.5168
  333MPD2    H1 5054   3.603   0.944  10.986  0.1284  0.8393  0.1715
  333MPD2    H2 5055   3.811   1.228  10.759 -0.2242  0.1386 -3.4674
  333MPD2    H3 5056   3.678   1.175  10.939 -2.0923 -0.6831  1.0915
  333MPD2     N 5057   3.666   0.731  10.827  0.3884 -0.6606  0.0389
  333MPD2    H5 5058   3.704   0.664  10.761 -1.7972 -0.2950 -1.5718
  333MPD2    N1 5059   3.892   1.071  10.565 -0.3225 -0.1962  0.1572
  333MPD2    H7 5060   3.936   1.163  10.571 -0.5056 -0.0363 -0.9019
  334TMC3    C1 5061   4.008   1.065  10.365 -0.7082 -0.0568  0.2765
  334TMC3    C2 5062   4.099   0.978  10.308  0.1565 -0.0138 -0.4470
  334TMC3    C3 5063   4.202   1.037  10.247 -0.3792 -0.4298  0.1592
  334TMC3    C4 5064   4.029   1.198  10.369 -0.2914  0.8724 -0.5539
  334TMC3    C5 5065   4.135   1.249  10.305 -0.1606  0.3345  0.2685
  334TMC3    C6 5066   4.221   1.177  10.234 -0.2204 -0.1997 -0.1069
  334TMC3     C 5067   3.928   0.991  10.458  0.4045 -0.2021  0.3630
  334TMC3     O 5068   3.900   0.878  10.434 -0.0056  0.1184  0.3547
  334TMC3     H 5069   4.079   0.872  10.318  3.0662 -0.4237  1.0026
  334TMC3    H1 5070   3.969   1.263  10.432  0.5828  1.3356 -0.2048
  334TMC3    H2 5071   4.288   1.229  10.167  0.6158 -0.9402  0.1509
  334TMC3    C7 5072   4.171   1.385  10.318  0.5156 -0.4479  0.8736
  334TMC3    C8 5073   4.301   0.945  10.200 -0.0560 -0.0798  0.0732
  334TMC3    O1 5074   4.291   1.416  10.317 -0.4883 -0.0629 -0.6132
  334TMC3    O2 5075   4.268   0.830  10.194  0.4550  0.1240 -0.1705
  335TMC3    C1 5076   3.721   2.719  17.621 -0.2228 -0.1482 -0.3410
  335TMC3    C2 5077   3.636   2.707  17.513  0.2521  0.4702 -0.3408
  335TMC3    C3 5078   3.678   2.738  17.387 -0.3677  0.1945  0.5260
  335TMC3    C4 5079   3.849   2.747  17.605 -0.4184  0.4314  0.3088
  335TMC3    C5 5080   3.884   2.792  17.476 -0.0995  0.2001  0.2880
  335TMC3    C6 5081   3.805   2.781  17.366 -0.0295  0.2384  0.5936
  335TMC3     C 5082   3.687   2.679  17.761  0.2745  0.0958 -0.0544
  335TMC3     O 5083   3.776   2.668   0.080  0.3377  0.1815  0.1198
  335TMC3     H 5084   3.532   2.679  17.521  0.3763 -0.6655 -2.5665
  335TMC3    H1 5085   3.917   2.754  17.689 -1.1394  1.6105  0.8010
  335TMC3    H2 5086   3.839   2.810  17.267  0.5563 -0.5804  0.5646
  335TMC3    C7 5087   4.019   2.843  17.452 -0.4207  0.1343  0.4692
  335TMC3    C8 5088   3.602   2.694  17.263 -0.3626 -0.5921  0.0854
  335TMC3    O1 5089   4.054   2.839  17.335  0.2419  0.2355  0.1067
  335TMC3    O2 5090   3.659   2.717  17.157  0.9046  0.0591  0.0270
  336MPD2     C 5091   3.272   0.427  16.388  0.4631 -0.0852 -0.3332
  336MPD2    C1 5092   3.231   0.391  16.262 -0.2530 -0.1616  0.8081
  336MPD2    C2 5093   3.255   0.259  16.221  0.6473 -0.5027 -0.1583
  336MPD2    C3 5094   3.316   0.165  16.305 -0.5695  0.1482 -0.2596
  336MPD2    C4 5095   3.354   0.193  16.426  0.4694  0.4484  0.2323
  336MPD2    C5 5096   3.323   0.321  16.468 -0.0405 -0.2095  0.2959
  336MPD2     H 5097   3.231   0.236  16.118  1.6987  0.0573 -0.5307
  336MPD2    H1 5098   3.408   0.127  16.492 -0.5562 -1.5239 -0.8841
  336MPD2    H2 5099   3.250   0.523  16.432  0.9297  0.6896 -1.7919
  336MPD2    H3 5100   3.338   0.351  16.571 -1.4062  3.0578 -0.4483
  336MPD2     N 5101   3.348   0.035  16.265  1.2588  0.5873 -0.1892
  336MPD2    H5 5102   3.397   4.714  16.329  0.5197 -0.0455 -0.2340
  336MPD2    N1 5103   3.173   0.481  16.172  0.2616 -0.3646 -0.4240
  336MPD2    H7 5104   3.135   0.439  16.087 -0.7510 -0.7909  0.2512
  337TMC3    C1 5105   3.105   0.691  16.078  0.5617 -0.0757 -0.2589
  337TMC3    C2 5106   3.031   0.631  15.982 -0.3041  0.0384 -0.1375
  337TMC3    C3 5107   2.962   0.712  15.887 -0.1239 -0.2332  0.6051
  337TMC3    C4 5108   3.130   0.820  16.069  0.5263  0.8984  0.1535
  337TMC3    C5 5109   3.058   0.902  15.986  0.1380 -0.1562  0.2089
  337TMC3    C6 5110   2.974   0.850  15.889  0.0619 -0.0522  0.2400
  337TMC3     C 5111   3.170   0.614  16.187 -0.0815  0.3638 -0.0380
  337TMC3     O 5112   3.218   0.686  16.279  0.2602 -0.7791 -0.4406
  337TMC3     H 5113   3.024   0.523  15.985 -1.0384  0.0994  0.5415
  337TMC3    H1 5114   3.186   0.863  16.152  1.0847 -2.6016  1.5755
  337TMC3    H2 5115   2.917   0.906  15.815 -1.0482 -1.0179  0.3713
  337TMC3    C7 5116   3.114   1.025  15.962 -0.6905 -0.0634  0.2986
  337TMC3    C8 5117   2.826   0.667  15.849  0.3541 -0.1550  0.4407
  337TMC3    O1 5118   3.223   1.052  16.010  0.0013  0.0903 -0.2349
  337TMC3    O2 5119   2.791   0.566  15.913  0.0929 -0.2241  0.3304
  338MPD2     C 5120   4.176   0.214   0.863 -0.1167 -0.7007  0.3224
  338MPD2    C1 5121   4.147   0.079   0.878  0.4318  0.3875 -0.8536
  338MPD2    C2 5122   4.218   0.009   0.980 -0.2617  0.8679 -0.1186
  338MPD2    C3 5123   4.296   0.078   1.069 -0.5826 -0.5410 -0.2193
  338MPD2    C4 5124   4.326   0.211   1.053 -0.3275  0.2164  0.3086
  338MPD2    C5 5125   4.258   0.274   0.958 -0.4973  0.3831  0.0064
  338MPD2     H 5126   4.200   4.644   0.990 -1.2662  1.2195  1.8574
  338MPD2    H1 5127   4.382   0.267   1.127  2.0436 -0.9808 -0.5717
  338MPD2    H2 5128   4.132   0.283   0.792 -0.3253 -0.4545  0.6877
  338MPD2    H3 5129   4.284   0.380   0.955  2.2084 -0.2631  0.2439
  338MPD2     N 5130   4.350   0.004   1.182  0.0393  0.1865  0.1013
  338MPD2    H5 5131   4.309   4.653   1.189  1.3581 -0.5107 -1.4596
  338MPD2    N1 5132   4.069   0.008   0.784 -0.1352  0.0339 -0.4338
  338MPD2    H7 5133   4.048   4.652   0.805 -0.6490  0.3128  0.3560
  339TMC3    C1 5134   4.437   4.710   1.393  0.0809  0.1476 -0.5699
  339TMC3    C2 5135   4.450   0.028   1.517  0.4155  0.1506 -0.6880
  339TMC3    C3 5136   4.362   4.720   1.614 -0.6391  0.1813 -0.3546
  339TMC3    C4 5137   4.363   4.598   1.379  0.3397  0.2422  0.0356
  339TMC3    C5 5138   4.279   4.549   1.475 -0.0040 -0.8878  0.0595
  339TMC3    C6 5139   4.277   4.614   1.601  1.2597  0.0357  0.9342
  339TMC3     C 5140   4.433   0.057   1.281 -0.4594  0.9676 -0.2271
  339TMC3     O 5141   4.509   0.148   1.287  0.4910  0.1983  0.2593
  339TMC3     H 5142   4.497   0.123   1.536 -0.2496  0.2576  0.4203
  339TMC3    H1 5143   4.345   4.540   1.290  0.5311  1.4405 -0.7864
  339TMC3    H2 5144   4.214   4.578   1.681 -2.3585 -0.9906 -2.4190
  339TMC3    C7 5145   4.148   4.502   1.416 -0.5167 -0.2407  0.5691
  339TMC3    C8 5146   4.347   0.079   1.724  0.3758  0.0009 -0.2593
  339TMC3    O1 5147   4.146   4.384   1.382  0.6889 -0.0098 -0.1081
  339TMC3    O2 5148   4.440   0.160   1.746 -0.2984  0.0951  0.2071
  340MPD2     C 5149   3.479   1.882   9.938 -0.0527 -0.0774  0.2133
  340MPD2    C1 5150   3.561   1.907   9.831 -0.4974  0.2720  1.0243
  340MPD2    C2 5151   3.667   1.996   9.845 -0.0510 -0.6970 -0.0283
  340MPD2    C3 5152   3.695   2.066   9.957 -0.5928  0.5576  0.5910
  340MPD2    C4 5153   3.614   2.040  10.066 -0.5673 -0.0178 -0.1490
  340MPD2    C5 5154   3.507   1.951  10.054 -0.0566 -0.4109 -0.0147
  340MPD2     H 5155   3.733   2.012   9.761  0.6358  2.2935  1.0682
  340MPD2    H1 5156   3.635   2.100  10.154 -0.9914 -3.1603  2.0727
  340MPD2    H2 5157   3.405   1.804   9.945  0.0210 -0.0063  1.7688
  340MPD2    H3 5158   3.450   1.936  10.145 -0.9006  2.8677 -0.0189
  340MPD2     N 5159   3.806   2.145   9.977 -0.0308 -0.6088  0.5955
  340MPD2    H5 5160   3.824   2.186  10.068 -0.2995  1.2211 -0.1653
  340MPD2    N1 5161   3.537   1.838   9.714 -0.4246  0.1912 -0.8737
  340MPD2    H7 5162   3.465   1.767   9.715  0.5251 -0.7684 -0.4943
  341TMC3    C1 5163   3.593   1.735   9.506  0.2571  0.2365  0.4770
  341TMC3    C2 5164   3.497   1.641   9.536  0.3486 -0.5541 -0.1470
  341TMC3    C3 5165   3.509   1.514   9.483  0.1449 -0.4951 -0.4323
  341TMC3    C4 5166   3.703   1.703   9.425 -0.2381  0.4187 -0.0512
  341TMC3    C5 5167   3.718   1.572   9.386  0.0319 -0.0333 -0.1406
  341TMC3    C6 5168   3.620   1.478   9.411 -0.3645 -0.2078 -0.4477
  341TMC3     C 5169   3.603   1.854   9.590 -0.5948 -0.3481 -0.4412
  341TMC3     O 5170   3.700   1.927   9.562 -0.2530 -0.0799 -0.5062
  341TMC3     H 5171   3.409   1.663   9.595  0.0638  0.1528 -0.8370
  341TMC3    H1 5172   3.785   1.771   9.402 -0.4876  0.1276 -1.8052
  341TMC3    H2 5173   3.642   1.372   9.404 -0.4043 -0.4376  2.6823
  341TMC3    C7 5174   3.856   1.537   9.368  0.3064 -0.1296  0.3958
  341TMC3    C8 5175   3.430   1.410   9.550  0.0505  0.1361  0.4922
  341TMC3    O1 5176   3.928   1.622   9.312 -0.3650  0.0180 -0.0070
  341TMC3    O2 5177   3.401   1.440   9.664 -0.6249 -0.0794  0.2912
  342MPD2     C 5178   1.512   0.897  17.369 -0.5229  0.6356 -0.3962
  342MPD2    C1 5179   1.648   0.870  17.382  0.5829  0.1226  1.0247
  342MPD2    C2 5180   1.738   0.973  17.411 -0.4160 -0.2660  0.1810
  342MPD2    C3 5181   1.696   1.104  17.433 -0.3413 -0.0207 -0.2901
  342MPD2    C4 5182   1.565   1.123  17.423  0.6696 -0.3745  0.5443
  342MPD2    C5 5183   1.473   1.026  17.391 -0.4809  0.0259  0.2593
  342MPD2     H 5184   1.841   0.946  17.433 -0.6864 -1.6397 -0.2312
  342MPD2    H1 5185   1.527   1.221  17.451 -0.1156 -0.5286  0.0105
  342MPD2    H2 5186   1.436   0.822  17.349  2.5911 -2.6862  0.1472
  342MPD2    H3 5187   1.368   1.053  17.393 -0.8324 -1.3904  0.4562
  342MPD2     N 5188   1.775   1.209  17.489  0.3166  0.6843  0.1396
  342MPD2    H5 5189   1.729   1.297  17.508  0.0984  0.9884 -1.8264
  342MPD2    N1 5190   1.699   0.745  17.361  0.1082  0.2790 -0.0053
  342MPD2    H7 5191   1.799   0.740  17.381  0.3872  0.4216 -1.3613
  343TMC3    C1 5192   1.711   0.512  17.290 -0.1720 -0.4092  0.0999
  343TMC3    C2 5193   1.809   0.546  17.203 -0.9836 -0.3322  0.0852
  343TMC3    C3 5194   1.848   0.439  17.120 -0.8458  0.0655 -0.6733
  343TMC3    C4 5195   1.649   0.390  17.300  0.1573 -0.4751 -0.2167
  343TMC3    C5 5196   1.694   0.295  17.215 -0.4957 -0.0075 -0.0699
  343TMC3    C6 5197   1.788   0.314  17.116  0.4372  0.2037 -0.0512
  343TMC3     C 5198   1.629   0.624  17.343 -0.4032  0.1312 -0.4130
  343TMC3     O 5199   1.509   0.605  17.349 -0.4083 -0.4416  0.6064
  343TMC3     H 5200   1.859   0.641  17.211 -1.3507 -0.1760  0.5031
  343TMC3    H1 5201   1.563   0.371  17.364 -1.3969  1.1251 -1.8459
  343TMC3    H2 5202   1.806   0.239  17.039 -0.0641  1.3410 -1.2887
  343TMC3    C7 5203   1.649   0.159  17.230  0.4734  0.3387  0.0972
  343TMC3    C8 5204   1.975   0.471  17.044  0.0747 -0.6876  0.1725
  343TMC3    O1 5205   1.645   0.084  17.132  0.0288 -0.4368  0.1644
  343TMC3    O2 5206   2.035   0.571  17.081 -0.2148 -0.8427  0.5581
  344MPD2     C 5207   2.973   4.603  10.138  0.4535 -0.0833  0.1321
  344MPD2    C1 5208   2.874   4.595  10.235  0.0638  0.4310  0.4331
  344MPD2    C2 5209   2.809   4.708  10.278  0.2748 -0.5033  0.2346
  344MPD2    C3 5210   2.850   0.091  10.235  0.2612  0.1722  0.4354
  344MPD2    C4 5211   2.959   0.097  10.148  0.6585 -0.1386 -0.0370
  344MPD2    C5 5212   3.016   4.720  10.098 -0.8508 -0.9944  0.3232
  344MPD2     H 5213   2.722   4.699  10.342 -0.0685  0.0906 -0.1511
  344MPD2    H1 5214   2.999   0.191  10.111 -0.1214 -0.5954 -2.0425
  344MPD2    H2 5215   3.023   4.523  10.085  0.7453  0.5419 -0.5482
  344MPD2    H3 5216   3.103   4.724  10.034 -0.2195 -1.8141  1.1385
  344MPD2     N 5217   2.787   0.216  10.263 -0.1159 -0.0900  0.1867
  344MPD2    H5 5218   2.827   0.299  10.220 -1.5349  0.3575 -0.2869
  344MPD2    N1 5219   2.826   4.468  10.275 -0.5420  0.0389  0.0650
  344MPD2    H7 5220   2.752   4.453  10.342  1.3622 -0.1677  2.0940
  345TMC3    C1 5221   2.650   0.384  10.348  0.2466  1.0885 -1.0162
  345TMC3    C2 5222   2.610   0.449  10.464 -0.4607 -0.3448  0.7634
  345TMC3    C3 5223   2.532   0.561  10.455 -0.8383 -0.5119 -0.3839
  345TMC3    C4 5224   2.597   0.424  10.236 -0.3149 -0.4212 -0.6237
  345TMC3    C5 5225   2.491   0.510  10.231  0.0540 -0.0767  0.3954
  345TMC3    C6 5226   2.462   0.584  10.339  0.3202 -0.1714  0.1168
  345TMC3     C 5227   2.688   0.243  10.355  0.1731 -0.0941 -0.1282
  345TMC3     O 5228   2.649   0.180  10.449 -0.2850 -0.7301 -0.2058
  345TMC3     H 5229   2.661   0.421  10.556  0.3159 -1.0047  0.1322
  345TMC3    H1 5230   2.615   0.376  10.141  1.2851 -1.3723  0.1660
  345TMC3    H2 5231   2.391   0.666  10.330  0.6446  0.2687  1.4319
  345TMC3    C7 5232   2.482   0.588  10.111 -0.4819 -0.1880 -0.4821
  345TMC3    C8 5233   2.566   0.679  10.532 -0.0730 -0.6253  0.3335
  345TMC3    O1 5234   2.582   0.655  10.080  0.3543 -0.1689 -0.1796
  345TMC3    O2 5235   2.495   0.777  10.521  0.0153  0.1564  0.4724
  346MPD2     C 5236   2.121   2.455  14.409 -0.2911  0.4992 -0.0698
  346MPD2    C1 5237   2.223   2.369  14.379  0.1669  0.6707 -0.7862
  346MPD2    C2 5238   2.345   2.374  14.452  0.6304 -0.3101 -0.2138
  346MPD2    C3 5239   2.362   2.473  14.549 -0.2461  0.1655  0.5896
  346MPD2    C4 5240   2.254   2.555  14.582  0.7396 -0.5392 -0.6087
  346MPD2    C5 5241   2.134   2.544  14.513  0.0481  0.2123 -0.0519
  346MPD2     H 5242   2.425   2.304  14.431  0.2961 -0.8315  0.2390
  346MPD2    H1 5243   2.259   2.629  14.661  1.4007 -0.0019 -1.1530
  346MPD2    H2 5244   2.020   2.461  14.371 -0.0626 -0.8411 -0.8795
  346MPD2    H3 5245   2.055   2.613  14.540  0.5930  0.3900  1.0881
  346MPD2     N 5246   2.471   2.463  14.629  0.2235 -0.4387 -0.2507
  346MPD2    H5 5247   2.545   2.397  14.608  0.6136 -0.5711  1.5296
  346MPD2    N1 5248   2.220   2.279  14.274  0.6916  0.3474 -0.0752
  346MPD2    H7 5249   2.307   2.228  14.262  0.0846 -0.2761 -1.8181
  347TMC3    C1 5250   2.603   2.465  14.815  0.3561 -0.2420 -0.4514
  347TMC3    C2 5251   2.706   2.423  14.735  0.6161  1.2280 -0.5570
  347TMC3    C3 5252   2.794   2.332  14.789  0.0930  0.0657 -0.0253
  347TMC3    C4 5253   2.590   2.422  14.943 -0.4918 -0.0300 -0.1932
  347TMC3    C5 5254   2.679   2.329  14.995 -0.3595  0.8999 -0.3637
  347TMC3    C6 5255   2.775   2.271  14.915  0.4612  0.4205 -0.4269
  347TMC3     C 5256   2.477   2.507  14.757 -0.1320 -0.1842  0.1173
  347TMC3     O 5257   2.393   2.558  14.830  0.2546 -0.1246  0.3982
  347TMC3     H 5258   2.724   2.481  14.646 -4.1193  1.4732 -1.3330
  347TMC3    H1 5259   2.510   2.460  15.006 -1.6067  1.2936 -2.4162
  347TMC3    H2 5260   2.852   2.212  14.962 -0.6725 -1.2420 -0.6503
  347TMC3    C7 5261   2.652   2.269  15.119 -0.1417  0.0750  0.2929
  347TMC3    C8 5262   2.893   2.261  14.705  0.8743 -0.0619  0.4522
  347TMC3    O1 5263   2.534   2.282  15.154 -0.0358 -0.2541  0.0397
  347TMC3    O2 5264   2.928   2.152  14.745 -0.3230 -0.1358  0.0443
  348MPD2     C 5265   1.945   1.457  11.219  0.0012 -0.2469  0.4557
  348MPD2    C1 5266   1.841   1.385  11.168  0.9687 -0.1333 -0.3761
  348MPD2    C2 5267   1.749   1.443  11.088  0.4391  0.4956 -0.2780
  348MPD2    C3 5268   1.752   1.582  11.068  0.4025 -0.4389  0.0376
  348MPD2    C4 5269   1.841   1.655  11.138  0.1347  0.2003 -0.0397
  348MPD2    C5 5270   1.945   1.593  11.211 -0.4416  0.1358 -0.2298
  348MPD2     H 5271   1.678   1.381  11.036 -0.5532  1.8754 -0.5846
  348MPD2    H1 5272   1.865   1.759  11.119 -1.9058  0.3922 -1.5665
  348MPD2    H2 5273   2.033   1.410  11.262  0.6378  1.8778  1.4670
  348MPD2    H3 5274   2.031   1.657  11.232  0.6352 -1.8106  1.2722
  348MPD2     N 5275   1.643   1.640  10.998 -0.3236 -0.6937  0.0776
  348MPD2    H5 5276   1.574   1.572  10.968 -0.6274  0.9549 -2.9654
  348MPD2    N1 5277   1.829   1.249  11.197 -0.1475 -0.3060  0.3957
  348MPD2    H7 5278   1.756   1.195  11.152 -0.4155 -0.2230  0.7367
  349TMC3    C1 5279   1.829   1.062  11.324 -0.4403  0.6328  0.3996
  349TMC3    C2 5280   1.879   1.007  11.445  0.5255  0.5582 -0.2134
  349TMC3    C3 5281   1.789   0.957  11.533 -0.2108 -0.1833 -0.1394
  349TMC3    C4 5282   1.697   1.058  11.294  0.2450  0.5021 -0.2697
  349TMC3    C5 5283   1.611   1.009  11.395 -0.3187 -0.3414  0.4357
  349TMC3    C6 5284   1.654   0.959  11.511  0.0980 -0.0365 -0.4385
  349TMC3     C 5285   1.908   1.182  11.290 -0.3339 -0.4655  0.5909
  349TMC3     O 5286   2.005   1.220  11.353 -0.3499  0.0205  0.0902
  349TMC3     H 5287   1.981   1.015  11.478 -0.7508  2.2827  3.3535
  349TMC3    H1 5288   1.658   1.096  11.200  0.0056  1.1494  0.0910
  349TMC3    H2 5289   1.582   0.924  11.583  0.3520  0.2456 -0.0511
  349TMC3    C7 5290   1.489   1.080  11.395 -0.3596  0.2172 -0.6503
  349TMC3    C8 5291   1.820   0.933  11.672  0.9514 -0.3395  0.4948
  349TMC3    O1 5292   1.388   1.032  11.450 -0.1362  0.0559 -0.2783
  349TMC3    O2 5293   1.722   0.922  11.743 -0.2043 -0.2191  0.5856
  350MPD2     C 5294   0.425   4.612  10.615  0.7822  0.0296  0.1649
  350MPD2    C1 5295   0.318   4.545  10.668  0.0113  0.5087  0.1377
  350MPD2    C2 5296   0.269   4.583  10.791 -0.4787  0.6152  0.6057
  350MPD2    C3 5297   0.317   4.699  10.851 -0.4291  0.1427 -0.1200
  350MPD2    C4 5298   0.421   0.029  10.802  0.1391  0.0908  0.0212
  350MPD2    C5 5299   0.472   4.722  10.682  0.1180 -0.0172  0.7294
  350MPD2     H 5300   0.183   4.539  10.840 -2.2012  2.2469 -0.9796
  350MPD2    H1 5301   0.461   0.116  10.854 -0.3957 -0.5864  1.5502
  350MPD2    H2 5302   0.470   4.587  10.519  1.4668 -0.4140  0.6005
  350MPD2    H3 5303   0.549   0.040  10.635  1.5706 -1.9366  0.7141
  350MPD2     N 5304   0.266   4.727  10.978 -0.1686  0.8455 -0.1794
  350MPD2    H5 5305   0.205   4.660  11.023  2.1873 -0.2071  1.4497
  350MPD2    N1 5306   0.262   4.447  10.587 -0.4869 -0.0184 -0.2887
  350MPD2    H7 5307   0.305   4.431  10.496 -0.9943 -0.2651 -0.4872
  351TMC3    C1 5308   0.092   4.316  10.501  0.4134 -1.0661  0.5863
  351TMC3    C2 5309   0.183   4.265  10.414  0.4700 -0.2631 -0.6179
  351TMC3    C3 5310   0.132   4.164  10.331  0.1290 -0.0508  0.1601
  351TMC3    C4 5311   4.699   4.279  10.513 -0.8726 -0.0340 -0.9800
  351TMC3    C5 5312   4.658   4.182  10.425  0.0821 -0.5043  0.1295
  351TMC3    C6 5313   4.741   4.128  10.338  0.3343  0.0980 -0.5578
  351TMC3     C 5314   0.143   4.383  10.616 -0.3452  0.5643  0.2799
  351TMC3     O 5315   0.059   4.393  10.708  0.2444 -0.1743  0.0926
  351TMC3     H 5316   0.281   4.310  10.404  1.1801 -1.8137 -0.5711
  351TMC3    H1 5317   4.636   4.315  10.594 -0.5703 -2.2433  0.2185
  351TMC3    H2 5318   4.711   4.052  10.267 -2.4021 -0.2857  0.9914
  351TMC3    C7 5319   4.519   4.187  10.402  0.1166  0.1168 -0.2098
  351TMC3    C8 5320   0.216   4.099  10.228 -0.9048  0.6883  0.4104
  351TMC3    O1 5321   4.455   4.276  10.449 -0.0911 -0.1261  0.0688
  351TMC3    O2 5322   0.157   4.069  10.120 -0.2988  0.2551 -0.4291
  352MPD2     C 5323   3.176   2.134   1.015 -0.2866 -0.3743 -0.4486
  352MPD2    C1 5324   3.107   2.022   1.061  0.4794 -0.3147 -0.0528
  352MPD2    C2 5325   3.178   1.917   1.114  0.8076 -0.1096 -0.0693
  352MPD2    C3 5326   3.317   1.914   1.114 -0.1130 -0.1975  0.0199
  352MPD2    C4 5327   3.384   2.025   1.056  0.0478 -0.2113 -0.1257
  352MPD2    C5 5328   3.308   2.137   1.014 -0.3426  0.1436  0.1910
  352MPD2     H 5329   3.132   1.830   1.159 -1.0269  0.5505 -0.6518
  352MPD2    H1 5330   3.492   2.040   1.053  0.0470  0.1102  1.5784
  352MPD2    H2 5331   3.128   2.223   0.974  0.8716  0.8109  0.7886
  352MPD2    H3 5332   3.356   2.230   0.988  0.1002 -0.2388 -0.3522
  352MPD2     N 5333   3.394   1.803   1.145 -0.2727 -0.3968  0.9668
  352MPD2    H5 5334   3.487   1.786   1.106 -0.7824 -0.3099 -0.3023
  352MPD2    N1 5335   2.963   2.019   1.045 -0.1782 -0.3181  0.0489
  352MPD2    H7 5336   2.913   2.086   0.987 -0.8136 -1.6678 -0.9564
  353TMC3    C1 5337   3.423   1.582   1.218  0.0182  0.0612  0.3674
  353TMC3    C2 5338   3.542   1.585   1.282 -0.2622  0.2455  0.3227
  353TMC3    C3 5339   3.587   1.471   1.338  0.3159  0.1707  0.3678
  353TMC3    C4 5340   3.342   1.477   1.221 -0.0041  0.3064 -0.3536
  353TMC3    C5 5341   3.395   1.362   1.279  0.3513  0.2217  0.5982
  353TMC3    C6 5342   3.520   1.352   1.334  1.1277 -0.5457  0.0022
  353TMC3     C 5343   3.346   1.701   1.227 -0.1902 -0.0926  0.7124
  353TMC3     O 5344   3.230   1.669   1.258 -0.6354 -0.1475  0.1762
  353TMC3     H 5345   3.591   1.682   1.284  0.6420 -0.2160  0.4130
  353TMC3    H1 5346   3.255   1.475   1.157  0.4228  0.3490 -0.9381
  353TMC3    H2 5347   3.547   1.254   1.373 -2.1783 -1.7934 -0.8379
  353TMC3    C7 5348   3.324   1.241   1.274 -0.0087  0.2566  0.4290
  353TMC3    C8 5349   3.729   1.473   1.369  0.1204 -0.2427 -0.4060
  353TMC3    O1 5350   3.381   1.132   1.286 -0.5519 -0.0476  0.2038
  353TMC3    O2 5351   3.793   1.581   1.381 -0.3867  0.5160  0.4477
  354TMC3    C1 5352   0.506   2.388  13.542 -0.1689 -0.1586  0.1711
  354TMC3    C2 5353   0.450   2.471  13.444 -0.4818 -0.0344  0.2098
  354TMC3    C3 5354   0.479   2.428  13.315 -0.3451  0.1948 -0.0491
  354TMC3    C4 5355   0.597   2.291  13.518  0.0338 -0.8227  0.3110
  354TMC3    C5 5356   0.634   2.274  13.387  0.3522 -0.5415  0.3997
  354TMC3    C6 5357   0.570   2.336  13.280  0.2873 -0.4402  1.1280
  354TMC3     C 5358   0.452   2.402  13.679 -0.5824 -0.2292  0.8439
  354TMC3     O 5359   0.450   2.299  13.743 -0.0020 -0.4905 -0.7185
  354TMC3     H 5360   0.365   2.530  13.476  1.1936  1.4116  2.0299
  354TMC3    H1 5361   0.666   2.264  13.597  0.7356  0.5406  0.1634
  354TMC3    H2 5362   0.603   2.317  13.178 -0.1158 -1.9815  1.2833
  354TMC3    C7 5363   0.768   2.227  13.351  0.0173 -0.2245 -0.2059
  354TMC3    C8 5364   0.432   2.512  13.205 -0.0200 -0.4472  0.5930
  354TMC3    O1 5365   0.816   2.156  13.443  0.3290  0.1187 -0.0978
  354TMC3    O2 5366   0.440   2.476  13.089  0.4098  0.2903 -0.2114
  355MPD2     C 5367   0.129   3.769  11.581  0.0236  0.4495  0.1210
  355MPD2    C1 5368   0.209   3.765  11.466 -0.4612 -0.5967 -0.5312
  355MPD2    C2 5369   0.344   3.741  11.480  0.3722  0.1595  0.4208
  355MPD2    C3 5370   0.410   3.734  11.603 -0.1647 -0.0110  0.5008
  355MPD2    C4 5371   0.334   3.725  11.717 -0.0517  0.2499 -0.1375
  355MPD2    C5 5372   0.193   3.742  11.702  0.0632 -0.3799 -0.6640
  355MPD2     H 5373   0.400   3.741  11.388 -0.8232  0.5342 -0.2958
  355MPD2    H1 5374   0.372   3.700  11.815 -0.6368  0.6470  0.1879
  355MPD2    H2 5375   0.026   3.800  11.573 -0.0317  0.6114  1.3421
  355MPD2    H3 5376   0.137   3.743  11.795  0.9842 -1.2341 -0.0998
  355MPD2     N 5377   0.546   3.735  11.619  0.0929  0.2451 -0.1951
  355MPD2    H5 5378   0.566   3.754  11.716  0.4183 -0.7435 -0.0755
  355MPD2    N1 5379   0.149   3.803  11.346  0.0100  0.1229  0.0009
  355MPD2    H7 5380   0.049   3.791  11.331 -0.0156 -0.6868  0.8076
  356TMC3    C1 5381   0.756   3.814  11.556  0.0306  0.5852  0.2271
  356TMC3    C2 5382   0.800   3.898  11.462 -0.2442 -0.5550 -0.8999
  356TMC3    C3 5383   0.884   3.999  11.499 -0.4113 -0.3449 -0.1048
  356TMC3    C4 5384   0.778   3.831  11.688 -0.1682 -0.4803 -0.5069
  356TMC3    C5 5385   0.850   3.939  11.730  0.0708 -0.7681  0.5060
  356TMC3    C6 5386   0.909   4.021  11.634 -0.1171 -0.1139  0.5665
  356TMC3     C 5387   0.644   3.739  11.521  0.0656 -0.0152 -0.5586
  356TMC3     O 5388   0.632   3.720  11.400 -0.2530  0.4738 -0.2855
  356TMC3     H 5389   0.763   3.905  11.360 -1.8923  0.1634 -0.2532
  356TMC3    H1 5390   0.740   3.759  11.759  2.0128 -2.1376 -1.0482
  356TMC3    H2 5391   0.931   4.122  11.665 -1.2035  0.2084  0.2955
  356TMC3    C7 5392   0.859   3.979  11.870 -0.5440  0.4928  0.1462
  356TMC3    C8 5393   0.929   4.093  11.400  0.0416 -0.3962 -0.0097
  356TMC3    O1 5394   0.765   3.930  11.934  0.0381  0.3880  0.2347
  356TMC3    O2 5395   0.894   4.072  11.285 -0.0409 -0.2642  0.0721
  357MPD2     C 5396   4.378   4.024   1.463 -0.9158 -0.2837 -0.3482
  357MPD2    C1 5397   4.424   3.939   1.368  0.1483  0.1470 -0.6768
  357MPD2    C2 5398   4.331   3.882   1.285  0.0606  0.3575  0.0040
  357MPD2    C3 5399   4.193   3.902   1.294 -0.7165  0.0459  1.1951
  357MPD2    C4 5400   4.153   4.008   1.368 -0.6476 -0.3044  0.0509
  357MPD2    C5 5401   4.247   4.070   1.453 -0.5292 -0.3582  0.2367
  357MPD2     H 5402   4.371   3.814   1.210 -0.5148 -0.8009  0.7516
  357MPD2    H1 5403   4.048   4.036   1.372 -0.8857 -1.4544  1.8318
  357MPD2    H2 5404   4.446   4.080   1.526 -2.8608  1.2855  0.3697
  357MPD2    H3 5405   4.207   4.148   1.517 -0.8496  0.8872 -1.4612
  357MPD2     N 5406   4.093   3.817   1.228 -0.0055  1.0488 -0.1379
  357MPD2    H5 5407   4.004   3.862   1.209 -0.4421  0.1565 -0.2027
  357MPD2    N1 5408   4.564   3.917   1.375 -0.7715  0.6496  0.0263
  357MPD2    H7 5409   4.618   3.965   1.446  0.1702  0.7394 -0.7464
  358TMC3    C1 5410   0.030   3.851   1.284 -0.4360  0.0163  0.1374
  358TMC3    C2 5411   0.098   3.826   1.165 -0.4071  0.1140  0.4046
  358TMC3    C3 5412   0.223   3.864   1.152 -0.1810  0.3966  0.4048
  358TMC3    C4 5413   0.087   3.909   1.388 -0.1771 -0.1499  0.6437
  358TMC3    C5 5414   0.217   3.922   1.382 -0.3640 -0.0218 -0.0335
  358TMC3    C6 5415   0.286   3.906   1.265 -0.1195 -0.6772 -0.0495
  358TMC3     C 5416   4.630   3.839   1.278 -0.2178  0.7343 -0.2204
  358TMC3     O 5417   4.581   3.809   1.174 -0.7091  0.6713 -0.1789
  358TMC3     H 5418   0.049   3.781   1.079 -1.1959  0.3108  0.7487
  358TMC3    H1 5419   0.032   3.905   1.482  0.7259  0.7412  1.2070
  358TMC3    H2 5420   0.390   3.936   1.257 -0.3372  0.1331  0.1370
  358TMC3    C7 5421   0.295   3.982   1.481  0.5631 -0.5598  0.0642
  358TMC3    C8 5422   0.296   3.843   1.027  0.3447 -0.5338  0.0038
  358TMC3    O1 5423   0.415   3.974   1.476  0.8779 -0.1469 -0.0691
  358TMC3    O2 5424   0.409   3.796   1.044  0.0774  0.0981 -0.2593
  359MPD2     C 5425   0.907   1.373  11.832 -0.1537 -0.3070  0.6974
  359MPD2    C1 5426   0.863   1.499  11.783  0.2663 -0.5479 -0.1199
  359MPD2    C2 5427   0.735   1.539  11.832 -0.0251 -0.0776 -0.3908
  359MPD2    C3 5428   0.664   1.458  11.918 -0.5198 -0.4865  0.0988
  359MPD2    C4 5429   0.709   1.331  11.950 -0.3312  0.2791  0.7090
  359MPD2    C5 5430   0.830   1.296  11.914 -0.3282 -0.3492 -0.3153
  359MPD2     H 5431   0.688   1.626  11.787  0.0007  0.5727  0.8648
  359MPD2    H1 5432   0.656   1.273  12.025  0.3279 -0.0361  0.9302
  359MPD2    H2 5433   1.009   1.342  11.813 -0.1341  0.7269 -0.9112
  359MPD2    H3 5434   0.870   1.199  11.941 -1.8971 -0.9940 -0.2589
  359MPD2     N 5435   0.542   1.497  11.976 -0.6305  0.0573 -0.3856
  359MPD2    H5 5436   0.505   1.432  12.045 -0.4944 -1.4861 -1.7766
  359MPD2    N1 5437   0.945   1.578  11.697 -0.1203 -0.1632 -0.2701
  359MPD2    H7 5438   1.034   1.530  11.692  0.7669  1.4507  0.0744
  360TMC3    C1 5439   1.024   1.754  11.563 -0.7439 -0.0815  0.2268
  360TMC3    C2 5440   1.150   1.746  11.629 -0.0736 -0.9222  0.6775
  360TMC3    C3 5441   1.258   1.801  11.569 -0.2003 -0.2441 -0.2000
  360TMC3    C4 5442   1.002   1.818  11.450 -0.8510 -0.3693  0.0792
  360TMC3    C5 5443   1.119   1.868  11.401 -0.9827 -0.1028  0.4936
  360TMC3    C6 5444   1.242   1.869  11.452  0.6664 -0.0309 -0.3976
  360TMC3     C 5445   0.909   1.693  11.631 -0.0243  0.1115  0.4196
  360TMC3     O 5446   0.795   1.744  11.611 -0.3298 -0.6473  0.1316
  360TMC3     H 5447   1.153   1.723  11.735 -3.7723  0.2715  1.0384
  360TMC3    H1 5448   0.904   1.823  11.403 -0.4351 -2.8201 -1.0468
  360TMC3    H2 5449   1.321   1.917  11.395  1.2552 -0.2910  0.1976
  360TMC3    C7 5450   1.111   1.931  11.270 -0.2053 -0.1204  0.3604
  360TMC3    C8 5451   1.389   1.759  11.612 -0.6475  0.1708  0.6025
  360TMC3    O1 5452   1.193   2.013  11.235 -0.4469 -0.1569 -0.0142
  360TMC3    O2 5453   1.381   1.673  11.701 -0.3201 -0.1988  0.7916
  361MPD2     C 5454   2.371   1.362  16.548 -0.6449 -0.0153  0.2358
  361MPD2    C1 5455   2.372   1.407  16.682 -0.5024 -0.0423 -0.3677
  361MPD2    C2 5456   2.457   1.342  16.771  0.0447  0.6190 -0.0415
  361MPD2    C3 5457   2.535   1.237  16.721 -0.0925  0.5414  0.0221
  361MPD2    C4 5458   2.533   1.198  16.589 -0.4617 -0.1002  0.0646
  361MPD2    C5 5459   2.456   1.263  16.498  0.4829  0.4628 -0.5774
  361MPD2     H 5460   2.473   1.388  16.867 -0.6427 -0.6134  0.6724
  361MPD2    H1 5461   2.596   1.119  16.552 -0.0793 -0.2382  0.9946
  361MPD2    H2 5462   2.308   1.402  16.470  0.4111  0.1389 -0.5365
  361MPD2    H3 5463   2.451   1.225  16.397  0.2674  1.6387 -1.0062
  361MPD2     N 5464   2.615   1.157  16.799  0.1195 -0.2023  0.3117
  361MPD2    H5 5465   2.644   1.075  16.748 -0.2071 -0.4013  0.4443
  361MPD2    N1 5466   2.293   1.513  16.734 -0.0171 -0.0393  0.0682
  361MPD2    H7 5467   2.316   1.547  16.826  0.4541 -2.9591  1.0298
  362TMC3    C1 5468   2.100   1.644  16.752  0.0299 -0.5973  0.5400
  362TMC3    C2 5469   2.108   1.664  16.894  0.2030  0.0446  0.9197
  362TMC3    C3 5470   2.023   1.761  16.944 -0.2691  0.0824 -0.4209
  362TMC3    C4 5471   2.016   1.707  16.672 -0.5588 -0.1848 -0.0301
  362TMC3    C5 5472   1.934   1.806  16.729  0.0127 -0.4543  0.0956
  362TMC3    C6 5473   1.942   1.833  16.867  0.5651  0.5768 -0.2194
  362TMC3     C 5474   2.177   1.545  16.672 -0.2047 -1.0595 -0.0689
  362TMC3     O 5475   2.120   1.498  16.571 -0.4040 -0.4046 -0.3801
  362TMC3     H 5476   2.177   1.613  16.959  0.5428 -0.8423 -0.1437
  362TMC3    H1 5477   2.026   1.715  16.564  1.0127  0.4674  0.1602
  362TMC3    H2 5478   1.871   1.905  16.905  0.4137  0.5086 -0.3742
  362TMC3    C7 5479   1.850   1.893  16.648 -0.8421 -0.0620 -0.0401
  362TMC3    C8 5480   2.026   1.786  17.086 -0.6685 -0.7083 -0.4664
  362TMC3    O1 5481   1.830   2.003  16.700 -0.5437  0.0422  0.3675
  362TMC3    O2 5482   2.104   1.717  17.154  0.0676  0.3455  0.0951
  363TMC3    C1 5483   0.926   3.790   9.577  0.1958  0.0605  0.4577
  363TMC3    C2 5484   1.063   3.765   9.562  0.3618  0.4405  0.3189
  363TMC3    C3 5485   1.149   3.856   9.605 -0.1191  0.9703  0.1652
  363TMC3    C4 5486   0.883   3.905   9.637  0.8223  0.1996 -0.5776
  363TMC3    C5 5487   0.975   3.995   9.686  0.7526  0.0325  0.9123
  363TMC3    C6 5488   1.112   3.972   9.673 -0.5081 -0.7603 -0.4074
  363TMC3     C 5489   0.847   3.710   9.489  0.7696  0.3694 -0.5088
  363TMC3     O 5490   0.895   3.600   9.455 -0.2143  0.1625  0.1727
  363TMC3     H 5491   1.107   3.678   9.515 -0.6010 -0.3003  0.7821
  363TMC3    H1 5492   0.778   3.922   9.654  1.3007 -0.8503  3.3637
  363TMC3    H2 5493   1.179   4.045   9.716 -1.9182 -0.5092  1.3744
  363TMC3    C7 5494   0.934   4.110   9.766 -0.7361 -0.3693  0.2786
  363TMC3    C8 5495   1.278   3.869   9.548 -0.8410 -0.4151 -0.1328
  363TMC3    O1 5496   1.013   4.147   9.851  0.4060  0.1254 -0.3484
  363TMC3    O2 5497   1.325   3.981   9.545  0.2571  0.0356 -0.0544
  364MPD2     C 5498   4.350   3.150  10.701 -0.1320 -0.4280  0.6081
  364MPD2    C1 5499   4.441   3.203  10.616  1.0268  0.3572  0.3810
  364MPD2    C2 5500   4.502   3.112  10.531 -0.3027 -0.0960 -0.2047
  364MPD2    C3 5501   4.486   2.974  10.535 -0.0109 -0.5457 -0.0703
  364MPD2    C4 5502   4.390   2.928  10.623 -0.0392 -0.1113  0.4370
  364MPD2    C5 5503   4.318   3.017  10.704 -0.1008  0.8547 -0.2459
  364MPD2     H 5504   4.569   3.151  10.455 -0.0632  0.4445  0.2857
  364MPD2    H1 5505   4.370   2.823  10.640  0.1796 -0.4071 -1.1595
  364MPD2    H2 5506   4.291   3.211  10.768 -1.6951 -0.1198 -1.0494
  364MPD2    H3 5507   4.242   2.975  10.768  2.0481 -2.0912  0.3586
  364MPD2     N 5508   4.564   2.878  10.469 -0.3842 -0.0504  0.1286
  364MPD2    H5 5509   4.537   2.781  10.476  3.9992 -1.1810  1.1938
  364MPD2    N1 5510   4.467   3.346  10.616  0.1114 -0.2375 -0.7965
  364MPD2    H7 5511   4.418   3.393  10.692  0.2086  1.4741 -1.7940
  365TMC3    C1 5512   4.575   3.549  10.555 -0.6524  0.1943 -0.1945
  365TMC3    C2 5513   4.661   3.607  10.463 -0.9896 -0.4511  0.0678
  365TMC3    C3 5514   4.731   3.719  10.493 -0.1263 -0.2521 -0.1745
  365TMC3    C4 5515   4.570   3.600  10.685  0.0446 -0.5049  0.0207
  365TMC3    C5 5516   4.631   3.725  10.700 -0.1452 -0.5882 -0.0557
  365TMC3    C6 5517   4.692   3.796  10.602  0.2983 -0.0209  1.3837
  365TMC3     C 5518   4.545   3.411  10.522 -0.3286  0.1228  0.3305
  365TMC3     O 5519   4.590   3.375  10.416 -0.0453 -0.5803  0.6995
  365TMC3     H 5520   4.662   3.570  10.361 -0.8560 -2.5898  0.8504
  365TMC3    H1 5521   4.512   3.558  10.767  0.2751  1.2985  1.1049
  365TMC3    H2 5522   4.739   3.893  10.611  1.3513 -0.4886  0.9298
  365TMC3    C7 5523   4.617   3.794  10.824 -0.1521  0.2194 -0.0411
  365TMC3    C8 5524   0.118   3.745  10.432 -0.0828 -0.5233  0.4760
  365TMC3    O1 5525   4.659   3.912  10.827  0.2172  0.5846 -0.4664
  365TMC3    O2 5526   0.178   3.851  10.452 -0.0278 -0.4625  0.2391
  366MPD2     C 5527   2.575   4.336  15.742  0.0403 -0.9692  0.2668
  366MPD2    C1 5528   2.659   4.366  15.636  0.7880 -0.3022  0.5677
  366MPD2    C2 5529   2.715   4.266  15.561  0.3742 -0.0885  0.2625
  366MPD2    C3 5530   2.691   4.133  15.601 -0.2089 -0.0822  0.1041
  366MPD2    C4 5531   2.622   4.104  15.712 -0.7443  0.0287  0.2437
  366MPD2    C5 5532   2.558   4.208  15.780  0.3255 -0.0623  0.0538
  366MPD2     H 5533   2.778   4.288  15.475  1.1836  0.6646  1.0503
  366MPD2    H1 5534   2.605   4.004  15.750 -1.2869  1.0391  2.6739
  366MPD2    H2 5535   2.536   4.419  15.801 -0.4595 -0.0493 -1.3677
  366MPD2    H3 5536   2.496   4.183  15.865 -0.2692  3.3747  0.6296
  366MPD2     N 5537   2.757   4.039  15.522  0.4898  0.7035  0.0389
  366MPD2    H5 5538   2.811   4.079  15.445 -2.2649  2.0349 -1.2149
  366MPD2    N1 5539   2.676   4.500  15.591 -0.3178  0.3140 -0.3563
  366MPD2    H7 5540   2.726   4.503  15.503 -2.0954 -3.4398 -1.4647
  367TMC3    C1 5541   2.709   4.730  15.596 -0.9262  0.2875  0.1225
  367TMC3    C2 5542   2.788   0.070  15.674 -0.2999 -0.6693 -0.2525
  367TMC3    C3 5543   2.856   0.171  15.610 -0.2847  0.2944 -0.2550
  367TMC3    C4 5544   2.695   4.734  15.464  0.2530 -0.3108  0.2080
  367TMC3    C5 5545   2.767   0.094  15.402  0.7671 -0.5914 -0.1070
  367TMC3    C6 5546   2.849   0.180  15.476 -0.0726 -0.3173 -0.0648
  367TMC3     C 5547   2.665   4.615  15.667 -0.0438  0.6879  0.1833
  367TMC3     O 5548   2.628   4.624  15.782  0.1136 -0.1299 -0.8341
  367TMC3     H 5549   2.811   0.051  15.778  1.2435 -4.0595 -1.1901
  367TMC3    H1 5550   2.622   4.670  15.414 -0.2253 -0.5361  1.2048
  367TMC3    H2 5551   2.915   0.254  15.433  1.0087 -1.2397 -0.0086
  367TMC3    C7 5552   2.734   0.137  15.270 -0.1124 -0.0012  0.2624
  367TMC3    C8 5553   2.976   0.213  15.681  1.0045  0.1471  0.3148
  367TMC3    O1 5554   2.783   0.244  15.238  0.2208 -0.0436  0.1556
  367TMC3    O2 5555   2.994   0.160  15.791 -0.2910  0.0581 -0.2728
  368MPD2     C 5556   3.959   1.589  13.155 -0.4132 -0.0606 -0.5208
  368MPD2    C1 5557   4.013   1.704  13.108 -0.0900  0.0636  0.5366
  368MPD2    C2 5558   4.146   1.712  13.089  0.3909  0.3546 -0.4420
  368MPD2    C3 5559   4.229   1.607  13.135  1.1912 -0.8686 -0.7110
  368MPD2    C4 5560   4.168   1.495  13.193  0.0356 -0.3163  0.0018
  368MPD2    C5 5561   4.036   1.483  13.203  0.1351 -0.5034 -0.5292
  368MPD2     H 5562   4.188   1.801  13.043 -1.2276  1.8244  0.9245
  368MPD2    H1 5563   4.228   1.408  13.218  0.4966 -0.3896 -1.3175
  368MPD2    H2 5564   3.851   1.582  13.152 -0.5068  0.5678  1.8980
  368MPD2    H3 5565   3.988   1.392  13.236  0.6742 -1.3778 -2.1434
  368MPD2     N 5566   4.363   1.596  13.119 -0.0218 -0.1191  0.2645
  368MPD2    H5 5567   4.397   1.504  13.145  2.4813  0.8686  0.4956
  368MPD2    N1 5568   3.920   1.810  13.082 -0.2047 -0.2168 -0.7943
  368MPD2    H7 5569   3.821   1.787  13.092 -0.8062  1.9029 -1.7014
  369TMC3    C1 5570   3.827   1.996  12.972  0.2137 -0.4270  0.4542
  369TMC3    C2 5571   3.869   2.096  12.884 -0.0163  0.4861  0.3928
  369TMC3    C3 5572   3.785   2.118  12.777 -0.3382 -0.2049  0.6673
  369TMC3    C4 5573   3.697   1.931  12.957  0.1609 -0.5034 -0.6837
  369TMC3    C5 5574   3.618   1.979  12.858  0.2165  0.2858 -1.0645
  369TMC3    C6 5575   3.660   2.069  12.765  0.5363  0.3400 -0.2704
  369TMC3     C 5576   3.946   1.934  13.033  0.4947 -0.8680  0.9748
  369TMC3     O 5577   4.054   1.989  13.028 -0.0794 -0.1659  0.0470
  369TMC3     H 5578   3.964   2.144  12.902  0.4583  0.3311 -1.7712
  369TMC3    H1 5579   3.663   1.845  13.013  1.0276  0.5019  1.4096
  369TMC3    H2 5580   3.588   2.098  12.689  2.4253  1.7241 -1.5342
  369TMC3    C7 5581   3.483   1.920  12.860  0.4206  0.2255  0.1545
  369TMC3    C8 5582   3.845   2.135  12.653 -0.0875  0.1235  0.1342
  369TMC3    O1 5583   3.478   1.802  12.879  0.2013  0.8917 -0.3352
  369TMC3    O2 5584   3.785   2.198  12.568 -0.0507  0.1659 -0.4127
  370TMC3    C1 5585   3.785   2.218  16.412  0.3892  0.1192 -0.1128
  370TMC3    C2 5586   3.725   2.155  16.516 -0.2370  0.7341  0.0404
  370TMC3    C3 5587   3.673   2.021  16.502  0.3834 -0.6298  0.6048
  370TMC3    C4 5588   3.797   2.143  16.289 -0.0657  0.2206  0.1516
  370TMC3    C5 5589   3.752   2.012  16.290  0.2661  0.0625 -0.1241
  370TMC3    C6 5590   3.708   1.948  16.397 -0.0098 -0.2757 -0.6732
  370TMC3     C 5591   3.876   2.328  16.447  0.5525  0.1392 -0.5968
  370TMC3     O 5592   3.907   2.345  16.566 -0.0059 -0.1559 -0.1182
  370TMC3     H 5593   3.727   2.207  16.611 -2.0335  2.4012 -0.8407
  370TMC3    H1 5594   3.847   2.184  16.203  0.0498 -0.4933 -0.1136
  370TMC3    H2 5595   3.680   1.844  16.391  0.7996 -0.6001  1.2283
  370TMC3    C7 5596   3.791   1.933  16.181 -0.2107  0.3553  0.3007
  370TMC3    C8 5597   3.606   1.945  16.609 -0.7018  0.5671  0.2715
  370TMC3    O1 5598   3.741   1.954  16.070 -0.1827 -0.5595  0.0825
  370TMC3    O2 5599   3.577   1.824  16.593  0.0513 -0.1142 -0.1252
  371TMC3    C1 5600   0.215   0.368  15.695  0.6810  0.4268 -0.7777
  371TMC3    C2 5601   0.183   0.361  15.834 -0.1198  0.5553 -0.5197
  371TMC3    C3 5602   0.156   0.484  15.895  0.1589 -0.1423 -0.6749
  371TMC3    C4 5603   0.245   0.482  15.628 -0.2230 -1.1705 -0.2656
  371TMC3    C5 5604   0.214   0.597  15.700 -0.0591  0.0564  0.2778
  371TMC3    C6 5605   0.179   0.598  15.828 -0.5441  0.1363 -0.5809
  371TMC3     C 5606   0.162   0.270  15.605  0.1103 -0.2733  0.1314
  371TMC3     O 5607   0.144   0.306  15.490 -0.3808  0.7081 -0.0902
  371TMC3     H 5608   0.143   0.277  15.889 -0.6587  1.5122  0.5404
  371TMC3    H1 5609   0.285   0.476  15.528  0.9533  0.8807  0.0831
  371TMC3    H2 5610   0.180   0.694  15.878 -2.9615  0.1465 -0.5650
  371TMC3    C7 5611   0.188   0.721  15.625 -0.1915 -0.1337 -0.0997
  371TMC3    C8 5612   0.089   0.480  16.031 -0.2540 -0.1788  0.0361
  371TMC3    O1 5613   0.207   0.831  15.683 -0.0389  0.3643 -0.2269
  371TMC3    O2 5614   0.107   0.379  16.100 -0.1278  0.3365 -0.0041
  372MPD2     C 5615   3.853   1.476  13.703 -0.6410  0.3712 -0.9565
  372MPD2    C1 5616   3.975   1.429  13.656  0.2167  0.0578  0.8216
  372MPD2    C2 5617   3.996   1.294  13.650 -0.3778 -0.4215 -0.2181
  372MPD2    C3 5618   3.913   1.202  13.709 -0.5289  1.3435 -0.2592
  372MPD2    C4 5619   3.801   1.254  13.769  0.4005 -0.6589  0.0818
  372MPD2    C5 5620   3.766   1.385  13.759 -0.3326  0.0348  0.3979
  372MPD2     H 5621   4.088   1.267  13.599 -0.3275  0.6294 -0.6736
  372MPD2    H1 5622   3.730   1.184  13.811 -2.3653  0.6316 -2.3711
  372MPD2    H2 5623   3.822   1.580  13.712 -2.1100 -0.0083 -1.6553
  372MPD2    H3 5624   3.670   1.416  13.799  0.0081  1.5917 -0.0209
  372MPD2     N 5625   3.937   1.066  13.712 -0.3785 -0.2025 -0.1168
  372MPD2    H5 5626   4.020   1.033  13.664 -0.6286  0.2542 -0.8682
  372MPD2    N1 5627   4.076   1.515  13.601  0.6776 -0.0328  0.0899
  372MPD2    H7 5628   4.169   1.476  13.587  0.4307 -0.6359  0.1150
  373TMC3    C1 5629   3.911   0.838  13.751  0.3707  0.0696  0.2252
  373TMC3    C2 5630   3.893   0.749  13.857  0.2738  0.3687 -0.3290
  373TMC3    C3 5631   3.977   0.640  13.876  0.7339  0.7148 -0.4202
  373TMC3    C4 5632   4.004   0.808  13.647 -0.2241  0.7196  0.1280
  373TMC3    C5 5633   4.072   0.690  13.666 -0.5206 -0.5626 -0.2993
  373TMC3    C6 5634   4.065   0.614  13.778 -0.1449  0.4116 -0.3091
  373TMC3     C 5635   3.873   0.971  13.788  0.0334 -1.3138  0.3139
  373TMC3     O 5636   3.800   0.983  13.883 -0.5598 -0.2505 -0.1579
  373TMC3     H 5637   3.824   0.776  13.936  0.9569  0.9716  0.0681
  373TMC3    H1 5638   4.037   0.883  13.576 -0.9971  0.0404 -0.9443
  373TMC3    H2 5639   4.120   0.521  13.784 -1.5787 -0.5132 -1.4846
  373TMC3    C7 5640   4.166   0.647  13.563 -0.7326 -0.7107 -0.5859
  373TMC3    C8 5641   4.034   0.624  14.008  0.2419 -0.1411  0.2060
  373TMC3    O1 5642   4.259   0.577  13.597  0.2330 -0.2380 -0.2941
  373TMC3    O2 5643   3.961   0.648  14.102 -0.3484  0.0707  0.5850
  374TMC3    C1 5644   0.451   1.030   9.150  0.0057  0.0063  0.5513
  374TMC3    C2 5645   0.496   1.157   9.176  0.6062  0.0014 -0.3514
  374TMC3    C3 5646   0.515   1.241   9.075 -1.1091 -0.1294 -0.9265
  374TMC3    C4 5647   0.431   0.999   9.021  0.1089 -0.7916 -0.1975
  374TMC3    C5 5648   0.464   1.087   8.920 -0.1679  0.3500  0.1315
  374TMC3    C6 5649   0.506   1.216   8.944  0.1953  0.0352  0.7260
  374TMC3     C 5650   0.387   0.955   9.254  0.5328 -0.1724 -0.3991
  374TMC3     O 5651   0.320   0.867   9.212 -0.5423  0.0267 -0.3149
  374TMC3     H 5652   0.504   1.184   9.281  0.6990 -1.1946 -0.0466
  374TMC3    H1 5653   0.389   0.904   8.988 -0.1091 -0.0131 -2.1178
  374TMC3    H2 5654   0.523   1.284   8.861 -0.1462  0.3286  0.8947
  374TMC3    C7 5655   0.426   1.054   8.787  0.7413 -0.1827 -0.8564
  374TMC3    C8 5656   0.577   1.371   9.101 -0.6655  0.4813 -0.4732
  374TMC3    O1 5657   0.416   1.149   8.708 -0.8788 -0.4499 -0.0136
  374TMC3    O2 5658   0.569   1.452   9.010 -0.5690  0.1046  0.1659
  375MPD2     C 5659   0.499   2.526  17.192  1.0720 -0.6759 -0.4741
  375MPD2    C1 5660   0.398   2.536  17.097  0.4916 -0.6725  0.5771
  375MPD2    C2 5661   0.401   2.440  17.005  0.2793 -0.2202  0.4972
  375MPD2    C3 5662   0.492   2.336  17.004 -0.4559 -0.2373  0.0101
  375MPD2    C4 5663   0.599   2.327  17.092  0.3967  0.2382  1.0053
  375MPD2    C5 5664   0.598   2.428  17.187  0.1338 -0.2962 -0.2477
  375MPD2     H 5665   0.315   2.445  16.939 -0.7976 -0.6481  1.8663
  375MPD2    H1 5666   0.686   2.263  17.086  1.0396  1.3577 -1.3874
  375MPD2    H2 5667   0.503   2.586  17.283  0.1898 -2.0315  0.4665
  375MPD2    H3 5668   0.695   2.426  17.236  0.7848  2.4842 -1.4211
  375MPD2     N 5669   0.480   2.228  16.915  0.7277  0.0231 -0.1483
  375MPD2    H5 5670   0.563   2.170  16.906 -0.9159 -2.4742  0.8450
  375MPD2    N1 5671   0.290   2.640  17.089 -0.3304  0.3743  0.0773
  375MPD2    H7 5672   0.218   2.625  17.019 -0.8878  2.2032  0.2448
  376TMC3    C1 5673   0.395   2.104  16.741  0.5953  0.1535 -0.5817
  376TMC3    C2 5674   0.514   2.033  16.759  0.5162 -0.7412 -0.6676
  376TMC3    C3 5675   0.587   1.994  16.652  0.2429  0.5548 -0.6013
  376TMC3    C4 5676   0.339   2.119  16.618 -0.4661  0.2312  0.2130
  376TMC3    C5 5677   0.409   2.060  16.517  0.5405  0.4185 -0.1804
  376TMC3    C6 5678   0.524   1.995  16.533 -0.3418  0.3792 -0.7382
  376TMC3     C 5679   0.363   2.198  16.844  0.6859 -0.6848  0.1398
  376TMC3     O 5680   0.250   2.237  16.846 -1.2364  0.2746 -0.1453
  376TMC3     H 5681   0.546   2.012  16.861  1.0215  0.7130 -0.5252
  376TMC3    H1 5682   0.265   2.197  16.606  1.7128  2.3829  0.8422
  376TMC3    H2 5683   0.579   1.973  16.442 -3.6798 -0.8768 -2.4920
  376TMC3    C7 5684   0.390   2.132  16.389 -0.7571 -0.4125  0.0229
  376TMC3    C8 5685   0.712   2.064  16.646 -0.2125  0.1785 -0.3243
  376TMC3    O1 5686   0.340   2.244  16.390 -0.5448  0.5736 -0.2163
  376TMC3    O2 5687   0.732   2.122  16.541  0.2134  0.3151  0.6633
  377MPD2     C 5688   2.858   2.316  12.628 -0.3721 -0.3275 -0.9547
  377MPD2    C1 5689   2.906   2.194  12.586  0.5116 -0.1039 -0.3572
  377MPD2    C2 5690   2.835   2.079  12.624 -0.4532 -0.6522  0.2094
  377MPD2    C3 5691   2.718   2.092  12.701 -0.1437  0.1101 -0.2334
  377MPD2    C4 5692   2.691   2.210  12.752 -0.0057 -0.4588 -0.1271
  377MPD2    C5 5693   2.754   2.326  12.721  0.5782 -0.0929  0.5746
  377MPD2     H 5694   2.856   1.981  12.584  2.4499  0.2225 -0.4401
  377MPD2    H1 5695   2.597   2.213  12.806  0.6587 -0.3238  1.0411
  377MPD2    H2 5696   2.914   2.404  12.600  0.4790 -0.3616  0.6263
  377MPD2    H3 5697   2.721   2.426  12.748 -3.5250 -1.4330  0.4055
  377MPD2     N 5698   2.633   1.982  12.737 -0.2162  0.1605  0.1811
  377MPD2    H5 5699   2.562   1.997  12.807  0.5955 -2.8553  1.6485
  377MPD2    N1 5700   3.023   2.190  12.520  0.2513  0.5440 -0.7423
  377MPD2    H7 5701   3.069   2.278  12.498  0.6799  0.3145 -0.7557
  378TMC3    C1 5702   3.211   2.212  12.162  0.1453 -0.5569  0.2842
  378TMC3    C2 5703   3.143   2.216  12.280  0.6774 -0.2842 -0.3385
  378TMC3    C3 5704   3.173   2.112  12.360  0.5607 -0.1984  0.0202
  378TMC3    C4 5705   3.313   2.126  12.131  0.1874 -0.4467  0.5009
  378TMC3    C5 5706   3.336   2.029  12.221  0.3624  0.0011 -0.2076
  378TMC3    C6 5707   3.266   2.016  12.332 -0.5396 -0.6151  0.0647
  378TMC3     C 5708   3.147   2.289  12.056  0.2245  0.7892 -0.1685
  378TMC3     O 5709   3.050   2.358  12.095 -0.2178 -0.6051 -0.2377
  378TMC3     H 5710   3.060   2.282  12.301  0.0985 -1.0214 -0.3027
  378TMC3    H1 5711   3.368   2.123  12.038  1.2808  0.9093  1.1033
  378TMC3    H2 5712   3.288   1.944  12.409  0.1186 -0.8288 -0.3265
  378TMC3    C7 5713   3.447   1.941  12.211 -0.1193  0.2676  0.6359
  378TMC3    C8 5714   3.082   2.084  12.462  0.7120  0.8310  0.8525
  378TMC3    O1 5715   3.483   1.881  12.311 -0.2809 -0.1513  0.0808
  378TMC3    O2 5716   3.071   1.968  12.497  0.9224  0.0731 -0.1079
  379MPD2     C 5717   4.123   0.398  16.143 -0.1260 -0.4715  0.4410
  379MPD2    C1 5718   4.051   0.312  16.223  0.6609  0.6213  0.6508
  379MPD2    C2 5719   4.120   0.225  16.311  0.0881 -0.8029 -0.3230
  379MPD2    C3 5720   4.260   0.221  16.315  0.2439 -0.1158  0.4501
  379MPD2    C4 5721   4.333   0.300  16.225  0.0752 -0.1910  0.0754
  379MPD2    C5 5722   4.261   0.388  16.146 -0.3733  0.7761  0.3400
  379MPD2     H 5723   4.064   0.166  16.383 -0.3556  1.0067  0.7994
  379MPD2    H1 5724   4.440   0.308  16.239  0.1172  0.3171 -0.5524
  379MPD2    H2 5725   4.086   0.465  16.066 -0.1945 -0.7704  0.2119
  379MPD2    H3 5726   4.324   0.456  16.090 -0.4621  0.1130 -0.5713
  379MPD2     N 5727   4.337   0.143  16.401  0.2929 -0.5774  0.1849
  379MPD2    H5 5728   4.438   0.154  16.391  0.3673 -0.2750  1.2542
  379MPD2    N1 5729   3.910   0.315  16.217  0.2001 -0.9610 -0.2046
  379MPD2    H7 5730   3.881   0.365  16.133  1.3526 -0.6815 -0.4326
  380TMC3    C1 5731   3.695   0.230  16.231  0.1374  0.3891  0.2233
  380TMC3    C2 5732   3.719   0.117  16.152 -0.3461 -0.4903  0.5311
  380TMC3    C3 5733   3.657   0.096  16.029 -0.0373 -0.3080  0.4190
  380TMC3    C4 5734   3.625   0.335  16.181  0.0691 -0.3438  0.6379
  380TMC3    C5 5735   3.574   0.321  16.060  0.6913 -1.1202  0.1723
  380TMC3    C6 5736   3.587   0.206  15.987 -0.2197  0.4908  0.3215
  380TMC3     C 5737   3.818   0.258  16.304 -1.1495  0.6677  0.8215
  380TMC3     O 5738   3.841   0.179  16.396  0.4178 -0.4683 -0.6801
  380TMC3     H 5739   3.792   0.049  16.193  0.2472  0.8333  1.6532
  380TMC3    H1 5740   3.617   0.429  16.234  1.7590  0.7980 -1.1371
  380TMC3    H2 5741   3.554   0.204  15.884  1.8468  0.5782 -0.3357
  380TMC3    C7 5742   3.492   0.422  16.009 -0.4643 -1.0039 -0.6225
  380TMC3    C8 5743   3.739   0.043  15.924  0.2997  0.1900 -0.6127
  380TMC3    O1 5744   3.516   0.540  16.033  0.2044 -0.0561 -0.6171
  380TMC3    O2 5745   3.693   0.030  15.811  0.0027  0.0512 -0.0984
  381TMC3    C1 5746   3.661   1.223  16.503  0.3059  0.4792  0.3434
  381TMC3    C2 5747   3.717   1.344  16.472 -0.1633 -0.4488  0.1457
  381TMC3    C3 5748   3.711   1.446  16.568 -0.2040  0.3490  0.0205
  381TMC3    C4 5749   3.590   1.211  16.621  0.0933 -0.7459  0.3917
  381TMC3    C5 5750   3.576   1.314  16.705  0.8984  0.1006 -0.0720
  381TMC3    C6 5751   3.644   1.435  16.684  0.3320 -0.6042 -0.3385
  381TMC3     C 5752   3.697   1.097  16.436 -0.2869 -0.6926 -0.5439
  381TMC3     O 5753   3.644   0.989  16.471 -0.8078 -0.5942  0.1619
  381TMC3     H 5754   3.763   1.360  16.375 -2.1520 -0.3540 -0.7778
  381TMC3    H1 5755   3.551   1.115  16.652  0.3657 -0.2696  2.2312
  381TMC3    H2 5756   3.642   1.518  16.753  1.8447 -1.3662  0.6226
  381TMC3    C7 5757   3.494   1.296  16.823 -0.4352  0.3990  0.3870
  381TMC3    C8 5758   3.824   1.538  16.553  0.5808  0.2956  0.0773
  381TMC3    O1 5759   3.486   1.181  16.859 -0.1350 -0.5497  0.0562
  381TMC3    O2 5760   3.912   1.494  16.487 -0.1549  0.1138  0.0728
  382MPD2     C 5761   3.104   3.491  16.671  0.7520 -0.0436  0.0264
  382MPD2    C1 5762   3.124   3.534  16.800  0.5059  0.1611 -0.3268
  382MPD2    C2 5763   3.083   3.469  16.908 -0.0116 -0.0656 -0.0749
  382MPD2    C3 5764   3.034   3.344  16.894  0.1288 -0.1439  0.3264
  382MPD2    C4 5765   3.003   3.302  16.763  0.2554 -0.2645 -0.1198
  382MPD2    C5 5766   3.039   3.374  16.651  0.3337 -0.1279 -1.0583
  382MPD2     H 5767   3.118   3.501  17.006 -0.6335  1.6113 -0.4009
  382MPD2    H1 5768   2.967   3.201  16.748  1.3566 -0.4337 -1.6577
  382MPD2    H2 5769   3.136   3.538  16.579  2.5142  3.5483  2.4580
  382MPD2    H3 5770   3.021   3.336  16.551 -0.7600 -0.6846 -0.6505
  382MPD2     N 5771   3.005   3.254  17.005  0.1475  0.3127 -0.4006
  382MPD2    H5 5772   2.970   3.159  16.991  1.7472 -0.0788 -1.7468
  382MPD2    N1 5773   3.183   3.661  16.822 -0.0417 -0.9460 -0.1124
  382MPD2    H7 5774   3.185   3.691  16.918  3.2559  0.4804 -0.6390
  383TMC3    C1 5775   2.980   3.189  17.233 -0.3237 -0.5667  0.0386
  383TMC3    C2 5776   2.871   3.109  17.200 -0.3896  0.1179 -0.6657
  383TMC3    C3 5777   2.833   3.009  17.289  0.2923  0.1467 -0.3819
  383TMC3    C4 5778   3.061   3.165  17.340  0.5931  0.5775 -0.0709
  383TMC3    C5 5779   3.032   3.051  17.412  0.1088  0.3698  0.2326
  383TMC3    C6 5780   2.921   2.968  17.387  0.2721  0.0798 -0.0539
  383TMC3     C 5781   3.011   3.295  17.143  0.2947 -0.1425 -0.9777
  383TMC3     O 5782   3.084   3.381  17.189  0.2300 -0.2918  0.2201
  383TMC3     H 5783   2.800   3.129  17.120  0.6850 -1.5650 -2.0224
  383TMC3    H1 5784   3.144   3.229  17.369  2.3258 -1.7048 -0.0781
  383TMC3    H2 5785   2.891   2.885  17.451 -1.7681  0.5338 -0.4048
  383TMC3    C7 5786   3.085   3.042  17.547  0.4303  0.6598 -0.2602
  383TMC3    C8 5787   2.701   2.949  17.280 -1.0249  0.0496  0.1853
  383TMC3    O1 5788   3.079   2.928  17.599  0.0211 -0.2929  0.1505
  383TMC3    O2 5789   2.689   2.846  17.336  0.5643 -0.3370  0.4337
  384MPD2     C 5790   4.437   4.598  12.348 -0.1625 -0.2437 -0.7382
  384MPD2    C1 5791   4.408   4.546  12.471 -0.0724 -0.1683  0.0748
  384MPD2    C2 5792   4.491   4.447  12.518  1.0706  0.5906  0.0033
  384MPD2    C3 5793   4.599   4.397  12.449 -0.2821 -0.1752 -0.1294
  384MPD2    C4 5794   4.640   4.459  12.336  0.3042 -0.1991  0.6265
  384MPD2    C5 5795   4.561   4.566  12.293  0.2869  0.6213  0.1795
  384MPD2     H 5796   4.466   4.393  12.609 -2.4216  1.3603 -0.5015
  384MPD2    H1 5797   4.728   4.431  12.279  1.2618  1.5734  1.2494
  384MPD2    H2 5798   4.379   4.676  12.301  0.1790 -0.2694 -1.2118
  384MPD2    H3 5799   4.588   4.624  12.205 -1.9044 -0.5216 -1.2218
  384MPD2     N 5800   4.665   4.289  12.502 -0.4697  0.5756 -0.3674
  384MPD2    H5 5801   4.642   4.267  12.598  0.3263  0.3339 -0.2351
  384MPD2    N1 5802   4.299   4.583  12.548  0.2181 -0.0562  0.4265
  384MPD2    H7 5803   4.301   4.542  12.641 -0.2187 -0.5657  0.2100
  385TMC3    C1 5804   0.030   4.089  12.501 -0.6978 -0.0853  0.5204
  385TMC3    C2 5805   4.723   3.976  12.437 -0.7998  0.2663 -0.0295
  385TMC3    C3 5806   4.631   3.900  12.510 -0.3324  0.1807  0.2076
  385TMC3    C4 5807   0.023   4.114  12.631 -0.2363 -0.7096  0.1365
  385TMC3    C5 5808   4.681   4.026  12.702  0.2732  0.0238 -0.7414
  385TMC3    C6 5809   4.616   3.923  12.644  0.1734  0.6062  0.5444
  385TMC3     C 5810   0.011   4.211  12.432 -0.4834 -0.4300  0.1976
  385TMC3     O 5811   0.058   4.226  12.320 -0.1056  0.7767 -0.4396
  385TMC3     H 5812   4.715   3.975  12.329  1.7492 -3.0748 -0.1588
  385TMC3    H1 5813   0.066   4.201  12.678  0.3872 -0.4099 -1.0002
  385TMC3    H2 5814   4.555   3.859  12.706 -0.2911  0.2882 -0.2422
  385TMC3    C7 5815   4.593   4.100  12.795  1.0161 -0.9652  0.6269
  385TMC3    C8 5816   4.586   3.771  12.463  0.3948  0.0304 -0.6528
  385TMC3    O1 5817   4.605   4.221  12.784 -0.3061  0.1917 -0.8263
  385TMC3    O2 5818   4.497   3.717  12.534 -0.2175 -0.1413 -0.0049
  386TMC3    C1 5819   4.429   1.302  11.363 -0.0437 -0.1493 -0.2258
  386TMC3    C2 5820   4.481   1.319  11.242  0.0412  0.3882  0.2436
  386TMC3    C3 5821   4.444   1.433  11.165 -1.1277 -0.4195 -0.0557
  386TMC3    C4 5822   4.353   1.396  11.419  0.4243  0.1824 -0.0312
  386TMC3    C5 5823   4.316   1.502  11.338 -0.6116  0.2546  0.4529
  386TMC3    C6 5824   4.359   1.526  11.215  0.4403  0.4388 -0.0255
  386TMC3     C 5825   4.519   1.223  11.452 -0.1114 -0.6372  0.3021
  386TMC3     O 5826   4.632   1.206  11.412  0.3692 -0.5241 -0.1650
  386TMC3     H 5827   4.552   1.250  11.198  0.3011  0.1044  1.1184
  386TMC3    H1 5828   4.313   1.384  11.519 -1.0983 -2.0738 -0.9343
  386TMC3    H2 5829   4.338   1.616  11.158 -0.5277  1.3709  1.8346
  386TMC3    C7 5830   4.218   1.595  11.397  0.1619  0.3056 -0.1991
  386TMC3    C8 5831   4.495   1.454  11.033  0.4122  0.1903  0.2171
  386TMC3    O1 5832   4.197   1.591  11.521 -0.1593 -0.0368 -0.2996
  386TMC3    O2 5833   4.426   1.523  10.961  0.4111 -0.6449 -0.3889
  387MPD2     C 5834   2.453   2.082   9.531  0.0075  0.8718 -0.2701
  387MPD2    C1 5835   2.523   2.057   9.644 -0.5022 -0.6733 -0.1317
  387MPD2    C2 5836   2.492   1.946   9.724 -0.2473  0.5241  0.5792
  387MPD2    C3 5837   2.405   1.845   9.680  0.0799 -0.3866 -0.1997
  387MPD2    C4 5838   2.332   1.875   9.567  1.3721  0.1371 -0.1834
  387MPD2    C5 5839   2.359   1.990   9.497 -0.0274  0.2256  0.2611
  387MPD2     H 5840   2.551   1.922   9.812 -1.6023 -1.3632  0.9806
  387MPD2    H1 5841   2.257   1.802   9.536  0.8076 -0.4869  2.6004
  387MPD2    H2 5842   2.468   2.164   9.461  0.4785 -0.8374 -2.1747
  387MPD2    H3 5843   2.321   1.997   9.396  0.2998  2.3798  0.2769
  387MPD2     N 5844   2.397   1.732   9.759  0.2171 -0.6157 -0.0754
  387MPD2    H5 5845   2.457   1.740   9.841 -1.0258 -0.5848  0.8310
  387MPD2    N1 5846   2.639   2.126   9.686 -0.2373  0.3909 -0.3994
  387MPD2    H7 5847   2.686   2.084   9.766  0.5721  0.3721 -0.8868
  388TMC3    C1 5848   2.831   2.276   9.671 -0.6017  0.4462 -0.5726
  388TMC3    C2 5849   2.844   2.401   9.717  0.3926  0.0020 -0.0450
  388TMC3    C3 5850   2.928   2.422   9.829  0.0450 -0.0215  0.4298
  388TMC3    C4 5851   2.891   2.166   9.731  1.5004 -0.5484  0.1707
  388TMC3    C5 5852   2.969   2.192   9.845  0.6627 -0.3439 -0.4061
  388TMC3    C6 5853   2.989   2.313   9.893  0.0265 -0.1163  0.3579
  388TMC3     C 5854   2.687   2.238   9.625 -0.1267  0.0514  1.0631
  388TMC3     O 5855   2.628   2.316   9.547 -0.6154  0.1551  0.3868
  388TMC3     H 5856   2.782   2.474   9.665 -0.2947 -0.4175  0.1918
  388TMC3    H1 5857   2.909   2.076   9.673  1.9892 -0.5770  0.3668
  388TMC3    H2 5858   3.048   2.336   9.981 -1.3417  0.9217  1.0108
  388TMC3    C7 5859   3.000   2.072   9.929 -0.4661  0.2430  0.6601
  388TMC3    C8 5860   2.954   2.552   9.883  0.0775 -0.9386  0.4615
  388TMC3    O1 5861   3.075   2.084  10.026 -0.3803  0.5488  0.1952
  388TMC3    O2 5862   2.983   2.547  10.003  0.8204  0.3004 -0.2284
  389MPD2     C 5863   1.820   0.271  11.376 -0.1425  0.0407 -0.8412
  389MPD2    C1 5864   1.730   0.284  11.270 -0.2683 -0.6932  0.1092
  389MPD2    C2 5865   1.596   0.263  11.284 -0.4876  0.0129 -0.2065
  389MPD2    C3 5866   1.549   0.254  11.410  0.6366 -0.7222 -0.4667
  389MPD2    C4 5867   1.629   0.269  11.518 -0.2788  0.3850  0.2423
  389MPD2    C5 5868   1.769   0.273  11.507 -0.4987 -0.4371 -0.1088
  389MPD2     H 5869   1.525   0.250  11.203 -0.5810 -0.3556 -0.0668
  389MPD2    H1 5870   1.588   0.282  11.617  1.0855  0.1996  0.8295
  389MPD2    H2 5871   1.927   0.287  11.364  0.1696 -1.5428 -0.2738
  389MPD2    H3 5872   1.841   0.277  11.587  2.0033 -0.5106 -2.3553
  389MPD2     N 5873   1.411   0.240  11.447 -0.0895 -0.7861  0.4853
  389MPD2    H5 5874   1.382   0.245  11.544 -3.2637  1.0410 -0.5599
  389MPD2    N1 5875   1.797   0.306  11.148 -0.2466  0.1112  0.1609
  389MPD2    H7 5876   1.897   0.311  11.160 -0.1604 -1.4114  0.0206
  390TMC3    C1 5877   1.185   0.169  11.441 -0.4713  0.7385  0.2473
  390TMC3    C2 5878   1.116   0.052  11.406  0.2942 -0.8058  0.1540
  390TMC3    C3 5879   1.046   4.736  11.509 -0.6404 -0.7261  0.4076
  390TMC3    C4 5880   1.179   0.230  11.559 -0.1311 -0.0290  0.3582
  390TMC3    C5 5881   1.109   0.172  11.661  0.7497 -0.8465 -0.0047
  390TMC3    C6 5882   1.040   0.051  11.633 -0.0707  0.4817 -0.3782
  390TMC3     C 5883   1.310   0.191  11.363  0.3955 -0.5425 -0.4348
  390TMC3     O 5884   1.321   0.142  11.250 -0.1349 -0.7637 -0.6773
  390TMC3     H 5885   1.123   0.013  11.305  0.1795  3.3402 -1.4528
  390TMC3    H1 5886   1.207   0.335  11.561 -1.3138  0.3322 -1.7711
  390TMC3    H2 5887   0.988   0.007  11.718  0.2033 -0.5028 -0.7233
  390TMC3    C7 5888   1.106   0.237  11.793 -0.1615  0.1336  0.1545
  390TMC3    C8 5889   0.959   4.617  11.493 -0.4742 -0.4205  0.1546
  390TMC3    O1 5890   1.144   0.354  11.814  0.6898  0.2849  0.3776
  390TMC3    O2 5891   0.910   4.602  11.378 -0.1632 -0.8580  0.2991
  391MPD2     C 5892   0.942   1.539  10.594  0.4223 -0.2654  0.2951
  391MPD2    C1 5893   1.073   1.573  10.552 -0.6259 -0.5290  0.0885
  391MPD2    C2 5894   1.116   1.550  10.425  0.1219 -0.4252  0.1100
  391MPD2    C3 5895   1.029   1.496  10.332  0.0145 -0.2657  0.0050
  391MPD2    C4 5896   0.897   1.464  10.371  0.2972 -0.5860 -0.3906
  391MPD2    C5 5897   0.855   1.485  10.503  0.6288  0.7372 -0.2681
  391MPD2     H 5898   1.216   1.581  10.398  0.4722  0.0477  1.9302
  391MPD2    H1 5899   0.824   1.425  10.302  1.5740 -1.2937 -1.3367
  391MPD2    H2 5900   0.912   1.543  10.698 -2.5925 -1.7584 -0.5142
  391MPD2    H3 5901   0.755   1.455  10.536 -0.0723  2.3011 -0.9965
  391MPD2     N 5902   1.090   1.491  10.197  0.1205  0.6366 -0.3750
  391MPD2    H5 5903   1.191   1.493  10.198  0.1808 -0.9846 -3.0622
  391MPD2    N1 5904   1.161   1.627  10.646  0.3103  0.3530  0.3046
  391MPD2    H7 5905   1.126   1.658  10.736 -0.1904 -2.8530  1.2120
  392TMC3    C1 5906   1.108   1.453   9.974  0.2375  0.2534 -0.3989
  392TMC3    C2 5907   1.046   1.400   9.860  0.3437 -0.5039  0.1153
  392TMC3    C3 5908   1.070   1.457   9.739  0.5105 -0.3543  0.2904
  392TMC3    C4 5909   1.196   1.548   9.964  0.1112  0.3854 -0.2092
  392TMC3    C5 5910   1.227   1.591   9.836 -0.2531  0.1227 -0.4238
  392TMC3    C6 5911   1.162   1.559   9.722 -0.3240  0.1309  0.5486
  392TMC3     C 5912   1.030   1.447  10.089  0.2532  0.2262  0.1743
  392TMC3     O 5913   0.916   1.400  10.073 -0.3341  0.6251 -0.5212
  392TMC3     H 5914   0.978   1.316   9.869  2.8390 -2.5685 -0.2508
  392TMC3    H1 5915   1.247   1.597  10.046 -1.4913  2.0512 -0.2012
  392TMC3    H2 5916   1.189   1.600   9.625 -1.2538 -0.6471 -0.0406
  392TMC3    C7 5917   1.319   1.702   9.833  0.5980  0.4921  0.0764
  392TMC3    C8 5918   0.976   1.438   9.635 -0.1014  0.6193 -0.2501
  392TMC3    O1 5919   1.370   1.740   9.939 -0.4544 -0.0929  0.4003
  392TMC3    O2 5920   0.917   1.332   9.639  0.0625  0.1690  0.2796
  393TMC3    C1 5921   4.197   0.051  10.811  0.4845 -0.5343  0.3760
  393TMC3    C2 5922   4.060   0.036  10.788  0.4285 -0.4628  0.3351
  393TMC3    C3 5923   3.976   0.010  10.887 -0.3102 -0.2915 -0.1086
  393TMC3    C4 5924   4.252   0.041  10.940  0.6878 -0.2691 -0.1458
  393TMC3    C5 5925   4.153   0.018  11.042 -0.2146 -0.4540 -0.5323
  393TMC3    C6 5926   4.020   0.002  11.015  0.5072 -0.1024 -0.2428
  393TMC3     C 5927   4.275   0.040  10.688 -0.1898  0.5877  0.3486
  393TMC3     O 5928   4.225   0.009  10.579 -0.5052 -0.1091  0.8112
  393TMC3     H 5929   4.022   0.047  10.687 -1.4800  0.1299  1.1206
  393TMC3    H1 5930   4.355   0.065  10.961  0.6613 -0.7932  0.5881
  393TMC3    H2 5931   3.957   4.708  11.096  0.7316  1.2228  0.5167
  393TMC3    C7 5932   4.186   0.005  11.181 -0.1640  0.1738  0.7595
  393TMC3    C8 5933   3.843   4.710  10.864 -0.4134  0.4483 -0.5153
  393TMC3    O1 5934   4.099   0.020  11.262  0.1453  0.0428 -0.1572
  393TMC3    O2 5935   3.768   4.712  10.961 -0.0300  0.0490 -0.3230
  394TMC3    C1 5936   1.834   0.375  10.931  0.2271  0.0303  0.3387
  394TMC3    C2 5937   1.951   0.307  10.938  0.1724 -0.0026 -0.0278
  394TMC3    C3 5938   2.043   0.332  10.844  0.3649 -0.2379  0.9975
  394TMC3    C4 5939   1.806   0.465  10.833 -0.0018 -0.7538 -0.0788
  394TMC3    C5 5940   1.906   0.486  10.742 -0.4340 -0.8206  0.8287
  394TMC3    C6 5941   2.026   0.418  10.743  0.0497  0.2924 -0.2817
  394TMC3     C 5942   1.736   0.343  11.029  0.0943  0.3079 -0.3594
  394TMC3     O 5943   1.618   0.368  11.008  0.0938 -0.0207 -0.2022
  394TMC3     H 5944   1.970   0.222  11.003  0.3426 -0.5167 -0.7553
  394TMC3    H1 5945   1.709   0.513  10.841 -0.0828 -1.1507  1.3043
  394TMC3    H2 5946   2.103   0.429  10.667 -0.4442 -0.8913 -0.9738
  394TMC3    C7 5947   1.883   0.564  10.617  0.1968 -0.1117 -0.1958
  394TMC3    C8 5948   2.119   0.211  10.811 -0.9449  0.5958 -0.0457
  394TMC3    O1 5949   1.974   0.639  10.574 -0.6536 -0.8981  0.0680
  394TMC3    O2 5950   2.235   0.196  10.852  0.1941 -0.0369 -0.0960
  395TMC3    C1 5951   1.292   1.883  15.032  0.3067 -0.6612  0.2956
  395TMC3    C2 5952   1.220   1.906  14.918 -0.4211  0.7483  0.0976
  395TMC3    C3 5953   1.263   1.988  14.821  0.1935 -0.3360 -0.3967
  395TMC3    C4 5954   1.423   1.929  15.035 -0.6226  0.1140 -0.2350
  395TMC3    C5 5955   1.463   2.001  14.920  1.0917  0.5900 -0.4743
  395TMC3    C6 5956   1.394   2.019  14.807  0.6555 -0.3329 -0.4958
  395TMC3     C 5957   1.230   1.811  15.138  0.0521 -0.5647  0.2824
  395TMC3     O 5958   1.108   1.800  15.144 -0.0118  0.3652 -0.3756
  395TMC3     H 5959   1.122   1.860  14.910 -0.3373  0.5412  0.2776
  395TMC3    H1 5960   1.485   1.930  15.124 -0.3482  1.1571 -0.4396
  395TMC3    H2 5961   1.418   2.100  14.739  1.0261 -0.6706 -0.7677
  395TMC3    C7 5962   1.562   2.099  14.942  0.1213 -0.4541  0.1037
  395TMC3    C8 5963   1.168   2.035  14.720 -0.0206  0.8267  0.0149
  395TMC3    O1 5964   1.561   2.152  15.051 -0.3438  0.1848 -0.8544
  395TMC3    O2 5965   1.209   2.058  14.609  0.3651 -0.2898 -0.5864
  396MPD2     C 5966   1.072   3.333  17.131  0.6388 -0.3771  0.2322
  396MPD2    C1 5967   1.156   3.424  17.192 -0.6359  0.5544 -0.4810
  396MPD2    C2 5968   1.182   3.544  17.121 -0.5954 -0.0338 -0.1769
  396MPD2    C3 5969   1.135   3.574  16.995 -0.7048  0.4000 -0.1986
  396MPD2    C4 5970   1.053   3.480  16.937  0.8483 -0.4450 -0.2520
  396MPD2    C5 5971   1.023   3.362  17.007  0.6357 -0.3486  0.5747
  396MPD2     H 5972   1.242   3.626  17.158 -0.2971 -0.5797  0.5559
  396MPD2    H1 5973   1.011   3.491  16.838  2.2755 -0.1154 -0.8249
  396MPD2    H2 5974   1.034   3.241  17.173 -1.0361 -0.3358 -1.1744
  396MPD2    H3 5975   0.953   3.298  16.955 -0.7437  0.5184  1.3611
  396MPD2     N 5976   1.168   3.693  16.929 -0.2752  0.1612 -0.9310
  396MPD2    H5 5977   1.232   3.752  16.982 -2.1588  0.5553  0.9171
  396MPD2    N1 5978   1.218   3.388  17.315 -0.0358 -0.0601 -0.5375
  396MPD2    H7 5979   1.192   3.297  17.352 -0.1738 -0.2640 -1.1331
  397TMC3    C1 5980   1.374   3.411  17.492 -0.5812  0.1783  0.1971
  397TMC3    C2 5981   1.478   3.494  17.534 -0.8505 -0.5824 -0.1396
  397TMC3    C3 5982   1.600   3.441  17.569 -0.5809  0.4726 -0.2582
  397TMC3    C4 5983   1.403   3.278  17.481  0.2509  0.5307  0.3429
  397TMC3    C5 5984   1.517   3.227  17.532 -0.0722  0.8306  0.4071
  397TMC3    C6 5985   1.613   3.304  17.582 -0.0995 -0.1074 -0.1884
  397TMC3     C 5986   1.317   3.467  17.369 -0.7166  1.2098  0.3241
  397TMC3     O 5987   1.369   3.573  17.338  0.1315  0.1184 -0.8675
  397TMC3     H 5988   1.467   3.599  17.558  0.4139  0.0918 -2.4855
  397TMC3    H1 5989   1.352   3.201  17.425 -1.3389  0.7667  1.4568
  397TMC3    H2 5990   1.716   3.273  17.598 -0.2700  0.4003  1.8017
  397TMC3    C7 5991   1.505   3.101  17.593  0.0852  0.6277 -0.2680
  397TMC3    C8 5992   1.706   3.499  17.484  0.0199  0.0979 -0.0278
  397TMC3    O1 5993   1.447   3.010  17.530  0.4738  0.1791 -0.2009
  397TMC3    O2 5994   1.823   3.468  17.504 -0.0286 -0.0762  0.2445
  398MPD2     C 5995   4.024   4.724   0.018  0.6145 -0.0735  0.1856
  398MPD2    C1 5996   4.106   4.665   0.114  0.2621 -0.2738 -0.6733
  398MPD2    C2 5997   4.140   4.741   0.223 -0.4073  0.1494  0.4209
  398MPD2    C3 5998   4.098   0.128   0.244 -0.4374 -0.7370 -0.3134
  398MPD2    C4 5999   4.008   0.182   0.152  0.3257  0.0123  0.1094
  398MPD2    C5 6000   3.971   0.106   0.043  0.4470 -0.1186 -0.0484
  398MPD2     H 6001   4.199   4.690   0.298  1.2420  0.2943 -0.7764
  398MPD2    H1 6002   3.981   0.287   0.148 -0.7303 -0.2723 -0.4547
  398MPD2    H2 6003   3.983   4.666  17.697 -0.1199 -2.3428  2.1549
  398MPD2    H3 6004   3.886   0.145  17.750  1.4640  0.5282 -1.1671
  398MPD2     N 6005   4.146   0.193   0.363  0.1423  0.0881 -0.4069
  398MPD2    H5 6006   4.208   0.143   0.426 -0.1214 -0.3003 -0.4570
  398MPD2    N1 6007   4.157   4.532   0.117 -0.8165 -0.6695  0.2310
  398MPD2    H7 6008   4.227   4.510   0.187 -0.7312  0.7093  0.5802
  399TMC3    C1 6009   4.147   4.294   0.095  0.3358  0.1198  0.8807
  399TMC3    C2 6010   4.276   4.272   0.140  0.2797 -0.5310  0.2325
  399TMC3    C3 6011   4.310   4.145   0.172 -1.0812  0.2527 -0.0853
  399TMC3    C4 6012   4.057   4.191   0.087  0.0786  0.4752 -0.9540
  399TMC3    C5 6013   4.092   4.068   0.143 -0.7189 -0.2422  0.0844
  399TMC3    C6 6014   4.219   4.049   0.189  0.6908 -0.2145 -0.5881
  399TMC3     C 6015   4.095   4.421   0.050 -0.5843  0.2706  0.1604
  399TMC3     O 6016   4.001   4.424  17.732  0.2650 -0.1313  0.0437
  399TMC3     H 6017   4.352   4.348   0.136 -0.8713  0.5704 -0.5645
  399TMC3    H1 6018   3.960   4.217   0.046 -0.4697 -0.7626 -0.4249
  399TMC3    H2 6019   4.238   3.960   0.249  2.1012  0.4892  0.0038
  399TMC3    C7 6020   3.998   3.958   0.156  0.2890 -0.3375 -0.5423
  399TMC3    C8 6021   4.451   4.114   0.199  0.0460  0.1670  0.5030
  399TMC3    O1 6022   4.019   3.872   0.240 -0.4891 -0.0222 -0.0513
  399TMC3    O2 6023   4.513   4.217   0.204 -0.1066 -0.1339 -0.2051
  400TMC3    C1 6024   2.490   2.896  16.855 -0.2871 -0.5411 -0.4477
  400TMC3    C2 6025   2.363   2.899  16.805  0.2734 -0.5967 -0.8621
  400TMC3    C3 6026   2.316   3.020  16.770  0.6141  0.1125 -0.1454
  400TMC3    C4 6027   2.570   3.009  16.872  0.6277 -0.8768 -0.5255
  400TMC3    C5 6028   2.514   3.130  16.846 -0.3244 -0.8001  0.1555
  400TMC3    C6 6029   2.382   3.135  16.802 -0.2322  0.1256 -0.5266
  400TMC3     C 6030   2.527   2.759  16.899 -1.2492  0.4018  0.0086
  400TMC3     O 6031   2.442   2.670  16.891  0.6781  0.1809  0.2023
  400TMC3     H 6032   2.308   2.807  16.785 -0.7329  0.2322 -1.8872
  400TMC3    H1 6033   2.671   3.008  16.912  1.7644  0.3184 -3.3835
  400TMC3    H2 6034   2.354   3.225  16.748 -1.1424  0.2262  0.1221
  400TMC3    C7 6035   2.593   3.243  16.889 -0.1176  0.4365 -0.2142
  400TMC3    C8 6036   2.186   3.034  16.740 -0.1324  0.3491  0.6649
  400TMC3    O1 6037   2.714   3.228  16.863 -0.3153 -0.1356 -0.7463
  400TMC3    O2 6038   2.123   3.135  16.763 -0.0620  0.3027 -0.7615
  401MPD2     C 6039   0.844   1.765   0.316  0.7110  0.2856 -0.7942
  401MPD2    C1 6040   0.882   1.654   0.392 -0.2623  0.1986  0.0669
  401MPD2    C2 6041   0.835   1.530   0.365 -0.0036 -0.6325 -0.3845
  401MPD2    C3 6042   0.761   1.508   0.251  0.2138  0.1146  0.4024
  401MPD2    C4 6043   0.717   1.616   0.171 -0.3023  0.0953  1.0868
  401MPD2    C5 6044   0.761   1.740   0.211 -0.0583  0.0448  0.4406
  401MPD2     H 6045   0.873   1.446   0.422  1.4788  0.5559  0.3943
  401MPD2    H1 6046   0.646   1.605   0.090  0.1526 -2.0699  0.9691
  401MPD2    H2 6047   0.881   1.863   0.341  2.4581 -0.9999  1.6365
  401MPD2    H3 6048   0.734   1.832   0.161 -0.9669  1.0389  2.7956
  401MPD2     N 6049   0.735   1.373   0.228  0.3851  0.6694 -0.5122
  401MPD2    H5 6050   0.786   1.308   0.287 -2.3652  0.7560  1.9243
  401MPD2    N1 6051   0.982   1.655   0.493  0.2877 -0.1632  0.1786
  401MPD2    H7 6052   1.017   1.563   0.518 -1.0127 -0.8405 -0.4814
  402TMC3    C1 6053   0.672   1.173   0.152  0.0462  0.1860  0.0838
  402TMC3    C2 6054   0.693   1.123   0.276 -0.4929 -0.2961 -0.1354
  402TMC3    C3 6055   0.727   0.989   0.283 -0.2954 -0.5206  1.3120
  402TMC3    C4 6056   0.679   1.098   0.040  0.0982  0.9656  0.5919
  402TMC3    C5 6057   0.727   0.968   0.055  0.8284  0.2479  0.1625
  402TMC3    C6 6058   0.742   0.910   0.175  0.4372  0.1053  0.0027
  402TMC3     C 6059   0.661   1.313   0.130  0.8518  0.5118  0.0851
  402TMC3     O 6060   0.621   1.363   0.024  0.2771  0.4148  0.0853
  402TMC3     H 6061   0.673   1.180   0.366 -2.0777  0.5296 -1.0044
  402TMC3    H1 6062   0.669   1.139  17.702  1.2150  1.5487  0.7113
  402TMC3    H2 6063   0.758   0.804   0.192 -1.0375  0.1062  1.3395
  402TMC3    C7 6064   0.766   0.902  17.692  0.1523  0.1328 -0.2390
  402TMC3    C8 6065   0.792   0.941   0.402 -0.4220  0.0566 -0.5017
  402TMC3    O1 6066   0.736   0.950  17.587  0.1997  0.7618 -0.2126
  402TMC3    O2 6067   0.883   0.858   0.389  0.0686 -0.3164  0.1403
  403MPD2     C 6068   3.783   4.362  13.095  0.1182  0.2673 -0.0418
  403MPD2    C1 6069   3.774   4.268  13.189 -1.1510  0.3802 -0.3009
  403MPD2    C2 6070   3.861   4.272  13.294 -0.3021 -0.5910  0.5108
  403MPD2    C3 6071   3.954   4.377  13.308 -0.6065  0.6417  0.1908
  403MPD2    C4 6072   3.950   4.476  13.214 -0.4717  0.3447 -0.5559
  403MPD2    C5 6073   3.862   4.472  13.111 -0.1942  0.1402 -0.3928
  403MPD2     H 6074   3.864   4.188  13.363  0.6764 -0.1340  1.0259
  403MPD2    H1 6075   4.023   4.555  13.225  1.3171 -1.3846 -0.0995
  403MPD2    H2 6076   3.729   4.359  13.001 -4.0660  1.0407  2.3471
  403MPD2    H3 6077   3.865   4.547  13.033 -0.5080  0.8511  0.2853
  403MPD2     N 6078   4.038   4.360  13.423 -0.1195 -0.0581 -0.0190
  403MPD2    H5 6079   4.022   4.279  13.483 -2.8141  0.8408  0.5147
  403MPD2    N1 6080   3.677   4.163  13.168  0.2155 -0.0960 -0.7452
  403MPD2    H7 6081   3.624   4.173  13.082 -0.2718  0.0180 -0.4358
  404TMC3    C1 6082   3.526   3.985  13.223 -0.4186  0.3655  0.5037
  404TMC3    C2 6083   3.464   3.945  13.337 -0.0456 -0.0094  0.1031
  404TMC3    C3 6084   3.432   3.816  13.353 -0.3088  0.0582 -0.3622
  404TMC3    C4 6085   3.531   3.909  13.110 -1.2978  0.2851  0.2816
  404TMC3    C5 6086   3.493   3.781  13.128 -0.0456 -0.0118  0.0825
  404TMC3    C6 6087   3.441   3.736  13.242  0.4909  0.3874 -0.4519
  404TMC3     C 6088   3.644   4.062  13.251 -0.2855 -0.2974 -0.3336
  404TMC3     O 6089   3.693   4.033  13.361 -0.2582  0.5448  0.3543
  404TMC3     H 6090   3.431   4.021  13.407  1.3158 -0.8359  1.6313
  404TMC3    H1 6091   3.575   3.943  13.017 -1.9595 -0.2248 -0.2211
  404TMC3    H2 6092   3.416   3.631  13.254 -1.0818  0.8704  0.5317
  404TMC3    C7 6093   3.510   3.685  13.023 -1.0848  0.0967 -0.6262
  404TMC3    C8 6094   3.454   3.763  13.483 -0.0313 -0.3762  0.5346
  404TMC3    O1 6095   3.521   3.568  13.052  0.2397 -0.5399 -0.0212
  404TMC3    O2 6096   3.511   3.658  13.481 -0.2389 -0.5879  0.0128
  405MPD2     C 6097   4.544   0.342  15.861  0.1178  0.1374 -0.5998
  405MPD2    C1 6098   4.578   0.265  15.751  0.1279 -0.5772 -0.1761
  405MPD2    C2 6099   4.597   0.328  15.626 -0.6370 -0.0270  0.6392
  405MPD2    C3 6100   4.594   0.467  15.621 -0.0910  0.6638 -1.1477
  405MPD2    C4 6101   4.576   0.534  15.739  0.1001 -0.1113 -0.0292
  405MPD2    C5 6102   4.548   0.478  15.857 -0.1933 -0.5260  0.0960
  405MPD2     H 6103   4.604   0.273  15.532 -0.9276  1.3326 -0.1854
  405MPD2    H1 6104   4.570   0.641  15.749 -1.3198 -0.1905 -0.0421
  405MPD2    H2 6105   4.522   0.305  15.960  1.5973  1.5368  0.2427
  405MPD2    H3 6106   4.528   0.520  15.955 -0.6190 -0.5901  0.0357
  405MPD2     N 6107   4.598   0.535  15.496 -0.1919 -0.1700 -0.0386
  405MPD2    H5 6108   4.618   0.476  15.415  0.3396  1.0922 -0.8233
  405MPD2    N1 6109   4.579   0.129  15.760 -0.1380 -0.0969 -0.3831
  405MPD2    H7 6110   4.591   0.084  15.670  0.5398  1.1678 -0.9287
  406TMC3    C1 6111   4.371   0.818  15.236  0.6322 -0.7066  0.3919
  406TMC3    C2 6112   4.314   0.706  15.167 -0.0655  0.2515 -0.3415
  406TMC3    C3 6113   4.370   0.590  15.203 -0.2073 -0.4591 -1.0038
  406TMC3    C4 6114   4.484   0.809  15.314 -0.0082  0.4356  0.4515
  406TMC3    C5 6115   4.543   0.686  15.331  0.1702  0.2068  0.0796
  406TMC3    C6 6116   4.489   0.579  15.267  0.1385  0.3054 -0.2130
  406TMC3     C 6117   4.288   0.938  15.246 -0.6698 -0.1430  0.3303
  406TMC3     O 6118   4.299   1.005  15.347  0.2521  0.3269 -0.1320
  406TMC3     H 6119   4.218   0.700  15.117 -0.6746 -2.7061  1.1592
  406TMC3    H1 6120   4.520   0.901  15.358  0.6986  0.2324  0.3128
  406TMC3    H2 6121   4.538   0.482  15.260  2.0550  1.0967  1.9285
  406TMC3    C7 6122   4.576   0.669  15.474  0.6969 -0.2152  0.0649
  406TMC3    C8 6123   4.296   0.468  15.156 -0.1512 -0.4529  0.2422
  406TMC3    O1 6124   4.544   0.754  15.555  0.0513 -0.0688 -0.0879
  406TMC3    O2 6125   4.233   0.484  15.054  0.3137  0.4045 -0.0136
  407MPD2     C 6126   1.825   1.765   9.914 -0.4688  0.0385  0.0053
  407MPD2    C1 6127   1.908   1.773   9.803 -0.1174 -0.5643  0.1778
  407MPD2    C2 6128   2.001   1.878   9.803  0.6322 -0.4326 -0.9899
  407MPD2    C3 6129   2.018   1.967   9.902  0.3289 -0.3322 -0.2820
  407MPD2    C4 6130   1.951   1.946  10.025 -0.2527  0.6692 -0.2087
  407MPD2    C5 6131   1.860   1.842  10.024  0.1428 -0.0664  0.8292
  407MPD2     H 6132   2.060   1.885   9.712  0.0379  0.5882 -1.2874
  407MPD2    H1 6133   1.959   2.009  10.113 -1.0569 -0.9196  1.0160
  407MPD2    H2 6134   1.746   1.691   9.907  0.3786 -0.9385  0.7514
  407MPD2    H3 6135   1.800   1.827  10.113  0.2085 -0.3883  0.8199
  407MPD2     N 6136   2.111   2.076   9.901 -0.2792 -0.0473  0.2612
  407MPD2    H5 6137   2.144   2.117   9.988  0.2682  0.9272 -0.4038
  407MPD2    N1 6138   1.882   1.698   9.683  0.1404 -0.2826 -0.3258
  407MPD2    H7 6139   1.929   1.733   9.601 -1.1102  0.1997 -0.8353
  408TMC3    C1 6140   1.824   1.521   9.540 -0.0708 -0.0697 -0.6369
  408TMC3    C2 6141   1.955   1.533   9.484 -0.5759  0.0255  0.5597
  408TMC3    C3 6142   1.968   1.532   9.348 -0.3699  0.2278  0.7545
  408TMC3    C4 6143   1.714   1.477   9.469  0.2524 -0.3456  0.0187
  408TMC3    C5 6144   1.737   1.464   9.332  0.4843 -0.1427  0.4005
  408TMC3    C6 6145   1.858   1.505   9.271  0.4413  0.0116 -0.2773
  408TMC3     C 6146   1.802   1.585   9.669 -0.0372  0.0315  0.4676
  408TMC3     O 6147   1.744   1.526   9.758  0.3510  0.6312 -0.1076
  408TMC3     H 6148   2.033   1.566   9.551  1.5551 -0.9360 -1.4466
  408TMC3    H1 6149   1.613   1.485   9.507 -0.0087 -1.3421 -0.4518
  408TMC3    H2 6150   1.867   1.491   9.163 -2.8872  1.6723 -0.7730
  408TMC3    C7 6151   1.636   1.395   9.253 -0.4467 -0.6077  0.3266
  408TMC3    C8 6152   2.101   1.566   9.278 -0.0549 -0.5452 -0.2376
  408TMC3    O1 6153   1.611   1.432   9.144  0.9040 -0.3438  0.7184
  408TMC3    O2 6154   2.091   1.575   9.154  0.4470 -0.2319  0.1551
  409MPD2     C 6155   1.329   2.899  17.208 -1.0253 -0.2013  0.7390
  409MPD2    C1 6156   1.460   2.878  17.236 -0.1359  0.7041  0.1207
  409MPD2    C2 6157   1.550   2.971  17.199 -0.0354 -1.0277  0.0027
  409MPD2    C3 6158   1.520   3.090  17.138  0.3749  0.4135 -0.2119
  409MPD2    C4 6159   1.386   3.111  17.110 -0.2227  0.2722  0.0624
  409MPD2    C5 6160   1.289   3.018  17.147 -0.3542 -0.1754  0.7429
  409MPD2     H 6161   1.651   2.942  17.226 -0.3954 -1.1974  1.1864
  409MPD2    H1 6162   1.351   3.205  17.069  0.2196  0.0954 -0.7277
  409MPD2    H2 6163   1.258   2.819  17.228 -0.5333 -0.1901  2.4917
  409MPD2    H3 6164   1.185   3.040  17.128 -0.6361  1.8370  4.7969
  409MPD2     N 6165   1.615   3.186  17.093  1.0114 -0.9913  0.1756
  409MPD2    H5 6166   1.568   3.264  17.049 -0.6454 -0.5175  2.7880
  409MPD2    N1 6167   1.506   2.759  17.306  0.3262 -0.0365 -0.1164
  409MPD2    H7 6168   1.603   2.760  17.337  0.3281  0.5932 -0.1594
  410TMC3    C1 6169   1.819   3.290  17.048  0.1290 -0.2157  0.6254
  410TMC3    C2 6170   1.940   3.316  17.108  0.0457 -0.3344  0.2509
  410TMC3    C3 6171   2.047   3.360  17.037 -0.1163  0.1367 -0.7906
  410TMC3    C4 6172   1.808   3.305  16.909  0.9118 -0.2164 -0.4988
  410TMC3    C5 6173   1.917   3.349  16.849  0.7064 -0.0893 -0.0824
  410TMC3    C6 6174   2.034   3.391  16.908  0.1668 -0.0007  0.1076
  410TMC3     C 6175   1.750   3.180  17.118 -0.1298 -0.3137 -0.2216
  410TMC3     O 6176   1.818   3.086  17.149  0.3650 -0.3105  0.5236
  410TMC3     H 6177   1.947   3.315  17.216  1.1369 -0.7238  0.1739
  410TMC3    H1 6178   1.714   3.280  16.861  0.5508 -0.2824  0.2415
  410TMC3    H2 6179   2.117   3.396  16.838  0.8748  0.0291  0.9462
  410TMC3    C7 6180   1.890   3.371  16.713 -0.4700 -0.1706  0.2144
  410TMC3    C8 6181   2.171   3.287  17.068 -0.8332  0.1907 -0.6168
  410TMC3    O1 6182   1.782   3.323  16.675  0.0232 -0.5169 -0.3133
  410TMC3    O2 6183   2.272   3.347  17.034 -0.8989  0.5375  0.0628
  411MPD2     C 6184   1.403   2.874  14.140  0.3585  0.4503  0.3912
  411MPD2    C1 6185   1.476   2.887  14.255  0.0812  0.2591  0.6301
  411MPD2    C2 6186   1.520   2.771  14.320  0.3995  0.0032  0.6091
  411MPD2    C3 6187   1.485   2.648  14.272  0.7282 -0.4281  0.3894
  411MPD2    C4 6188   1.400   2.644  14.160 -0.1849 -0.5446  0.5363
  411MPD2    C5 6189   1.353   2.752  14.104  0.4331 -0.3596 -0.0380
  411MPD2     H 6190   1.582   2.775  14.409  0.9003 -0.9360  0.3096
  411MPD2    H1 6191   1.360   2.550  14.124 -0.5973  0.4769 -1.6684
  411MPD2    H2 6192   1.371   2.962  14.084 -1.2969 -0.2890  0.1715
  411MPD2    H3 6193   1.284   2.750  14.020  2.3199  0.2079 -1.6042
  411MPD2     N 6194   1.518   2.528  14.339 -0.4914 -0.6475 -0.3000
  411MPD2    H5 6195   1.455   2.451  14.317 -1.2716 -0.4013  1.1039
  411MPD2    N1 6196   1.506   3.019  14.299 -0.1334 -0.4247 -0.2240
  411MPD2    H7 6197   1.467   3.091  14.238  0.4182 -1.8516 -2.2616
  412TMC3    C1 6198   1.630   2.413  14.518 -0.4206  0.1341 -0.3091
  412TMC3    C2 6199   1.626   2.487  14.637  0.4233 -0.4023  0.4540
  412TMC3    C3 6200   1.518   2.491  14.723 -0.2071 -0.5992  0.2384
  412TMC3    C4 6201   1.522   2.330  14.488 -0.2072  0.2676 -0.1887
  412TMC3    C5 6202   1.413   2.335  14.575 -0.1614  0.1645  0.6762
  412TMC3    C6 6203   1.416   2.408  14.695 -0.6755 -0.2927  0.3274
  412TMC3     C 6204   1.632   2.519  14.414  0.2418  0.4653  0.1275
  412TMC3     O 6205   1.726   2.597  14.408 -0.3767 -0.0257  0.2265
  412TMC3     H 6206   1.706   2.557  14.659 -0.4098  0.3676  1.0799
  412TMC3    H1 6207   1.520   2.283  14.391  0.5697  1.2048 -0.6561
  412TMC3    H2 6208   1.322   2.424  14.747 -0.3194 -0.1828  0.9376
  412TMC3    C7 6209   1.283   2.345  14.504 -0.4497 -0.0464 -0.0395
  412TMC3    C8 6210   1.483   2.636  14.753  0.5045  0.1488  0.0825
  412TMC3    O1 6211   1.225   2.454  14.520  0.2017 -0.0290 -0.0460
  412TMC3    O2 6212   1.555   2.713  14.809  0.4028  1.0027  0.1642
  413MPD2     C 6213   2.707   1.421  14.925 -0.1645  0.0022  0.2562
  413MPD2    C1 6214   2.783   1.524  14.972 -0.1312  0.0662 -0.0529
  413MPD2    C2 6215   2.910   1.499  15.006 -0.3308 -0.3022  0.3763
  413MPD2    C3 6216   2.956   1.367  15.004 -0.4192 -0.1063 -0.3434
  413MPD2    C4 6217   2.882   1.257  14.963 -0.3299 -0.4048 -0.1145
  413MPD2    C5 6218   2.758   1.293  14.918 -0.5989 -1.2903  1.2295
  413MPD2     H 6219   2.966   1.581  15.049  0.6880 -1.9639  2.2091
  413MPD2    H1 6220   2.907   1.152  14.948 -0.2243 -0.2916 -0.7325
  413MPD2    H2 6221   2.605   1.442  14.897 -0.7117 -3.9113 -0.5825
  413MPD2    H3 6222   2.698   1.217  14.869 -0.6577  0.3056 -1.1981
  413MPD2     N 6223   3.091   1.351  15.040 -0.1874 -0.3859 -0.0304
  413MPD2    H5 6224   3.148   1.435  15.045  0.4169 -0.7727 -0.4016
  413MPD2    N1 6225   2.726   1.655  14.978 -0.0510  0.8014 -0.0502
  413MPD2    H7 6226   2.629   1.659  14.945  0.4179 -0.1560 -1.5485
  414TMC3    C1 6227   3.282   1.236  15.110 -0.6762  0.1932 -0.0009
  414TMC3    C2 6228   3.328   1.169  15.224 -0.0763  0.2891 -0.2296
  414TMC3    C3 6229   3.449   1.211  15.262  0.1055  0.2542 -0.1843
  414TMC3    C4 6230   3.356   1.326  15.036  0.4012  0.1919 -0.1368
  414TMC3    C5 6231   3.476   1.358  15.090  0.9991  0.6283 -0.4907
  414TMC3    C6 6232   3.522   1.308  15.206  0.0437 -0.3536  0.1644
  414TMC3     C 6233   3.145   1.223  15.070 -0.2532  0.1292  0.5310
  414TMC3     O 6234   3.087   1.123  15.109 -0.0633 -0.5438 -0.0984
  414TMC3     H 6235   3.262   1.100  15.274 -0.0835 -0.0798 -0.7408
  414TMC3    H1 6236   3.323   1.370  14.943 -0.4864  0.7183  0.4327
  414TMC3    H2 6237   3.622   1.329  15.242  0.6626  0.4726 -2.0156
  414TMC3    C7 6238   3.591   1.407  15.005 -0.1151 -0.4255  0.5448
  414TMC3    C8 6239   3.521   1.130  15.370 -0.0373  0.1286  0.5482
  414TMC3    O1 6240   3.674   1.479  15.061 -0.0900 -0.3345 -0.2216
  414TMC3    O2 6241   3.452   1.035  15.412  0.7948  0.1440 -0.4575
  415TMC3    C1 6242   4.052   3.497  10.308  0.7078  0.2073  0.2920
  415TMC3    C2 6243   4.101   3.535  10.190 -0.2216 -0.2080 -0.7254
  415TMC3    C3 6244   4.077   3.455  10.083 -0.4562 -0.2219  0.5181
  415TMC3    C4 6245   3.982   3.380  10.323 -0.7768  0.0731  0.7201
  415TMC3    C5 6246   3.972   3.288  10.215  0.3343 -1.0035 -0.3782
  415TMC3    C6 6247   4.018   3.330  10.092 -0.9255 -0.5671 -0.0568
  415TMC3     C 6248   4.098   3.552  10.429 -0.2741  0.4770  0.1648
  415TMC3     O 6249   4.023   3.532  10.521  0.2627 -0.0897  0.3393
  415TMC3     H 6250   4.139   3.635  10.172 -0.1833  0.0284  0.7009
  415TMC3    H1 6251   3.919   3.362  10.410 -0.5153  1.4150  1.1833
  415TMC3    H2 6252   3.993   3.271  10.004  0.8266  1.7396 -2.0819
  415TMC3    C7 6253   3.873   3.187  10.217 -0.0196 -0.0403  0.4556
  415TMC3    C8 6254   4.112   3.514   9.955 -0.7043  0.4332  0.7684
  415TMC3    O1 6255   3.800   3.173  10.124 -0.2720 -0.0932  0.0545
  415TMC3    O2 6256   4.104   3.637   9.946  0.6466 -0.0623 -0.2808
  416MPD2     C 6257   1.338   3.037  11.041  0.1539 -0.2845  0.4863
  416MPD2    C1 6258   1.283   2.934  11.110  0.0526  0.2557  0.1652
  416MPD2    C2 6259   1.287   2.805  11.064 -1.0195 -0.0844 -0.2445
  416MPD2    C3 6260   1.313   2.790  10.926  0.4025 -0.1942  0.2488
  416MPD2    C4 6261   1.367   2.898  10.853 -0.7040 -0.0015  0.0761
  416MPD2    C5 6262   1.385   3.021  10.909  0.1682  0.3078  0.0672
  416MPD2     H 6263   1.245   2.719  11.117  1.9371 -1.0928  0.4568
  416MPD2    H1 6264   1.410   2.882  10.755 -1.9000  0.4350 -0.5268
  416MPD2    H2 6265   1.345   3.137  11.083 -2.5558  0.3339 -0.5562
  416MPD2    H3 6266   1.436   3.097  10.850 -2.3557  0.2469 -2.1730
  416MPD2     N 6267   1.287   2.670  10.861 -0.1929  0.1437 -0.0822
  416MPD2    H5 6268   1.244   2.595  10.914  0.5388 -0.5921 -0.5195
  416MPD2    N1 6269   1.213   2.969  11.227  0.4500  0.1162  0.0705
  416MPD2    H7 6270   1.189   3.066  11.245  0.6343 -0.5473  3.8311
  417TMC3    C1 6271   1.042   2.922  11.388  0.8754  0.8469 -0.2865
  417TMC3    C2 6272   1.017   2.878  11.516  0.0948  0.0327 -1.4512
  417TMC3    C3 6273   0.902   2.923  11.578 -0.7315 -0.6178 -0.4468
  417TMC3    C4 6274   0.949   2.995  11.321 -0.2685  0.3323 -0.4747
  417TMC3    C5 6275   0.842   3.041  11.394 -0.3532 -0.3999  0.8940
  417TMC3    C6 6276   0.811   2.996  11.522  0.1625 -0.3737  0.1052
  417TMC3     C 6277   1.164   2.879  11.323  0.6362 -0.2426 -0.1738
  417TMC3     O 6278   1.201   2.760  11.342  0.1525  0.1454 -0.1796
  417TMC3     H 6279   1.089   2.817  11.570 -0.4336  2.6867  2.2896
  417TMC3    H1 6280   0.949   3.020  11.216  0.3601 -0.3058 -0.6313
  417TMC3    H2 6281   0.726   3.033  11.578 -0.1113  1.1952 -1.3573
  417TMC3    C7 6282   0.748   3.108  11.312  0.6179  0.1893 -0.2579
  417TMC3    C8 6283   0.892   2.915  11.727 -0.6121 -0.1666 -0.6004
  417TMC3    O1 6284   0.793   3.182  11.227  0.4951 -0.1062 -0.2435
  417TMC3    O2 6285   0.818   2.996  11.784  0.3492  0.1689 -0.3399
  418TMC3    C1 6286   4.354   0.545   0.531 -0.0075 -0.2260 -0.2707
  418TMC3    C2 6287   4.236   0.505   0.487  0.1951 -0.0779  1.0370
  418TMC3    C3 6288   4.215   0.376   0.489 -0.8418 -0.2985  0.0212
  418TMC3    C4 6289   4.444   0.472   0.602  0.2954  0.5667  0.9936
  418TMC3    C5 6290   4.409   0.338   0.615  0.2823 -0.0219 -0.2947
  418TMC3    C6 6291   4.300   0.287   0.552  0.5471 -0.1610 -0.4316
  418TMC3     C 6292   4.399   0.662   0.454  0.1049 -0.1248 -0.8643
  418TMC3     O 6293   4.306   0.729   0.400  0.1833  0.3713 -0.0244
  418TMC3     H 6294   4.160   0.561   0.433  0.5118  0.6283  1.3207
  418TMC3    H1 6295   4.541   0.512   0.629  1.2697 -1.8927  1.2243
  418TMC3    H2 6296   4.289   0.179   0.550 -0.9302 -0.0515  1.3407
  418TMC3    C7 6297   4.503   0.235   0.661  0.5602 -0.8390  0.2488
  418TMC3    C8 6298   4.112   0.315   0.400 -0.4137  0.0384 -0.1778
  418TMC3    O1 6299   4.458   0.119   0.657 -0.2582  0.5161 -0.1798
  418TMC3    O2 6300   4.024   0.390   0.351  0.3346  0.0388  0.2327
  419MPD2     C 6301   2.538   3.029  12.465  0.1483 -0.0101  0.5907
  419MPD2    C1 6302   2.514   3.163  12.449 -0.7116  0.0890  0.0886
  419MPD2    C2 6303   2.524   3.248  12.559 -0.0296  0.4438  0.4144
  419MPD2    C3 6304   2.546   3.205  12.688 -0.6670 -0.1991 -0.2554
  419MPD2    C4 6305   2.561   3.062  12.701 -0.1201  1.3065 -0.3728
  419MPD2    C5 6306   2.559   2.983  12.584 -0.2366  0.7032 -0.3782
  419MPD2     H 6307   2.516   3.355  12.542 -0.6966 -0.0135 -2.2495
  419MPD2    H1 6308   2.588   3.012  12.793  2.2332  0.3191 -1.6208
  419MPD2    H2 6309   2.534   2.958  12.383  0.4263  1.0841 -0.3791
  419MPD2    H3 6310   2.581   2.877  12.596  0.9582  0.9455 -0.4075
  419MPD2     N 6311   2.555   3.299  12.793 -0.3375 -0.1616 -0.6191
  419MPD2    H5 6312   2.534   3.397  12.777 -0.6775 -0.4046 -1.6548
  419MPD2    N1 6313   2.493   3.218  12.321  0.0664  0.1051  0.0817
  419MPD2    H7 6314   2.486   3.319  12.317  1.0621  0.1451 -0.5533
  420TMC3    C1 6315   2.595   3.360  13.021 -0.4743  0.2410  0.0801
  420TMC3    C2 6316   2.498   3.453  13.017  0.0781  0.0842  0.4136
  420TMC3    C3 6317   2.477   3.530  13.128  0.0838 -0.2256 -0.3349
  420TMC3    C4 6318   2.683   3.354  13.123 -0.2998 -0.0514  0.3095
  420TMC3    C5 6319   2.656   3.434  13.229 -0.2759 -0.2482  0.6380
  420TMC3    C6 6320   2.552   3.524  13.238 -0.1086 -0.4650 -0.0132
  420TMC3     C 6321   2.609   3.261  12.917 -1.1448  0.6590  0.1628
  420TMC3     O 6322   2.685   3.169  12.942  0.3188 -0.2595 -0.1550
  420TMC3     H 6323   2.428   3.455  12.935  1.1037  0.6783 -0.4528
  420TMC3    H1 6324   2.762   3.281  13.140 -0.6519 -1.1059 -2.6008
  420TMC3    H2 6325   2.532   3.579  13.329  0.5935  1.4694 -1.0073
  420TMC3    C7 6326   2.711   3.379  13.350 -0.5431 -0.3379 -0.0785
  420TMC3    C8 6327   2.357   3.620  13.126 -0.0521  0.2508 -0.6062
  420TMC3    O1 6328   2.751   3.263  13.358  0.0501  0.1746  0.4895
  420TMC3    O2 6329   2.319   3.644  13.015  0.5061  0.0222  0.6564
  421TMC3    C1 6330   4.125   4.453  13.618  0.1957 -0.3414  0.2647
  421TMC3    C2 6331   4.089   4.556  13.699  0.2510 -0.6779  0.2871
  421TMC3    C3 6332   4.072   4.532  13.834  0.1642  0.1197  0.1276
  421TMC3    C4 6333   4.157   4.335  13.667 -0.8544 -0.2403 -0.0121
  421TMC3    C5 6334   4.173   4.329  13.803 -0.1396  0.0411  0.4136
  421TMC3    C6 6335   4.110   4.412  13.886 -0.4271 -0.1696 -0.0216
  421TMC3     C 6336   4.102   4.471  13.474  0.2591 -0.2093  0.8509
  421TMC3     O 6337   4.098   4.588  13.441 -0.7211 -0.6206 -0.1085
  421TMC3     H 6338   4.076   4.657  13.662 -0.5404 -1.0377 -0.4168
  421TMC3    H1 6339   4.198   4.254  13.608 -2.6577  0.2247 -1.8905
  421TMC3    H2 6340   4.125   4.394  13.992 -0.5484  0.0197  0.0285
  421TMC3    C7 6341   4.289   4.256  13.859 -0.0892  0.0460  0.4399
  421TMC3    C8 6342   4.084   4.650  13.920  0.1005 -0.1582  0.2139
  421TMC3    O1 6343   4.331   4.296  13.966 -0.0894  0.1504  0.3053
  421TMC3    O2 6344   4.114   0.010  13.864 -0.2346 -0.2401 -0.0379
  422TMC3    C1 6345   2.146   1.199  12.368  0.1611  0.1622  0.1093
  422TMC3    C2 6346   2.133   1.321  12.415  0.1894 -0.5390  0.2178
  422TMC3    C3 6347   2.014   1.341  12.480 -0.0647  0.4165 -0.2031
  422TMC3    C4 6348   2.054   1.097  12.375 -0.6985 -0.3604 -0.1408
  422TMC3    C5 6349   1.944   1.112  12.457 -0.1280 -0.1734 -1.1547
  422TMC3    C6 6350   1.919   1.241  12.498 -0.1473  0.1648  0.2614
  422TMC3     C 6351   2.270   1.172  12.294  0.4416  0.2378  0.1940
  422TMC3     O 6352   2.330   1.271  12.254 -0.1681 -0.6901  0.0805
  422TMC3     H 6353   2.214   1.394  12.412 -2.1268  2.1186  2.5834
  422TMC3    H1 6354   2.061   1.006  12.317  0.7095 -1.0870  1.1597
  422TMC3    H2 6355   1.828   1.250  12.556 -1.0354 -1.1740 -0.9118
  422TMC3    C7 6356   1.821   1.049  12.410  0.4718  0.3144  1.1675
  422TMC3    C8 6357   2.007   1.452  12.566  0.6692  0.0046 -0.1632
  422TMC3    O1 6358   1.824   1.002  12.297  0.1358  0.1324 -0.1547
  422TMC3    O2 6359   2.105   1.525  12.577 -0.4274  0.3085  0.4659
  423MPD2     C 6360   2.615   2.153   0.494 -0.8139 -0.0054 -0.1104
  423MPD2    C1 6361   2.687   2.048   0.539 -0.2694 -0.4328  0.2060
  423MPD2    C2 6362   2.794   2.004   0.465  0.1372  0.1515  0.7931
  423MPD2    C3 6363   2.817   2.058   0.338  0.0378 -0.3710 -0.2346
  423MPD2    C4 6364   2.746   2.169   0.291  0.2547  0.2175 -0.0371
  423MPD2    C5 6365   2.644   2.215   0.371 -0.7019 -0.3461  0.5669
  423MPD2     H 6366   2.848   1.915   0.497 -1.0361  0.1851  2.8527
  423MPD2    H1 6367   2.761   2.209   0.192  3.0189 -1.8503 -0.4742
  423MPD2    H2 6368   2.544   2.212   0.551 -0.7629 -1.8322  1.8506
  423MPD2    H3 6369   2.593   2.303   0.333 -0.3762 -0.2754  0.2975
  423MPD2     N 6370   2.917   2.010   0.244 -0.0982 -0.4716  0.0298
  423MPD2    H5 6371   2.916   2.060   0.156  0.3662  2.1841  1.5310
  423MPD2    N1 6372   2.664   1.982   0.664 -0.8918 -0.7617  0.2730
  423MPD2    H7 6373   2.728   1.907   0.686  0.4494  0.0820 -0.7841
  424TMC3    C1 6374   2.602   1.973   0.883  0.2639 -0.9601 -0.5552
  424TMC3    C2 6375   2.724   1.931   0.926  0.1477 -0.2801  0.5128
  424TMC3    C3 6376   2.755   1.909   1.064  0.8192 -0.2462 -0.0341
  424TMC3    C4 6377   2.509   1.995   0.978  0.2531  0.2094  0.2925
  424TMC3    C5 6378   2.535   1.953   1.107 -0.3787  1.0755  0.6373
  424TMC3    C6 6379   2.653   1.909   1.153  0.8410 -0.3065 -0.5835
  424TMC3     C 6380   2.575   2.032   0.757 -0.0974  0.7952  0.9206
  424TMC3     O 6381   2.479   2.107   0.740 -0.1224 -0.0319  0.1688
  424TMC3     H 6382   2.809   1.927   0.859  0.8022 -0.8174  1.3719
  424TMC3    H1 6383   2.411   2.029   0.950 -0.0614 -0.7470  0.2256
  424TMC3    H2 6384   2.678   1.901   1.259  0.2156  0.9490 -0.3404
  424TMC3    C7 6385   2.444   1.986   1.208  0.4410  0.3668  0.2226
  424TMC3    C8 6386   2.888   1.920   1.110 -0.3215 -0.0521 -0.5047
  424TMC3    O1 6387   2.457   1.930   1.313  0.0716 -0.2670 -0.7733
  424TMC3    O2 6388   2.921   1.847   1.202  0.5773  0.1867  0.2640
  425MPD2     C 6389   2.626   1.065   0.106 -0.1629  0.5041 -0.3958
  425MPD2    C1 6390   2.604   1.092  17.739  0.4743 -0.4035  0.4980
  425MPD2    C2 6391   2.510   1.185  17.708 -0.3715 -0.3836 -0.4836
  425MPD2    C3 6392   2.432   1.244   0.042  0.3352  0.0205  0.4612
  425MPD2    C4 6393   2.465   1.223   0.173  0.2397 -0.3406 -0.5678
  425MPD2    C5 6394   2.553   1.126   0.204 -0.4363 -0.3446  0.0124
  425MPD2     H 6395   2.485   1.193  17.602 -0.2182 -1.7844 -0.6171
  425MPD2    H1 6396   2.401   1.255   0.254  1.2348 -1.1016  0.5305
  425MPD2    H2 6397   2.703   0.992   0.128 -0.4258  0.1514 -0.6633
  425MPD2    H3 6398   2.560   1.104   0.310 -1.7426 -0.8374 -0.0007
  425MPD2     N 6399   2.318   1.310  17.758 -1.1374  0.1221  0.1525
  425MPD2    H5 6400   2.294   1.313  17.659 -2.2179 -0.2761  0.3980
  425MPD2    N1 6401   2.668   1.010  17.642 -0.8714 -0.2119  0.1873
  425MPD2    H7 6402   2.703   0.921  17.676 -1.4873 -0.2218  0.8054
  426TMC3    C1 6403   2.707   0.928  17.417  0.4984 -0.6331  0.3194
  426TMC3    C2 6404   2.635   0.931  17.302  0.4246 -0.0528 -0.3350
  426TMC3    C3 6405   2.593   0.816  17.235 -0.2979  0.2146 -0.3942
  426TMC3    C4 6406   2.749   0.809  17.471 -0.3752 -0.6135 -0.8702
  426TMC3    C5 6407   2.699   0.696  17.409  0.0697  0.1366  0.7282
  426TMC3    C6 6408   2.622   0.693  17.295  0.3928  0.1299  0.1568
  426TMC3     C 6409   2.675   1.036  17.505  0.0284  0.3192 -0.8467
  426TMC3     O 6410   2.663   1.146  17.454  0.7931  0.0131  0.4688
  426TMC3     H 6411   2.614   1.030  17.261  0.0089  0.1171  0.2837
  426TMC3    H1 6412   2.811   0.810  17.560 -1.3857 -1.6176 -0.1537
  426TMC3    H2 6413   2.593   0.601  17.246  2.5837  0.5845 -1.9928
  426TMC3    C7 6414   2.689   0.573  17.490 -0.2948 -0.0365 -0.4026
  426TMC3    C8 6415   2.528   0.824  17.102 -0.2432 -0.3172  0.6750
  426TMC3    O1 6416   2.795   0.539  17.540  0.5790  0.2791 -0.0237
  426TMC3    O2 6417   2.535   0.723  17.035 -0.1558 -0.1934 -0.7535
  427MPD2     C 6418   0.969   2.984  14.821 -0.3328  0.3374 -0.2261
  427MPD2    C1 6419   0.915   2.995  14.943  0.2113  0.2628 -0.6346
  427MPD2    C2 6420   0.796   3.063  14.953 -0.7522 -0.2900 -0.3964
  427MPD2    C3 6421   0.724   3.106  14.846 -0.8005  0.0766  0.1920
  427MPD2    C4 6422   0.783   3.077  14.721 -0.3454  0.1490  0.0753
  427MPD2    C5 6423   0.910   3.029  14.709  0.4013 -0.0339 -0.6399
  427MPD2     H 6424   0.751   3.079  15.050 -0.2973  1.4849 -0.4836
  427MPD2    H1 6425   0.739   3.105  14.626 -0.9584  4.3480  1.5844
  427MPD2    H2 6426   1.067   2.940  14.807 -0.3548 -0.6967  2.9024
  427MPD2    H3 6427   0.955   3.011  14.612  2.3980  2.5401 -0.1801
  427MPD2     N 6428   0.594   3.162  14.858  0.0202  0.0563 -0.0449
  427MPD2    H5 6429   0.544   3.170  14.770  0.7240  1.8411 -0.2719
  427MPD2    N1 6430   0.987   2.955  15.059  0.4868  0.3745 -1.2695
  427MPD2    H7 6431   1.083   2.922  15.058  0.7915  1.2196 -0.1254
  428TMC3    C1 6432   1.006   2.903  15.294  0.1928 -0.0707 -0.0849
  428TMC3    C2 6433   0.958   2.834  15.401  0.1919  0.4377 -0.4986
  428TMC3    C3 6434   1.045   2.808  15.503 -0.3580  0.0795  0.2324
  428TMC3    C4 6435   1.141   2.937  15.287 -0.4067 -0.3132 -0.4824
  428TMC3    C5 6436   1.221   2.902  15.390 -0.5010 -0.5532  0.4109
  428TMC3    C6 6437   1.177   2.848  15.505  0.4333 -0.2438 -0.3730
  428TMC3     C 6438   0.923   2.925  15.174  0.5265  0.4757 -0.4176
  428TMC3     O 6439   0.804   2.909  15.200 -0.4594  0.8276 -0.8973
  428TMC3     H 6440   0.855   2.801  15.413  0.4177 -0.1414 -0.1240
  428TMC3    H1 6441   1.180   3.001  15.208  0.4556  0.4345  0.5487
  428TMC3    H2 6442   1.246   2.798  15.572  0.2129  1.1420  0.9028
  428TMC3    C7 6443   1.357   2.949  15.394 -0.5123 -0.1467  0.4575
  428TMC3    C8 6444   1.013   2.696  15.589 -0.1972  0.3873  0.5146
  428TMC3    O1 6445   1.410   2.959  15.503  0.5393  0.2331  0.7225
  428TMC3    O2 6446   0.954   2.601  15.536  0.1051 -0.1162  0.0042
  429MPD2     C 6447   1.756   3.700   0.012  0.0955  0.6712 -0.3096
  429MPD2    C1 6448   1.896   3.688  17.758  0.4657  0.3356 -0.3376
  429MPD2    C2 6449   1.960   3.739  17.655 -0.0774 -0.1269 -0.2111
  429MPD2    C3 6450   1.892   3.806  17.561  0.1843 -0.7493  0.5390
  429MPD2    C4 6451   1.751   3.808  17.563  0.4971  0.1895  0.1196
  429MPD2    C5 6452   1.684   3.760  17.676 -0.3228 -0.1366 -0.2717
  429MPD2     H 6453   2.068   3.732  17.657 -0.0266  0.9945  0.9890
  429MPD2    H1 6454   1.693   3.850  17.482  2.1743  0.7973 -0.7855
  429MPD2    H2 6455   1.704   3.687   0.106  0.7289 -1.9843 -0.3252
  429MPD2    H3 6456   1.577   3.760  17.694 -0.1787  0.3233  0.5974
  429MPD2     N 6457   1.969   3.854  17.455  0.1528 -0.4785  0.0538
  429MPD2    H5 6458   2.067   3.833  17.468  0.3305  0.5949  0.3954
  429MPD2    N1 6459   1.979   3.621   0.089  0.4532 -0.4064  0.1073
  429MPD2    H7 6460   2.077   3.611   0.068  0.3361 -2.5104  0.6013
  430TMC3    C1 6461   2.021   3.960  17.255  0.5917 -0.1622  0.2671
  430TMC3    C2 6462   2.000   4.060  17.158  0.1120  0.5823 -0.1979
  430TMC3    C3 6463   2.100   4.081  17.065  0.7870  0.9064  0.4591
  430TMC3    C4 6464   2.137   3.884  17.256  0.8051 -0.1873 -0.0494
  430TMC3    C5 6465   2.226   3.912  17.156 -0.0182 -0.3453  0.5277
  430TMC3    C6 6466   2.213   4.013  17.061  0.3243  0.2735  0.4192
  430TMC3     C 6467   1.925   3.945  17.366 -0.4168 -0.0180 -0.1739
  430TMC3     O 6468   1.821   4.012  17.371 -0.3882  0.3018 -0.3640
  430TMC3     H 6469   1.913   4.123  17.167 -0.5352 -0.4160  0.5401
  430TMC3    H1 6470   2.148   3.791  17.310 -0.5330 -1.5815 -2.2161
  430TMC3    H2 6471   2.295   4.040  16.995  0.5198 -1.9330 -0.2204
  430TMC3    C7 6472   2.291   3.795  17.097  0.6583 -0.3178 -0.2027
  430TMC3    C8 6473   2.080   4.152  16.940 -0.3689 -0.0128 -0.4095
  430TMC3    O1 6474   2.226   3.701  17.052  0.3053 -0.4297  0.1332
  430TMC3    O2 6475   2.168   4.138  16.857  0.1311 -0.8657 -0.1243
  431MPD2     C 6476   2.618   3.962  12.300  0.6466 -0.4362 -0.2982
  431MPD2    C1 6477   2.690   3.884  12.215  0.3868 -0.5626  0.2101
  431MPD2    C2 6478   2.627   3.786  12.143 -0.2730 -0.0378 -0.4309
  431MPD2    C3 6479   2.495   3.746  12.168 -0.2330  0.3784  0.1737
  431MPD2    C4 6480   2.426   3.821  12.262  0.5541  0.2670 -0.0224
  431MPD2    C5 6481   2.487   3.926  12.326  0.2675 -0.0042  0.5600
  431MPD2     H 6482   2.693   3.731  12.077  1.8393  0.1988  1.5096
  431MPD2    H1 6483   2.325   3.796  12.292  0.2434  2.2076  0.5202
  431MPD2    H2 6484   2.664   4.041  12.358  2.6272 -0.6874 -1.5012
  431MPD2    H3 6485   2.434   3.970  12.410 -1.0968 -0.8431  0.1318
  431MPD2     N 6486   2.435   3.638  12.097  0.5635  0.3939  0.0513
  431MPD2    H5 6487   2.341   3.609  12.125  1.7162 -0.7087  2.7694
  431MPD2    N1 6488   2.831   3.897  12.192  0.4410 -0.9246  1.2229
  431MPD2    H7 6489   2.860   3.848  12.108  2.4908  1.9272  0.2658
  432TMC3    C1 6490   2.460   3.442  11.979 -0.4059  0.8989  0.7300
  432TMC3    C2 6491   2.482   3.389  11.860 -0.0687 -0.4794 -2.0344
  432TMC3    C3 6492   2.492   3.256  11.850  0.2264  0.7300 -0.4604
  432TMC3    C4 6493   2.453   3.373  12.094  0.7800 -0.5894  0.5251
  432TMC3    C5 6494   2.470   3.237  12.082  0.1358  0.8301 -0.1875
  432TMC3    C6 6495   2.477   3.174  11.963  0.0256  0.1977 -0.4779
  432TMC3     C 6496   2.499   3.580  11.994  0.2982  0.4368 -0.4794
  432TMC3     O 6497   2.574   3.635  11.910 -0.8723  0.1560 -0.1852
  432TMC3     H 6498   2.506   3.458  11.780  0.4410  0.3352 -1.1785
  432TMC3    H1 6499   2.449   3.424  12.190  1.4076 -0.1140  0.2985
  432TMC3    H2 6500   2.496   3.067  11.963 -0.1323  0.1749  0.9073
  432TMC3    C7 6501   2.499   3.153  12.198 -0.2401  0.0513 -0.3665
  432TMC3    C8 6502   2.571   3.206  11.738 -0.6735 -0.0002  0.3112
  432TMC3    O1 6503   2.520   3.033  12.182  0.3789  0.0469  0.9074
  432TMC3    O2 6504   2.562   3.252  11.624  0.3381  0.5566  0.2283
  433MPD2     C 6505   1.788   1.833  10.475  0.0444 -0.6653 -0.2941
  433MPD2    C1 6506   1.910   1.774  10.517 -0.3532  0.3270  0.4470
  433MPD2    C2 6507   1.964   1.815  10.639  0.4690 -0.5000  0.5508
  433MPD2    C3 6508   1.898   1.910  10.722  0.6879  0.0924 -0.1803
  433MPD2    C4 6509   1.776   1.968  10.673  0.1093 -0.0502 -0.0919
  433MPD2    C5 6510   1.725   1.928  10.555  0.4252 -0.0500  0.3784
  433MPD2     H 6511   2.061   1.779  10.672  1.4609  0.0020 -1.8243
  433MPD2    H1 6512   1.723   2.038  10.737  0.9829 -0.3393  0.9613
  433MPD2    H2 6513   1.743   1.796  10.384 -0.4776 -0.1439 -0.2526
  433MPD2    H3 6514   1.631   1.973  10.527  0.6843  0.7427  0.8167
  433MPD2     N 6515   1.951   1.962  10.846 -0.3736 -0.1658  0.2674
  433MPD2    H5 6516   1.894   2.024  10.903 -1.3190 -0.5733 -0.2423
  433MPD2    N1 6517   1.960   1.658  10.450 -0.0279  0.1431 -0.0237
  433MPD2    H7 6518   1.899   1.613  10.382  0.6465  0.9992 -1.2010
  434TMC3    C1 6519   2.126   1.483  10.429  0.5789  0.1239 -0.7766
  434TMC3    C2 6520   2.252   1.441  10.476 -0.1579  0.2195  0.2320
  434TMC3    C3 6521   2.258   1.320  10.528 -0.0731  0.1036 -0.9750
  434TMC3    C4 6522   2.027   1.395  10.413 -0.8233 -0.4712  0.2523
  434TMC3    C5 6523   2.045   1.264  10.448  0.1463  0.0339 -1.0435
  434TMC3    C6 6524   2.155   1.223  10.514  0.2029  0.1259  0.1790
  434TMC3     C 6525   2.093   1.615  10.468 -0.1670 -0.6744  0.0983
  434TMC3     O 6526   2.182   1.681  10.513 -0.1861 -0.9952 -0.2257
  434TMC3     H 6527   2.330   1.511  10.505  0.4062 -0.1036 -0.5246
  434TMC3    H1 6528   1.941   1.426  10.354  0.1030 -1.4520 -1.6156
  434TMC3    H2 6529   2.172   1.119  10.538  0.2821  0.2051  0.4685
  434TMC3    C7 6530   1.930   1.180  10.421  0.7948 -0.3816  0.8221
  434TMC3    C8 6531   2.378   1.309  10.619 -0.2776  0.2445  0.5437
  434TMC3    O1 6532   1.862   1.204  10.323 -0.3027 -0.3915  0.3530
  434TMC3    O2 6533   2.464   1.398  10.626 -0.7250 -0.4085  0.4420
  435MPD2     C 6534   3.888   2.177  15.676 -0.0950  0.1553 -0.6387
  435MPD2    C1 6535   3.862   2.160  15.811  1.1387  0.2855  0.0736
  435MPD2    C2 6536   3.956   2.100  15.891 -0.0032  0.4826 -0.7058
  435MPD2    C3 6537   4.084   2.069  15.854 -0.2792 -0.1429 -0.2978
  435MPD2    C4 6538   4.117   2.095  15.721  0.2389 -0.3419  0.1781
  435MPD2    C5 6539   4.015   2.146  15.639 -0.0219  0.7235 -0.2696
  435MPD2     H 6540   3.933   2.095  15.997  0.8561 -0.3249 -0.5618
  435MPD2    H1 6541   4.218   2.079  15.685  0.3457 -1.3230  0.9216
  435MPD2    H2 6542   3.809   2.198  15.604  0.1631 -1.9573 -1.5270
  435MPD2    H3 6543   4.037   2.161  15.534 -1.1074 -1.7935 -0.8626
  435MPD2     N 6544   4.182   2.027  15.951 -0.9738  0.1868  0.2220
  435MPD2    H5 6545   4.146   2.010  16.045 -0.0085  0.2813  0.6063
  435MPD2    N1 6546   3.727   2.166  15.861 -0.6491  0.1079  0.0600
  435MPD2    H7 6547   3.705   2.100  15.935  0.4293 -1.1202 -0.7123
  436TMC3    C1 6548   3.361   2.154  16.028 -0.1993  0.0822 -0.5386
  436TMC3    C2 6549   3.484   2.149  15.969  0.2712 -0.3047 -0.7922
  436TMC3    C3 6550   3.498   2.207  15.842  0.1954  0.1480  0.1423
  436TMC3    C4 6551   3.249   2.192  15.959 -0.0730  0.0598 -0.4656
  436TMC3    C5 6552   3.265   2.227  15.826 -0.6594  0.3708  0.0896
  436TMC3    C6 6553   3.392   2.243  15.770  0.3949  0.3953  0.5134
  436TMC3     C 6554   3.348   2.099  16.163 -0.1404  0.3243 -0.5364
  436TMC3     O 6555   3.417   1.999  16.186 -0.0638  0.0976 -0.4757
  436TMC3     H 6556   3.565   2.116  16.033 -1.6883 -1.4166  1.0986
  436TMC3    H1 6557   3.149   2.186  15.999  0.6227 -1.0078  1.1138
  436TMC3    H2 6558   3.403   2.274  15.667  0.3708 -1.7298 -0.1324
  436TMC3    C7 6559   3.141   2.264  15.749 -0.5181  0.7891 -0.1396
  436TMC3    C8 6560   3.629   2.236  15.799 -0.6020 -0.0428 -0.0338
  436TMC3    O1 6561   3.168   2.324  15.646  0.3964  0.2256 -0.6946
  436TMC3    O2 6562   3.648   2.327  15.725  0.0503  0.6380 -0.0877
  437TMC3    C1 6563   2.085   4.331  12.752  0.1731  0.5490  0.1193
  437TMC3    C2 6564   2.007   4.447  12.761  0.0946  0.1103  0.4252
  437TMC3    C3 6565   1.999   4.526  12.650 -0.6542 -0.3026  0.1409
  437TMC3    C4 6566   2.147   4.297  12.635 -0.2343 -0.4095  0.4449
  437TMC3    C5 6567   2.127   4.378  12.522 -0.1435  0.0286  0.1915
  437TMC3    C6 6568   2.045   4.484  12.526 -0.0347 -0.1046 -0.5608
  437TMC3     C 6569   2.102   4.247  12.873  0.2679 -0.0811 -0.5010
  437TMC3     O 6570   2.028   4.267  12.971 -0.2691  0.0447  0.8542
  437TMC3     H 6571   1.960   4.461  12.859 -1.4090 -2.0442  0.0293
  437TMC3    H1 6572   2.187   4.199  12.611 -2.3603 -1.3300  0.6660
  437TMC3    H2 6573   2.046   4.555  12.444 -2.4222  0.9021  0.2915
  437TMC3    C7 6574   2.215   4.360  12.412  0.3826 -0.1502 -0.0023
  437TMC3    C8 6575   1.911   4.636  12.637 -0.0130  0.2842  1.2664
  437TMC3    O1 6576   2.182   4.416  12.308  0.8387 -0.0947  0.0464
  437TMC3    O2 6577   1.837   4.640  12.543  0.0989 -0.0009 -0.1732
  438MPD2     C 6578   0.140   0.102  16.490 -0.5879  0.9877  0.2203
  438MPD2    C1 6579   0.216   0.022  16.576  0.4299 -0.0210  0.4079
  438MPD2    C2 6580   0.219   0.051  16.713 -0.1788  0.2140 -0.2400
  438MPD2    C3 6581   0.142   0.151  16.761  0.2438 -0.0259  0.2707
  438MPD2    C4 6582   0.053   0.223  16.677  0.0117  0.7665 -0.5234
  438MPD2    C5 6583   0.052   0.198  16.543  0.0759 -0.0630 -0.0377
  438MPD2     H 6584   0.292   0.006  16.780 -0.3659  0.0569 -0.1420
  438MPD2    H1 6585   4.710   0.284  16.711  0.1457  0.8481 -0.3373
  438MPD2    H2 6586   0.147   0.088  16.383  0.3492 -0.3328  0.4430
  438MPD2    H3 6587   4.735   0.251  16.468  0.5984 -0.8549 -1.0097
  438MPD2     N 6588   0.142   0.187  16.894 -0.0606  0.2442  0.6260
  438MPD2    H5 6589   0.080   0.264  16.919 -0.8611 -1.2104  3.1294
  438MPD2    N1 6590   0.301   4.659  16.523 -0.1342 -0.0995  0.0384
  438MPD2    H7 6591   0.361   4.612  16.589  0.9080  0.6525 -0.3665
  439TMC3    C1 6592   0.422   4.514  16.371  0.3830 -0.0923  1.1421
  439TMC3    C2 6593   0.418   4.446  16.253  0.9804  1.4259 -0.4249
  439TMC3    C3 6594   0.513   4.350  16.236  0.3070  0.2948 -0.1355
  439TMC3    C4 6595   0.511   4.489  16.478 -0.0136  0.2981  0.8331
  439TMC3    C5 6596   0.598   4.386  16.449  1.1146  0.3562 -0.1844
  439TMC3    C6 6597   0.611   4.325  16.327  0.6143  0.3802  0.1246
  439TMC3     C 6598   0.323   4.620  16.391  0.2047  0.1075  0.7552
  439TMC3     O 6599   0.271   4.661  16.288 -0.3791  0.3436 -0.0722
  439TMC3     H 6600   0.354   4.474  16.170  0.4909  0.1968 -0.4590
  439TMC3    H1 6601   0.514   4.545  16.570  0.8348 -1.4309  1.8604
  439TMC3    H2 6602   0.683   4.244  16.315 -1.2221 -1.1496 -0.5299
  439TMC3    C7 6603   0.671   4.326  16.557 -0.2145  0.5489  0.0217
  439TMC3    C8 6604   0.525   4.281  16.108 -0.5953  0.5353 -0.0534
  439TMC3    O1 6605   0.686   4.401  16.654 -0.7424 -0.1396  0.3446
  439TMC3    O2 6606   0.617   4.206  16.099  0.3168  0.0679  0.7194
  440MPD2     C 6607   3.099   0.651  15.349  0.5367 -0.5030  0.7846
  440MPD2    C1 6608   3.200   0.746  15.372 -0.0584  0.9956  0.1272
  440MPD2    C2 6609   3.320   0.704  15.320 -0.4039 -0.4818  0.0799
  440MPD2    C3 6610   3.354   0.574  15.265  0.0828  0.2332 -0.3410
  440MPD2    C4 6611   3.250   0.482  15.261 -0.5632  0.0936 -0.3761
  440MPD2    C5 6612   3.126   0.527  15.292  0.2587 -0.2128 -0.1575
  440MPD2     H 6613   3.401   0.776  15.325 -3.6628  3.3737 -3.0050
  440MPD2    H1 6614   3.266   0.390  15.205 -3.7099 -1.4836  1.3207
  440MPD2    H2 6615   2.993   0.665  15.368 -0.2004 -0.8991 -3.0003
  440MPD2    H3 6616   3.042   0.458  15.289  0.7089 -0.6689 -2.6886
  440MPD2     N 6617   3.485   0.527  15.238 -0.5787  0.1374  0.5043
  440MPD2    H5 6618   3.499   0.434  15.201  0.4603  0.2364  0.6240
  440MPD2    N1 6619   3.177   0.866  15.439 -0.2557 -0.5130  0.5246
  440MPD2    H7 6620   3.249   0.936  15.431 -2.2991  1.8170  2.4763
  441TMC3    C1 6621   3.721   0.519  15.202  0.2271 -0.2329  0.7584
  441TMC3    C2 6622   3.829   0.600  15.192 -0.0469  0.0588 -0.7072
  441TMC3    C3 6623   3.944   0.579  15.266 -0.8849  0.4530 -0.5419
  441TMC3    C4 6624   3.735   0.416  15.294 -0.1760 -0.1869  0.6840
  441TMC3    C5 6625   3.863   0.385  15.346  0.0358 -0.4729  0.1778
  441TMC3    C6 6626   3.971   0.462  15.328 -0.1856  0.3614  0.1655
  441TMC3     C 6627   3.596   0.599  15.220 -0.2163  0.1756  0.7184
  441TMC3     O 6628   3.608   0.722  15.219  0.7834 -0.1459 -0.4213
  441TMC3     H 6629   3.827   0.688  15.129  0.1421  0.2069 -0.5047
  441TMC3    H1 6630   3.648   0.355  15.314 -0.1102 -0.6119 -0.3744
  441TMC3    H2 6631   4.070   0.439  15.365  0.4197 -0.8699 -2.2549
  441TMC3    C7 6632   3.869   0.286  15.449 -1.3263 -0.0427 -0.2031
  441TMC3    C8 6633   3.985   0.697  15.336 -0.2641  0.0633 -0.1873
  441TMC3    O1 6634   3.768   0.231  15.488 -0.0269 -0.1813 -0.6101
  441TMC3    O2 6635   4.087   0.699  15.404 -0.6399  0.1387 -0.1352
  442MPD2     C 6636   1.889   0.752  16.849  0.7645 -0.3264  0.2343
  442MPD2    C1 6637   1.767   0.715  16.796 -0.2349  1.2524 -0.4777
  442MPD2    C2 6638   1.760   0.640  16.679  0.8057  0.1546  0.2103
  442MPD2    C3 6639   1.883   0.597  16.619 -0.1838 -0.5355  0.4082
  442MPD2    C4 6640   2.000   0.639  16.675  0.8509 -0.8928  0.7165
  442MPD2    C5 6641   1.997   0.723  16.776 -0.6389 -0.2667  0.4251
  442MPD2     H 6642   1.665   0.617  16.634  0.2242  3.2056 -0.1006
  442MPD2    H1 6643   2.093   0.623  16.622  0.2120 -1.5964 -0.1939
  442MPD2    H2 6644   1.897   0.805  16.944 -3.9377 -0.8237  0.9110
  442MPD2    H3 6645   2.091   0.769  16.804  0.4287 -1.9049 -0.4281
  442MPD2     N 6646   1.886   0.499  16.520 -0.7252 -0.0254  0.0275
  442MPD2    H5 6647   1.977   0.460  16.498 -1.3546 -0.5748 -1.6184
  442MPD2    N1 6648   1.645   0.729  16.868 -0.1034  0.1583 -0.4462
  442MPD2    H7 6649   1.562   0.683  16.831  0.3374 -0.5580 -0.5433
  443TMC3    C1 6650   1.503   0.835  17.003  0.0801  0.0030  0.1374
  443TMC3    C2 6651   1.437   0.939  16.955  0.1135  0.0478 -0.3823
  443TMC3    C3 6652   1.304   0.927  16.918  0.3073  0.2245  0.3590
  443TMC3    C4 6653   1.430   0.724  17.033 -0.9799 -0.5212  0.1982
  443TMC3    C5 6654   1.295   0.720  17.024 -0.3606 -0.3189 -0.6861
  443TMC3    C6 6655   1.222   0.823  16.962 -0.8992  0.1230 -0.2066
  443TMC3     C 6656   1.631   0.825  16.959 -0.0633 -0.1825 -1.1322
  443TMC3     O 6657   1.705   0.914  16.995 -0.6956  0.3902 -0.1420
  443TMC3     H 6658   1.510   1.003  16.907 -1.2262  2.6419  0.9991
  443TMC3    H1 6659   1.493   0.640  17.056  0.8267  1.0301  0.8997
  443TMC3    H2 6660   1.119   0.816  16.929 -1.8443  1.5141  2.4070
  443TMC3    C7 6661   1.235   0.588  17.043  0.6403  0.7415  0.3507
  443TMC3    C8 6662   1.282   0.962  16.775 -0.2013 -0.1196 -0.1640
  443TMC3    O1 6663   1.148   0.550  16.968 -0.0544 -0.3257  0.3211
  443TMC3    O2 6664   1.211   0.885  16.712 -0.1436 -0.3923 -0.2662
  444MPD2     C 6665   2.220   0.447  16.869  0.2098  0.3476 -0.2447
  444MPD2    C1 6666   2.149   0.338  16.913  0.1528 -0.3606 -0.6587
  444MPD2    C2 6667   2.179   0.209  16.869 -0.0447  0.4475 -0.5174
  444MPD2    C3 6668   2.302   0.188  16.807 -0.4386  0.6001 -0.0896
  444MPD2    C4 6669   2.381   0.300  16.775  0.1341 -0.4951  0.8635
  444MPD2    C5 6670   2.344   0.428  16.800  0.1585  0.0090 -0.3888
  444MPD2     H 6671   2.111   0.125  16.875  1.8010 -0.8921  2.0032
  444MPD2    H1 6672   2.478   0.296  16.726 -0.1736  0.7210  0.1451
  444MPD2    H2 6673   2.196   0.548  16.900  3.8188  0.6948  1.3867
  444MPD2    H3 6674   2.405   0.512  16.768  0.5534 -0.5435 -1.1015
  444MPD2     N 6675   2.340   0.060  16.766 -0.5571  0.2988 -0.2632
  444MPD2    H5 6676   2.275   4.725  16.784 -2.2227  2.6574  3.6196
  444MPD2    N1 6677   2.021   0.359  16.978 -0.0559  0.4483  0.6002
  444MPD2    H7 6678   1.961   0.279  16.960  1.0188  0.2707 -2.2326
  445TMC3    C1 6679   2.479   4.619  16.711 -0.7590  0.1769 -0.0566
  445TMC3    C2 6680   2.427   4.549  16.814 -0.3509  0.2707 -0.2817
  445TMC3    C3 6681   2.452   4.412  16.805  0.3831 -0.8772  0.4145
  445TMC3    C4 6682   2.556   4.568  16.609  0.1387 -0.6524  0.0306
  445TMC3    C5 6683   2.584   4.433  16.618 -0.7649  0.9835  0.4941
  445TMC3    C6 6684   2.531   4.350  16.716  0.2908  0.1783  0.0506
  445TMC3     C 6685   2.464   0.027  16.705  0.1331  0.4916 -0.3997
  445TMC3     O 6686   2.546   0.091  16.634 -0.3128  0.1460  0.0114
  445TMC3     H 6687   2.380   4.594  16.900  0.8085 -0.4647  0.7263
  445TMC3    H1 6688   2.597   4.632  16.531 -2.6978  0.2325 -0.7021
  445TMC3    H2 6689   2.558   4.247  16.739  1.0069  0.1418 -0.9378
  445TMC3    C7 6690   2.698   4.388  16.539  0.4779 -0.7018 -0.0403
  445TMC3    C8 6691   2.451   4.344  16.933  0.1853 -0.1393  0.6700
  445TMC3    O1 6692   2.740   4.487  16.475 -0.0034  0.1846 -0.0365
  445TMC3    O2 6693   2.431   4.225  16.928 -0.6933  0.4735 -0.0738
  446MPD2     C 6694   1.950   1.225  10.878  0.8357  0.2978  0.5731
  446MPD2    C1 6695   1.894   1.315  10.792 -0.3339  0.0690  0.5653
  446MPD2    C2 6696   1.974   1.425  10.752 -0.2493 -0.9227 -0.2799
  446MPD2    C3 6697   2.100   1.446  10.815 -0.7542  0.3577  0.4907
  446MPD2    C4 6698   2.144   1.347  10.893  0.4051  0.0373 -0.7741
  446MPD2    C5 6699   2.074   1.235  10.925 -0.3815 -0.0019 -0.3604
  446MPD2     H 6700   1.934   1.492  10.677  0.6705 -1.7592 -1.5266
  446MPD2    H1 6701   2.237   1.346  10.948 -0.7831 -0.8269  1.2185
  446MPD2    H2 6702   1.893   1.139  10.910  1.1683  0.4037  1.4721
  446MPD2    H3 6703   2.115   1.170  11.001 -1.3246 -1.8189 -1.4263
  446MPD2     N 6704   2.192   1.544  10.782  0.2608  0.6500 -0.4643
  446MPD2    H5 6705   2.186   1.590  10.692  0.9645  0.3204 -0.6758
  446MPD2    N1 6706   1.759   1.288  10.735 -0.0006  0.0466 -0.0810
  446MPD2    H7 6707   1.728   1.350  10.661  0.6015  0.1478 -0.2420
  447TMC3    C1 6708   2.394   1.652  10.824 -0.1276  0.7581  0.6644
  447TMC3    C2 6709   2.393   1.741  10.720  0.2891 -0.3523 -0.6159
  447TMC3    C3 6710   2.501   1.831  10.701  0.7694  0.0727 -0.0386
  447TMC3    C4 6711   2.493   1.640  10.914  0.1798 -0.3886  0.4509
  447TMC3    C5 6712   2.597   1.722  10.887 -0.1634  0.6255  0.5450
  447TMC3    C6 6713   2.608   1.808  10.781  0.0669 -0.3231 -0.8033
  447TMC3     C 6714   2.267   1.597  10.880 -0.1608 -0.0723  0.0391
  447TMC3     O 6715   2.271   1.575  11.002  0.3585 -0.3187  0.0798
  447TMC3     H 6716   2.299   1.764  10.672  0.0367 -2.3024 -1.0451
  447TMC3    H1 6717   2.494   1.568  10.995  0.6431 -0.6809  0.1847
  447TMC3    H2 6718   2.699   1.865  10.765  1.5053 -2.3470  0.1060
  447TMC3    C7 6719   2.714   1.655  10.935  0.5053  0.4536  0.2009
  447TMC3    C8 6720   2.503   1.912  10.584  0.0554 -0.4150  0.4400
  447TMC3    O1 6721   2.717   1.532  10.934 -0.1644 -0.0208  0.3033
  447TMC3    O2 6722   2.396   1.959  10.539  0.1039 -0.7433 -0.5378
  448TMC3    C1 6723   4.589   1.134  17.217  0.5553 -0.3397 -0.2440
  448TMC3    C2 6724   4.614   1.051  17.106 -0.8511  0.0538  0.6147
  448TMC3    C3 6725   4.679   0.931  17.132 -0.0058  0.7495 -0.7754
  448TMC3    C4 6726   4.637   1.100  17.338  0.1361 -0.0452  0.1107
  448TMC3    C5 6727   4.716   0.984  17.349 -0.3997 -0.2638  0.3944
  448TMC3    C6 6728   0.006   0.905  17.245  0.2221  0.4221 -0.7846
  448TMC3     C 6729   4.555   1.270  17.201  0.0811  0.2702  0.2960
  448TMC3     O 6730   4.505   1.324  17.299  0.5388 -0.1637  0.2351
  448TMC3     H 6731   4.563   1.070  17.013  1.0993 -1.9846 -0.8980
  448TMC3    H1 6732   4.614   1.165  17.421  0.6088  0.6140 -0.2783
  448TMC3    H2 6733   0.057   0.809  17.253  2.0474  1.4172 -0.4658
  448TMC3    C7 6734   0.064   0.968  17.465 -0.4455 -0.2902  0.7088
  448TMC3    C8 6735   4.725   0.860  17.020  0.1461  0.3742  0.3594
  448TMC3    O1 6736   0.028   1.015  17.573 -0.3925 -0.5953  0.2073
  448TMC3    O2 6737   0.029   0.749  17.043  0.9487  0.4762  0.4151
  449MPD2     C 6738   1.323   0.146  14.089 -0.9062  0.1053 -0.9188
  449MPD2    C1 6739   1.244   0.229  14.006  0.1871 -0.3534  0.9934
  449MPD2    C2 6740   1.102   0.219  14.010 -0.9382  0.4305 -0.2710
  449MPD2    C3 6741   1.045   0.106  14.063 -0.4896 -0.8766 -0.3993
  449MPD2    C4 6742   1.121   0.018  14.137  0.3451  0.9417 -0.0080
  449MPD2    C5 6743   1.255   0.049  14.155  0.2365 -0.3583  0.2203
  449MPD2     H 6744   1.045   0.291  13.954 -0.6758 -0.3874 -1.5994
  449MPD2    H1 6745   1.099   4.667  14.190 -2.7162  0.7208 -1.6460
  449MPD2    H2 6746   1.428   0.165  14.109 -0.2532 -3.4593 -0.9367
  449MPD2    H3 6747   1.309   4.724  14.221  1.8421  0.7425  0.0043
  449MPD2     N 6748   0.914   0.082  14.039 -0.6632  0.2602 -0.0443
  449MPD2    H5 6749   0.867   0.146  13.977 -0.5506  0.9095  0.5438
  449MPD2    N1 6750   1.299   0.337  13.923 -0.2275 -0.2716  0.0518
  449MPD2    H7 6751   1.230   0.382  13.864 -1.2884 -2.3158 -0.2675
  450TMC3    C1 6752   1.435   0.510  13.844  0.1115  0.5903  0.4841
  450TMC3    C2 6753   1.512   0.508  13.736 -0.3968  0.7898 -0.0636
  450TMC3    C3 6754   1.462   0.570  13.617 -0.1329  0.0577 -0.3183
  450TMC3    C4 6755   1.327   0.587  13.857 -0.0792  0.4558  0.3394
  450TMC3    C5 6756   1.281   0.643  13.743  0.4794  0.1605 -0.7171
  450TMC3    C6 6757   1.346   0.640  13.618  0.0565  0.1630  0.6712
  450TMC3     C 6758   1.428   0.374  13.904 -0.2736 -0.2785 -0.5577
  450TMC3     O 6759   1.525   0.309  13.935 -0.0273 -0.6957 -0.1493
  450TMC3     H 6760   1.602   0.449  13.726 -0.8918  0.4007 -2.2152
  450TMC3    H1 6761   1.282   0.598  13.954 -2.2267 -0.7898 -0.5267
  450TMC3    H2 6762   1.305   0.683  13.527  0.1712 -0.9541  0.0904
  450TMC3    C7 6763   1.144   0.602  13.745  0.3978  0.3803  0.1730
  450TMC3    C8 6764   1.548   0.577  13.502 -0.0214  0.3216 -0.5978
  450TMC3    O1 6765   1.104   0.541  13.846  0.2270  0.6405  0.1581
  450TMC3    O2 6766   1.541   0.685  13.441 -0.0451 -0.0335 -0.0136
  451MPD2     C 6767   3.398   3.796   1.569  0.4851 -0.0148 -0.1772
  451MPD2    C1 6768   3.458   3.784   1.447 -0.5038 -0.5608 -0.2343
  451MPD2    C2 6769   3.549   3.681   1.417 -1.2571  0.2372 -0.1832
  451MPD2    C3 6770   3.572   3.593   1.521 -0.0905  0.5527 -0.5210
  451MPD2    C4 6771   3.521   3.608   1.644 -0.6945 -0.6945  0.4648
  451MPD2    C5 6772   3.443   3.716   1.678  0.0048 -0.4186  0.2727
  451MPD2     H 6773   3.591   3.665   1.318 -0.2121 -1.8239  0.6023
  451MPD2    H1 6774   3.536   3.543   1.730  0.4011  0.7245  1.3494
  451MPD2    H2 6775   3.332   3.882   1.575 -0.4205 -0.8152  1.3395
  451MPD2    H3 6776   3.400   3.718   1.777 -1.5252 -1.2830 -0.3856
  451MPD2     N 6777   3.621   3.461   1.493 -0.1339 -0.7112 -0.1265
  451MPD2    H5 6778   3.605   3.391   1.565 -1.5799 -2.1653 -1.8450
  451MPD2    N1 6779   3.426   3.880   1.346  0.3109  0.0884 -0.3724
  451MPD2    H7 6780   3.354   3.949   1.366  0.2753 -0.3085  0.8789
  452TMC3    C1 6781   3.698   3.284   1.364  0.0412 -0.2479  0.9572
  452TMC3    C2 6782   3.651   3.193   1.456  0.2060  0.2381  0.4227
  452TMC3    C3 6783   3.621   3.067   1.410  0.6815 -0.4642  0.2072
  452TMC3    C4 6784   3.749   3.243   1.241 -0.1473 -0.1398 -0.1128
  452TMC3    C5 6785   3.736   3.108   1.208  0.0111  0.4217  0.2051
  452TMC3    C6 6786   3.664   3.021   1.285 -0.7176 -0.1928  0.2086
  452TMC3     C 6787   3.691   3.424   1.382 -0.0142 -0.6621  0.7013
  452TMC3     O 6788   3.756   3.493   1.302  0.0320  0.3084  0.4982
  452TMC3     H 6789   3.617   3.229   1.553  1.7096 -0.4283  1.1963
  452TMC3    H1 6790   3.781   3.312   1.165 -3.2083  0.0857 -1.1912
  452TMC3    H2 6791   3.640   2.927   1.237 -1.6939 -0.4347  1.1773
  452TMC3    C7 6792   3.769   3.085   1.070 -0.2854  0.6679 -0.1869
  452TMC3    C8 6793   3.554   2.977   1.491  0.3518  0.1602 -0.0132
  452TMC3    O1 6794   3.783   3.181   0.997 -0.0822  0.9278  0.2754
  452TMC3    O2 6795   3.550   3.011   1.605  0.6818 -0.7558  0.5860
  453TMC3    C1 6796   3.722   0.451  11.861 -0.5108  0.1234  0.2102
  453TMC3    C2 6797   3.688   0.317  11.892 -0.0241  0.8889 -0.3090
  453TMC3    C3 6798   3.686   0.235  11.782  0.1138  0.1302  0.5254
  453TMC3    C4 6799   3.744   0.499  11.732 -0.0102 -0.2205  0.0580
  453TMC3    C5 6800   3.747   0.404  11.629  0.4796  0.5105 -0.0009
  453TMC3    C6 6801   3.724   0.274  11.655  0.6682  0.0628 -0.0412
  453TMC3     C 6802   3.825   0.509  11.949  0.2654 -0.5019 -0.2352
  453TMC3     O 6803   3.901   0.589  11.895  0.5754 -0.3260 -0.1636
  453TMC3     H 6804   3.709   0.274  11.989  2.7627 -0.9772 -1.7558
  453TMC3    H1 6805   3.782   0.598  11.709 -2.6983  1.1390  1.4877
  453TMC3    H2 6806   3.746   0.193  11.586 -1.2598  0.2361 -0.8665
  453TMC3    C7 6807   3.806   0.454  11.508  0.1889 -0.7926 -0.4546
  453TMC3    C8 6808   3.734   0.103  11.823  0.4900  0.4520  0.5165
  453TMC3    O1 6809   3.855   0.571  11.508  0.9376 -0.4366 -0.0840
  453TMC3    O2 6810   3.836   0.069  11.762 -0.0703  0.4800 -0.1634
  454MPD2     C 6811   2.997   0.001  16.462  0.1361  0.4729 -0.3829
  454MPD2    C1 6812   2.956   0.078  16.356  0.0609  0.2534 -0.8009
  454MPD2    C2 6813   2.883   0.190  16.389  0.3100  0.6134 -0.9911
  454MPD2    C3 6814   2.853   0.229  16.521 -0.1901  0.2598  0.8242
  454MPD2    C4 6815   2.903   0.149  16.619  0.1526  0.3207  0.0212
  454MPD2    C5 6816   2.978   0.043  16.592 -0.5484 -0.5245  0.0815
  454MPD2     H 6817   2.839   0.248  16.309  0.7202  2.7680  0.3180
  454MPD2    H1 6818   2.886   0.173  16.723 -1.0202 -1.5058  0.2338
  454MPD2    H2 6819   3.049   4.648  16.455 -0.5304  0.0101  1.0135
  454MPD2    H3 6820   3.020   4.725  16.672 -2.6825 -0.3899  1.3132
  454MPD2     N 6821   2.757   0.331  16.541 -0.0626 -0.0583 -0.1988
  454MPD2    H5 6822   2.703   0.338  16.626  0.5137  0.0566  0.1604
  454MPD2    N1 6823   2.948   0.034  16.221  0.0861  0.4234  0.0350
  454MPD2    H7 6824   2.891   0.091  16.159  1.0562 -0.0465 -1.2852
  455TMC3    C1 6825   2.608   0.481  16.453  0.1495  0.3848  0.1596
  455TMC3    C2 6826   2.596   0.614  16.462 -0.0696  0.5270  0.2482
  455TMC3    C3 6827   2.472   0.664  16.489 -0.2316 -0.6754  0.3078
  455TMC3    C4 6828   2.505   0.396  16.469 -0.2117  0.5118  0.2279
  455TMC3    C5 6829   2.382   0.455  16.477 -0.2750  0.0989  0.4769
  455TMC3    C6 6830   2.359   0.585  16.493 -1.0659  0.4299  0.7204
  455TMC3     C 6831   2.731   0.422  16.438 -0.3722 -0.3052 -0.3651
  455TMC3     O 6832   2.797   0.460  16.342 -0.4955 -0.6631  0.0030
  455TMC3     H 6833   2.678   0.680  16.434 -0.2021  0.3572 -0.5589
  455TMC3    H1 6834   2.519   0.288  16.470 -1.4587  0.3447 -0.1369
  455TMC3    H2 6835   2.259   0.623  16.510 -1.4056 -0.0888 -0.1423
  455TMC3    C7 6836   2.265   0.362  16.457  0.3192 -0.2264  0.5196
  455TMC3    C8 6837   2.477   0.765  16.589 -0.1065 -0.1513 -0.3616
  455TMC3    O1 6838   2.148   0.395  16.495  0.4760 -0.3446 -0.1838
  455TMC3    O2 6839   2.586   0.789  16.638 -0.2265  0.2781  0.0851
  456MPD2     C 6840   0.583   0.115  15.805  0.4238 -0.4285 -0.3914
  456MPD2    C1 6841   0.590   0.020  15.902 -0.1131  0.7624 -0.2989
  456MPD2    C2 6842   0.539   0.043  16.028 -0.2172  0.0820  0.4165
  456MPD2    C3 6843   0.484   0.161  16.064 -0.2880  0.0367 -0.0365
  456MPD2    C4 6844   0.488   0.259  15.968 -0.3187  0.3489 -0.7520
  456MPD2    C5 6845   0.535   0.232  15.840 -0.0363  0.4826 -0.8939
  456MPD2     H 6846   0.534   4.708  16.106 -1.8613 -0.5402 -0.2868
  456MPD2    H1 6847   0.455   0.359  15.995  2.7040  1.8876 -2.6756
  456MPD2    H2 6848   0.617   0.104  15.703  0.4596 -0.3485 -0.3877
  456MPD2    H3 6849   0.534   0.311  15.766 -2.2723  1.5129  0.2373
  456MPD2     N 6850   0.441   0.185  16.198  0.4654  0.2696 -0.1893
  456MPD2    H5 6851   0.468   0.110  16.261  1.1038  0.2838 -0.4443
  456MPD2    N1 6852   0.663   4.643  15.873  0.3574  0.2647  0.0699
  456MPD2    H7 6853   0.699   4.625  15.780  0.8118 -1.4658  0.5804
  457TMC3    C1 6854   0.402   0.310  16.404 -0.1522  0.8663 -0.6025
  457TMC3    C2 6855   0.317   0.400  16.466  0.2608 -0.7090  0.7723
  457TMC3    C3 6856   0.325   0.413  16.605  0.4030 -0.3239  0.8009
  457TMC3    C4 6857   0.498   0.243  16.474 -0.0757  0.1427  0.2758
  457TMC3    C5 6858   0.494   0.253  16.612  0.0957 -0.6085 -0.7591
  457TMC3    C6 6859   0.404   0.339  16.675 -0.4747 -0.3691  0.5535
  457TMC3     C 6860   0.391   0.303  16.253 -0.6333 -0.9013 -0.4005
  457TMC3     O 6861   0.388   0.414  16.196 -0.4029  0.8582 -0.4604
  457TMC3     H 6862   0.229   0.438  16.415  0.8990 -0.7427 -0.3440
  457TMC3    H1 6863   0.565   0.170  16.431  0.0438  0.4771 -0.0995
  457TMC3    H2 6864   0.419   0.371  16.778 -1.1615  1.8716 -0.0482
  457TMC3    C7 6865   0.608   0.208  16.691 -0.4776  0.2244 -0.4804
  457TMC3    C8 6866   0.249   0.516  16.674  0.5945 -0.1997 -0.1266
  457TMC3    O1 6867   0.705   0.186  16.621  0.2204  0.1460 -0.5685
  457TMC3    O2 6868   0.238   0.501  16.799  0.7455 -0.9123  0.4027
  458MPD2     C 6869   2.711   4.375  12.288 -0.4112 -0.0825 -0.0730
  458MPD2    C1 6870   2.703   4.320  12.414 -0.0704 -0.7137 -0.0989
  458MPD2    C2 6871   2.578   4.294  12.460 -0.0204  0.4028 -0.2002
  458MPD2    C3 6872   2.461   4.321  12.391 -0.6027  0.2102 -0.6650
  458MPD2    C4 6873   2.473   4.373  12.261  0.0732  0.7915 -0.2127
  458MPD2    C5 6874   2.596   4.404  12.215 -0.2454  0.6207  0.3750
  458MPD2     H 6875   2.561   4.254  12.559  2.9433 -0.6795 -0.1142
  458MPD2    H1 6876   2.389   4.395  12.197 -0.6989 -0.9440  0.2175
  458MPD2    H2 6877   2.804   4.390  12.234 -0.4874 -0.0571 -0.1974
  458MPD2    H3 6878   2.598   4.451  12.117  0.7925 -0.6389 -0.2081
  458MPD2     N 6879   2.338   4.311  12.456 -0.2189  0.5850  0.7908
  458MPD2    H5 6880   2.346   4.286  12.554 -2.3177  0.0820  0.8407
  458MPD2    N1 6881   2.825   4.298  12.490 -0.5016  0.6178 -0.3545
  458MPD2    H7 6882   2.915   4.323  12.451 -0.6076 -0.9932 -1.6525
  459TMC3    C1 6883   2.957   4.209  12.664 -0.5828  0.6543 -0.0547
  459TMC3    C2 6884   3.072   4.267  12.604  0.0397  0.2823  0.0901
  459TMC3    C3 6885   3.196   4.234  12.650  0.4426 -0.1036  0.3452
  459TMC3    C4 6886   2.975   4.115  12.769  0.5568  0.3280  0.3659
  459TMC3    C5 6887   3.104   4.080  12.804  0.3774  0.4386 -0.1590
  459TMC3    C6 6888   3.216   4.139  12.749 -0.1113 -0.5210  0.3629
  459TMC3     C 6889   2.824   4.234  12.612  0.4215 -0.3972 -0.0217
  459TMC3     O 6890   2.737   4.195  12.687 -0.0877  0.4338 -0.4559
  459TMC3     H 6891   3.052   4.349  12.535 -1.9105 -1.3764 -1.2907
  459TMC3    H1 6892   2.892   4.073  12.825  0.4057  0.8174  0.5049
  459TMC3    H2 6893   3.309   4.095  12.782 -0.4128 -0.2206  1.6047
  459TMC3    C7 6894   3.127   3.968  12.891  0.2350 -0.9859 -0.4653
  459TMC3    C8 6895   3.317   4.304  12.613 -0.6893 -0.1983 -0.1557
  459TMC3    O1 6896   3.232   3.959  12.954 -0.2229 -0.9119  0.2035
  459TMC3    O2 6897   3.418   4.267  12.675  0.2247 -0.4673  0.3394
  460MPD2     C 6898   2.797   2.034  10.406 -0.1213 -0.1375  0.5048
  460MPD2    C1 6899   2.661   2.018  10.425 -0.0485 -0.2011  0.0435
  460MPD2    C2 6900   2.573   2.085  10.346 -0.0507  1.0376  0.7086
  460MPD2    C3 6901   2.622   2.152  10.240  0.6469 -0.3580  0.2240
  460MPD2    C4 6902   2.761   2.168  10.220  0.2423 -0.1719  0.4497
  460MPD2    C5 6903   2.847   2.108  10.305 -0.0341  0.7514 -0.9816
  460MPD2     H 6904   2.464   2.088  10.351 -0.0633  0.5684  0.7792
  460MPD2    H1 6905   2.801   2.233  10.143  0.1670  0.1761  0.7057
  460MPD2    H2 6906   2.867   1.980  10.468  0.9006 -2.1380 -2.3489
  460MPD2    H3 6907   2.954   2.096  10.292 -0.0310  0.7130 -0.9229
  460MPD2     N 6908   2.526   2.188  10.144  0.2123  0.5581 -0.0744
  460MPD2    H5 6909   2.426   2.185  10.163  0.3462 -0.0361  0.5299
  460MPD2    N1 6910   2.633   1.936  10.539  0.0863 -0.5449 -0.5383
  460MPD2    H7 6911   2.718   1.892  10.573 -0.8826 -1.2715  0.9466
  461TMC3    C1 6912   2.434   2.316   9.966  0.0593 -0.7848  0.1259
  461TMC3    C2 6913   2.339   2.219   9.940 -0.4891 -0.3736  0.5927
  461TMC3    C3 6914   2.259   2.237   9.827 -0.2464  0.1606  0.7961
  461TMC3    C4 6915   2.449   2.432   9.891 -0.1353 -0.2229  0.7467
  461TMC3    C5 6916   2.364   2.447   9.786 -0.1766 -0.0641 -0.2930
  461TMC3    C6 6917   2.274   2.349   9.748  0.2315  0.0580  0.2376
  461TMC3     C 6918   2.554   2.271  10.038 -0.1185 -0.6336  0.2121
  461TMC3     O 6919   2.661   2.309   9.991 -0.1572 -0.8915  0.4436
  461TMC3     H 6920   2.338   2.130  10.001 -1.1146 -0.7354  0.0466
  461TMC3    H1 6921   2.528   2.495   9.930 -1.9888  2.6725 -0.2012
  461TMC3    H2 6922   2.218   2.359   9.656  2.2835 -0.5645 -1.1004
  461TMC3    C7 6923   2.353   2.570   9.710  0.2313 -0.1886  0.2350
  461TMC3    C8 6924   2.151   2.148   9.792  0.4924  0.9395  0.2834
  461TMC3    O1 6925   2.278   2.565   9.611  0.8684 -0.4232  0.1831
  461TMC3    O2 6926   2.102   2.148   9.683 -0.2104 -0.4946  0.4220
  462TMC3    C1 6927   2.363   2.992  17.658  0.4340  0.0030 -1.1860
  462TMC3    C2 6928   2.270   2.935  17.569 -1.2873 -0.1054  0.0372
  462TMC3    C3 6929   2.249   2.796  17.579  0.7830 -0.0658  0.0504
  462TMC3    C4 6930   2.422   2.914  17.751  0.2192  0.1154  0.5439
  462TMC3    C5 6931   2.390   2.783   0.005  0.5633  0.0375  0.1605
  462TMC3    C6 6932   2.304   2.717  17.674 -0.0117 -0.0864  0.0899
  462TMC3     C 6933   2.385   3.129  17.658  0.0108  0.1875 -0.1987
  462TMC3     O 6934   2.454   3.176  17.746 -0.1062  0.2500 -0.6940
  462TMC3     H 6935   2.217   2.989  17.491  2.0464 -1.4637 -3.1952
  462TMC3    H1 6936   2.498   2.961   0.051 -0.5890  1.3242  0.6131
  462TMC3    H2 6937   2.259   2.620  17.692 -2.3609  1.2980  1.7098
  462TMC3    C7 6938   2.459   2.689   0.091 -0.1757  0.0942  0.3192
  462TMC3    C8 6939   2.148   2.743  17.491 -0.0999 -0.0373 -0.4899
  462TMC3    O1 6940   2.432   2.568   0.072  0.2612  0.2493 -0.3954
  462TMC3    O2 6941   2.061   2.817  17.447  0.1730  0.2941  0.1344
  463MPD2     C 6942   3.522   1.499   1.661  0.2071  0.3666  0.7495
  463MPD2    C1 6943   3.401   1.530   1.606 -0.2265 -0.6813  1.3876
  463MPD2    C2 6944   3.368   1.659   1.576  0.0217 -0.2730 -0.4292
  463MPD2    C3 6945   3.464   1.764   1.581 -0.7303  0.3296  0.3410
  463MPD2    C4 6946   3.591   1.724   1.629  0.4986 -0.3991 -0.1811
  463MPD2    C5 6947   3.619   1.596   1.674 -0.1529  0.2114 -0.0906
  463MPD2     H 6948   3.262   1.678   1.559 -0.2863 -2.3364 -0.8400
  463MPD2    H1 6949   3.677   1.790   1.629 -0.0659  0.3458 -1.4008
  463MPD2    H2 6950   3.551   1.406   1.708  1.4332 -0.5439 -1.8040
  463MPD2    H3 6951   3.715   1.565   1.715  0.7365  0.9326 -1.6419
  463MPD2     N 6952   3.437   1.905   1.552 -0.0596  0.1838  0.0519
  463MPD2    H5 6953   3.521   1.962   1.558  0.2572 -0.0461 -2.1604
  463MPD2    N1 6954   3.297   1.433   1.607  0.3054  0.4785 -0.9791
  463MPD2    H7 6955   3.209   1.480   1.589  1.7464  2.2959 -3.2716
  464TMC3    C1 6956   3.203   1.223   1.587 -0.1288  0.1895  0.2284
  464TMC3    C2 6957   3.073   1.276   1.600 -0.2448  0.4003 -0.0573
  464TMC3    C3 6958   2.966   1.184   1.602 -0.0805 -0.5668  0.1702
  464TMC3    C4 6959   3.225   1.087   1.571 -0.3570 -0.0162 -0.5291
  464TMC3    C5 6960   3.115   1.001   1.563 -0.4427  0.7215 -0.0806
  464TMC3    C6 6961   2.983   1.046   1.578  0.1214  0.6113 -0.4524
  464TMC3     C 6962   3.324   1.301   1.613 -0.2351 -0.0101 -0.0656
  464TMC3     O 6963   3.428   1.244   1.601  0.2555 -0.3417 -0.3184
  464TMC3     H 6964   3.056   1.376   1.638 -2.0446  0.1256 -0.1544
  464TMC3    H1 6965   3.328   1.054   1.557 -0.6721 -0.4900 -1.6768
  464TMC3    H2 6966   2.899   0.979   1.591 -0.6696  1.4432 -1.2708
  464TMC3    C7 6967   3.146   0.867   1.527 -0.6057  1.0281  0.1847
  464TMC3    C8 6968   2.826   1.242   1.610  0.2916 -0.0784 -0.2383
  464TMC3    O1 6969   3.266   0.835   1.526  0.6452 -0.0753  0.1396
  464TMC3    O2 6970   2.812   1.362   1.619  0.3540 -0.2147 -0.0744
  465MPD2     C 6971   4.486   0.146  17.183 -0.6358 -0.0049  0.7441
  465MPD2    C1 6972   4.375   0.215  17.211  0.7689 -0.2956 -0.0974
  465MPD2    C2 6973   4.289   0.248  17.106 -0.7802 -0.3961 -0.6834
  465MPD2    C3 6974   4.336   0.233  16.974  0.7800 -0.2812  0.0794
  465MPD2    C4 6975   4.463   0.183  16.947  0.0278  0.9220  0.2942
  465MPD2    C5 6976   4.530   0.129  17.050  0.2371  0.0450 -0.1792
  465MPD2     H 6977   4.193   0.296  17.121  0.1775  2.4084 -3.4615
  465MPD2    H1 6978   4.500   0.175  16.845  0.6780  0.7966  0.5456
  465MPD2    H2 6979   4.559   0.101  17.249 -0.0220  0.3873  0.3325
  465MPD2    H3 6980   4.615   0.067  17.023 -0.5683 -0.2099 -2.0975
  465MPD2     N 6981   4.251   0.283  16.872  0.4623 -0.1646 -0.2827
  465MPD2    H5 6982   4.152   0.293  16.891  1.0884  1.2436  2.1372
  465MPD2    N1 6983   4.346   0.263  17.342  0.2148 -1.0670  0.5937
  465MPD2    H7 6984   4.254   0.305  17.354  1.5544  2.3562 -1.2437
  466TMC3    C1 6985   3.961   0.418  16.649 -0.2251  0.2115 -0.0738
  466TMC3    C2 6986   3.988   0.540  16.594  0.1010 -0.6339  0.6564
  466TMC3    C3 6987   4.115   0.576  16.558  1.5365  0.6077  0.4809
  466TMC3    C4 6988   4.066   0.342  16.689  0.0726  0.6857 -0.3238
  466TMC3    C5 6989   4.195   0.379  16.661  0.1815  0.1170 -0.2080
  466TMC3    C6 6990   4.220   0.495  16.594  0.5223 -0.3908 -0.4743
  466TMC3     C 6991   3.838   0.399  16.715 -0.7494  0.3390 -0.6037
  466TMC3     O 6992   3.838   0.315  16.804 -0.2497 -0.2742 -0.1302
  466TMC3     H 6993   3.911   0.616  16.582 -0.2693 -0.7597  2.1978
  466TMC3    H1 6994   4.052   0.242  16.729  0.5218  0.5252 -0.5628
  466TMC3    H2 6995   4.322   0.530  16.588 -0.3879  2.2136 -0.7866
  466TMC3    C7 6996   4.297   0.324  16.748 -0.6447 -0.0475 -0.1227
  466TMC3    C8 6997   4.137   0.721  16.561  0.1435  0.2178 -0.5561
  466TMC3    O1 6998   4.412   0.345  16.717  0.5477  0.1761  0.5177
  466TMC3    O2 6999   4.245   0.760  16.519  0.0401 -0.1491 -0.0416
  467TMC3    C1 7000   4.730   3.419  13.759  0.4566  0.4127  0.3764
  467TMC3    C2 7001   0.026   3.536  13.700 -0.5875 -0.0934 -0.6364
  467TMC3    C3 7002   4.740   3.568  13.565  0.5828 -0.4918  0.0852
  467TMC3    C4 7003   4.683   3.323  13.674 -0.2381  0.1826  0.0859
  467TMC3    C5 7004   4.651   3.353  13.546 -0.0954 -0.1864  0.0345
  467TMC3    C6 7005   4.690   3.469  13.482 -0.1429 -0.4306  0.2748
  467TMC3     C 7006   0.107   3.376  13.831 -0.1377  0.3188 -0.1043
  467TMC3     O 7007   0.169   3.456  13.900 -0.0733 -0.0338 -0.1535
  467TMC3     H 7008   0.087   3.608  13.754  0.3211 -0.4517 -1.2018
  467TMC3    H1 7009   4.660   3.226  13.717 -2.3732  0.3486 -0.6407
  467TMC3    H2 7010   4.661   3.490  13.380  0.8771  1.7807  0.4527
  467TMC3    C7 7011   4.511   3.328  13.510 -0.1973 -0.0305  0.2411
  467TMC3    C8 7012   0.092   3.665  13.514  0.6873 -0.2348  0.6507
  467TMC3    O1 7013   4.478   3.343  13.390  0.2928 -0.4372  0.3845
  467TMC3    O2 7014   0.141   3.743  13.593  0.1118 -0.4768 -0.4423
  468MPD2     C 7015   4.062   1.870  10.431  0.6981  0.0267 -0.1376
  468MPD2    C1 7016   4.180   1.794  10.443 -0.5216 -0.2256 -0.0588
  468MPD2    C2 7017   4.177   1.658  10.416  0.2362  0.6083 -0.6528
  468MPD2    C3 7018   4.061   1.591  10.382 -0.0951 -0.1081 -0.5296
  468MPD2    C4 7019   3.942   1.665  10.379  0.6829  0.5849 -0.6962
  468MPD2    C5 7020   3.949   1.800  10.413  0.3686 -0.1553  0.7677
  468MPD2     H 7021   4.267   1.602  10.440 -1.4658 -1.3917  1.0205
  468MPD2    H1 7022   3.843   1.625  10.362  0.3278  1.6314 -1.1114
  468MPD2    H2 7023   4.057   1.978  10.439 -0.8620 -0.0507 -0.0230
  468MPD2    H3 7024   3.853   1.850  10.408  0.6757  0.4142  0.5023
  468MPD2     N 7025   4.062   1.460  10.348  0.1907  0.4061  0.4938
  468MPD2    H5 7026   3.971   1.420  10.327  0.6249  0.2251 -1.0941
  468MPD2    N1 7027   4.302   1.846  10.493  0.3972 -0.4510 -0.1888
  468MPD2    H7 7028   4.373   1.776  10.513  0.0861 -0.4735  0.8359
  469TMC3    C1 7029   4.476   1.984  10.559 -0.2576 -0.3257 -0.7480
  469TMC3    C2 7030   4.569   1.892  10.515  0.2918 -0.0558 -0.0052
  469TMC3    C3 7031   4.689   1.923  10.557  0.1801 -0.4054 -0.6632
  469TMC3    C4 7032   4.508   2.098  10.627  0.4261  0.3169 -0.0184
  469TMC3    C5 7033   4.636   2.131  10.656 -0.4195  0.4909 -0.6432
  469TMC3    C6 7034   4.732   2.031  10.626 -0.3470  0.2439 -0.3590
  469TMC3     C 7035   4.334   1.973  10.523 -0.3174  0.4332 -0.1778
  469TMC3     O 7036   4.259   2.069  10.523  0.3283  0.1795  0.1750
  469TMC3     H 7037   4.539   1.800  10.464  2.4261 -0.9992  0.4612
  469TMC3    H1 7038   4.430   2.172  10.638  1.0425  0.9606  0.0066
  469TMC3    H2 7039   0.096   2.045  10.648 -1.0028  0.7497  2.4632
  469TMC3    C7 7040   4.671   2.220  10.769 -0.3390 -0.2968 -0.6823
  469TMC3    C8 7041   0.033   1.814  10.581  1.0727  0.3053 -0.4808
  469TMC3    O1 7042   0.049   2.240  10.781 -0.3733 -0.4582  0.1706
  469TMC3    O2 7043   0.151   1.829  10.553 -0.0759  0.1019 -0.3059
  470TMC3    C1 7044   1.862   3.219   1.033  0.3665 -0.5559  0.2948
  470TMC3    C2 7045   1.985   3.271   1.083 -0.3025  0.1912 -0.2047
  470TMC3    C3 7046   1.975   3.347   1.200 -0.6976 -0.0294  0.3904
  470TMC3    C4 7047   1.748   3.238   1.101  0.1540  0.7750  0.0969
  470TMC3    C5 7048   1.746   3.322   1.213  0.6590 -0.2367  1.2064
  470TMC3    C6 7049   1.858   3.376   1.265 -0.3531  0.2166 -0.9891
  470TMC3     C 7050   1.871   3.125   0.931  0.4135 -0.5030 -0.1009
  470TMC3     O 7051   1.987   3.110   0.882  0.8113 -0.3407 -0.1084
  470TMC3     H 7052   2.080   3.238   1.043 -0.3527 -0.4312  0.1819
  470TMC3    H1 7053   1.651   3.195   1.077  0.4307  0.7681 -1.0277
  470TMC3    H2 7054   1.856   3.434   1.357  0.4384 -0.7294 -0.3757
  470TMC3    C7 7055   1.640   3.301   1.312  0.2536  0.8030  0.3485
  470TMC3    C8 7056   2.074   3.454   1.207  0.0705 -0.0343 -0.7398
  470TMC3    O1 7057   1.563   3.207   1.295 -0.0743  0.1745 -0.2034
  470TMC3    O2 7058   2.030   3.556   1.262  0.1859  0.0194 -0.2882
  471MPD2     C 7059   1.836   4.395  16.567 -0.3833  0.0174 -0.3180
  471MPD2    C1 7060   1.934   4.295  16.568  0.5306 -0.0093  0.2864
  471MPD2    C2 7061   1.973   4.238  16.692 -0.5070 -0.4546 -0.4359
  471MPD2    C3 7062   1.912   4.275  16.813 -0.2575 -0.2561 -0.5132
  471MPD2    C4 7063   1.822   4.377  16.806 -0.3368  0.5339  0.1664
  471MPD2    C5 7064   1.785   4.440  16.685  0.2204 -0.1002  0.1049
  471MPD2     H 7065   2.036   4.150  16.686  2.4916  1.6464  0.7578
  471MPD2    H1 7066   1.786   4.417  16.900  0.4216  1.6352 -0.0053
  471MPD2    H2 7067   1.793   4.423  16.471 -0.5280 -3.2136 -1.2232
  471MPD2    H3 7068   1.715   4.522  16.678  1.0555  0.7052  1.1445
  471MPD2     N 7069   1.962   4.225  16.939  0.4205  0.1946  0.0561
  471MPD2    H5 7070   1.901   4.260  17.012  1.5972  0.4328  0.9280
  471MPD2    N1 7071   1.996   4.237  16.458 -0.1627 -0.2667  0.5747
  471MPD2    H7 7072   2.091   4.205  16.473  0.5922  2.6611  2.1439
  472TMC3    C1 7073   2.024   4.125  16.258 -0.4533  0.9567 -0.7042
  472TMC3    C2 7074   1.967   4.078  16.141  0.3657  0.3147 -0.5133
  472TMC3    C3 7075   2.024   3.979  16.069 -0.4058 -0.5245 -0.2181
  472TMC3    C4 7076   2.125   4.051  16.314  0.0244 -0.6821 -0.7935
  472TMC3    C5 7077   2.188   3.951  16.243  1.0351  0.1542 -0.7431
  472TMC3    C6 7078   2.136   3.915  16.115  0.1681  0.1268 -0.0978
  472TMC3     C 7079   1.941   4.215  16.332 -0.8958 -0.3928  0.3472
  472TMC3     O 7080   1.825   4.239  16.292  0.0948  0.1228  0.4779
  472TMC3     H 7081   1.892   4.141  16.095 -0.1213 -0.7904 -1.2379
  472TMC3    H1 7082   2.167   4.069  16.412  1.4129  1.1830 -1.7292
  472TMC3    H2 7083   2.177   3.840  16.048 -0.2583  0.8499 -1.1638
  472TMC3    C7 7084   2.184   3.835  16.331  0.5298 -0.0052 -0.4984
  472TMC3    C8 7085   1.934   3.884  16.005  0.7084 -0.0939 -0.2822
  472TMC3    O1 7086   2.208   3.845  16.449 -0.2315  0.2739  0.8346
  472TMC3    O2 7087   1.984   3.799  15.931  0.1153  0.4375 -0.4881
  473MPD2     C 7088   1.733   1.207  14.624  0.2148  0.5160 -1.0740
  473MPD2    C1 7089   1.686   1.256  14.504 -0.3718  0.3942 -0.0101
  473MPD2    C2 7090   1.680   1.392  14.486 -0.1072 -0.2384 -0.0189
  473MPD2    C3 7091   1.756   1.471  14.560  0.3164  0.2023 -0.0527
  473MPD2    C4 7092   1.808   1.422  14.681 -0.4749  0.0826  0.4206
  473MPD2    C5 7093   1.786   1.298  14.716 -0.0336  0.2785  0.2001
  473MPD2     H 7094   1.623   1.423  14.399 -0.7036 -0.9893  0.1017
  473MPD2    H1 7095   1.869   1.483  14.748  1.0165  0.1154 -0.9844
  473MPD2    H2 7096   1.736   1.103  14.654 -2.3020  1.5782  2.9702
  473MPD2    H3 7097   1.824   1.271  14.814 -1.7696  2.3177  1.4532
  473MPD2     N 7098   1.785   1.608  14.522  0.1756  0.1002 -0.1694
  473MPD2    H5 7099   1.842   1.664  14.584 -1.6008  0.8367  0.7792
  473MPD2    N1 7100   1.635   1.167  14.403 -0.1750 -0.8259  0.0012
  473MPD2    H7 7101   1.587   1.198  14.319  1.4708  1.9930  0.1129
  474TMC3    C1 7102   1.791   1.803  14.392  0.1345 -0.0195  0.0294
  474TMC3    C2 7103   1.737   1.877  14.299 -0.2303 -0.5671  0.0779
  474TMC3    C3 7104   1.783   2.007  14.280 -0.2719 -0.0748  0.1559
  474TMC3    C4 7105   1.888   1.858  14.473  0.2417  0.0640 -0.4623
  474TMC3    C5 7106   1.941   1.984  14.452 -0.0627  0.2277  0.1460
  474TMC3    C6 7107   1.886   2.068  14.350  0.5759  0.1343 -0.3912
  474TMC3     C 7108   1.731   1.669  14.416 -0.4493 -0.5465  0.7781
  474TMC3     O 7109   1.634   1.643  14.351 -0.0968 -0.1911 -0.1540
  474TMC3     H 7110   1.658   1.840  14.234 -1.0504  1.2548  0.0214
  474TMC3    H1 7111   1.953   1.795  14.532 -2.4840 -2.4938 -0.1826
  474TMC3    H2 7112   1.922   2.169  14.337  0.6751  0.2284  0.5795
  474TMC3    C7 7113   2.067   2.013  14.500  0.6113  0.6127 -0.0161
  474TMC3    C8 7114   1.697   2.092  14.196  0.1332 -0.5104  0.2827
  474TMC3    O1 7115   2.142   2.023  14.408  0.5572  0.3512  0.6881
  474TMC3    O2 7116   1.591   2.040  14.162  0.3234 -0.0196  0.4106
  475MPD2     C 7117   4.490   4.625  11.571 -0.9450  0.0476 -0.3147
  475MPD2    C1 7118   4.569   4.651  11.460  0.1559 -0.0100 -0.3865
  475MPD2    C2 7119   4.510   4.683  11.343 -0.0371  0.5822  0.9003
  475MPD2    C3 7120   4.372   4.691  11.336 -0.0120 -0.2387  0.6124
  475MPD2    C4 7121   4.296   4.676  11.452  1.2051 -0.2011  0.4537
  475MPD2    C5 7122   4.359   4.654  11.568 -0.0682  0.1357 -0.2155
  475MPD2     H 7123   4.566   4.727  11.261 -0.6951  0.5195  0.4127
  475MPD2    H1 7124   4.187   4.682  11.452  1.2501  0.5358 -0.2143
  475MPD2    H2 7125   4.541   4.606  11.665 -1.8684 -1.2330 -0.0670
  475MPD2    H3 7126   4.289   4.646  11.651 -2.0996 -0.1803 -1.9481
  475MPD2     N 7127   4.315   4.717  11.209  0.2840 -0.0114 -0.6734
  475MPD2    H5 7128   4.384   4.724  11.134 -0.6705  2.4223 -1.3191
  475MPD2    N1 7129   4.709   4.637  11.461 -0.1174 -0.3998 -0.1824
  475MPD2    H7 7130   0.018   4.636  11.549  1.1141  0.1258 -0.8757
  476TMC3    C1 7131   0.176   4.717  11.379 -0.0726  0.5421  0.5150
  476TMC3    C2 7132   0.237   4.716  11.254 -0.6544  0.0950  0.0150
  476TMC3    C3 7133   0.266   0.094  11.191  0.2881  0.2891 -0.3075
  476TMC3    C4 7134   0.164   0.093  11.452  0.4522 -0.2932 -0.4405
  476TMC3    C5 7135   0.192   0.204  11.383 -0.1139 -0.0856  0.8905
  476TMC3    C6 7136   0.238   0.211  11.258 -0.4403 -0.9717  0.0594
  476TMC3     C 7137   0.047   4.649  11.355 -0.2832  0.1763  0.9016
  476TMC3     O 7138   0.024   4.623  11.235 -0.7832  0.2304 -0.1811
  476TMC3     H 7139   0.251   4.622  11.201  1.5473  0.3551  0.1386
  476TMC3    H1 7140   0.111   0.097  11.546  3.4912 -0.7258  1.2766
  476TMC3    H2 7141   0.243   0.304  11.202  2.0470 -1.0611  0.1701
  476TMC3    C7 7142   0.164   0.324  11.452 -0.4715 -0.3924 -0.1632
  476TMC3    C8 7143   0.302   0.093  11.054  0.2423  0.4809 -1.1432
  476TMC3    O1 7144   0.106   0.314  11.560 -0.0231  0.4391 -0.5557
  476TMC3    O2 7145   0.351   0.201  11.022 -0.0909 -0.4245 -0.1828
  477MPD2     C 7146   3.263   1.284  11.727 -0.3140 -0.3789 -0.3306
  477MPD2    C1 7147   3.206   1.204  11.636 -0.2145 -0.6281 -1.3329
  477MPD2    C2 7148   3.173   1.070  11.668  0.0648  0.0456  0.3625
  477MPD2    C3 7149   3.187   1.026  11.799  0.4426 -0.0379 -0.1468
  477MPD2    C4 7150   3.250   1.109  11.892  0.0183 -0.0681  0.1266
  477MPD2    C5 7151   3.292   1.238  11.858 -0.2757  0.4489  0.1980
  477MPD2     H 7152   3.137   1.003  11.591  0.7708 -0.7699  0.7457
  477MPD2    H1 7153   3.268   1.072  11.992  1.6865  1.4432  0.3918
  477MPD2    H2 7154   3.289   1.389  11.718  0.6950 -0.5849  0.1569
  477MPD2    H3 7155   3.351   1.297  11.927  1.0142  0.3962 -0.8530
  477MPD2     N 7156   3.149   0.892  11.832 -0.9108 -0.1205  0.4773
  477MPD2    H5 7157   3.110   0.833  11.759  0.4630  0.7641 -0.9758
  477MPD2    N1 7158   3.188   1.266  11.515  0.6912  0.5869  0.3372
  477MPD2    H7 7159   3.204   1.366  11.514  1.4699  0.4589  0.7876
  478TMC3    C1 7160   3.122   1.288  11.284  0.3871  0.3286  0.0398
  478TMC3    C2 7161   3.093   1.410  11.322 -0.3995  0.5641  0.3076
  478TMC3    C3 7162   2.983   1.467  11.270 -0.7260  0.0072  0.1096
  478TMC3    C4 7163   3.057   1.228  11.186  0.4372 -0.5421  0.8151
  478TMC3    C5 7164   2.946   1.289  11.136  0.5908  0.2605  0.5545
  478TMC3    C6 7165   2.906   1.409  11.178 -0.1411 -0.5128 -0.6588
  478TMC3     C 7166   3.167   1.203  11.392  0.2673 -0.2209  0.0682
  478TMC3     O 7167   3.159   1.081  11.381  0.4398  0.2370 -0.2828
  478TMC3     H 7168   3.149   1.469  11.395 -0.4605 -1.6832  2.1797
  478TMC3    H1 7169   3.078   1.123  11.171 -0.8985 -0.5090 -1.3243
  478TMC3    H2 7170   2.807   1.442  11.150 -1.0877 -0.7001  2.4433
  478TMC3    C7 7171   2.848   1.195  11.090 -0.4216  0.3983 -0.5986
  478TMC3    C8 7172   2.933   1.580  11.355 -0.0306 -0.0524 -0.5815
  478TMC3    O1 7173   2.860   1.085  11.138 -0.1851  0.1988  0.2061
  478TMC3    O2 7174   3.007   1.619  11.445  0.8435 -0.2217  0.5475
  479MPD2     C 7175   1.542   3.062  15.097 -0.4048  0.4669 -0.0867
  479MPD2    C1 7176   1.508   3.056  15.231 -0.4964  0.4275 -0.1447
  479MPD2    C2 7177   1.578   3.136  15.325 -0.0813 -0.3694  0.3640
  479MPD2    C3 7178   1.683   3.216  15.279 -0.3084  0.0001  0.4278
  479MPD2    C4 7179   1.715   3.215  15.147 -0.0807  0.1644 -1.0192
  479MPD2    C5 7180   1.648   3.140  15.057 -0.2060 -0.7335 -0.6313
  479MPD2     H 7181   1.549   3.114  15.427  2.0417 -0.1739  1.0057
  479MPD2    H1 7182   1.792   3.280  15.107  0.4657  0.8536  1.1124
  479MPD2    H2 7183   1.487   3.004  15.024  0.6102  1.1778 -1.4065
  479MPD2    H3 7184   1.665   3.145  14.951 -0.2598 -0.6846 -0.6380
  479MPD2     N 7185   1.751   3.316  15.357 -1.3983 -0.0842  0.2074
  479MPD2    H5 7186   1.832   3.363  15.318 -0.5829 -1.2169  0.5532
  479MPD2    N1 7187   1.400   2.976  15.265 -0.1882 -0.2090  0.3002
  479MPD2    H7 7188   1.341   2.930  15.196  0.3935  0.6795 -0.7834
  480TMC3    C1 7189   1.436   3.284  15.704 -0.5589 -0.2407 -0.2511
  480TMC3    C2 7190   1.327   3.290  15.621  0.3662  1.3311  0.2793
  480TMC3    C3 7191   1.356   3.332  15.491 -0.4925 -0.6119 -0.0760
  480TMC3    C4 7192   1.562   3.315  15.655 -0.4156  0.0095  0.3349
  480TMC3    C5 7193   1.585   3.349  15.531 -0.5094  0.5590 -0.5423
  480TMC3    C6 7194   1.479   3.368  15.445  0.1602 -0.4969  0.1085
  480TMC3     C 7195   1.417   3.222  15.830 -0.2396 -0.1979 -0.5204
  480TMC3     O 7196   1.309   3.174  15.857  0.4199 -0.1475 -0.1906
  480TMC3     H 7197   1.229   3.246  15.636  2.6656 -3.0114  2.4180
  480TMC3    H1 7198   1.648   3.330  15.721 -0.8969  1.2591  0.6785
  480TMC3    H2 7199   1.500   3.409  15.347 -0.2510  0.5779  0.4777
  480TMC3    C7 7200   1.720   3.354  15.485  0.7411 -0.3638  0.1786
  480TMC3    C8 7201   1.252   3.301  15.386  0.1774  0.3651  0.1133
  480TMC3    O1 7202   1.792   3.411  15.563  0.3934  0.7459 -0.5160
  480TMC3    O2 7203   1.144   3.257  15.416  0.2984  0.2298  0.3294
  481MPD2     C 7204   3.298   2.906  14.335 -1.0128 -0.4167 -0.0866
  481MPD2    C1 7205   3.177   2.838  14.335  0.6819  0.0936 -0.4408
  481MPD2    C2 7206   3.146   2.764  14.449  0.3094  0.1239  0.3202
  481MPD2    C3 7207   3.239   2.745  14.552  0.2274 -0.0992 -0.3426
  481MPD2    C4 7208   3.358   2.801  14.543 -0.4680 -0.1808 -1.1316
  481MPD2    C5 7209   3.388   2.885  14.439  0.0708  0.1096 -0.0384
  481MPD2     H 7210   3.053   2.708  14.458 -0.6849  1.7318  0.0064
  481MPD2    H1 7211   3.423   2.787  14.629  0.2393  0.5403 -1.5490
  481MPD2    H2 7212   3.312   2.974  14.252  2.4903 -1.8573 -0.6716
  481MPD2    H3 7213   3.486   2.931  14.448 -0.2523  1.0341 -1.1621
  481MPD2     N 7214   3.195   2.684  14.675 -0.5220  0.3385 -0.2918
  481MPD2    H5 7215   3.256   2.686  14.757  0.1493  0.0108 -0.7851
  481MPD2    N1 7216   3.090   2.863  14.233 -0.6261  0.0169 -0.1507
  481MPD2    H7 7217   3.110   2.937  14.165  0.2056  0.5392  0.6551
  482TMC3    C1 7218   2.878   2.876  14.145  0.1516  0.1825 -1.0398
  482TMC3    C2 7219   2.772   2.810  14.092 -0.6803  0.8158  0.5969
  482TMC3    C3 7220   2.692   2.875  14.004  0.0583 -0.3036 -0.3582
  482TMC3    C4 7221   2.903   3.002  14.101 -1.0081 -0.1470 -0.1007
  482TMC3    C5 7222   2.833   3.052  13.994 -0.2450  0.0843 -0.0700
  482TMC3    C6 7223   2.726   2.991  13.942 -0.6899 -0.3698  0.1726
  482TMC3     C 7224   2.967   2.803  14.230 -0.0260 -1.0386 -0.0464
  482TMC3     O 7225   2.934   2.694  14.271 -0.7088  0.1210  0.2252
  482TMC3     H 7226   2.747   2.714  14.136  0.2108 -0.8718 -2.5919
  482TMC3    H1 7227   2.987   3.062  14.134 -2.2648  0.6432  1.6217
  482TMC3    H2 7228   2.662   3.037  13.869 -0.5889 -1.0589 -0.3472
  482TMC3    C7 7229   2.861   3.184  13.957  0.5809 -0.1852 -0.3545
  482TMC3    C8 7230   2.612   2.787  13.927 -0.7508  0.5556 -0.9334
  482TMC3    O1 7231   2.945   3.245  14.026 -0.4117 -0.8303  0.0240
  482TMC3    O2 7232   2.623   2.665  13.949 -0.2280 -0.3123 -0.4147
  483TMC3    C1 7233   1.146   1.729   0.634 -0.3990 -0.5506  0.4808
  483TMC3    C2 7234   1.189   1.831   0.713  0.3251 -0.7054  0.0540
  483TMC3    C3 7235   1.288   1.793   0.801  0.4728  0.0262 -0.0639
  483TMC3    C4 7236   1.199   1.599   0.627  0.1937 -0.4798  0.2797
  483TMC3    C5 7237   1.293   1.569   0.716 -0.5908  0.1603 -0.6762
  483TMC3    C6 7238   1.333   1.658   0.808 -0.4908  0.0094 -0.2126
  483TMC3     C 7239   1.036   1.764   0.555 -0.5353 -0.1900  1.1445
  483TMC3     O 7240   0.998   1.879   0.543 -0.1631  0.4207  0.4151
  483TMC3     H 7241   1.158   1.934   0.724 -1.3759 -0.9775 -2.2037
  483TMC3    H1 7242   1.174   1.532   0.545  0.4875  0.0052 -0.2079
  483TMC3    H2 7243   1.416   1.623   0.869 -0.1609  2.6637  0.8416
  483TMC3    C7 7244   1.369   1.448   0.708  0.0887  0.1199 -0.4849
  483TMC3    C8 7245   1.382   1.897   0.836 -0.2272 -0.3189  0.5130
  483TMC3    O1 7246   1.485   1.450   0.744 -0.2220 -0.3962  0.2409
  483TMC3    O2 7247   1.382   1.990   0.754 -0.1977  0.1663 -0.7647
  484MPD2     C 7248   3.356   4.620  12.433  0.5573 -0.0471  0.0842
  484MPD2    C1 7249   3.393   4.522  12.516 -0.5592 -0.7322 -0.1068
  484MPD2    C2 7250   3.525   4.520  12.558  0.7799  0.0706 -0.2223
  484MPD2    C3 7251   3.608   4.625  12.531  1.0192  0.3894  0.4683
  484MPD2    C4 7252   3.564   4.726  12.444 -0.3833  0.1723  0.1941
  484MPD2    C5 7253   3.437   4.726  12.401 -0.1614  0.5575 -0.2178
  484MPD2     H 7254   3.567   4.439  12.617  3.4435 -0.0399 -2.2703
  484MPD2    H1 7255   3.629   0.067  12.415  1.5803 -1.4021  0.1393
  484MPD2    H2 7256   3.258   4.613  12.387  0.1203 -0.4970  1.0974
  484MPD2    H3 7257   3.397   0.054  12.329  0.1105  1.0766  0.1281
  484MPD2     N 7258   3.729   4.639  12.591  0.4179 -0.0969 -0.9556
  484MPD2    H5 7259   3.783   4.722  12.567  0.3293  0.1188 -0.4079
  484MPD2    N1 7260   3.303   4.415  12.534 -0.0886  0.0524  0.2990
  484MPD2    H7 7261   3.208   4.425  12.501 -0.0954 -4.3574 -0.9843
  485TMC3    C1 7262   3.927   4.608  12.704  0.5584  0.1208  0.0045
  485TMC3    C2 7263   3.995   4.550  12.810 -0.5225 -0.2397 -0.3091
  485TMC3    C3 7264   4.127   4.591  12.831 -0.5756  0.0024 -0.0173
  485TMC3    C4 7265   3.989   4.679  12.606 -0.3185  0.5355  0.5349
  485TMC3    C5 7266   4.122   4.712  12.635  0.5102 -0.0570 -0.5191
  485TMC3    C6 7267   4.182   4.679  12.749 -0.0095 -0.6738 -0.4058
  485TMC3     C 7268   3.787   4.555  12.681 -0.7690 -0.3832 -0.0978
  485TMC3     O 7269   3.761   4.452  12.732  0.6380  0.1626  0.1204
  485TMC3     H 7270   3.944   4.466  12.855  0.6821 -0.8808 -0.1533
  485TMC3    H1 7271   3.953   4.720  12.513  0.6584 -1.4104 -0.6969
  485TMC3    H2 7272   4.287   4.705  12.755  0.8141 -3.6079 -1.9674
  485TMC3    C7 7273   4.203   4.679  12.520  0.5549 -0.2051  0.4807
  485TMC3    C8 7274   4.216   4.493  12.869 -0.4682 -0.5164  0.1128
  485TMC3    O1 7275   4.168   4.730  12.415 -0.7390 -0.3895 -0.3918
  485TMC3    O2 7276   4.329   4.498  12.819 -0.0906 -0.7751 -0.2450
  486MPD2     C 7277   1.127   2.930  12.510  0.3095  0.3953 -0.5603
  486MPD2    C1 7278   1.084   2.979  12.632 -0.3910  0.1219  0.7142
  486MPD2    C2 7279   0.984   3.079  12.634  0.1564 -0.4792  1.0143
  486MPD2    C3 7280   0.958   3.138  12.516  0.3617 -0.0430  0.0750
  486MPD2    C4 7281   0.993   3.085  12.393 -0.5471 -0.7369 -0.1717
  486MPD2    C5 7282   1.080   2.982  12.390 -0.4151  0.3675  0.4325
  486MPD2     H 7283   0.946   3.122  12.726  1.9334  0.3689  1.3525
  486MPD2    H1 7284   0.970   3.128  12.297  0.5831  2.0809  0.8401
  486MPD2    H2 7285   1.196   2.847  12.509  1.3067  1.2549 -2.5984
  486MPD2    H3 7286   1.115   2.931  12.301 -0.9405  1.1116 -0.1983
  486MPD2     N 7287   0.867   3.246  12.522  0.2614 -0.0251 -0.3655
  486MPD2    H5 7288   0.811   3.264  12.605  2.1153  2.2246  0.3912
  486MPD2    N1 7289   1.151   2.925  12.742 -0.4646  0.6822  0.5178
  486MPD2    H7 7290   1.222   2.855  12.721 -1.8099 -0.0885 -1.4671
  487TMC3    C1 7291   1.215   2.918  12.966 -0.3913 -0.5419 -0.1976
  487TMC3    C2 7292   1.252   2.789  12.946  0.3538 -0.0734 -0.3574
  487TMC3    C3 7293   1.314   2.720  13.053  0.0967  0.1001 -0.5652
  487TMC3    C4 7294   1.253   2.988  13.075 -1.0139  0.6638  0.0548
  487TMC3    C5 7295   1.312   2.914  13.176  0.0154  0.2139  0.3216
  487TMC3    C6 7296   1.353   2.784  13.167  0.1959 -0.1864 -0.4675
  487TMC3     C 7297   1.152   2.990  12.859  0.0820  0.2697 -0.1529
  487TMC3     O 7298   1.108   3.100  12.886 -0.0713  0.2089 -0.4155
  487TMC3     H 7299   1.226   2.735  12.856 -0.0794  2.0870 -1.5266
  487TMC3    H1 7300   1.203   3.082  13.097 -0.3561  0.9158  0.4626
  487TMC3    H2 7301   1.385   2.733  13.258 -1.2162  0.4294  0.3790
  487TMC3    C7 7302   1.282   2.961  13.313 -0.0841 -0.0399 -0.4102
  487TMC3    C8 7303   1.320   2.576  13.055 -0.5528 -0.4087  0.4273
  487TMC3    O1 7304   1.276   2.876  13.399  0.1504  0.1574  0.1060
  487TMC3    O2 7305   1.418   2.515  13.085  0.5965  0.2433 -0.2490
  488MPD2     C 7306   1.173   0.161  16.082  0.6417 -0.3561 -0.5530
  488MPD2    C1 7307   1.212   0.235  16.193 -0.3315  0.2400 -0.3253
  488MPD2    C2 7308   1.166   0.199  16.318 -0.2381  0.8692  0.6696
  488MPD2    C3 7309   1.083   0.090  16.336 -0.6525  0.6894 -0.2345
  488MPD2    C4 7310   1.053   0.007  16.227 -0.5006  0.0575  0.2779
  488MPD2    C5 7311   1.099   0.043  16.108 -0.6217  0.4647 -0.1098
  488MPD2     H 7312   1.201   0.252  16.406 -1.4756  1.5463  0.7462
  488MPD2    H1 7313   1.001   4.655  16.246 -0.0970 -0.1906  0.1686
  488MPD2    H2 7314   1.201   0.177  15.979 -1.3564  1.8940 -0.7588
  488MPD2    H3 7315   1.068   4.712  16.034  1.0249  0.3059 -0.6368
  488MPD2     N 7316   1.041   0.067  16.473 -0.0660 -0.0940 -0.1343
  488MPD2    H5 7317   1.077   0.137  16.538 -0.9180 -0.9385  1.2505
  488MPD2    N1 7318   1.310   0.340  16.186 -0.5388 -0.1343 -0.0028
  488MPD2    H7 7319   1.318   0.395  16.271 -3.1869  1.1188 -0.5608
  489TMC3    C1 7320   0.978   4.686  16.664 -0.6418 -0.2488  0.9185
  489TMC3    C2 7321   1.103   4.708  16.720  0.0404  0.0929 -0.5428
  489TMC3    C3 7322   1.126   4.691  16.854 -0.4897  0.1009 -0.6103
  489TMC3    C4 7323   0.877   4.628  16.730  0.3063  0.1403 -0.7045
  489TMC3    C5 7324   0.905   4.605  16.866  1.0581  0.0681  0.2809
  489TMC3    C6 7325   1.021   4.647  16.923  0.5678 -0.0518  0.1854
  489TMC3     C 7326   0.959   4.709  16.521 -0.0079 -0.5326  1.0097
  489TMC3     O 7327   0.884   4.634  16.463 -0.5337  0.2197  0.7092
  489TMC3     H 7328   1.185   0.001  16.657 -0.4324  1.9666 -0.1416
  489TMC3    H1 7329   0.780   4.618  16.683 -0.6171 -0.3432  1.3316
  489TMC3    H2 7330   1.029   4.611  17.025  2.5895  0.0987  0.0667
  489TMC3    C7 7331   0.796   4.562  16.963  0.6815  0.7032 -0.4523
  489TMC3    C8 7332   1.199   0.057  16.921 -0.2416 -0.2176 -0.1095
  489TMC3    O1 7333   0.821   4.550  17.080  0.4610 -0.2362 -0.2289
  489TMC3    O2 7334   1.240   0.145  16.849  0.2545 -0.1550 -0.2206
  490MPD2     C 7335   2.271   0.243  17.198 -0.4823  0.3163  0.2535
  490MPD2    C1 7336   2.291   0.114  17.172 -0.0822  0.8863 -0.3536
  490MPD2    C2 7337   2.419   0.085  17.127 -0.2747  0.0127 -0.1117
  490MPD2    C3 7338   2.523   0.172  17.104  0.4813 -0.1510  0.3622
  490MPD2    C4 7339   2.486   0.304  17.111 -0.5050 -0.6139  0.3042
  490MPD2    C5 7340   2.360   0.339  17.161  0.1369 -0.4591  0.4558
  490MPD2     H 7341   2.433   4.719  17.118 -1.5008  0.1775 -4.1143
  490MPD2    H1 7342   2.555   0.383  17.083 -1.1395 -0.7029 -1.4901
  490MPD2    H2 7343   2.169   0.274  17.218 -0.6928 -0.8969  1.0237
  490MPD2    H3 7344   2.331   0.441  17.180  0.1015 -0.5816  1.0437
  490MPD2     N 7345   2.646   0.139  17.053  0.2628 -0.1122 -0.2269
  490MPD2    H5 7346   2.715   0.212  17.037 -0.1165  0.4827  0.7959
  490MPD2    N1 7347   2.197   0.015  17.192 -0.0089 -0.0938  0.4051
  490MPD2    H7 7348   2.229   4.662  17.172 -0.0794 -0.0213 -0.0454
  491TMC3    C1 7349   2.009   4.640  17.279 -0.6066  0.5563 -0.2586
  491TMC3    C2 7350   2.081   4.542  17.349  0.2557  0.3693  0.0344
  491TMC3    C3 7351   2.003   4.429  17.376 -0.0343  0.0318  0.1165
  491TMC3    C4 7352   1.884   4.614  17.229 -0.1339  0.0280 -0.4565
  491TMC3    C5 7353   1.827   4.496  17.237 -0.0041  0.2077 -0.5472
  491TMC3    C6 7354   1.881   4.399  17.316 -0.0996  0.1364  0.3063
  491TMC3     C 7355   2.070   0.023  17.236 -0.9943  0.3818 -0.0345
  491TMC3     O 7356   1.997   0.119  17.248 -0.3951 -0.1240  0.1892
  491TMC3     H 7357   2.187   4.551  17.371 -0.0293  0.5719  1.3550
  491TMC3    H1 7358   1.847   4.694  17.164 -0.3324 -0.0621 -0.4549
  491TMC3    H2 7359   1.828   4.314  17.357 -0.5738  0.1970 -0.1762
  491TMC3    C7 7360   1.718   4.462  17.157 -0.4432 -0.3422  0.5517
  491TMC3    C8 7361   2.013   4.377  17.515 -0.2633  0.8138 -0.2662
  491TMC3    O1 7362   1.693   4.341  17.152 -0.2840  0.1497 -0.6890
  491TMC3    O2 7363   1.944   4.283  17.547 -0.0400 -0.3188 -0.2863
  492MPD2     C 7364   2.887   4.078  10.904  0.1706 -0.1889  0.1864
  492MPD2    C1 7365   2.781   4.106  10.825  0.0734  0.2583 -0.1026
  492MPD2    C2 7366   2.665   4.155  10.883 -0.8943 -0.1811  0.0346
  492MPD2    C3 7367   2.665   4.180  11.021 -0.5866 -0.3218  0.5966
  492MPD2    C4 7368   2.769   4.136  11.099 -0.2906 -0.4532  0.3334
  492MPD2    C5 7369   2.886   4.088  11.040 -0.2050 -1.0700  0.6238
  492MPD2     H 7370   2.583   4.171  10.815 -2.1165  1.0938  1.8103
  492MPD2    H1 7371   2.770   4.154  11.206 -1.3919  0.0193  0.2609
  492MPD2    H2 7372   2.985   4.060  10.861  1.0861 -2.0418  3.0588
  492MPD2    H3 7373   2.961   4.066  11.115 -0.6896 -0.1723  1.3787
  492MPD2     N 7374   2.559   4.248  11.091  0.5590 -0.1878  0.2122
  492MPD2    H5 7375   2.557   4.247  11.192 -0.5399  1.1053  0.1962
  492MPD2    N1 7376   2.802   4.089  10.686 -0.0256 -1.1518 -0.1864
  492MPD2    H7 7377   2.898   4.061  10.666  0.6120  0.5276  0.4984
  493TMC3    C1 7378   2.753   4.087  10.454 -0.3695  0.0862 -1.0001
  493TMC3    C2 7379   2.821   4.195  10.413  0.0651 -0.6323 -0.0216
  493TMC3    C3 7380   2.796   4.240  10.285  0.6590 -1.2749  0.1700
  493TMC3    C4 7381   2.653   4.030  10.374 -0.1438 -0.4706  0.2759
  493TMC3    C5 7382   2.631   4.080  10.246 -0.4381 -0.8227  0.2520
  493TMC3    C6 7383   2.705   4.186  10.202 -0.3476  0.0257  0.4719
  493TMC3     C 7384   2.710   4.098  10.589 -1.0139  0.3980  0.2150
  493TMC3     O 7385   2.586   4.091  10.601 -0.4481  0.1506 -0.5233
  493TMC3     H 7386   2.884   4.254  10.479 -0.4961 -0.5235  0.4055
  493TMC3    H1 7387   2.587   3.950  10.408 -0.6353  0.4603  1.5300
  493TMC3    H2 7388   2.685   4.240  10.110  0.2476 -0.1681  0.2339
  493TMC3    C7 7389   2.493   4.067  10.194 -0.0315  0.5507 -0.3617
  493TMC3    C8 7390   2.862   4.343  10.214  0.2284  0.5465  0.1499
  493TMC3    O1 7391   2.414   3.996  10.261  0.4832  0.0724 -0.1407
  493TMC3    O2 7392   2.915   4.317  10.105 -0.3590 -0.5514 -0.7397
  494TMC3    C1 7393   2.550   1.629   0.590  0.0567 -0.1708 -0.0801
  494TMC3    C2 7394   2.595   1.497   0.601  0.6988  0.0355 -0.2720
  494TMC3    C3 7395   2.626   1.429   0.486 -0.8643  0.0367  0.2907
  494TMC3    C4 7396   2.537   1.698   0.474  0.0956  0.3346  0.1566
  494TMC3    C5 7397   2.575   1.623   0.362  0.5435 -0.2763  0.1895
  494TMC3    C6 7398   2.624   1.492   0.364  0.1194  0.4548  0.0283
  494TMC3     C 7399   2.472   1.678   0.702  0.1347 -0.3721 -0.0435
  494TMC3     O 7400   2.514   1.635   0.809 -0.3070  0.7868  0.2701
  494TMC3     H 7401   2.609   1.435   0.689  0.4334  0.8070  0.3247
  494TMC3    H1 7402   2.509   1.802   0.479 -0.8550  0.1375 -1.1954
  494TMC3    H2 7403   2.637   1.440   0.270 -1.7854  2.3090 -1.2684
  494TMC3    C7 7404   2.605   1.687   0.236  0.2036 -0.3907  0.3737
  494TMC3    C8 7405   2.686   1.302   0.500 -0.3549 -0.5153 -0.1442
  494TMC3    O1 7406   2.684   1.628   0.161  0.0019 -0.0398  0.0136
  494TMC3    O2 7407   2.645   1.239   0.593  0.3465  0.0233 -0.0918
  495TMC3    C1 7408   1.566   3.186  14.454  0.0449 -0.1584 -0.1209
  495TMC3    C2 7409   1.509   3.267  14.361  0.2323 -0.5709  0.4826
  495TMC3    C3 7410   1.439   3.379  14.406  0.0377  0.2376 -0.0823
  495TMC3    C4 7411   1.565   3.218  14.589 -0.6016  0.6583  0.0972
  495TMC3    C5 7412   1.475   3.319  14.625 -0.2307 -0.0281  0.5433
  495TMC3    C6 7413   1.411   3.404  14.543  0.0887 -0.2271  0.6582
  495TMC3     C 7414   1.570   3.050  14.419 -0.1814 -0.2491 -0.0433
  495TMC3     O 7415   1.622   2.973  14.500  0.3310  0.0644 -0.0999
  495TMC3     H 7416   1.534   3.248  14.257  0.2791 -0.0641  0.4035
  495TMC3    H1 7417   1.621   3.163  14.664 -1.8561 -1.0137 -0.2147
  495TMC3    H2 7418   1.334   3.477  14.568 -0.6972 -0.9666  0.3737
  495TMC3    C7 7419   1.435   3.332  14.760  0.5727  0.1127 -1.1093
  495TMC3    C8 7420   1.357   3.452  14.311  0.1963  0.0951 -0.2776
  495TMC3    O1 7421   1.532   3.317  14.835  1.0647 -0.1611 -0.2401
  495TMC3    O2 7422   1.345   3.396  14.203 -0.0419  0.0282 -0.1923
  496MPD2     C 7423   3.403   3.643  15.710  0.4046 -0.2671 -0.1091
  496MPD2    C1 7424   3.418   3.626  15.573  0.2201  0.1917 -0.2691
  496MPD2    C2 7425   3.310   3.605  15.494 -0.0231  0.0327 -0.4556
  496MPD2    C3 7426   3.186   3.571  15.556 -1.1266 -0.2464 -0.2161
  496MPD2    C4 7427   3.174   3.571  15.695 -0.2674 -0.2827 -0.6040
  496MPD2    C5 7428   3.283   3.613  15.774 -0.0642  0.1507 -0.6101
  496MPD2     H 7429   3.323   3.595  15.387 -1.9692 -1.0342 -0.5904
  496MPD2    H1 7430   3.085   3.546  15.751  0.1508  0.9113  0.6090
  496MPD2    H2 7431   3.488   3.662  15.775  2.0501  0.9909 -2.6277
  496MPD2    H3 7432   3.265   3.628  15.880 -0.4925  3.3524 -1.1507
  496MPD2     N 7433   3.073   3.519  15.487 -0.1950  0.0807  1.1702
  496MPD2    H5 7434   2.991   3.493  15.541  0.1489  0.0054  1.6599
  496MPD2    N1 7435   3.554   3.634  15.522  0.1636 -0.1722  0.2005
  496MPD2    H7 7436   3.637   3.645  15.579  0.7482  4.4710 -1.5067
  497TMC3    C1 7437   2.962   3.374  15.328 -0.1166 -0.4143  1.1426
  497TMC3    C2 7438   2.952   3.346  15.196  0.2320  0.6459 -0.5725
  497TMC3    C3 7439   2.948   3.208  15.168  0.3969 -0.4766 -0.1415
  497TMC3    C4 7440   2.955   3.287  15.430 -0.6712 -0.3420 -0.2824
  497TMC3    C5 7441   2.943   3.154  15.402  0.4238 -0.4184 -0.4400
  497TMC3    C6 7442   2.942   3.118  15.269  0.4124 -0.2434  0.1837
  497TMC3     C 7443   3.060   3.477  15.352  0.0605  0.1590  1.2014
  497TMC3     O 7444   3.131   3.505  15.254  0.3303  0.0471 -0.3300
  497TMC3     H 7445   2.969   3.422  15.121  0.1926 -0.1375 -1.3734
  497TMC3    H1 7446   2.933   3.325  15.529 -1.6831  0.6950 -0.8914
  497TMC3    H2 7447   2.922   3.013  15.251  1.2123 -0.5590  1.1068
  497TMC3    C7 7448   3.028   3.065  15.473  0.3196 -0.7462  0.1494
  497TMC3    C8 7449   2.978   3.153  15.035  0.0608 -0.2479 -0.0031
  497TMC3    O1 7450   3.028   2.944  15.440  0.8546  0.6189 -0.1242
  497TMC3    O2 7451   3.027   3.040  15.032  0.0135  0.2668  0.2375
  498MPD2     C 7452   4.237   3.463   9.466 -0.8917  0.4747 -0.2389
  498MPD2    C1 7453   4.221   3.578   9.542  0.2083 -0.5640  0.2408
  498MPD2    C2 7454   4.190   3.560   9.678 -0.1305  0.0330 -0.4079
  498MPD2    C3 7455   4.170   3.434   9.732  0.5613  0.0612 -0.3216
  498MPD2    C4 7456   4.187   3.326   9.649 -0.2817  0.0554 -0.2305
  498MPD2    C5 7457   4.226   3.341   9.519  0.3035 -0.3429  0.1935
  498MPD2     H 7458   4.166   3.649   9.735  1.2701  0.7660 -0.9728
  498MPD2    H1 7459   4.163   3.225   9.680  1.6875 -1.0107 -2.1580
  498MPD2    H2 7460   4.260   3.471   9.360  0.9664  0.2703  0.1637
  498MPD2    H3 7461   4.250   3.259   9.454  1.7587  1.1632 -1.1548
  498MPD2     N 7462   4.132   3.414   9.864 -0.0277 -0.7991  1.0172
  498MPD2    H5 7463   4.121   3.320   9.901  2.0996 -1.4554 -0.0373
  498MPD2    N1 7464   4.239   3.708   9.494  0.1187  0.0643 -0.2592
  498MPD2    H7 7465   4.227   3.788   9.555  1.6793 -0.9815  1.4087
  499TMC3    C1 7466   4.268   3.886   9.349 -0.0138  0.0727  0.0924
  499TMC3    C2 7467   4.271   3.922   9.221 -0.1066 -0.7053  0.1540
  499TMC3    C3 7468   4.342   4.025   9.178 -0.5062 -0.1910  1.2388
  499TMC3    C4 7469   4.346   3.951   9.450 -0.9045  0.1256 -0.1536
  499TMC3    C5 7470   4.414   4.060   9.402 -0.5369 -0.9395  0.0126
  499TMC3    C6 7471   4.416   4.101   9.267  0.4390  0.0773 -0.0189
  499TMC3     C 7472   4.256   3.738   9.362 -0.5973 -0.2066  0.3441
  499TMC3     O 7473   4.275   3.674   9.256 -0.8628  0.4024 -0.1501
  499TMC3     H 7474   4.226   3.858   9.145 -0.2811  0.0118 -0.3437
  499TMC3    H1 7475   4.355   3.911   9.550 -1.4504 -0.3892 -0.3110
  499TMC3    H2 7476   4.487   4.171   9.226  1.0321 -0.2888  0.3866
  499TMC3    C7 7477   4.532   4.095   9.474 -0.2054 -0.9271  0.8883
  499TMC3    C8 7478   4.383   4.027   9.037 -0.4014  0.1317 -0.3266
  499TMC3    O1 7479   4.624   4.153   9.413 -0.0276  0.7459  0.1134
  499TMC3    O2 7480   4.378   3.922   8.974 -0.2838 -0.0886  0.6345
  500MPD2     C 7481   1.002   0.668  11.158  0.2735  0.2248 -0.5455
  500MPD2    C1 7482   1.092   0.644  11.052 -0.7590  0.6044  0.9014
  500MPD2    C2 7483   1.051   0.599  10.927  0.2919  0.1295 -0.1337
  500MPD2    C3 7484   0.917   0.598  10.900  0.2300  0.0935  0.3609
  500MPD2    C4 7485   0.832   0.628  11.003  0.4467 -0.2235  0.2663
  500MPD2    C5 7486   0.870   0.665  11.128  0.0073 -0.2618  0.3723
  500MPD2     H 7487   1.123   0.588  10.847  2.5935 -2.6867  2.3074
  500MPD2    H1 7488   0.727   0.621  10.978  0.1567 -0.6845  1.5892
  500MPD2    H2 7489   1.033   0.702  11.256  1.2258 -2.9569  0.2519
  500MPD2    H3 7490   0.791   0.688  11.199 -0.8069 -2.6658  0.2741
  500MPD2     N 7491   0.865   0.571  10.768 -0.0750 -1.0162  0.0599
  500MPD2    H5 7492   0.767   0.550  10.763 -0.8131  2.0262  1.2225
  500MPD2    N1 7493   1.229   0.662  11.070  0.2567 -0.8802 -0.0552
  500MPD2    H7 7494   1.281   0.634  10.987 -1.4372 -2.1699 -0.6990
  501TMC3    C1 7495   1.446   0.696  11.168  0.1520 -0.2364 -0.9281
  501TMC3    C2 7496   1.500   0.717  11.046 -0.4467 -0.2963 -1.3101
  501TMC3    C3 7497   1.640   0.713  11.036  0.4493  0.0541 -0.3518
  501TMC3    C4 7498   1.527   0.681  11.279 -0.0789  0.1227  0.1401
  501TMC3    C5 7499   1.666   0.674  11.258  0.1676 -0.5425  0.0412
  501TMC3    C6 7500   1.729   0.685  11.137  0.4504  0.9044 -0.3483
  501TMC3     C 7501   1.298   0.677  11.187 -0.0815  0.0132  0.0548
  501TMC3     O 7502   1.253   0.710  11.295 -0.4013  0.3044 -0.1664
  501TMC3     H 7503   1.440   0.741  10.958 -1.2786 -2.3704 -1.3076
  501TMC3    H1 7504   1.486   0.689  11.379 -0.1893  1.6380 -0.0304
  501TMC3    H2 7505   1.836   0.682  11.119  0.8946 -0.2600  2.5736
  501TMC3    C7 7506   1.764   0.630  11.355 -0.2204  0.2063  0.1729
  501TMC3    C8 7507   1.710   0.784  10.926  0.3048 -0.8684 -0.2447
  501TMC3    O1 7508   1.882   0.627  11.316  0.5982  0.0839 -0.0516
  501TMC3    O2 7509   1.819   0.842  10.951  0.5122  0.0366  0.5500
  502TMC3    C1 7510   0.866   3.917  14.594  0.1747 -0.0345 -0.0288
  502TMC3    C2 7511   0.857   4.041  14.531 -0.3590  0.3939  0.2277
  502TMC3    C3 7512   0.761   4.131  14.573 -0.1818 -0.0716  0.2312
  502TMC3    C4 7513   0.780   3.887  14.705 -0.5385  0.5010 -0.3114
  502TMC3    C5 7514   0.682   3.975  14.737 -0.0567 -0.2491 -0.4593
  502TMC3    C6 7515   0.682   4.102  14.683  0.5485  0.3659  0.3687
  502TMC3     C 7516   1.004   3.915  14.635  0.5856  0.4890  0.6321
  502TMC3     O 7517   1.085   3.959  14.559 -0.1435 -0.2814  0.3326
  502TMC3     H 7518   0.911   4.063  14.440  0.4522  2.0632  1.1039
  502TMC3    H1 7519   0.765   3.786  14.740  1.9070 -0.2842 -1.5051
  502TMC3    H2 7520   0.627   4.182  14.730 -1.1890 -0.7544  0.2602
  502TMC3    C7 7521   0.651   3.969  14.879 -0.0688 -1.0991 -0.0985
  502TMC3    C8 7522   0.827   4.253  14.598 -0.0896 -0.0771 -0.0278
  502TMC3    O1 7523   0.717   3.908  14.958 -0.1708  0.2213 -0.5946
  502TMC3    O2 7524   0.761   4.340  14.651 -0.4422 -0.0058 -1.0935
  503MPD2     C 7525   3.026   0.502  16.779  0.3554  0.4313 -0.1379
  503MPD2    C1 7526   3.045   0.551  16.905 -0.0508  0.5025  0.2965
  503MPD2    C2 7527   3.131   0.489  16.990 -0.1445 -1.0055  0.9015
  503MPD2    C3 7528   3.208   0.377  16.960 -0.3613  0.3116  0.3430
  503MPD2    C4 7529   3.192   0.331  16.831  0.3304 -0.3024 -0.0475
  503MPD2    C5 7530   3.103   0.394  16.746  0.1490  0.0658 -0.0505
  503MPD2     H 7531   3.144   0.529  17.090  0.8504  0.4239  0.1912
  503MPD2    H1 7532   3.238   0.240  16.796 -1.7486  0.3077 -4.3760
  503MPD2    H2 7533   2.977   0.545  16.692 -2.9867 -0.7959  1.1327
  503MPD2    H3 7534   3.082   0.342  16.653 -1.6282 -0.1673  0.4906
  503MPD2     N 7535   3.293   0.315  17.052  0.0301  0.1263 -0.4311
  503MPD2    H5 7536   3.302   0.355  17.145  0.7398 -1.9612  0.4006
  503MPD2    N1 7537   2.982   0.671  16.955 -0.8030  0.1033  0.1177
  503MPD2    H7 7538   2.996   0.687  17.054 -3.0296 -2.0768  0.7645
  504TMC3    C1 7539   3.476   0.183  17.129  1.4717  0.6754  0.1078
  504TMC3    C2 7540   3.456   0.216  17.254 -0.2206 -0.8429  0.0896
  504TMC3    C3 7541   3.549   0.187  17.355 -0.7715  0.3565 -0.1344
  504TMC3    C4 7542   3.578   0.102  17.087  0.1605 -0.5196 -0.0906
  504TMC3    C5 7543   3.670   0.071  17.183  0.2642  0.4027 -0.4548
  504TMC3    C6 7544   3.663   0.120  17.315 -1.4490 -0.7868 -0.4982
  504TMC3     C 7545   3.366   0.201  17.035  0.2154 -0.4345  0.5368
  504TMC3     O 7546   3.357   0.125  16.937  0.5997  0.1068  0.1144
  504TMC3     H 7547   3.363   0.260  17.288  0.0758 -0.2517  0.1306
  504TMC3    H1 7548   3.591   0.083  16.981 -1.0220  0.6035 -0.4268
  504TMC3    H2 7549   3.750   0.139  17.376 -1.9482 -0.2385  0.0475
  504TMC3    C7 7550   3.794   0.008  17.134 -0.0581 -1.3177  0.0161
  504TMC3    C8 7551   3.523   0.247  17.483  0.1809  0.6449 -0.5904
  504TMC3    O1 7552   3.803   4.735  17.010 -0.8582  0.0021  0.2212
  504TMC3    O2 7553   3.457   0.345  17.484 -0.2118  0.5998  0.4567
  505MPD2     C 7554   3.588   3.349  11.258 -0.7184 -0.0143  1.0139
  505MPD2    C1 7555   3.681   3.248  11.247  0.1134 -0.5004  0.3498
  505MPD2    C2 7556   3.820   3.274  11.253 -0.0613  0.5728  0.3292
  505MPD2    C3 7557   3.854   3.408  11.271  0.3499 -0.6055  1.0897
  505MPD2    C4 7558   3.760   3.512  11.286 -0.0953  0.0077 -0.1236
  505MPD2    C5 7559   3.629   3.477  11.288 -0.5502  0.4221  0.9992
  505MPD2     H 7560   3.896   3.197  11.244 -2.2618 -1.4784 -0.8897
  505MPD2    H1 7561   3.778   3.617  11.307  1.0229 -0.5424  1.6763
  505MPD2    H2 7562   3.483   3.341  11.230  0.1590 -1.2622 -1.9054
  505MPD2    H3 7563   3.551   3.552  11.299  0.8423  2.1603 -1.0308
  505MPD2     N 7564   3.998   3.433  11.269  0.0903  0.4439 -0.4312
  505MPD2    H5 7565   4.055   3.350  11.260 -1.2818 -0.4597 -0.8136
  505MPD2    N1 7566   3.635   3.113  11.226 -0.2892  0.3046 -0.9027
  505MPD2    H7 7567   3.535   3.101  11.213 -0.1992 -2.5962  1.0073
  506TMC3    C1 7568   3.669   2.882  11.159  0.0097  0.0348  0.2560
  506TMC3    C2 7569   3.598   2.907  11.042 -0.3084  0.2815  0.1050
  506TMC3    C3 7570   3.635   2.829  10.937 -0.9424 -0.4050 -0.5435
  506TMC3    C4 7571   3.768   2.788  11.167 -0.1749  1.3520 -0.2570
  506TMC3    C5 7572   3.803   2.710  11.056  0.2300  1.1042 -0.4953
  506TMC3    C6 7573   3.734   2.732  10.940  0.5214  0.3790  0.1938
  506TMC3     C 7574   3.718   3.004  11.212  0.1861  0.0459  0.5101
  506TMC3     O 7575   3.841   2.995  11.226 -0.2895  0.4085 -0.2214
  506TMC3     H 7576   3.529   2.990  11.026 -1.0289 -0.3244  0.0871
  506TMC3    H1 7577   3.817   2.757  11.259  0.0246  0.0908 -0.7888
  506TMC3    H2 7578   3.758   2.697  10.841 -1.3868  0.2586 -0.2301
  506TMC3    C7 7579   3.940   2.691  11.033  0.2866  0.5742  0.1201
  506TMC3    C8 7580   3.582   2.854  10.807 -0.4375  0.7002  0.0438
  506TMC3    O1 7581   3.969   2.606  10.951  0.4264 -0.6179  0.0386
  506TMC3    O2 7582   3.466   2.842  10.790  0.1921 -0.6060  0.0172
  507TMC3    C1 7583   4.293   4.573  15.835 -0.1414  0.0060 -0.0826
  507TMC3    C2 7584   4.299   4.553  15.704  0.8644 -0.5302 -0.1876
  507TMC3    C3 7585   4.411   4.603  15.639  0.1609 -0.4292 -0.0801
  507TMC3    C4 7586   4.396   4.626  15.904  0.5251 -0.0992  0.0390
  507TMC3    C5 7587   4.511   4.668  15.837 -0.3233  0.0091 -0.0035
  507TMC3    C6 7588   4.524   4.641  15.706  0.0657  0.1240  0.4136
  507TMC3     C 7589   4.167   4.545  15.897  0.8865  0.1074  0.1412
  507TMC3     O 7590   4.083   4.493  15.827  0.4587  0.3175  0.1038
  507TMC3     H 7591   4.216   4.515  15.645 -0.1269 -1.2200  1.6793
  507TMC3    H1 7592   4.391   4.625  16.012 -0.9943 -1.4074 -0.0414
  507TMC3    H2 7593   4.618   4.642  15.652 -0.4453 -2.7365 -0.5530
  507TMC3    C7 7594   4.566   0.049  15.869 -0.1462  0.3368  0.1814
  507TMC3    C8 7595   4.401   4.696  15.527 -0.7193 -0.3574 -0.1626
  507TMC3    O1 7596   4.545   0.084  15.982  0.3749 -0.5360  0.1392
  507TMC3    O2 7597   4.502   0.025  15.505  0.0596  0.1971  0.3142
  508MPD2     C 7598   0.451   1.983  16.057 -0.3002 -0.9025  0.1271
  508MPD2    C1 7599   0.441   2.087  16.150 -0.2446  0.4108 -0.6439
  508MPD2    C2 7600   0.453   2.218  16.105 -0.5182  0.9297 -0.6074
  508MPD2    C3 7601   0.468   2.245  15.972  0.0821  0.2387 -0.0397
  508MPD2    C4 7602   0.459   2.143  15.882 -0.6581  0.3329  0.3807
  508MPD2    C5 7603   0.455   2.010  15.918  0.1335  0.1421  0.2052
  508MPD2     H 7604   0.457   2.299  16.177 -0.6811 -0.2095  0.6771
  508MPD2    H1 7605   0.453   2.168  15.776 -1.1294 -2.4271 -0.2321
  508MPD2    H2 7606   0.456   1.881  16.094  2.6314 -0.7335  0.1973
  508MPD2    H3 7607   0.457   1.928  15.847  1.5024  1.5327 -1.3385
  508MPD2     N 7608   0.483   2.381  15.944 -0.6033  0.0134  0.1101
  508MPD2    H5 7609   0.493   2.449  16.019 -0.5591 -2.3910  2.2757
  508MPD2    N1 7610   0.414   2.052  16.283  0.1495  0.2333 -0.4125
  508MPD2    H7 7611   0.421   1.954  16.308  1.2155  0.3113 -0.4042
  509TMC3    C1 7612   0.379   2.775  15.834  0.5159  0.0926  0.2709
  509TMC3    C2 7613   0.457   2.817  15.939  0.1970  0.7906 -0.8583
  509TMC3    C3 7614   0.565   2.743  15.970  0.1048 -0.6214 -0.1144
  509TMC3    C4 7615   0.385   2.651  15.781  0.1928 -0.2895  0.4838
  509TMC3    C5 7616   0.494   2.578  15.819 -0.4919 -0.3939 -0.1594
  509TMC3    C6 7617   0.581   2.619  15.918  0.1449 -0.2009 -0.7026
  509TMC3     C 7618   0.273   2.864  15.803  0.5523 -0.9345 -0.3428
  509TMC3     O 7619   0.252   2.949  15.889 -0.0050  0.3660  0.4993
  509TMC3     H 7620   0.447   2.920  15.973  0.0763  1.1257 -1.9089
  509TMC3    H1 7621   0.309   2.625  15.708 -0.0231 -1.6380  1.1923
  509TMC3    H2 7622   0.669   2.561  15.945 -0.0909 -1.2710 -2.2084
  509TMC3    C7 7623   0.474   2.437  15.812 -0.0788 -0.1321 -0.2055
  509TMC3    C8 7624   0.668   2.794  16.060 -0.4620 -0.1722 -0.0425
  509TMC3    O1 7625   0.440   2.391  15.705  0.8304 -0.6844 -0.5265
  509TMC3    O2 7626   0.710   2.715  16.145  0.5448  0.6303  0.0515
  510MPD2     C 7627   2.744   4.209  14.615  0.2631  0.3361 -0.0161
  510MPD2    C1 7628   2.821   4.112  14.676  0.2974  0.0337 -0.4167
  510MPD2    C2 7629   2.950   4.095  14.623 -0.0440 -0.1858 -0.6369
  510MPD2    C3 7630   3.000   4.172  14.521  0.7094  0.0067  0.0292
  510MPD2    C4 7631   2.922   4.266  14.460  0.1288 -0.7904  0.9785
  510MPD2    C5 7632   2.792   4.271  14.506 -0.0960  0.0609 -0.9234
  510MPD2     H 7633   3.020   4.024  14.667  1.7113  1.0420 -1.4714
  510MPD2    H1 7634   2.942   4.330  14.375 -0.6924 -2.1073 -0.2134
  510MPD2    H2 7635   2.638   4.215  14.637  0.5469 -1.6385  1.9591
  510MPD2    H3 7636   2.730   4.352  14.469 -0.6251  0.1461  0.1488
  510MPD2     N 7637   3.137   4.149  14.489  0.3973 -0.1693 -0.2692
  510MPD2    H5 7638   3.198   4.097  14.552  0.3525  0.8297  0.5936
  510MPD2    N1 7639   2.764   4.029  14.776 -0.7518 -0.6554  0.2469
  510MPD2    H7 7640   2.672   4.056  14.808 -0.0751  2.0750 -0.0994
  511TMC3    C1 7641   2.742   3.855  14.934 -0.0895 -0.1833  0.1862
  511TMC3    C2 7642   2.657   3.934  15.004  0.5407  0.2039  0.0060
  511TMC3    C3 7643   2.587   3.869  15.095 -0.2925  0.0177  0.6404
  511TMC3    C4 7644   2.750   3.716  14.952  0.0815 -0.2444 -0.4660
  511TMC3    C5 7645   2.672   3.662  15.051 -0.5685  0.6053 -0.7884
  511TMC3    C6 7646   2.588   3.737  15.123 -0.6107  0.5341  0.5508
  511TMC3     C 7647   2.821   3.915  14.822 -0.3492  0.5332  0.1892
  511TMC3     O 7648   2.911   3.850  14.771 -0.0877  0.2525  0.2260
  511TMC3     H 7649   2.652   4.043  14.998 -0.3939  0.2593  1.9509
  511TMC3    H1 7650   2.802   3.653  14.881  0.5865 -0.6027  0.2353
  511TMC3    H2 7651   2.531   3.700  15.208 -0.5730  1.2400  0.8846
  511TMC3    C7 7652   2.685   3.518  15.063  0.0974  0.2346  0.7218
  511TMC3    C8 7653   2.499   3.945  15.181  0.1023  0.6732 -0.4482
  511TMC3    O1 7654   2.765   3.460  14.992 -0.1154 -0.7316  0.2139
  511TMC3    O2 7655   2.552   4.042  15.231 -0.0827  0.7901  0.1789
  512TMC3    C1 7656   1.747   3.433  13.007 -0.4099 -0.0771 -0.1883
  512TMC3    C2 7657   1.818   3.403  13.122  0.1759  0.0313  0.2887
  512TMC3    C3 7658   1.883   3.281  13.131  0.5015  0.3163 -0.6248
  512TMC3    C4 7659   1.730   3.332  12.912 -0.0850  0.1490  0.7709
  512TMC3    C5 7660   1.800   3.217  12.919 -0.3013 -0.5779  0.4147
  512TMC3    C6 7661   1.867   3.181  13.036 -0.1397  0.4713 -1.1539
  512TMC3     C 7662   1.663   3.544  12.983  0.3272  0.4649 -0.0730
  512TMC3     O 7663   1.601   3.555  12.877  0.5689 -0.2502 -0.6721
  512TMC3     H 7664   1.826   3.476  13.202 -1.3832 -1.3146  1.6515
  512TMC3    H1 7665   1.657   3.336  12.832  1.8440  0.5409 -0.9701
  512TMC3    H2 7666   1.939   3.101  13.038 -2.0618 -1.2862 -2.3702
  512TMC3    C7 7667   1.799   3.134  12.802  0.1450 -0.0409  0.4673
  512TMC3    C8 7668   1.970   3.253  13.245 -0.1922 -0.2448 -0.4875
  512TMC3    O1 7669   1.784   3.188  12.694 -0.1959  0.6097  0.0323
  512TMC3    O2 7670   2.035   3.152  13.249  0.1386 -0.1884 -0.3838
  513MPD2     C 7671   3.029   3.017  13.487 -0.0811  0.3631  0.2278
  513MPD2    C1 7672   3.097   2.902  13.455 -0.4862 -0.5243 -0.4024
  513MPD2    C2 7673   3.206   2.863  13.522  0.2199  0.4052 -0.1582
  513MPD2    C3 7674   3.251   2.929  13.638 -0.5575  0.0171 -0.8063
  513MPD2    C4 7675   3.173   3.034  13.678 -0.5115  0.1501 -0.6292
  513MPD2    C5 7676   3.060   3.075  13.601 -0.7774 -0.0677  0.1283
  513MPD2     H 7677   3.267   2.780  13.488 -1.8623 -0.8326 -0.8880
  513MPD2    H1 7678   3.201   3.095  13.763 -0.1853  1.8727 -1.9869
  513MPD2    H2 7679   2.949   3.059  13.426  0.4722 -2.1989 -2.2345
  513MPD2    H3 7680   3.007   3.168  13.622 -0.0111 -0.2410  2.8184
  513MPD2     N 7681   3.375   2.890  13.702  0.2005 -0.0748 -0.4297
  513MPD2    H5 7682   3.418   2.810  13.658  0.3637 -0.7934  1.0382
  513MPD2    N1 7683   3.072   2.826  13.346 -0.1294  0.0668 -0.5415
  513MPD2    H7 7684   3.142   2.753  13.334 -3.1361 -2.9106  0.0034
  514TMC3    C1 7685   2.992   2.763  13.130  1.1020  0.1123 -0.0987
  514TMC3    C2 7686   2.895   2.721  13.050 -0.4609 -0.8820 -0.0837
  514TMC3    C3 7687   2.930   2.655  12.932 -0.7025 -0.1526 -0.0495
  514TMC3    C4 7688   3.129   2.738  13.109 -0.0103  0.5105 -0.4122
  514TMC3    C5 7689   3.164   2.652  13.004  0.0304 -0.0413  0.2776
  514TMC3    C6 7690   3.066   2.613  12.914 -0.3632 -0.3907  0.1232
  514TMC3     C 7691   2.968   2.839  13.254  0.7614  0.0120 -0.5264
  514TMC3     O 7692   2.867   2.906  13.246  0.0316  0.6798  0.4946
  514TMC3     H 7693   2.791   2.750  13.060 -0.7143 -0.7346 -3.0852
  514TMC3    H1 7694   3.207   2.793  13.160  0.6403  0.2566 -1.1246
  514TMC3    H2 7695   3.091   2.539  12.839 -0.8182  0.3188 -0.7319
  514TMC3    C7 7696   3.304   2.609  12.997 -0.1740  0.6883 -0.5023
  514TMC3    C8 7697   2.852   2.687  12.816 -0.7176 -0.1338 -0.5010
  514TMC3    O1 7698   3.344   2.561  12.891 -0.1676 -0.3528  0.5816
  514TMC3    O2 7699   2.737   2.730  12.827 -0.1594 -0.2148  0.3362
  515MPD2     C 7700   1.842   0.089  15.048 -0.0802  0.0145  0.4149
  515MPD2    C1 7701   1.879   0.144  14.930  0.8113  0.0917 -0.4725
  515MPD2    C2 7702   1.932   0.272  14.917  0.1567 -0.2119 -0.3646
  515MPD2    C3 7703   1.982   0.336  15.027  0.1163  0.4070  0.0559
  515MPD2    C4 7704   1.961   0.269  15.148  0.7084 -0.5674  0.3603
  515MPD2    C5 7705   1.890   0.154  15.159 -0.6183  0.4862 -0.5061
  515MPD2     H 7706   1.944   0.313  14.817 -0.5523  1.6211  0.3018
  515MPD2    H1 7707   1.996   0.314  15.240 -0.9478  0.0353  0.6975
  515MPD2    H2 7708   1.782   0.001  15.067  1.0281 -0.5778  1.1846
  515MPD2    H3 7709   1.874   0.106  15.255  0.7430  1.5734  0.2701
  515MPD2     N 7710   2.063   0.451  15.034  0.0986 -0.0814  0.1654
  515MPD2    H5 7711   2.096   0.483  15.125  0.5232  1.7037 -0.6007
  515MPD2    N1 7712   1.829   0.088  14.810 -0.1574  0.6974  0.1867
  515MPD2    H7 7713   1.823   0.147  14.728  0.7747  1.1872  0.4751
  516TMC3    C1 7714   1.748   4.662  14.656  0.9575  0.6305  0.1638
  516TMC3    C2 7715   1.638   0.002  14.619  0.4553 -0.5481 -0.5215
  516TMC3    C3 7716   1.528   4.684  14.563  0.0778 -0.2085 -0.1790
  516TMC3    C4 7717   1.753   4.535  14.625 -0.2252  0.4387  0.0657
  516TMC3    C5 7718   1.643   4.475  14.566 -0.0790 -0.0467 -0.3242
  516TMC3    C6 7719   1.529   4.545  14.543  0.2188 -0.0677 -0.4975
  516TMC3     C 7720   1.807   4.692  14.786  0.0642 -0.1543 -1.0202
  516TMC3     O 7721   1.819   4.596  14.865  0.3864  0.0119  0.1391
  516TMC3     H 7722   1.642   0.110  14.631  0.8148 -0.5751 -0.3795
  516TMC3    H1 7723   1.843   4.484  14.659 -1.2478 -0.7525  0.9863
  516TMC3    H2 7724   1.442   4.487  14.516  0.2731 -0.3632 -0.0519
  516TMC3    C7 7725   1.644   4.334  14.587 -0.0687  0.3066  0.2195
  516TMC3    C8 7726   1.396   0.018  14.564  0.3409 -0.0361 -0.5505
  516TMC3    O1 7727   1.720   4.289  14.674 -0.3780 -0.7925 -0.1385
  516TMC3    O2 7728   1.299   4.710  14.513 -0.1052  0.1921  0.0799
  517MPD2     C 7729   1.697   1.889   0.067  0.0470 -0.5214 -0.8223
  517MPD2    C1 7730   1.824   1.844   0.096  0.6475 -0.4532 -0.2221
  517MPD2    C2 7731   1.889   1.917   0.198 -0.3367  0.3339 -0.9222
  517MPD2    C3 7732   1.835   2.022   0.263 -0.2801 -0.5657 -0.2818
  517MPD2    C4 7733   1.708   2.052   0.238  0.5414 -0.3721 -0.6833
  517MPD2    C5 7734   1.636   1.986   0.138 -0.5974 -0.4216  0.3461
  517MPD2     H 7735   1.989   1.883   0.219 -0.2800  1.4513  0.6183
  517MPD2    H1 7736   1.662   2.140   0.281 -0.0071  0.0336 -2.0942
  517MPD2    H2 7737   1.641   1.845  17.747  0.8484 -1.0995 -1.0628
  517MPD2    H3 7738   1.534   2.013   0.113 -0.7085 -1.0434  0.1430
  517MPD2     N 7739   1.902   2.097   0.365  0.0306  0.0918  0.1992
  517MPD2    H5 7740   1.847   2.154   0.428  0.2633  0.2444  0.2664
  517MPD2    N1 7741   1.890   1.733   0.028 -0.3201  0.5274  0.1673
  517MPD2    H7 7742   1.991   1.724   0.033 -0.4080  0.5630  1.9613
  518TMC3    C1 7743   1.915   1.522  17.699 -0.5416 -0.3052 -0.1699
  518TMC3    C2 7744   1.866   1.426  17.617  0.3051  0.0534  0.6762
  518TMC3    C3 7745   1.947   1.317  17.601  0.2492 -0.0382  0.2400
  518TMC3    C4 7746   2.034   1.517   0.006 -0.3470  0.0563 -0.2999
  518TMC3    C5 7747   2.110   1.407  17.743  0.6887  0.1015 -0.1416
  518TMC3    C6 7748   2.066   1.309  17.662  0.3845 -0.1594  0.0178
  518TMC3     C 7749   1.826   1.626  17.733  0.4706  0.0157  0.0903
  518TMC3     O 7750   1.703   1.609  17.713 -0.3083 -0.1571  0.3025
  518TMC3     H 7751   1.771   1.447  17.569  1.2378  0.1187 -1.1788
  518TMC3    H1 7752   2.081   1.587   0.074 -0.6665 -0.0213  0.0046
  518TMC3    H2 7753   2.124   1.218  17.653 -0.3381 -0.6893  0.7451
  518TMC3    C7 7754   2.225   1.382   0.069  0.3000  0.8338  0.0836
  518TMC3    C8 7755   1.906   1.199  17.525 -0.0850 -0.2314 -0.2939
  518TMC3    O1 7756   2.220   1.413   0.190 -0.1722 -0.8135 -0.4755
  518TMC3    O2 7757   1.983   1.108  17.503 -0.1333  0.0679  0.2319
  519MPD2     C 7758   3.467   4.698  14.352 -0.0097 -0.4230  0.5635
  519MPD2    C1 7759   3.407   4.741  14.238  0.1297  0.4172  0.5203
  519MPD2    C2 7760   3.448   4.691  14.114  0.1990  0.2704 -0.3012
  519MPD2    C3 7761   3.550   4.592  14.103  0.0619  0.3545  0.0909
  519MPD2    C4 7762   3.605   4.549  14.221 -0.1192  0.1070 -0.3535
  519MPD2    C5 7763   3.561   4.604  14.343 -0.2916 -0.3081 -0.9203
  519MPD2     H 7764   3.391   4.707  14.023 -0.5306 -1.7939 -0.2139
  519MPD2    H1 7765   3.673   4.464  14.227 -1.2662 -0.7310  0.8503
  519MPD2    H2 7766   3.438   4.730  14.451 -0.1529 -0.0009  0.3869
  519MPD2    H3 7767   3.605   4.576  14.438 -1.0901  0.7378 -0.2437
  519MPD2     N 7768   3.592   4.528  13.980  0.0157 -0.2824  0.1033
  519MPD2    H5 7769   3.657   4.450  13.986 -0.5971 -0.5823  2.7952
  519MPD2    N1 7770   3.312   0.100  14.251  0.1211 -0.4972 -0.2160
  519MPD2    H7 7771   3.280   0.138  14.340  1.3062 -0.8065  0.3453
  520TMC3    C1 7772   3.560   4.446  13.755 -0.0328  0.0321 -0.4433
  520TMC3    C2 7773   3.474   4.439  13.651 -0.8345  0.2237 -0.3455
  520TMC3    C3 7774   3.494   4.338  13.564 -0.2303  0.6266 -0.0734
  520TMC3    C4 7775   3.665   4.366  13.772 -0.0124  0.3146 -0.8237
  520TMC3    C5 7776   3.688   4.262  13.682  0.5439 -0.0047 -0.3289
  520TMC3    C6 7777   3.595   4.248  13.573 -0.5608  0.0263 -0.0861
  520TMC3     C 7778   3.533   4.553  13.859 -0.1224 -0.0087 -0.1834
  520TMC3     O 7779   3.474   4.659  13.822 -0.1514 -0.0568 -0.4925
  520TMC3     H 7780   3.392   4.510  13.652 -1.3706 -0.4084  0.7845
  520TMC3    H1 7781   3.733   4.370  13.857  0.7412 -1.7571 -1.3028
  520TMC3    H2 7782   3.600   4.170  13.498 -2.7128  1.7354 -1.9826
  520TMC3    C7 7783   3.782   4.159  13.716  0.2792 -0.2431  0.1116
  520TMC3    C8 7784   3.400   4.320  13.454  0.4508 -0.2965 -0.0995
  520TMC3    O1 7785   3.818   4.159  13.831  0.5655  0.0546  0.3125
  520TMC3    O2 7786   3.431   4.281  13.342  0.2165  0.3324  0.0502
  521MPD2     C 7787   4.263   2.915  17.701 -0.0454 -0.2357 -0.2074
  521MPD2    C1 7788   4.219   2.900  17.578  0.3037  1.0848 -0.0402
  521MPD2    C2 7789   4.302   2.926  17.470  0.8370  0.1726 -0.0928
  521MPD2    C3 7790   4.439   2.936  17.497  0.2315 -0.3875  0.2595
  521MPD2    C4 7791   4.484   2.923  17.629 -0.3759 -0.2704  0.9006
  521MPD2    C5 7792   4.397   2.921  17.724  0.4069  0.0049  0.2084
  521MPD2     H 7793   4.266   2.922  17.368  2.0113  0.1619 -0.4986
  521MPD2    H1 7794   4.590   2.923  17.652 -0.0995 -0.2224 -0.3704
  521MPD2    H2 7795   4.198   2.902   0.024  0.2844 -0.8964 -0.0544
  521MPD2    H3 7796   4.422   2.928   0.068  1.2827  0.3703 -0.0134
  521MPD2     N 7797   4.525   2.947  17.381  0.4587  0.0328  1.0047
  521MPD2    H5 7798   4.481   2.921  17.294  2.8306 -1.4186  0.2162
  521MPD2    N1 7799   4.084   2.874  17.569  0.5844  0.1061  0.2735
  521MPD2    H7 7800   4.032   2.867  17.656  1.4546  1.7618  0.9212
  522TMC3    C1 7801   4.726   2.936  17.267  0.1173 -0.9323 -0.3429
  522TMC3    C2 7802   0.108   2.885  17.277 -0.0432  0.2474  0.4178
  522TMC3    C3 7803   0.165   2.826  17.171 -0.9792 -0.7637 -0.1607
  522TMC3    C4 7804   4.653   2.914  17.151  0.4756  0.4444  0.0470
  522TMC3    C5 7805   4.709   2.863  17.042 -0.4374 -0.5988 -0.3672
  522TMC3    C6 7806   0.102   2.819  17.049  0.2852  0.0332  0.2958
  522TMC3     C 7807   4.661   2.952  17.394 -0.3784  0.3224 -0.0134
  522TMC3     O 7808   4.732   2.974  17.489  0.0620 -0.1368  0.7473
  522TMC3     H 7809   0.153   2.872  17.375 -0.6309 -0.4949  0.5874
  522TMC3    H1 7810   4.560   2.969  17.136 -0.8224 -1.6168  0.5023
  522TMC3    H2 7811   0.154   2.788  16.959 -0.3037 -0.0901  0.0008
  522TMC3    C7 7812   4.683   2.957  16.927  0.2248 -0.0538 -0.3781
  522TMC3    C8 7813   0.265   2.725  17.203 -0.5734  0.2909  0.2272
  522TMC3    O1 7814   0.036   3.013  16.869  0.4227  0.2451 -0.5718
  522TMC3    O2 7815   0.322   2.733  17.310 -0.1291 -0.2904  0.1214
  523MPD2     C 7816   2.510   2.889   9.725  0.0819  0.0336 -0.7750
  523MPD2    C1 7817   2.412   2.803   9.696 -0.1352  0.5217 -0.4226
  523MPD2    C2 7818   2.285   2.848   9.644  0.3087 -0.0258  0.3018
  523MPD2    C3 7819   2.269   2.979   9.601  0.6641 -0.8558 -0.0053
  523MPD2    C4 7820   2.373   3.066   9.622 -0.3189 -0.5080  0.1939
  523MPD2    C5 7821   2.488   3.020   9.684  0.0172 -0.4841 -0.6480
  523MPD2     H 7822   2.204   2.780   9.620  1.3770 -2.4344  3.4300
  523MPD2    H1 7823   2.375   3.172   9.599 -0.7585 -0.5999 -0.2724
  523MPD2    H2 7824   2.609   2.864   9.761 -0.6745  1.5852  2.4184
  523MPD2    H3 7825   2.561   3.098   9.703  1.0128 -1.4465 -0.5864
  523MPD2     N 7826   2.148   3.028   9.555  0.1161  0.6461  0.1644
  523MPD2    H5 7827   2.144   3.129   9.548 -1.4136  0.5536 -0.2340
  523MPD2    N1 7828   2.426   2.677   9.756 -0.0355 -0.2329 -0.1416
  523MPD2    H7 7829   2.507   2.664   9.816  1.1005 -0.5910 -1.7510
  524TMC3    C1 7830   1.918   3.032   9.478 -0.6103 -0.6756  0.1618
  524TMC3    C2 7831   1.808   2.960   9.465 -0.5447 -0.1993  0.4974
  524TMC3    C3 7832   1.695   3.025   9.424 -0.2329  0.2354 -1.4960
  524TMC3    C4 7833   1.921   3.170   9.469  0.4295 -0.3587 -0.1892
  524TMC3    C5 7834   1.802   3.234   9.430  0.4392 -0.2017 -0.0114
  524TMC3    C6 7835   1.691   3.159   9.399 -0.0549 -0.8553  0.1556
  524TMC3     C 7836   2.036   2.954   9.522 -0.1638 -0.5497  0.3383
  524TMC3     O 7837   2.030   2.834   9.501 -0.2705  0.0555  0.4141
  524TMC3     H 7838   1.809   2.853   9.482  1.3150 -0.5391 -1.7274
  524TMC3    H1 7839   2.011   3.230   9.473  0.1588 -0.0718  2.0038
  524TMC3    H2 7840   1.599   3.205   9.364  0.0798  1.8758  3.4495
  524TMC3    C7 7841   1.808   3.378   9.417 -0.3489 -0.0472 -0.1219
  524TMC3    C8 7842   1.577   2.944   9.400 -0.4034  0.0897  0.9497
  524TMC3    O1 7843   1.916   3.430   9.405  0.1153 -0.3122 -0.1555
  524TMC3    O2 7844   1.593   2.830   9.357  0.4066  0.3236 -0.1561
  525MPD2     C 7845   4.625   4.048  14.331  0.1700 -0.2260 -0.2349
  525MPD2    C1 7846   4.722   4.078  14.421  0.0024 -0.5074 -0.0600
  525MPD2    C2 7847   0.039   4.207  14.430 -0.0434 -0.2387  0.0757
  525MPD2    C3 7848   4.724   4.303  14.351 -0.0324  0.3215 -0.0061
  525MPD2    C4 7849   4.624   4.270  14.267 -0.3713 -0.1530  0.5179
  525MPD2    C5 7850   4.570   4.142  14.251  0.1012  0.3687  0.4662
  525MPD2     H 7851   0.113   4.220  14.509  0.6052 -0.0873 -0.5579
  525MPD2    H1 7852   4.567   4.347  14.216  3.3772  1.3488 -1.4184
  525MPD2    H2 7853   4.596   3.945  14.310 -5.0470  1.4359 -1.1683
  525MPD2    H3 7854   4.494   4.120  14.177 -0.1707  0.2319  0.7899
  525MPD2     N 7855   0.018   4.437  14.364 -0.0112  0.3983  0.0428
  525MPD2    H5 7856   4.698   4.502  14.316 -2.7865 -1.1972  1.4060
  525MPD2    N1 7857   0.020   3.979  14.517  0.4987 -0.0548  0.1228
  525MPD2    H7 7858   0.098   4.002  14.578 -0.1501  1.6612  0.3136
  526TMC3    C1 7859   0.001   3.778  14.657 -0.5632  0.3004  0.4703
  526TMC3    C2 7860   4.668   3.781  14.771  0.1428  0.3124 -0.0408
  526TMC3    C3 7861   0.003   3.767  14.886 -0.0013 -0.3804  0.1330
  526TMC3    C4 7862   0.139   3.765  14.652 -0.4483  0.2559  0.4273
  526TMC3    C5 7863   0.206   3.760  14.770 -0.6574 -0.3792  0.9191
  526TMC3    C6 7864   0.141   3.761  14.886  0.3937 -0.3811  0.3706
  526TMC3     C 7865   4.685   3.862  14.550 -0.5202  0.4096  0.0344
  526TMC3     O 7866   4.571   3.829  14.520 -0.2827  0.4699  0.2265
  526TMC3     H 7867   4.563   3.807  14.760 -0.0696 -0.2211  0.7359
  526TMC3    H1 7868   0.183   3.748  14.554 -0.8407  1.1958  0.0878
  526TMC3    H2 7869   0.201   3.752  14.976 -1.4074  0.0338  1.6046
  526TMC3    C7 7870   0.340   3.706  14.781  0.0195  0.2266  0.9574
  526TMC3    C8 7871   4.688   3.776  15.021 -0.0894  0.2311  0.3040
  526TMC3    O1 7872   0.379   3.642  14.877 -0.3386 -0.0858  0.0924
  526TMC3    O2 7873   0.011   3.760  15.126 -0.4016  0.6864 -0.3111
  527MPD2     C 7874   2.017   2.201   1.394 -0.2773  0.2411 -0.6156
  527MPD2    C1 7875   2.053   2.264   1.276  0.1580 -0.5719 -0.6946
  527MPD2    C2 7876   2.170   2.229   1.210 -0.3359 -0.1315  0.1278
  527MPD2    C3 7877   2.254   2.130   1.265 -1.1339 -0.3527 -0.0941
  527MPD2    C4 7878   2.227   2.076   1.387 -0.0556 -0.2600 -0.5843
  527MPD2    C5 7879   2.106   2.110   1.442 -0.8308  0.0782 -0.1639
  527MPD2     H 7880   2.195   2.279   1.117 -1.3081  1.6947  0.8723
  527MPD2    H1 7881   2.274   1.987   1.427 -3.6079 -1.1810  1.5674
  527MPD2    H2 7882   1.924   2.224   1.445  0.9084  2.8927  0.3657
  527MPD2    H3 7883   2.078   2.052   1.529 -1.1264 -0.6696 -0.7689
  527MPD2     N 7884   2.364   2.097   1.184 -0.8281 -0.3808  0.1885
  527MPD2    H5 7885   2.378   2.151   1.100 -2.8622  0.2407  0.2368
  527MPD2    N1 7886   1.962   2.352   1.209 -0.1658  0.2373 -0.0807
  527MPD2    H7 7887   1.998   2.408   1.133  2.3009  1.4900  2.0243
  528TMC3    C1 7888   1.780   2.500   1.172 -0.8197  0.6299  0.2101
  528TMC3    C2 7889   1.827   2.515   1.041 -0.1510 -0.1709 -0.0013
  528TMC3    C3 7890   1.870   2.645   1.004  0.0015 -0.0638  0.3046
  528TMC3    C4 7891   1.743   2.606   1.246  0.3968  0.2397 -0.5662
  528TMC3    C5 7892   1.786   2.727   1.211 -0.8594 -0.2446  0.1458
  528TMC3    C6 7893   1.853   2.750   1.091 -0.6467 -0.0832  0.0073
  528TMC3     C 7894   1.835   2.388   1.254  0.1517 -0.3285 -0.4223
  528TMC3     O 7895   1.779   2.364   1.356  0.0663 -0.1890  0.4778
  528TMC3     H 7896   1.858   2.426   0.987 -2.8100 -1.6821  0.9645
  528TMC3    H1 7897   1.711   2.589   1.348  0.1755 -0.0993 -0.6907
  528TMC3    H2 7898   1.881   2.851   1.064 -2.4078  0.8839  1.8659
  528TMC3    C7 7899   1.757   2.840   1.300 -0.2296 -0.2217 -0.1237
  528TMC3    C8 7900   2.002   2.642   0.957  0.2022  0.2409  0.2016
  528TMC3    O1 7901   1.658   2.820   1.374 -0.2989 -0.5609  0.1734
  528TMC3    O2 7902   2.067   2.543   0.998 -0.2480 -0.3379  0.3300
  529MPD2     C 7903   0.661   0.917   1.128 -0.0374  0.4713 -0.4636
  529MPD2    C1 7904   0.715   0.822   1.041 -0.4063  1.1165  0.3282
  529MPD2    C2 7905   0.653   0.810   0.918 -0.1005 -0.4219  0.1368
  529MPD2    C3 7906   0.556   0.899   0.882 -0.0550 -0.6086  0.1601
  529MPD2    C4 7907   0.507   0.988   0.976 -0.1751 -0.0031  1.0676
  529MPD2    C5 7908   0.553   0.990   1.105  0.1489 -0.4367 -0.2746
  529MPD2     H 7909   0.685   0.733   0.848 -1.4647 -0.2322 -0.6922
  529MPD2    H1 7910   0.423   1.050   0.949  0.8252 -0.0180 -2.1199
  529MPD2    H2 7911   0.701   0.926   1.228 -3.5162 -0.1578  0.9828
  529MPD2    H3 7912   0.505   1.061   1.171  0.8410 -1.1241  0.9629
  529MPD2     N 7913   0.485   0.901   0.766 -0.0669  0.0951 -0.4457
  529MPD2    H5 7914   0.425   0.982   0.758 -0.5664  0.0540  3.0944
  529MPD2    N1 7915   0.831   0.753   1.070  0.5367 -0.8488 -0.6456
  529MPD2    H7 7916   0.852   0.673   1.012 -0.2997 -1.0588 -0.6672
  530TMC3    C1 7917   1.009   0.685   1.187  0.6895 -0.9459  0.4012
  530TMC3    C2 7918   1.124   0.729   1.247 -0.2808  0.1579  0.6180
  530TMC3    C3 7919   1.223   0.633   1.261  0.3246  0.3104 -0.1688
  530TMC3    C4 7920   0.985   0.559   1.152 -0.3764  0.0538  0.4109
  530TMC3    C5 7921   1.079   0.465   1.187 -1.1014 -0.3055  0.5004
  530TMC3    C6 7922   1.202   0.502   1.240  0.8656  0.0679 -0.2418
  530TMC3     C 7923   0.908   0.782   1.187 -0.1974  0.6398  0.9511
  530TMC3     O 7924   0.913   0.874   1.264 -0.9137  0.5593 -0.3543
  530TMC3     H 7925   1.135   0.824   1.298  1.9226  0.1383  0.1855
  530TMC3    H1 7926   0.886   0.528   1.121 -0.3808  0.6645 -0.1678
  530TMC3    H2 7927   1.281   0.430   1.256 -1.1918 -2.2435 -0.4234
  530TMC3    C7 7928   1.051   0.327   1.176 -0.4959  0.3071  0.2231
  530TMC3    C8 7929   1.343   0.670   1.334 -0.1417  0.0686  0.0508
  530TMC3    O1 7930   1.146   0.251   1.163 -0.5066 -0.1827 -0.1878
  530TMC3    O2 7931   1.344   0.783   1.392  0.4213  0.2415 -0.6142
  531MPD2     C 7932   3.769   2.612  13.216  0.7372 -0.4732  0.1297
  531MPD2    C1 7933   3.666   2.621  13.307 -0.2337  0.1702 -0.0291
  531MPD2    C2 7934   3.537   2.596  13.271  0.5020  0.9657  0.7895
  531MPD2    C3 7935   3.502   2.599  13.141 -0.0118  0.0535 -0.5086
  531MPD2    C4 7936   3.600   2.591  13.043 -0.0263  0.4040 -0.3813
  531MPD2    C5 7937   3.732   2.592  13.083 -0.0173 -0.6332 -0.0305
  531MPD2     H 7938   3.456   2.592  13.344  2.4871 -1.1956  2.9061
  531MPD2    H1 7939   3.577   2.585  12.938 -0.7536 -0.5354 -0.1717
  531MPD2    H2 7940   3.871   2.626  13.248  0.6231 -1.5390  0.9831
  531MPD2    H3 7941   3.805   2.596  13.004  0.5907 -1.1795  0.5015
  531MPD2     N 7942   3.366   2.610  13.115 -0.0087  0.2300  0.2960
  531MPD2    H5 7943   3.302   2.624  13.192  1.1073 -0.3540  1.3151
  531MPD2    N1 7944   3.701   2.667  13.437  0.6448  0.0072  0.2756
  531MPD2    H7 7945   3.800   2.683  13.444  0.4668  1.2214 -0.0604
  532TMC3    C1 7946   3.669   2.756  13.661 -0.6847  0.0657 -0.0751
  532TMC3    C2 7947   3.580   2.773  13.760 -0.3161 -0.2161 -0.1068
  532TMC3    C3 7948   3.566   2.890  13.819  0.2273  0.1952  0.2080
  532TMC3    C4 7949   3.763   2.854  13.640 -0.6819 -0.0361  0.2602
  532TMC3    C5 7950   3.762   2.969  13.714 -0.0118  0.0144  0.0869
  532TMC3    C6 7951   3.655   2.988  13.797 -0.0480 -0.2648 -0.2023
  532TMC3     C 7952   3.618   2.681  13.550  0.0305 -1.1713  0.2210
  532TMC3     O 7953   3.505   2.633  13.572  0.0942 -0.2322  0.0622
  532TMC3     H 7954   3.510   2.693  13.782 -0.7866  0.4672  0.8992
  532TMC3    H1 7955   3.824   2.846  13.550 -1.6829  0.4739 -0.4599
  532TMC3    H2 7956   3.636   3.089  13.832  0.9464 -0.1575  0.0397
  532TMC3    C7 7957   3.879   3.046  13.740 -0.1733  0.0373 -0.5944
  532TMC3    C8 7958   3.439   2.954  13.801 -0.2476  0.5047 -0.4821
  532TMC3    O1 7959   3.867   3.122  13.834  0.1182 -0.2690 -0.1049
  532TMC3    O2 7960   3.413   3.051  13.868 -0.3128  0.2931 -0.2298
  533TMC3    C1 7961   0.110   4.638  14.454  0.4386 -0.1863 -0.8578
  533TMC3    C2 7962   0.223   4.702  14.495 -0.0238  0.7664  0.1766
  533TMC3    C3 7963   0.209   0.074  14.565 -0.5219  0.3416  0.6693
  533TMC3    C4 7964   4.732   4.688  14.494  0.6362 -0.0054 -0.1414
  533TMC3    C5 7965   4.717   0.068  14.556  0.2852 -0.2280 -0.8423
  533TMC3    C6 7966   0.088   0.135  14.596  0.4382  0.5119  0.5810
  533TMC3     C 7967   0.122   4.494  14.442 -0.0155 -0.6341 -0.3482
  533TMC3     O 7968   0.193   4.434  14.518  0.1188  0.2541  0.4007
  533TMC3     H 7969   0.320   4.654  14.495  0.0123  0.7929 -3.2397
  533TMC3    H1 7970   4.640   4.633  14.478 -0.2307  2.0995 -2.4680
  533TMC3    H2 7971   0.092   0.232  14.645 -1.6873  1.1597 -0.5262
  533TMC3    C7 7972   4.591   0.078  14.636  0.2990 -0.0258  0.3120
  533TMC3    C8 7973   0.345   0.137  14.594  0.5047  0.0734 -0.3259
  533TMC3    O1 7974   4.499   4.739  14.622  0.4563  0.2778 -0.5249
  533TMC3    O2 7975   0.435   0.054  14.615  0.1332  0.6027  0.0510
  534MPD2     C 7976   3.142   0.621   1.356  0.1929 -0.1036 -0.5328
  534MPD2    C1 7977   3.029   0.694   1.383 -0.1946 -0.4317 -0.2686
  534MPD2    C2 7978   2.912   0.654   1.332  0.0902 -0.1672  0.0286
  534MPD2    C3 7979   2.909   0.533   1.259  0.3667 -0.2653  0.4981
  534MPD2    C4 7980   3.021   0.461   1.240 -0.5517  0.2113 -0.1776
  534MPD2    C5 7981   3.136   0.508   1.288 -0.6484 -0.1309  0.7068
  534MPD2     H 7982   2.823   0.706   1.367  0.6833  0.1478  1.0980
  534MPD2    H1 7983   3.011   0.369   1.183 -2.2834 -1.8040  3.3961
  534MPD2    H2 7984   3.241   0.654   1.387  0.5842 -1.1297 -0.6708
  534MPD2    H3 7985   3.230   0.458   1.268 -0.9433  0.1532 -1.4228
  534MPD2     N 7986   2.795   0.493   1.183  0.4972 -0.2497 -0.0789
  534MPD2    H5 7987   2.804   0.417   1.116  0.8586  0.3187 -0.6840
  534MPD2    N1 7988   3.036   0.815   1.461  0.3751 -0.6006  0.2056
  534MPD2    H7 7989   2.946   0.857   1.482  1.1878  1.6403 -0.8036
  535TMC3    C1 7990   2.585   0.530   1.089  0.2777  1.4201 -0.1071
  535TMC3    C2 7991   2.450   0.544   1.124  0.6461  0.3542  0.3717
  535TMC3    C3 7992   2.371   0.558   1.016 -0.5802  0.3257 -0.5979
  535TMC3    C4 7993   2.630   0.525   0.957 -0.7829  0.2441 -0.1798
  535TMC3    C5 7994   2.537   0.531   0.852  0.6348 -0.2964  0.0976
  535TMC3    C6 7995   2.410   0.539   0.886  0.0309  0.0467  0.6479
  535TMC3     C 7996   2.672   0.545   1.199  0.2089  0.3104  1.2839
  535TMC3     O 7997   2.631   0.614   1.293  0.3425 -0.0372 -0.8581
  535TMC3     H 7998   2.426   0.558   1.229  1.2103 -0.6924  0.6378
  535TMC3    H1 7999   2.737   0.518   0.944 -0.8137  2.1141 -1.5545
  535TMC3    H2 8000   2.336   0.540   0.806  0.7477  1.1010 -0.0110
  535TMC3    C7 8001   2.581   0.541   0.713 -0.1611 -0.4156  0.3362
  535TMC3    C8 8002   2.237   0.610   1.025 -0.2055  0.1141 -0.7351
  535TMC3    O1 8003   2.685   0.487   0.698  0.0121 -0.3516  0.1347
  535TMC3    O2 8004   2.157   0.582   0.936 -0.3293  0.1207  0.8524
  536MPD2     C 8005   1.496   4.151  16.180 -0.0834 -0.6628 -0.0955
  536MPD2    C1 8006   1.379   4.075  16.200 -0.0119 -0.4996  0.1210
  536MPD2    C2 8007   1.309   4.026  16.089  0.3253 -0.5021  0.0752
  536MPD2    C3 8008   1.352   4.040  15.961 -0.4234 -0.1295 -0.4272
  536MPD2    C4 8009   1.473   4.109  15.944 -0.2278  0.1559 -0.0305
  536MPD2    C5 8010   1.540   4.161  16.048  0.2576 -0.8262  0.7345
  536MPD2     H 8011   1.218   3.969  16.101  0.1103  0.1046  1.2903
  536MPD2    H1 8012   1.504   4.117  15.840  0.6163  0.9447  0.2827
  536MPD2    H2 8013   1.555   4.202  16.255 -1.6175 -0.3232  0.8910
  536MPD2    H3 8014   1.629   4.217  16.020 -0.7868  0.1991 -0.4981
  536MPD2     N 8015   1.260   4.018  15.855 -0.5041 -0.0890  0.6677
  536MPD2    H5 8016   1.167   3.989  15.883  0.0652  0.9976  3.7103
  536MPD2    N1 8017   1.353   4.048  16.339  0.3276  0.0065 -0.0337
  536MPD2    H7 8018   1.413   4.103  16.399  1.9899  1.7109 -3.2355
  537TMC3    C1 8019   1.252   3.970  16.541 -0.0627 -0.0260 -0.3000
  537TMC3    C2 8020   1.308   4.077  16.618 -0.4625  0.5080 -0.4720
  537TMC3    C3 8021   1.303   4.074  16.757  0.2639  0.5668  0.5404
  537TMC3    C4 8022   1.184   3.871  16.599 -0.2497 -0.9003  0.5848
  537TMC3    C5 8023   1.193   3.862  16.740  0.7072 -0.1094 -0.3323
  537TMC3    C6 8024   1.258   3.958  16.819 -0.0737 -0.2922  0.1680
  537TMC3     C 8025   1.248   3.972  16.390 -0.2577 -0.0605  0.4229
  537TMC3     O 8026   1.184   3.887  16.332  0.1089  0.2086 -0.4700
  537TMC3     H 8027   1.343   4.167  16.567  1.1528 -0.9382 -1.9119
  537TMC3    H1 8028   1.141   3.789  16.542 -0.6162 -0.9712  0.9587
  537TMC3    H2 8029   1.258   3.959  16.927 -1.6609 -0.5342  0.1713
  537TMC3    C7 8030   1.137   3.735  16.797  0.5586  0.3340  0.5620
  537TMC3    C8 8031   1.376   4.170  16.840  0.1753  0.3414  0.0886
  537TMC3    O1 8032   1.065   3.682  16.714 -0.4744 -0.0890  0.2188
  537TMC3    O2 8033   1.450   4.121  16.922 -0.2302  0.5575  0.8375
  538TMC3    C1 8034   2.364   2.329  10.799 -0.0223  0.2999 -0.3822
  538TMC3    C2 8035   2.488   2.277  10.817 -0.2494  0.2832  0.1641
  538TMC3    C3 8036   2.576   2.280  10.709 -0.1814  1.0185  0.0669
  538TMC3    C4 8037   2.320   2.368  10.676  0.5297  0.4244  0.1266
  538TMC3    C5 8038   2.403   2.376  10.573 -0.0091  0.0888  0.1699
  538TMC3    C6 8039   2.535   2.331  10.584 -0.0456 -0.1686  0.4510
  538TMC3     C 8040   2.277   2.339  10.910  0.0066 -0.6285  1.1167
  538TMC3     O 8041   2.159   2.319  10.894  0.1833  0.4444  0.0376
  538TMC3     H 8042   2.524   2.237  10.911 -1.1676 -1.5911 -0.2816
  538TMC3    H1 8043   2.217   2.403  10.673  0.9812  1.6735 -0.9215
  538TMC3    H2 8044   2.599   2.321  10.497 -0.9190 -2.9396  0.1095
  538TMC3    C7 8045   2.345   2.394  10.444  0.2457 -0.0847  0.1537
  538TMC3    C8 8046   2.706   2.208  10.737 -0.3622 -0.7453  0.1148
  538TMC3    O1 8047   2.238   2.335  10.422  0.0818 -0.0565 -0.1089
  538TMC3    O2 8048   2.703   2.106  10.805 -0.0688  0.3452  0.1896
  539MPD2     C 8049   2.777   1.771  11.516  0.4233  0.5128 -0.3407
  539MPD2    C1 8050   2.751   1.745  11.382 -0.0605 -0.6964  0.2884
  539MPD2    C2 8051   2.646   1.808  11.323  0.4702 -0.2549 -0.6708
  539MPD2    C3 8052   2.568   1.892  11.400  0.1592  0.5193  0.3931
  539MPD2    C4 8053   2.592   1.923  11.525 -0.2828  0.0740 -1.1804
  539MPD2    C5 8054   2.701   1.863  11.582  0.2731 -0.2470 -0.1580
  539MPD2     H 8055   2.619   1.763  11.228  0.4601 -0.6995 -0.4548
  539MPD2    H1 8056   2.528   1.996  11.574  0.2480 -0.5927  0.5309
  539MPD2    H2 8057   2.856   1.726  11.575  0.8927 -0.2099 -1.5172
  539MPD2    H3 8058   2.707   1.882  11.689 -0.3166 -2.5592  0.3035
  539MPD2     N 8059   2.444   1.940  11.341 -0.3089  0.6907  0.5158
  539MPD2    H5 8060   2.370   1.974  11.402  0.0802  0.5430  1.0666
  539MPD2    N1 8061   2.821   1.647  11.309  0.0333 -0.4312  0.5415
  539MPD2    H7 8062   2.773   1.616  11.224 -0.6138 -0.2841  0.8503
  540TMC3    C1 8063   2.266   1.949  11.179  0.1718 -0.1698 -0.2642
  540TMC3    C2 8064   2.236   1.959  11.043  0.3590 -0.0235 -0.3959
  540TMC3    C3 8065   2.113   2.001  11.004  0.2959 -0.3990 -0.3177
  540TMC3    C4 8066   2.167   1.966  11.271  0.6522  0.4182  0.2061
  540TMC3    C5 8067   2.040   1.994  11.231  0.2426 -0.3336 -0.1524
  540TMC3    C6 8068   2.008   2.016  11.096  0.3542 -0.4845 -0.3662
  540TMC3     C 8069   2.413   1.940  11.206  0.6169  0.1600 -1.4867
  540TMC3     O 8070   2.489   1.920  11.116 -0.7385  0.3337 -0.1932
  540TMC3     H 8071   2.318   1.960  10.972  2.3184  1.4804  1.8899
  540TMC3    H1 8072   2.188   1.969  11.377 -1.0175 -1.4638  0.5752
  540TMC3    H2 8073   1.916   2.070  11.078  0.8116  0.3063 -0.3230
  540TMC3    C7 8074   1.942   1.993  11.334  0.3481 -1.5051  0.5958
  540TMC3    C8 8075   2.081   1.964  10.874 -0.0776 -0.4642  0.8071
  540TMC3    O1 8076   1.850   2.071  11.312 -0.1992  0.2928  0.3714
  540TMC3    O2 8077   2.176   1.927  10.811  0.5638  0.5172  0.2861
  541MPD2     C 8078   0.368   2.872  13.255  0.3473  1.3456 -0.0811
  541MPD2    C1 8079   0.394   2.758  13.184  0.5603  0.4755 -0.4092
  541MPD2    C2 8080   0.415   2.775  13.051 -0.0588 -0.2897 -0.4950
  541MPD2    C3 8081   0.415   2.899  12.984 -0.2850 -0.0510 -0.1556
  541MPD2    C4 8082   0.376   3.006  13.055  0.4021  0.6180 -0.4666
  541MPD2    C5 8083   0.358   2.992  13.190 -0.1920 -0.6541 -0.3193
  541MPD2     H 8084   0.421   2.687  12.987  1.8877 -1.0579  0.7709
  541MPD2    H1 8085   0.380   3.112  13.031 -3.6238  1.4340  2.3007
  541MPD2    H2 8086   0.351   2.864  13.362 -1.9598  0.7902 -0.4962
  541MPD2    H3 8087   0.330   3.085  13.239  1.6708 -0.9332  1.2568
  541MPD2     N 8088   0.463   2.929  12.853  0.0738  0.1133 -0.3229
  541MPD2    H5 8089   0.453   3.022  12.814  3.9261 -0.8353 -3.6100
  541MPD2    N1 8090   0.400   2.635  13.257  0.1841 -0.1110  0.1040
  541MPD2    H7 8091   0.410   2.637  13.358 -1.3065 -0.6243  0.2670
  542TMC3    C1 8092   0.564   2.911  12.640 -0.2894  0.1885  0.1944
  542TMC3    C2 8093   0.659   2.845  12.572 -0.5101 -0.0866  0.0419
  542TMC3    C3 8094   0.687   2.898  12.443  0.2050 -0.1371  0.2446
  542TMC3    C4 8095   0.502   3.025  12.592  0.7028 -0.6417 -0.0582
  542TMC3    C5 8096   0.533   3.065  12.464 -0.2499 -0.5466  0.4311
  542TMC3    C6 8097   0.631   3.008  12.387  0.0896 -0.5309 -0.4743
  542TMC3     C 8098   0.518   2.845  12.765  0.4229  0.1766  0.3638
  542TMC3     O 8099   0.543   2.723  12.775  0.2826  0.5726  0.3319
  542TMC3     H 8100   0.674   2.742  12.602 -0.5808 -0.7152 -2.1003
  542TMC3    H1 8101   0.425   3.077  12.647  1.3456  0.7799 -0.4991
  542TMC3    H2 8102   0.672   3.047  12.295 -1.3370  1.3335 -0.3209
  542TMC3    C7 8103   0.466   3.185  12.411 -0.7597  1.0515  0.9056
  542TMC3    C8 8104   0.786   2.822  12.374 -0.2639 -0.5164 -1.0604
  542TMC3    O1 8105   0.411   3.256  12.492 -0.1953  0.3664  0.5498
  542TMC3    O2 8106   0.829   2.727  12.433 -0.1175 -0.2567  0.0938
  543TMC3    C1 8107   0.159   0.144  17.118  0.5930  0.0003  0.3547
  543TMC3    C2 8108   0.147   0.027  17.188 -0.5293  0.0124  0.3444
  543TMC3    C3 8109   0.093   0.031  17.319  0.1738 -0.3940 -0.0822
  543TMC3    C4 8110   0.112   0.268  17.168  0.2551  0.3368 -0.1933
  543TMC3    C5 8111   0.070   0.267  17.297 -0.6168  0.2677  0.1456
  543TMC3    C6 8112   0.064   0.151  17.372 -0.5386 -0.0586  0.1749
  543TMC3     C 8113   0.221   0.131  16.993 -0.7259  0.6118 -0.3524
  543TMC3     O 8114   0.322   0.059  16.988  0.3617  0.3471  0.3087
  543TMC3     H 8115   0.168   4.671  17.145  0.1559  0.2205  0.2126
  543TMC3    H1 8116   0.142   0.360  17.118  2.3036 -1.0114 -1.4499
  543TMC3    H2 8117   0.018   0.159  17.469 -1.5111 -2.1828 -0.1275
  543TMC3    C7 8118   4.738   0.375  17.354  0.6225 -0.0182 -0.0823
  543TMC3    C8 8119   0.057   4.641  17.390  0.0731  0.3306  0.7956
  543TMC3    O1 8120   4.707   0.387  17.473  0.2043  0.5611 -0.3151
  543TMC3    O2 8121   0.127   4.542  17.369  0.4014 -0.0665  0.0208
  544MPD2     C 8122   4.449   4.343  17.603 -0.3404  0.1353 -0.4500
  544MPD2    C1 8123   4.576   4.310  17.566  0.7949  0.2986 -0.2699
  544MPD2    C2 8124   4.656   4.412  17.523 -0.1571  0.2511  0.2576
  544MPD2    C3 8125   4.608   4.541  17.511  0.8667  0.1409  0.2099
  544MPD2    C4 8126   4.484   4.575  17.561 -0.5271  0.1114 -0.3066
  544MPD2    C5 8127   4.407   4.471  17.618  0.1511 -0.0403  1.0766
  544MPD2     H 8128   0.014   4.398  17.483  0.1279 -0.4486  1.2362
  544MPD2    H1 8129   4.440   4.673  17.547  0.9530  0.6746 -0.9597
  544MPD2    H2 8130   4.368   4.274  17.626 -0.1297 -0.4200 -1.3520
  544MPD2    H3 8131   4.305   4.487  17.650  0.4864  0.2357  1.9964
  544MPD2     N 8132   4.677   4.651  17.448 -0.0854  0.0311 -0.1034
  544MPD2    H5 8133   4.626   4.737  17.433  2.6485  1.7758  0.5835
  544MPD2    N1 8134   4.598   4.173  17.571  0.1415 -0.0018 -0.5937
  544MPD2    H7 8135   4.528   4.111  17.611  1.0178 -0.9083 -0.4649
  545TMC3    C1 8136   4.733   3.978  17.565  0.7323  0.6814 -0.2131
  545TMC3    C2 8137   4.631   3.891  17.595  0.7190 -0.0810 -0.1694
  545TMC3    C3 8138   4.667   3.771  17.645 -0.2096  0.1287 -0.3556
  545TMC3    C4 8139   0.123   3.942  17.572 -0.8120 -0.2821 -0.2137
  545TMC3    C5 8140   0.143   3.812  17.590 -0.1453  0.0819 -0.2062
  545TMC3    C6 8141   0.053   3.723  17.632  1.0456  0.0248  0.4529
  545TMC3     C 8142   4.714   4.113  17.530  0.3721 -0.8877 -0.0382
  545TMC3     O 8143   0.057   4.172  17.466  0.4259  0.1362 -0.5919
  545TMC3     H 8144   4.529   3.926  17.580  0.8395  0.2261 -0.2682
  545TMC3    H1 8145   0.202   4.013  17.553 -1.3125  0.6236  1.0638
  545TMC3    H2 8146   0.088   3.620  17.640  0.1622 -0.2735  0.4336
  545TMC3    C7 8147   0.280   3.760  17.575 -0.2374  0.0955  0.1504
  545TMC3    C8 8148   4.566   3.667  17.641 -0.8802 -0.0529 -0.4127
  545TMC3    O1 8149   0.351   3.828  17.501 -0.2715  1.2471  0.0447
  545TMC3    O2 8150   4.460   3.692  17.581  0.6877 -0.0042  0.3601
  546MPD2     C 8151   1.545   4.498  17.530  0.1811  0.5108 -0.6297
  546MPD2    C1 8152   1.491   4.531  17.408  0.1251  0.4327  0.4288
  546MPD2    C2 8153   1.525   4.647  17.352 -0.4240  0.9483 -0.4662
  546MPD2    C3 8154   1.603   0.005  17.416 -0.1983 -0.4428  0.1415
  546MPD2    C4 8155   1.647   4.715  17.538  0.1574 -0.0685 -0.1689
  546MPD2    C5 8156   1.624   4.591  17.591  0.5914 -0.3081 -0.0744
  546MPD2     H 8157   1.483   4.665  17.253  1.8043 -0.7759 -1.7380
  546MPD2    H1 8158   1.701   0.043  17.602 -0.5323  0.2631  0.0612
  546MPD2    H2 8159   1.526   4.401  17.574 -1.3743  1.2359  0.2902
  546MPD2    H3 8160   1.659   4.562  17.689 -1.1212 -0.0120  0.6232
  546MPD2     N 8161   1.631   0.127  17.360 -0.4047 -0.1539 -0.1143
  546MPD2    H5 8162   1.667   0.193  17.429 -2.1171 -0.2129  0.8425
  546MPD2    N1 8163   1.408   4.436  17.348  0.1816 -0.5819  0.2987
  546MPD2    H7 8164   1.418   4.345  17.392  0.7765  0.1689  1.7213
  547TMC3    C1 8165   1.212   4.329  17.237 -0.3957 -0.5197 -0.3129
  547TMC3    C2 8166   1.114   4.338  17.140  0.5145 -1.0773 -0.2766
  547TMC3    C3 8167   1.031   4.232  17.127  0.5546 -0.2507 -0.2692
  547TMC3    C4 8168   1.219   4.224  17.321 -0.1850 -0.3287  0.3987
  547TMC3    C5 8169   1.127   4.124  17.302  0.3648 -0.5045 -0.3278
  547TMC3    C6 8170   1.028   4.131  17.214 -0.0198 -0.3389  0.3345
  547TMC3     C 8171   1.309   4.443  17.247 -0.2537  0.7207 -0.4162
  547TMC3     O 8172   1.288   4.544  17.179  0.1012 -0.2860 -0.3186
  547TMC3     H 8173   1.125   4.405  17.056 -2.1124 -0.0237  0.2263
  547TMC3    H1 8174   1.287   4.221  17.405 -0.0111 -1.0819  0.2331
  547TMC3    H2 8175   0.955   4.051  17.211  0.0541 -0.4034  0.2327
  547TMC3    C7 8176   1.128   4.023  17.405  0.9313 -0.0214  0.2173
  547TMC3    C8 8177   0.972   4.222  16.995  0.3173  0.1061  0.3016
  547TMC3    O1 8178   1.183   4.050  17.508  0.0179  0.2142 -0.3029
  547TMC3    O2 8179   0.985   4.308  16.909  0.1340  0.3066  0.4732
  548MPD2     C 8180   1.021   0.130  12.787 -0.3950  0.0205  0.1256
  548MPD2    C1 8181   0.975   0.009  12.738  0.0108 -0.5243 -0.8193
  548MPD2    C2 8182   1.060   4.678  12.654  0.2760 -0.3001  0.4127
  548MPD2    C3 8183   1.192   4.723  12.636 -1.1452 -0.3363  0.1844
  548MPD2    C4 8184   1.239   0.103  12.694 -0.1511  0.0781  0.3254
  548MPD2    C5 8185   1.149   0.168  12.773  0.2036  0.3528  0.0977
  548MPD2     H 8186   1.018   4.593  12.601 -1.9135  1.0312  0.0041
  548MPD2    H1 8187   1.344   0.130  12.688 -0.4291  1.5051  1.7482
  548MPD2    H2 8188   0.965   0.187  12.860 -0.4531  0.0493  0.0588
  548MPD2    H3 8189   1.187   0.257  12.821  1.1543  0.3471 -0.6477
  548MPD2     N 8190   1.269   4.660  12.534 -0.0520  0.1264  0.0790
  548MPD2    H5 8191   1.242   4.576  12.483  1.0891  0.8074 -1.6260
  548MPD2    N1 8192   0.835   4.730  12.753  0.2440 -0.0524  0.0142
  548MPD2    H7 8193   0.774   0.062  12.789  0.0672  0.8530 -2.1252
  549TMC3    C1 8194   0.634   4.601  12.733 -0.0648 -0.2183  0.4332
  549TMC3    C2 8195   0.570   4.715  12.709 -0.8278  0.1688  1.2150
  549TMC3    C3 8196   0.437   4.700  12.685 -0.3178  0.1251 -0.4969
  549TMC3    C4 8197   0.568   4.477  12.743 -0.7947  0.6006 -0.6207
  549TMC3    C5 8198   0.435   4.471  12.736 -0.1528 -0.5339 -0.1427
  549TMC3    C6 8199   0.370   4.583  12.701  0.4110  0.0696 -0.1537
  549TMC3     C 8200   0.780   4.604  12.735  0.5025 -1.2578 -0.6491
  549TMC3     O 8201   0.841   4.499  12.717  0.0532 -0.5204  0.1796
  549TMC3     H 8202   0.626   0.065  12.693 -2.9082  1.1809 -0.3598
  549TMC3    H1 8203   0.629   4.393  12.775 -0.9275  0.7404  0.0108
  549TMC3    H2 8204   0.263   4.581  12.684  0.7482  0.6014 -2.3180
  549TMC3    C7 8205   0.360   4.352  12.723  0.6349 -0.5829  0.0200
  549TMC3    C8 8206   0.359   0.072  12.634 -0.2316  0.2594  0.0761
  549TMC3    O1 8207   0.239   4.359  12.746  0.0431 -0.7814 -0.0164
  549TMC3    O2 8208   0.248   0.046  12.587 -0.4692 -0.1633 -0.6921
  550TMC3    C1 8209   4.144   2.399  12.788  0.3217  0.3233  0.2308
  550TMC3    C2 8210   4.141   2.492  12.883 -0.5919 -0.6096 -0.1733
  550TMC3    C3 8211   4.045   2.594  12.876 -0.0186  0.5958 -0.0555
  550TMC3    C4 8212   4.066   2.401  12.673  0.1415 -0.0374  0.0482
  550TMC3    C5 8213   3.972   2.494  12.673  0.1017  0.4535  0.3476
  550TMC3    C6 8214   3.959   2.593  12.762  0.0096  0.4694  0.4918
  550TMC3     C 8215   4.249   2.300  12.788 -1.1550  0.0833 -1.1231
  550TMC3     O 8216   4.264   2.239  12.895 -0.4386 -0.1649 -0.0861
  550TMC3     H 8217   4.209   2.499  12.966  0.3772 -1.3159 -0.9107
  550TMC3    H1 8218   4.088   2.333  12.591  1.5818  2.0361 -1.2571
  550TMC3    H2 8219   3.876   2.661  12.756 -1.0360 -0.9466 -1.0912
  550TMC3    C7 8220   3.902   2.512  12.547  1.0321  0.8478  0.0976
  550TMC3    C8 8221   4.071   2.731  12.921  0.0238 -0.3843  0.9276
  550TMC3    O1 8222   3.800   2.573  12.564  0.2155  0.8334 -0.2669
  550TMC3    O2 8223   4.035   2.819  12.847  0.8302 -0.2260  0.5151
  551TMC3    C1 8224   2.288   0.872  13.244  0.2144  0.7020  0.5055
  551TMC3    C2 8225   2.420   0.871  13.211  0.4420  0.1473 -0.3653
  551TMC3    C3 8226   2.513   0.865  13.308  0.4747  0.9604  0.0346
  551TMC3    C4 8227   2.249   0.879  13.378  0.3357 -0.3407 -0.3727
  551TMC3    C5 8228   2.346   0.885  13.477  0.6728 -0.3170  0.2134
  551TMC3    C6 8229   2.479   0.881  13.439  0.0890 -0.0141 -0.6084
  551TMC3     C 8230   2.188   0.852  13.136  0.3733 -0.4625 -0.4545
  551TMC3     O 8231   2.236   0.807  13.029  0.1465 -0.0913  0.1542
  551TMC3     H 8232   2.452   0.872  13.108 -0.5013 -2.8907 -0.6743
  551TMC3    H1 8233   2.146   0.858  13.404  0.7126 -0.0544  1.3464
  551TMC3    H2 8234   2.559   0.886  13.512  0.2378  0.6327 -0.8117
  551TMC3    C7 8235   2.322   0.905  13.619  0.2146  0.2957  0.5116
  551TMC3    C8 8236   2.634   0.936  13.261  0.0013  0.4700 -0.6969
  551TMC3    O1 8237   2.416   0.884  13.695  0.0741 -0.5063  0.3074
  551TMC3    O2 8238   2.740   0.901  13.316  0.0790  0.0442 -0.0611
  552MPD2     C 8239   4.252   3.072  14.208 -0.2495  0.2839  0.5583
  552MPD2    C1 8240   4.244   2.939  14.254  0.0031 -0.0465  0.0352
  552MPD2    C2 8241   4.357   2.882  14.316  0.1959  0.3466  0.9215
  552MPD2    C3 8242   4.457   2.960  14.368 -0.5622 -0.0520  0.1732
  552MPD2    C4 8243   4.458   3.096  14.337 -0.2414 -0.4648  0.8125
  552MPD2    C5 8244   4.356   3.145  14.259 -0.4429  0.4638  0.4158
  552MPD2     H 8245   4.357   2.775  14.330  0.0815  0.4683  1.8062
  552MPD2    H1 8246   4.533   3.162  14.380 -1.4790  0.3977  1.6647
  552MPD2    H2 8247   4.176   3.121  14.148 -0.4889 -1.3131 -0.4476
  552MPD2    H3 8248   4.366   3.245  14.219 -0.3563  0.9972  1.7558
  552MPD2     N 8249   4.573   2.911  14.435  0.2743  0.3330 -0.2196
  552MPD2    H5 8250   4.651   2.976  14.442 -0.0228  0.5741  0.8380
  552MPD2    N1 8251   4.145   2.849  14.218 -0.5744 -0.3123 -0.1950
  552MPD2    H7 8252   4.177   2.753  14.230  0.9810  0.0453 -1.5709
  553TMC3    C1 8253   3.933   2.771  14.140 -0.1785  0.3081  0.1036
  553TMC3    C2 8254   3.898   2.750  14.008 -0.5148  0.4529  0.3480
  553TMC3    C3 8255   3.870   2.615  13.976 -0.7037  0.5060 -0.3851
  553TMC3    C4 8256   3.948   2.676  14.240  0.0028 -0.2442  0.0590
  553TMC3    C5 8257   3.914   2.548  14.206 -0.5632 -1.0888 -0.3906
  553TMC3    C6 8258   3.875   2.517  14.076 -0.2234 -0.7039  0.1018
  553TMC3     C 8259   4.023   2.883  14.159  0.0625 -0.7774 -0.1177
  553TMC3     O 8260   3.972   2.991  14.133 -0.3258 -0.2342 -0.4491
  553TMC3     H 8261   3.914   2.828  13.934 -1.3499  1.4435  1.2018
  553TMC3    H1 8262   3.979   2.696  14.342 -1.4155  1.4406  0.1560
  553TMC3    H2 8263   3.853   2.415  14.047  2.0247 -1.3378  0.6297
  553TMC3    C7 8264   3.954   2.441  14.296 -0.3382 -0.7549  0.0230
  553TMC3    C8 8265   3.906   2.583  13.842 -0.1326 -0.0678 -0.7000
  553TMC3    O1 8266   3.883   2.343  14.299  0.1505 -0.5052  0.1255
  553TMC3    O2 8267   3.981   2.664  13.791 -0.4101  0.0782  0.3144
  554TMC3    C1 8268   1.519   1.794  10.875  0.0822  0.0052 -0.8163
  554TMC3    C2 8269   1.457   1.692  10.809 -0.0531 -0.0025 -0.1113
  554TMC3    C3 8270   1.354   1.725  10.733  0.1144 -0.3693  0.2308
  554TMC3    C4 8271   1.483   1.922  10.860  0.2948  0.5984  0.6064
  554TMC3    C5 8272   1.373   1.952  10.781 -0.2956  0.8401 -0.7985
  554TMC3    C6 8273   1.313   1.852  10.715 -0.0447  0.3544  0.0281
  554TMC3     C 8274   1.629   1.770  10.971  0.5934  0.2859 -0.7091
  554TMC3     O 8275   1.686   1.868  11.017 -0.1819  0.1523  0.3470
  554TMC3     H 8276   1.476   1.586  10.817 -1.6085  0.0052  3.5563
  554TMC3    H1 8277   1.540   2.002  10.906  0.5961  1.4383 -1.2099
  554TMC3    H2 8278   1.233   1.869  10.643  0.4737  1.4634 -0.2930
  554TMC3    C7 8279   1.380   2.067  10.700  0.0330 -0.0392  0.9513
  554TMC3    C8 8280   1.295   1.631  10.638 -0.0673 -0.4746  1.0796
  554TMC3    O1 8281   1.334   2.055  10.590 -0.2602  0.1016  0.1817
  554TMC3    O2 8282   1.370   1.583  10.552  0.2170 -0.8998  0.2420
  555TMC3    C1 8283   4.709   1.569  15.329 -0.0975  0.3025  0.1120
  555TMC3    C2 8284   4.718   1.643  15.441 -0.2523  0.1606  1.0485
  555TMC3    C3 8285   0.019   1.580  15.551  0.0480 -0.0868 -0.1161
  555TMC3    C4 8286   0.001   1.440  15.327 -0.1045 -0.4603 -0.3189
  555TMC3    C5 8287   0.033   1.376  15.442  0.0904  0.2729 -0.0293
  555TMC3    C6 8288   0.047   1.448  15.557  0.0074  0.1676 -0.5974
  555TMC3     C 8289   4.688   1.637  15.197  0.6585 -0.4411 -0.0566
  555TMC3     O 8290   4.626   1.568  15.118 -0.1876  0.6560  0.4346
  555TMC3     H 8291   4.671   1.740  15.447  1.0882  1.0549 -2.6295
  555TMC3    H1 8292   0.002   1.389  15.231 -0.6168 -0.0817 -0.5259
  555TMC3    H2 8293   0.068   1.394  15.649  1.8979 -2.8873 -2.8057
  555TMC3    C7 8294   0.086   1.237  15.440  0.2890 -0.0553  0.2446
  555TMC3    C8 8295   4.728   1.653  15.673 -0.0414  0.0179 -0.0246
  555TMC3    O1 8296   0.121   1.199  15.549 -0.0231 -0.3116  0.1774
  555TMC3    O2 8297   4.652   1.749  15.669 -0.1825 -0.5310  0.1206
  556MPD2     C 8298   3.071   2.975  10.522 -0.4549  0.5714 -0.4367
  556MPD2    C1 8299   3.046   2.841  10.554  0.1489  0.2676 -0.3968
  556MPD2    C2 8300   3.082   2.741  10.467 -0.8349 -0.5722  0.1225
  556MPD2    C3 8301   3.159   2.776  10.350  0.5095 -0.3169 -0.0938
  556MPD2    C4 8302   3.188   2.908  10.329 -0.4889  0.1043  0.0343
  556MPD2    C5 8303   3.134   3.005  10.405 -0.7516 -0.0924 -0.9315
  556MPD2     H 8304   3.069   2.636  10.493  1.2881 -0.9135 -0.2130
  556MPD2    H1 8305   3.236   2.932  10.234 -1.8749  0.2560 -0.6309
  556MPD2    H2 8306   3.039   3.054  10.588  0.7632 -1.5788  2.7219
  556MPD2    H3 8307   3.155   3.107  10.374  1.2229 -0.3285 -0.3094
  556MPD2     N 8308   3.220   2.665  10.278 -0.6386 -0.5206  0.7376
  556MPD2    H5 8309   3.200   2.574  10.316  1.0588 -1.8748 -1.6017
  556MPD2    N1 8310   2.972   2.813  10.678  0.3451  0.8456  0.3946
  556MPD2    H7 8311   2.927   2.891  10.724  0.8803  1.0500  0.5817
  557TMC3    C1 8312   3.310   2.511  10.136 -0.0836  0.5255  0.3332
  557TMC3    C2 8313   3.329   2.481  10.009 -0.1419 -0.3948 -0.1890
  557TMC3    C3 8314   3.346   2.342   9.982  0.1136 -0.1269  0.2675
  557TMC3    C4 8315   3.298   2.418  10.239 -0.7919  0.3083  0.6500
  557TMC3    C5 8316   3.314   2.286  10.204  0.3093  0.0864 -0.3853
  557TMC3    C6 8317   3.343   2.241  10.076  0.0645  0.4490  0.2970
  557TMC3     C 8318   3.285   2.657  10.162 -1.2312  0.7465  0.2684
  557TMC3     O 8319   3.317   2.750  10.087 -0.3281  0.2591 -0.6105
  557TMC3     H 8320   3.328   2.551   9.926 -1.5047 -0.1540  0.0228
  557TMC3    H1 8321   3.296   2.451  10.343 -0.8560 -2.4571  1.5415
  557TMC3    H2 8322   3.336   2.135  10.054  0.2403  0.2754  1.0889
  557TMC3    C7 8323   3.278   2.194  10.309 -0.3520  0.2044 -0.6169
  557TMC3    C8 8324   3.368   2.305   9.845  0.4562  0.8128 -0.3497
  557TMC3    O1 8325   3.318   2.076  10.318  0.2484  0.1243  0.4178
  557TMC3    O2 8326   3.390   2.397   9.766  0.4457 -0.0988  0.4577
  558TMC3    C1 8327   0.851   0.562  10.534  0.7084 -0.0268  0.3515
  558TMC3    C2 8328   0.752   0.649  10.513 -0.2064 -0.2228  0.2345
  558TMC3    C3 8329   0.676   0.634  10.398  0.2200 -0.0992  0.1635
  558TMC3    C4 8330   0.895   0.472  10.441  0.2913  0.3198  0.5081
  558TMC3    C5 8331   0.822   0.468  10.324  0.1411 -0.5381 -0.0845
  558TMC3    C6 8332   0.710   0.539  10.303  0.2279  0.2102  0.3716
  558TMC3     C 8333   0.938   0.569  10.652  0.1619 -0.0201  0.0768
  558TMC3     O 8334   1.058   0.594  10.635 -0.2515  0.0535 -0.2734
  558TMC3     H 8335   0.709   0.708  10.594  1.0151  3.7247 -2.0137
  558TMC3    H1 8336   0.985   0.414  10.460  0.5640  0.8528  0.8326
  558TMC3    H2 8337   0.654   0.539  10.211  0.5855 -0.8615  0.1591
  558TMC3    C7 8338   0.870   0.383  10.215 -0.3717 -0.2715  0.6079
  558TMC3    C8 8339   0.547   0.701  10.377  0.3877 -0.2625  0.2413
  558TMC3    O1 8340   0.989   0.357  10.220  0.0890  0.5197 -0.1147
  558TMC3    O2 8341   0.460   0.645  10.309  0.0020 -0.6667  0.2152
  559MPD2     C 8342   1.039   1.049  10.052  0.4732  0.7516 -0.5498
  559MPD2    C1 8343   0.974   1.059  10.171 -0.0988  0.0666 -0.4104
  559MPD2    C2 8344   1.037   1.093  10.289 -0.2074  0.2164  0.0792
  559MPD2    C3 8345   1.173   1.123  10.276 -0.3147  0.1150  0.4008
  559MPD2    C4 8346   1.242   1.102  10.159 -0.2125  0.1943 -0.4526
  559MPD2    C5 8347   1.175   1.053  10.050  0.6214 -0.0398 -0.3091
  559MPD2     H 8348   0.984   1.105  10.382 -0.0478  1.7103 -0.0270
  559MPD2    H1 8349   1.350   1.107  10.157 -0.2462  1.4473  0.4492
  559MPD2    H2 8350   0.989   1.020   9.960  0.5441  1.1819 -0.7240
  559MPD2    H3 8351   1.222   1.035   9.954  2.4641 -1.2256  0.8106
  559MPD2     N 8352   1.227   1.187  10.392 -0.6901 -0.1825  0.7511
  559MPD2    H5 8353   1.163   1.181  10.470 -0.4255  1.7524  1.1184
  559MPD2    N1 8354   0.833   1.055  10.161 -0.2561 -0.0748  0.0238
  559MPD2    H7 8355   0.788   1.052  10.070  0.5942 -0.3463 -0.3788
  560TMC3    C1 8356   1.376   1.250  10.560 -0.3672  0.3631 -0.3698
  560TMC3    C2 8357   1.277   1.256  10.652  0.3354  0.3487  0.9182
  560TMC3    C3 8358   1.305   1.241  10.786  0.6293  0.2207  0.2984
  560TMC3    C4 8359   1.503   1.227  10.601  0.3532  1.1357  0.0526
  560TMC3    C5 8360   1.531   1.228  10.743 -0.5175  0.0802 -0.4534
  560TMC3    C6 8361   1.431   1.233  10.835 -0.1830 -0.5950  0.5938
  560TMC3     C 8362   1.353   1.227  10.418  0.2972 -0.2824  0.2115
  560TMC3     O 8363   1.451   1.233  10.346 -0.1954 -0.1982 -1.0065
  560TMC3     H 8364   1.177   1.286  10.622  0.2957  1.1132  1.8241
  560TMC3    H1 8365   1.582   1.181  10.542 -1.6816 -0.9556 -1.0405
  560TMC3    H2 8366   1.454   1.232  10.941 -0.1708 -1.7709  0.5736
  560TMC3    C7 8367   1.666   1.212  10.799 -0.0141  0.1393 -0.8276
  560TMC3    C8 8368   1.191   1.224  10.887  0.6435 -0.1632  0.6591
  560TMC3    O1 8369   1.671   1.160  10.918 -0.4118 -0.1603  0.4668
  560TMC3    O2 8370   1.092   1.273  10.838  0.2785  0.2438 -0.3407
  561TMC3    C1 8371   3.536   0.338  10.820  0.4964 -0.2698 -0.5569
  561TMC3    C2 8372   3.483   0.284  10.933 -0.8218  0.6529  0.0310
  561TMC3    C3 8373   3.456   0.363  11.042 -0.5615  0.0407 -0.0386
  561TMC3    C4 8374   3.564   0.472  10.816  0.0480  0.8421  0.0015
  561TMC3    C5 8375   3.555   0.542  10.932  0.2504  1.2416  0.5380
  561TMC3    C6 8376   3.498   0.494  11.048 -0.1269 -0.0660  0.9762
  561TMC3     C 8377   3.552   0.250  10.710  0.7106 -0.7888  0.8760
  561TMC3     O 8378   3.481   0.149  10.711 -0.0057  0.1258  0.1017
  561TMC3     H 8379   3.467   0.177  10.941 -0.5750  0.6750  0.8045
  561TMC3    H1 8380   3.579   0.522  10.721 -0.5645  1.6914  0.3470
  561TMC3    H2 8381   3.479   0.561  11.131  0.3717  2.4173 -0.9079
  561TMC3    C7 8382   3.585   0.684  10.932 -0.0980 -0.0901 -0.1165
  561TMC3    C8 8383   3.419   0.292  11.164 -0.5660 -0.0043 -0.6382
  561TMC3    O1 8384   3.529   0.745  11.019 -0.8532 -0.3404  0.6787
  561TMC3    O2 8385   3.378   0.178  11.151 -0.0106  0.6254 -0.0701
  562TMC3    C1 8386   4.713   2.385  16.702  0.2201  0.0487  0.3515
  562TMC3    C2 8387   4.662   2.452  16.593  0.2516  0.3568 -0.1766
  562TMC3    C3 8388   4.665   2.382  16.473  0.0679 -0.5711  0.1395
  562TMC3    C4 8389   0.002   2.250  16.698  0.1738 -0.4415  0.3434
  562TMC3    C5 8390   4.726   2.183  16.577  0.1866 -0.1724  0.1655
  562TMC3    C6 8391   4.697   2.251  16.461 -0.0889 -0.1468 -0.4866
  562TMC3     C 8392   4.695   2.450  16.830 -0.1543  0.1107  0.3634
  562TMC3     O 8393   4.603   2.531  16.841 -0.0681 -0.2606 -0.5295
  562TMC3     H 8394   4.635   2.557  16.600  1.6248  0.6829  0.1759
  562TMC3    H1 8395   0.029   2.192  16.786  0.5592 -0.0172  0.5039
  562TMC3    H2 8396   4.681   2.198  16.369  1.4686  2.1861 -2.1106
  562TMC3    C7 8397   0.027   2.042  16.556 -0.4759  0.1110 -0.4222
  562TMC3    C8 8398   4.555   2.405  16.387  0.3215 -0.0757  0.2268
  562TMC3    O1 8399   0.031   1.999  16.444  0.1620  0.3088 -0.1079
  562TMC3    O2 8400   4.447   2.424  16.443  0.2546 -0.3111  0.3964
  563MPD2     C 8401   2.609   3.185  15.716 -0.0837 -0.2114  0.0343
  563MPD2    C1 8402   2.606   3.170  15.855 -0.0293 -0.1961 -0.6881
  563MPD2    C2 8403   2.696   3.082  15.915  0.0872  0.7951  0.3975
  563MPD2    C3 8404   2.776   3.006  15.833  0.1225  0.3724 -0.3545
  563MPD2    C4 8405   2.781   3.021  15.698  0.4598  0.8741 -0.4570
  563MPD2    C5 8406   2.694   3.110  15.645  0.1434 -0.1454 -0.2954
  563MPD2     H 8407   2.682   3.055  16.020  3.2390 -1.9977  0.1175
  563MPD2    H1 8408   2.834   2.947  15.639  1.2798  2.2381 -1.4138
  563MPD2    H2 8409   2.531   3.237  15.662  0.0112 -1.2012 -1.0748
  563MPD2    H3 8410   2.698   3.114  15.537  1.2442  0.3676 -0.2312
  563MPD2     N 8411   2.842   2.905  15.901  0.3600  0.5106 -0.0950
  563MPD2    H5 8412   2.827   2.909  16.001  0.6070 -1.6842  0.0366
  563MPD2    N1 8413   2.516   3.233  15.946 -0.1681 -0.2264 -0.1046
  563MPD2    H7 8414   2.512   3.196  16.041 -2.0869  0.1779 -0.0393
  564TMC3    C1 8415   2.333   3.357  16.031  0.1783 -0.0212  0.1699
  564TMC3    C2 8416   2.198   3.349  16.011 -0.0928 -0.4763 -0.6137
  564TMC3    C3 8417   2.108   3.318  16.114 -0.1526  0.5419 -1.2013
  564TMC3    C4 8418   2.384   3.337  16.153 -0.7943  0.7483  0.1325
  564TMC3    C5 8419   2.289   3.317  16.254 -0.1140 -0.1552 -0.1723
  564TMC3    C6 8420   2.154   3.307  16.242  0.1794  0.4768  0.1304
  564TMC3     C 8421   2.428   3.334  15.921 -0.3482  0.3116  0.0937
  564TMC3     O 8422   2.401   3.376  15.812  0.5231 -0.2033 -0.0375
  564TMC3     H 8423   2.170   3.330  15.908 -0.6105  0.3065 -0.6180
  564TMC3    H1 8424   2.492   3.340  16.166 -0.7968  1.5758 -0.0057
  564TMC3    H2 8425   2.092   3.293  16.329 -0.5898 -1.4192 -0.7232
  564TMC3    C7 8426   2.341   3.220  16.345  0.1933 -0.0566 -0.0204
  564TMC3    C8 8427   2.015   3.212  16.090 -1.2404  0.3035  0.4234
  564TMC3    O1 8428   2.460   3.244  16.376  0.2418 -0.4664 -0.5387
  564TMC3    O2 8429   1.997   3.127  16.177 -0.0796 -0.2685 -0.1636
  565TMC3    C1 8430   3.757   4.078   9.670  0.3577  0.1441 -0.0238
  565TMC3    C2 8431   3.683   3.994   9.754 -0.6908 -0.0698 -0.2577
  565TMC3    C3 8432   3.584   4.064   9.828  0.6264 -0.4179  0.4084
  565TMC3    C4 8433   3.731   4.208   9.647 -0.6484 -0.6246 -0.4438
  565TMC3    C5 8434   3.630   4.269   9.725  0.1798  0.1461 -0.0487
  565TMC3    C6 8435   3.564   4.198   9.826 -0.2903  0.4779 -0.1131
  565TMC3     C 8436   3.807   4.007   9.547 -0.4164  0.1635 -0.3367
  565TMC3     O 8437   3.810   4.076   9.448 -0.3443  0.1946  0.1042
  565TMC3     H 8438   3.693   3.886   9.762  0.0548 -0.0707 -1.1675
  565TMC3    H1 8439   3.775   4.260   9.563 -0.0047 -0.4295  0.0202
  565TMC3    H2 8440   3.478   4.241   9.875  1.1396  5.1327 -1.6499
  565TMC3    C7 8441   3.565   4.387   9.674  0.3517  0.6425 -0.2871
  565TMC3    C8 8442   3.517   3.995   9.943  0.1347  0.5540 -0.0078
  565TMC3    O1 8443   3.472   4.431   9.740 -0.9377 -0.1978 -0.1102
  565TMC3    O2 8444   3.522   4.052  10.053 -0.1998 -0.1447  0.1928
  566MPD2     C 8445   4.445   0.668  14.315  0.5561 -0.0161 -0.6640
  566MPD2    C1 8446   4.472   0.732  14.193 -0.2079  0.8532 -0.3641
  566MPD2    C2 8447   4.378   0.720  14.094  0.5667 -0.3616 -0.0726
  566MPD2    C3 8448   4.260   0.656  14.112  0.2860 -0.2543 -0.1256
  566MPD2    C4 8449   4.233   0.595  14.230  0.4349 -0.4123 -0.0768
  566MPD2    C5 8450   4.323   0.603  14.329  0.1129  0.3673 -0.1229
  566MPD2     H 8451   4.395   0.770  14.000  1.7593 -3.3707 -1.4502
  566MPD2    H1 8452   4.135   0.556  14.257 -1.1096  2.3019 -1.7452
  566MPD2    H2 8453   4.518   0.665  14.395  0.8770  1.3558 -0.9030
  566MPD2    H3 8454   4.292   0.559  14.423  2.2255 -0.0115  0.3903
  566MPD2     N 8455   4.172   0.653  13.998  0.4893  0.3778  0.0608
  566MPD2    H5 8456   4.207   0.685  13.909  0.9404 -0.4522 -0.0561
  566MPD2    N1 8457   4.582   0.822  14.178 -0.1638  0.4485  0.1879
  566MPD2    H7 8458   4.645   0.838  14.256 -0.8921 -1.2911  1.1197
  567TMC3    C1 8459   4.691   0.996  14.070 -0.3238 -0.5913  0.4740
  567TMC3    C2 8460   4.740   1.065  13.954  0.2310 -0.6412  0.3026
  567TMC3    C3 8461   0.070   1.182  13.962 -0.0409  0.0451  0.0422
  567TMC3    C4 8462   4.694   1.066  14.192 -0.4219 -0.2698  0.0360
  567TMC3    C5 8463   0.016   1.185  14.197 -0.1170  0.6377 -0.4775
  567TMC3    C6 8464   0.069   1.245  14.085 -0.0520 -0.1218 -0.0914
  567TMC3     C 8465   4.607   0.885  14.055 -0.4325 -0.8805 -0.5352
  567TMC3     O 8466   4.570   0.879  13.939 -0.1542  0.6149 -0.3109
  567TMC3     H 8467   4.728   1.022  13.856 -2.2337 -1.6812  1.0657
  567TMC3    H1 8468   4.629   1.037  14.274  0.6702 -0.1792  0.9354
  567TMC3    H2 8469   0.111   1.345  14.095  3.6575 -1.8496  1.5037
  567TMC3    C7 8470   0.061   1.240  14.320 -0.3667  0.0817 -0.2089
  567TMC3    C8 8471   0.027   1.272  13.861  0.5838  0.3476 -0.3676
  567TMC3    O1 8472   0.148   1.328  14.322 -0.2273 -0.6414 -0.5919
  567TMC3    O2 8473   4.696   1.365  13.896 -0.6152  0.3660  0.0778
  568MPD2     C 8474   1.632   1.799  16.365 -0.3650 -0.0680 -0.2450
  568MPD2    C1 8475   1.711   1.880  16.444 -0.0230  0.5716  0.1650
  568MPD2    C2 8476   1.702   2.017  16.425  0.1339  0.1000 -0.1263
  568MPD2    C3 8477   1.627   2.069  16.319  0.4015 -0.9841 -0.0523
  568MPD2    C4 8478   1.548   1.979  16.245  0.3671  0.3259 -0.3450
  568MPD2    C5 8479   1.541   1.845  16.276 -0.1554 -0.4080  0.0753
  568MPD2     H 8480   1.754   2.092  16.485  0.1226  1.1400 -1.4212
  568MPD2    H1 8481   1.486   2.016  16.164  0.1602  1.1413  0.1826
  568MPD2    H2 8482   1.633   1.692  16.377 -1.4375 -0.3475 -2.6202
  568MPD2    H3 8483   1.490   1.776  16.209  1.3169 -0.6905 -0.7519
  568MPD2     N 8484   1.633   2.208  16.300 -0.4361  0.2321 -0.5358
  568MPD2    H5 8485   1.680   2.263  16.371  0.5048 -0.0504 -0.9465
  568MPD2    N1 8486   1.808   1.830  16.531  0.4565  0.4028  0.7503
  568MPD2    H7 8487   1.828   1.731  16.518  2.0093  1.1338 -2.4424
  569TMC3    C1 8488   1.605   2.403  16.192 -0.1103 -0.6542 -0.0294
  569TMC3    C2 8489   1.590   2.465  16.310  0.7063  0.0575 -0.0612
  569TMC3    C3 8490   1.602   2.604  16.311 -0.1278  0.2898 -0.2799
  569TMC3    C4 8491   1.630   2.470  16.078  0.1046 -0.5504  0.5856
  569TMC3    C5 8492   1.666   2.598  16.087  0.3738  0.0372 -0.3787
  569TMC3    C6 8493   1.646   2.667  16.197  0.1606 -0.3709  1.1194
  569TMC3     C 8494   1.604   2.264  16.181  0.3388 -0.0091 -0.5212
  569TMC3     O 8495   1.608   2.210  16.069 -0.2365 -0.1440  0.0565
  569TMC3     H 8496   1.555   2.425  16.405  0.3987  0.9418  0.1999
  569TMC3    H1 8497   1.657   2.424  15.983 -0.0621  0.0974  0.2235
  569TMC3    H2 8498   1.665   2.774  16.194 -0.3395 -0.3345 -0.7565
  569TMC3    C7 8499   1.695   2.673  15.968  0.4304  0.0475  0.3847
  569TMC3    C8 8500   1.647   2.651  16.440 -0.0458  0.5883 -0.5079
  569TMC3    O1 8501   1.661   2.629  15.860 -0.5261 -0.2726  0.1354
  569TMC3    O2 8502   1.581   2.614  16.537 -0.1949  0.2852  0.4064
  570TMC3    C1 8503   1.452   0.495  16.089 -0.1251 -0.0463 -0.1997
  570TMC3    C2 8504   1.583   0.509  16.044  0.0035 -0.1229  0.6919
  570TMC3    C3 8505   1.662   0.620  16.073  0.0731  0.2459 -0.5575
  570TMC3    C4 8506   1.406   0.588  16.175  1.1715  1.1824  0.0841
  570TMC3    C5 8507   1.481   0.703  16.195  0.0522 -0.3710 -0.5715
  570TMC3    C6 8508   1.608   0.728  16.146 -0.1686 -0.1969  0.0519
  570TMC3     C 8509   1.389   0.365  16.073  0.4706  0.3093  0.5727
  570TMC3     O 8510   1.411   0.298  15.975 -0.0891  0.7686 -0.1701
  570TMC3     H 8511   1.628   0.420  16.002  2.4257  1.1609  0.5474
  570TMC3    H1 8512   1.300   0.589  16.200  0.5908  1.4894 -2.4248
  570TMC3    H2 8513   1.675   0.807  16.180 -0.0887  0.2636 -1.1886
  570TMC3    C7 8514   1.416   0.799  16.287 -0.3433 -0.4131  0.1332
  570TMC3    C8 8515   1.783   0.642  15.993  0.5160 -0.0700 -0.0198
  570TMC3    O1 8516   1.318   0.763  16.349 -0.2564 -0.0861  0.4166
  570TMC3    O2 8517   1.854   0.729  16.033 -0.2654 -0.2011 -0.3167
  571MPD2     C 8518   4.027   2.457  17.599 -0.0454  0.3720  0.3253
  571MPD2    C1 8519   3.974   2.406  17.717  0.8867 -0.1934  0.6273
  571MPD2    C2 8520   4.030   2.450   0.077 -0.0295  0.2578 -0.1256
  571MPD2    C3 8521   4.137   2.538   0.073  0.1067  0.5086 -0.0398
  571MPD2    C4 8522   4.191   2.584  17.715  0.2628  0.0355 -0.0457
  571MPD2    C5 8523   4.134   2.542  17.602 -0.3459 -0.0674 -0.3969
  571MPD2     H 8524   4.002   2.412   0.175 -0.2327  1.6616  0.3684
  571MPD2    H1 8525   4.279   2.647  17.717  0.7510 -0.5961 -1.7139
  571MPD2    H2 8526   3.994   2.426  17.501 -0.2345 -0.8576  0.7892
  571MPD2    H3 8527   4.180   2.579  17.511  1.8079 -1.2257  0.2388
  571MPD2     N 8528   4.182   2.603   0.190 -0.1044  0.0211 -0.2167
  571MPD2    H5 8529   4.244   2.683   0.176 -0.9673 -0.2080 -5.3337
  571MPD2    N1 8530   3.853   2.335  17.714  0.3015 -0.3914  0.2401
  571MPD2    H7 8531   3.813   2.330  17.621 -2.5903 -2.4914  1.6025
  572TMC3    C1 8532   4.183   2.678   0.408  0.3703 -0.2899  0.5219
  572TMC3    C2 8533   4.200   2.659   0.540  0.0789 -0.3215 -0.9793
  572TMC3    C3 8534   4.221   2.766   0.615  0.0150 -0.4675 -0.0346
  572TMC3    C4 8535   4.179   2.807   0.358 -0.2871  0.5473 -0.0940
  572TMC3    C5 8536   4.214   2.916   0.425 -0.0554 -0.3276  0.1538
  572TMC3    C6 8537   4.237   2.897   0.566  0.6215 -0.1786 -0.2821
  572TMC3     C 8538   4.151   2.569   0.318 -0.3859 -0.0572  0.5744
  572TMC3     O 8539   4.098   2.478   0.377  0.8178 -0.3107  0.0439
  572TMC3     H 8540   4.218   2.559   0.579 -1.2830  0.6258  2.0085
  572TMC3    H1 8541   4.150   2.830   0.256 -0.6120  3.6761  0.7004
  572TMC3    H2 8542   4.262   2.981   0.631 -0.2764  0.6846 -1.0437
  572TMC3    C7 8543   4.173   3.049   0.376  0.8485  0.5057 -0.1695
  572TMC3    C8 8544   4.247   2.744   0.756 -0.3792 -0.1760 -0.0271
  572TMC3    O1 8545   4.128   3.053   0.263 -0.3935 -0.1871  0.1514
  572TMC3    O2 8546   4.273   2.629   0.788 -0.1437 -0.4085 -0.4595
  573MPD2     C 8547   0.194   3.941   0.697  0.3435  0.6388  0.0098
  573MPD2    C1 8548   0.268   3.878   0.787  0.8745  0.5470 -0.3975
  573MPD2    C2 8549   0.383   3.811   0.747 -0.1253 -0.2735 -0.0207
  573MPD2    C3 8550   0.426   3.803   0.620  0.9832 -0.1776  0.3489
  573MPD2    C4 8551   0.348   3.876   0.526 -0.5416 -0.1392 -0.1758
  573MPD2    C5 8552   0.235   3.942   0.566 -0.0134 -0.8445 -0.2406
  573MPD2     H 8553   0.442   3.757   0.820  0.7983  1.5878  0.6173
  573MPD2    H1 8554   0.378   3.890   0.423  3.8238 -2.1510  0.8460
  573MPD2    H2 8555   0.112   3.999   0.737 -1.1104 -0.7186 -1.0152
  573MPD2    H3 8556   0.181   4.004   0.496 -0.2319 -2.8612 -1.8460
  573MPD2     N 8557   0.537   3.731   0.579 -0.3864 -0.5918 -0.0653
  573MPD2    H5 8558   0.554   3.740   0.479 -0.9972 -3.1972 -0.4087
  573MPD2    N1 8559   0.222   3.876   0.922  0.8586 -0.0186 -0.7330
  573MPD2    H7 8560   0.133   3.917   0.947  0.8412  0.2829 -1.2952
  574TMC3    C1 8561   0.738   3.607   0.589  0.6017  0.0851  0.0003
  574TMC3    C2 8562   0.714   3.535   0.469 -0.0100 -0.1272 -0.0748
  574TMC3    C3 8563   0.812   3.488   0.395 -0.0390  0.4291  0.1848
  574TMC3    C4 8564   0.871   3.622   0.634  0.1511 -0.0645  0.0376
  574TMC3    C5 8565   0.968   3.575   0.547 -1.0894 -0.1651 -0.1034
  574TMC3    C6 8566   0.944   3.513   0.426  0.5557  0.3740 -0.9857
  574TMC3     C 8567   0.632   3.674   0.667 -0.1295  0.0776  0.8580
  574TMC3     O 8568   0.651   3.721   0.780 -0.1004 -0.1803 -0.0591
  574TMC3     H 8569   0.611   3.510   0.448 -0.4891  2.5698 -0.9888
  574TMC3    H1 8570   0.893   3.660   0.733 -1.7548 -1.0531  0.8274
  574TMC3    H2 8571   1.023   3.468   0.368 -0.3402 -0.9055 -1.2288
  574TMC3    C7 8572   1.109   3.599   0.574 -0.7018  0.2260  0.4725
  574TMC3    C8 8573   0.788   3.479   0.252 -0.1683 -0.1762 -0.1226
  574TMC3    O1 8574   1.184   3.516   0.515 -0.3609 -0.4070  0.2359
  574TMC3    O2 8575   0.890   3.475   0.183  0.1350  0.0909 -0.0336
  575TMC3    C1 8576   3.515   3.717  10.750 -0.1535 -0.5410  0.0217
  575TMC3    C2 8577   3.428   3.610  10.789  0.2841 -0.2000 -0.3539
  575TMC3    C3 8578   3.336   3.563  10.696 -0.5820  0.4011 -0.3844
  575TMC3    C4 8579   3.524   3.761  10.622 -0.4833  0.1691  0.7340
  575TMC3    C5 8580   3.429   3.714  10.535  0.3306  0.0680  0.3587
  575TMC3    C6 8581   3.341   3.612  10.572 -0.3588 -0.3349  0.0690
  575TMC3     C 8582   3.588   3.787  10.858 -0.0623  0.5517 -0.1731
  575TMC3     O 8583   3.533   3.799  10.968 -0.1884  0.1362  0.0242
  575TMC3     H 8584   3.430   3.579  10.893  1.4864 -0.6416 -0.5075
  575TMC3    H1 8585   3.596   3.836  10.592  0.6308 -0.9051  0.7414
  575TMC3    H2 8586   3.266   3.576  10.502  2.3667 -2.6114 -1.6762
  575TMC3    C7 8587   3.431   3.753  10.391 -0.2440 -0.3761 -0.0586
  575TMC3    C8 8588   3.282   3.431  10.712  0.9323 -0.4322  1.1399
  575TMC3    O1 8589   3.508   3.845  10.370  0.0960  0.1959  0.1097
  575TMC3    O2 8590   3.250   3.369  10.612  0.1862 -1.1140 -0.2827
  576MPD2     C 8591   2.717   0.494  12.463 -0.3308  0.2765  0.0837
  576MPD2    C1 8592   2.767   0.609  12.410  0.9904 -0.0655 -0.1391
  576MPD2    C2 8593   2.720   0.726  12.466  0.1190  0.1697 -0.3838
  576MPD2    C3 8594   2.636   0.725  12.571  0.1326  0.4352  0.6070
  576MPD2    C4 8595   2.607   0.604  12.636  0.5359  0.9401  0.2244
  576MPD2    C5 8596   2.627   0.490  12.569 -0.8460 -0.2578  0.3819
  576MPD2     H 8597   2.747   0.822  12.424  1.5675 -0.0583  0.0505
  576MPD2    H1 8598   2.547   0.594  12.726 -1.2211  0.6885 -0.9685
  576MPD2    H2 8599   2.730   0.397  12.418  2.9619  0.9880 -0.4949
  576MPD2    H3 8600   2.591   0.393  12.602  0.6892 -1.2090 -0.7167
  576MPD2     N 8601   2.580   0.852  12.607 -0.7614 -0.0284 -0.2689
  576MPD2    H5 8602   2.607   0.930  12.547 -1.1041 -0.9349 -1.6216
  576MPD2    N1 8603   2.848   0.617  12.293  0.2730  0.3488 -0.4788
  576MPD2    H7 8604   2.853   0.707  12.245  0.6471 -0.2942 -1.6456
  577TMC3    C1 8605   2.971   0.553  12.109  0.0558 -0.3502  0.7537
  577TMC3    C2 8606   3.012   0.460  12.015  0.3489 -0.5266  0.0259
  577TMC3    C3 8607   3.090   0.500  11.905 -0.0683  1.0220  0.4516
  577TMC3    C4 8608   3.005   0.684  12.087  0.4257  0.4835 -0.4833
  577TMC3    C5 8609   3.081   0.719  11.975 -0.2123  0.7441  0.3445
  577TMC3    C6 8610   3.128   0.632  11.884  0.1776  0.1803  0.0248
  577TMC3     C 8611   2.903   0.507  12.227  0.8589  0.0448  0.4519
  577TMC3     O 8612   2.897   0.388  12.264  0.3133 -0.1750  0.2200
  577TMC3     H 8613   2.980   0.358  12.034 -2.2165 -0.0845 -1.8993
  577TMC3    H1 8614   2.985   0.766  12.156 -0.8605 -0.4972  0.3114
  577TMC3    H2 8615   3.215   0.658  11.825 -0.0526 -0.6118 -0.6610
  577TMC3    C7 8616   3.115   0.856  11.960  0.4550 -0.3058 -1.1810
  577TMC3    C8 8617   3.172   0.399  11.833 -0.2197 -0.0401  0.5511
  577TMC3    O1 8618   3.088   0.934  12.050  0.4582 -0.0510 -0.3894
  577TMC3    O2 8619   3.182   0.291  11.892  0.1265  0.0549 -0.4791
  578MPD2     C 8620   0.770   1.123   0.725 -0.1909  0.7845 -0.0973
  578MPD2    C1 8621   0.826   1.030   0.643 -0.1880  0.1870 -0.2477
  578MPD2    C2 8622   0.936   0.955   0.676  0.7402 -0.0572 -0.5346
  578MPD2    C3 8623   0.999   0.990   0.796  0.0063 -0.0090 -0.2432
  578MPD2    C4 8624   0.950   1.092   0.873  0.4831  0.6259  0.0020
  578MPD2    C5 8625   0.834   1.150   0.842 -0.0731  0.5797 -0.9328
  578MPD2     H 8626   0.970   0.875   0.611 -1.3761 -2.9502  1.9189
  578MPD2    H1 8627   0.997   1.127   0.965 -0.3147  1.2661  0.1678
  578MPD2    H2 8628   0.687   1.182   0.688 -0.7849 -1.0678 -1.7103
  578MPD2    H3 8629   0.788   1.204   0.924  0.0764  1.4883 -1.4398
  578MPD2     N 8630   1.111   0.913   0.824 -0.2466 -0.4393 -0.1276
  578MPD2    H5 8631   1.139   0.834   0.767  1.7730 -1.6015  2.4705
  578MPD2    N1 8632   0.769   1.020   0.513 -0.0361  0.3830  0.2979
  578MPD2    H7 8633   0.680   1.067   0.505  0.7219  1.9317  0.8728
  579TMC3    C1 8634   1.316   0.865   0.930  0.2443 -0.8475 -0.1948
  579TMC3    C2 8635   1.426   0.915   0.996 -0.0854 -0.0815 -0.3161
  579TMC3    C3 8636   1.530   0.825   1.014 -0.0366 -0.6061  0.0043
  579TMC3    C4 8637   1.296   0.736   0.908 -0.7197  0.3852 -0.3192
  579TMC3    C5 8638   1.400   0.658   0.933 -0.3993  0.2601 -0.1979
  579TMC3    C6 8639   1.525   0.693   0.977  0.4202  0.0781  0.6648
  579TMC3     C 8640   1.191   0.941   0.933  0.0787  0.5634  0.1501
  579TMC3     O 8641   1.166   1.013   1.032  0.8823  0.3584  0.3232
  579TMC3     H 8642   1.425   1.021   1.016  0.8003  0.3596 -2.6491
  579TMC3    H1 8643   1.192   0.707   0.898 -0.3735 -0.6739 -0.9039
  579TMC3    H2 8644   1.589   0.616   1.019  0.0269 -0.2083  0.7386
  579TMC3    C7 8645   1.370   0.514   0.942  0.7265 -0.7098  0.2705
  579TMC3    C8 8646   1.638   0.870   1.098  0.4745  0.5799 -0.4118
  579TMC3    O1 8647   1.432   0.453   1.028  0.4912  0.1807 -0.6170
  579TMC3    O2 8648   1.622   0.977   1.153  0.3279 -0.0803 -0.0815
  580TMC3    C1 8649   0.562   4.709  12.366 -1.0535  0.4666  0.2770
  580TMC3    C2 8650   0.694   4.735  12.385  0.6300  0.0412  0.0964
  580TMC3    C3 8651   0.787   4.633  12.402 -0.1321 -0.9589 -0.7794
  580TMC3    C4 8652   0.524   4.571  12.360  0.4276  0.1955  0.2189
  580TMC3    C5 8653   0.624   4.477  12.381  0.7791 -0.0722 -0.7756
  580TMC3    C6 8654   0.748   4.507  12.414 -0.5220 -0.3009 -0.1530
  580TMC3     C 8655   0.488   0.072  12.297  1.0407 -0.5846  0.0477
  580TMC3     O 8656   0.562   0.167  12.263 -0.3063 -0.0812  0.6036
  580TMC3     H 8657   0.726   0.098  12.391  0.7986  0.0531 -0.8637
  580TMC3    H1 8658   0.423   4.548  12.329  0.4513  0.6755 -0.2081
  580TMC3    H2 8659   0.821   4.428  12.421  1.2120  1.3726  0.5325
  580TMC3    C7 8660   0.584   4.339  12.385 -0.1475  0.3653  0.4915
  580TMC3    C8 8661   0.915   4.655  12.335  0.0755 -0.2952 -0.1231
  580TMC3    O1 8662   0.629   4.276  12.481  0.2135 -0.2760  0.7411
  580TMC3    O2 8663   0.964   4.570  12.259  0.1037 -0.3055  0.2855
  581MPD2     C 8664   3.222   4.050  14.937  0.1499 -0.0848 -0.2664
  581MPD2    C1 8665   3.095   4.081  14.988  0.2041  0.0987 -0.4044
  581MPD2    C2 8666   3.028   4.195  14.956 -0.9374  0.1078  0.5432
  581MPD2    C3 8667   3.088   4.281  14.869 -0.0777 -0.7396  1.2375
  581MPD2    C4 8668   3.215   4.254  14.819  0.0845 -0.2051 -0.8972
  581MPD2    C5 8669   3.276   4.145  14.860 -0.3996 -0.2577  0.6693
  581MPD2     H 8670   2.930   4.223  14.994 -1.6715 -2.5020  0.5528
  581MPD2    H1 8671   3.267   4.317  14.747 -0.1050  0.7649 -0.1806
  581MPD2    H2 8672   3.281   3.961  14.956 -2.7900 -2.0290 -0.2358
  581MPD2    H3 8673   3.363   4.103  14.812 -0.6332  0.7011 -0.5817
  581MPD2     N 8674   3.029   4.406  14.859 -0.0596  0.0642 -0.9112
  581MPD2    H5 8675   2.930   4.418  14.879  0.2460  0.2938  0.4971
  581MPD2    N1 8676   3.059   3.986  15.083  0.4562 -0.4656  0.2256
  581MPD2    H7 8677   3.112   3.899  15.081 -0.7831 -1.2263  0.9532
  582TMC3    C1 8678   2.973   3.904  15.275 -0.6028  0.3015  0.1161
  582TMC3    C2 8679   3.089   3.914  15.341 -0.2331  0.0903 -0.2630
  582TMC3    C3 8680   3.088   3.871  15.469 -0.2540  0.7702  1.2608
  582TMC3    C4 8681   2.857   3.873  15.332  0.1257  0.0516  0.2638
  582TMC3    C5 8682   2.857   3.833  15.463 -0.2735 -0.1733  0.7627
  582TMC3    C6 8683   2.974   3.832  15.534  0.7213 -0.3794  0.1988
  582TMC3     C 8684   2.962   4.001  15.177 -0.5398  1.2631  0.1399
  582TMC3     O 8685   2.863   4.074  15.188  0.0575  0.2673 -0.0146
  582TMC3     H 8686   3.176   3.958  15.294  0.7538  0.2832  1.7128
  582TMC3    H1 8687   2.759   3.873  15.287 -0.2799  1.3701  1.1399
  582TMC3    H2 8688   2.971   3.812  15.641  0.9358  2.0486  0.6544
  582TMC3    C7 8689   2.750   3.901  15.537 -0.1181  0.9121  0.1641
  582TMC3    C8 8690   3.180   3.931  15.560 -0.2791  0.1697  0.2137
  582TMC3    O1 8691   2.700   3.834  15.626  0.0172  0.1377 -0.2395
  582TMC3    O2 8692   3.142   3.948  15.678 -0.1212 -0.6415 -0.2262
  583MPD2     C 8693   3.395   1.319  17.109 -0.1831 -0.0039  0.2159
  583MPD2    C1 8694   3.388   1.418  17.012 -0.0403  0.1256 -0.2433
  583MPD2    C2 8695   3.320   1.537  17.040 -0.2524 -0.1331 -0.0721
  583MPD2    C3 8696   3.280   1.573  17.166  0.8309 -0.6586 -0.0653
  583MPD2    C4 8697   3.303   1.481  17.266 -1.0464 -0.6070  0.4823
  583MPD2    C5 8698   3.356   1.359  17.236  0.0461  0.8814  0.4962
  583MPD2     H 8699   3.311   1.607  16.957  0.4564  0.5073  0.3898
  583MPD2    H1 8700   3.288   1.509  17.369  0.4848  4.0607 -0.5660
  583MPD2    H2 8701   3.445   1.222  17.103 -1.1749 -0.6261  1.9440
  583MPD2    H3 8702   3.362   1.284  17.314 -0.7006  1.4571  1.1075
  583MPD2     N 8703   3.209   1.691  17.184  0.3101 -0.2545 -0.1930
  583MPD2    H5 8704   3.196   1.739  17.096  1.9644  1.7451  0.6525
  583MPD2    N1 8705   3.451   1.414  16.887 -0.2877  0.2580  0.6355
  583MPD2    H7 8706   3.455   1.497  16.828 -0.4755 -0.2283 -0.0704
  584TMC3    C1 8707   3.056   1.840  17.299 -0.1992 -0.0587 -0.1088
  584TMC3    C2 8708   3.107   1.931  17.222  0.2025 -0.3346 -0.2816
  584TMC3    C3 8709   3.062   2.057  17.235  0.4038  0.5741  0.0822
  584TMC3    C4 8710   2.954   1.869  17.381  0.2867 -0.0626 -0.1640
  584TMC3    C5 8711   2.893   1.992  17.382 -0.6528  0.7984  0.0735
  584TMC3    C6 8712   2.959   2.095  17.313 -0.3430 -0.7162  0.4305
  584TMC3     C 8713   3.128   1.713  17.294 -0.9062 -0.1937  0.3436
  584TMC3     O 8714   3.108   1.645  17.394  0.5119 -0.6432  0.1708
  584TMC3     H 8715   3.184   1.919  17.146 -0.0621 -0.1773 -0.5747
  584TMC3    H1 8716   2.913   1.783  17.433 -1.7342  0.0508 -1.5578
  584TMC3    H2 8717   2.911   2.192  17.305 -2.2052 -1.8630 -2.7790
  584TMC3    C7 8718   2.785   2.027  17.474  1.2433  0.0516  0.1489
  584TMC3    C8 8719   3.122   2.152  17.148  0.0849 -0.5252  0.0062
  584TMC3    O1 8720   2.733   2.133  17.434  0.2985  0.5718  0.3057
  584TMC3    O2 8721   3.141   2.104  17.039  0.0740 -0.2444  0.5337
  585MPD2     C 8722   3.312   0.029  17.724  0.1267 -1.2837 -0.3315
  585MPD2    C1 8723   3.213   0.121  17.685 -0.4258 -0.0264  0.4282
  585MPD2    C2 8724   3.169   0.117  17.554 -0.9382  0.3965 -0.0879
  585MPD2    C3 8725   3.225   0.024  17.461 -0.3354  0.2366 -0.2816
  585MPD2    C4 8726   3.317   4.680  17.505 -0.0302 -0.4379 -0.0671
  585MPD2    C5 8727   3.364   4.681  17.630  0.4957 -0.1301  0.3219
  585MPD2     H 8728   3.107   0.201  17.523 -2.3794 -0.9003 -0.7411
  585MPD2    H1 8729   3.357   4.609  17.434  0.9390 -2.3987  2.4494
  585MPD2    H2 8730   3.359   0.029   0.060  2.6967  0.5758 -1.5552
  585MPD2    H3 8731   3.439   4.612  17.667  1.7610  0.3318 -1.3929
  585MPD2     N 8732   3.174   0.016  17.325  0.5112  0.1754  0.5170
  585MPD2    H5 8733   3.204   4.678  17.269  0.0702 -0.1591  0.7503
  585MPD2    N1 8734   3.176   0.228   0.015  0.3166 -0.5431 -0.6568
  585MPD2    H7 8735   3.240   0.256   0.088 -1.3860 -3.5801  2.0168
  586TMC3    C1 8736   3.024   0.049  17.149 -0.7809 -0.0492  0.8582
  586TMC3    C2 8737   3.108   4.727  17.073 -0.1379 -0.2940 -0.0265
  586TMC3    C3 8738   3.049   4.658  16.973 -0.1653 -0.2290 -0.3880
  586TMC3    C4 8739   2.899   0.078  17.123 -0.4322 -0.3331 -0.0496
  586TMC3    C5 8740   2.839   0.015  17.016 -0.4751  0.9846 -0.6330
  586TMC3    C6 8741   2.914   4.673  16.939  0.0052 -0.4856  1.0576
  586TMC3     C 8742   3.078   0.102  17.271 -0.2835  0.4173 -0.5736
  586TMC3     O 8743   3.029   0.203  17.317 -0.5518 -0.7216 -0.2271
  586TMC3     H 8744   3.216   4.725  17.085 -0.1530 -0.6491  0.0528
  586TMC3    H1 8745   2.847   0.128  17.204  0.9608  0.6196  0.2658
  586TMC3    H2 8746   2.868   4.611  16.863  2.1658  0.3996 -0.9888
  586TMC3    C7 8747   2.691   0.016  17.012 -0.6419  0.6340 -1.0533
  586TMC3    C8 8748   3.126   4.565  16.887  0.0066 -0.5505 -0.2121
  586TMC3    O1 8749   2.635   4.651  17.003  0.2195 -0.0291  0.3885
  586TMC3    O2 8750   3.071   4.456  16.867 -0.2360 -0.0983 -0.1393
  587TMC3    C1 8751   4.554   3.899  15.980 -0.7923 -0.1413 -0.1396
  587TMC3    C2 8752   4.630   4.006  16.017 -0.3005 -0.1278  0.1892
  587TMC3    C3 8753   4.721   3.991  16.119  0.2237  0.3766 -0.2438
  587TMC3    C4 8754   4.586   3.775  16.016  0.5673  0.2914  0.0380
  587TMC3    C5 8755   4.692   3.758  16.107  0.5033 -0.7828  0.7294
  587TMC3    C6 8756   0.013   3.867  16.168  0.4217 -0.1374 -0.3432
  587TMC3     C 8757   4.442   3.927  15.894 -0.3614  0.0416  0.2541
  587TMC3     O 8758   4.449   4.024  15.816  0.4737  0.5934 -0.3993
  587TMC3     H 8759   4.600   4.108  15.992  0.1769 -0.8437 -3.2780
  587TMC3    H1 8760   4.528   3.691  15.981  1.0364  0.5500 -1.3696
  587TMC3    H2 8761   0.074   3.853  16.257 -0.5445  0.1738  0.3793
  587TMC3    C7 8762   4.716   3.624  16.149  0.4553  0.6227 -0.0579
  587TMC3    C8 8763   4.738   4.109  16.201 -0.1348  0.1426  0.0894
  587TMC3    O1 8764   4.632   3.536  16.131  0.4954  0.8660  0.0955
  587TMC3    O2 8765   4.651   4.198  16.203  0.6523  0.1450 -1.0401
  588TMC3    C1 8766   2.365   1.511   9.820  0.0420 -0.2509  0.2970
  588TMC3    C2 8767   2.316   1.387   9.779  0.8452  0.6680  0.3640
  588TMC3    C3 8768   2.382   1.270   9.806  0.4768 -0.1420 -0.0404
  588TMC3    C4 8769   2.488   1.513   9.875 -0.4179 -0.1282  0.4098
  588TMC3    C5 8770   2.555   1.396   9.889 -0.3655  0.2127 -0.0376
  588TMC3    C6 8771   2.507   1.270   9.864 -0.7976  0.7556 -0.2342
  588TMC3     C 8772   2.319   1.622   9.737  0.2463  0.4626  0.1612
  588TMC3     O 8773   2.243   1.604   9.648 -0.2963 -0.1822 -0.2734
  588TMC3     H 8774   2.224   1.388   9.723  0.5477 -2.3876  0.7772
  588TMC3    H1 8775   2.538   1.600   9.916  1.1426 -1.2791  0.9433
  588TMC3    H2 8776   2.572   1.183   9.871  0.2654  1.7199  1.9087
  588TMC3    C7 8777   2.683   1.415   9.968 -0.1346  0.5900 -1.0649
  588TMC3    C8 8778   2.313   1.152   9.783 -0.5102 -0.0426 -0.6286
  588TMC3    O1 8779   2.718   1.340  10.057 -0.4948 -0.6365 -0.0026
  588TMC3    O2 8780   2.201   1.170   9.739  0.0664  0.0506  0.4414
  589TMC3    C1 8781   2.085   4.285   1.031 -0.0368  0.0216  0.3633
  589TMC3    C2 8782   2.196   4.361   1.060  1.0003  0.0072  0.3866
  589TMC3    C3 8783   2.309   4.292   1.091  0.6554 -0.0382 -0.4417
  589TMC3    C4 8784   2.087   4.154   1.015  0.0197 -0.6569  0.2494
  589TMC3    C5 8785   2.200   4.085   1.048  0.0537 -0.0391  0.1428
  589TMC3    C6 8786   2.318   4.152   1.090 -0.1762 -0.4103  0.4235
  589TMC3     C 8787   1.977   4.365   0.973 -0.5421  0.3590 -0.1038
  589TMC3     O 8788   1.919   4.308   0.879 -0.0365  0.0064 -0.3240
  589TMC3     H 8789   2.199   4.469   1.051  1.0437  0.1029  1.4486
  589TMC3    H1 8790   2.001   4.104   0.973 -0.0963 -0.7913  0.6414
  589TMC3    H2 8791   2.409   4.106   1.125  0.1135 -0.0406  0.1580
  589TMC3    C7 8792   2.189   3.944   1.046 -0.4839  0.9252 -0.7804
  589TMC3    C8 8793   2.423   4.378   1.121 -0.5576 -0.6023 -0.3934
  589TMC3    O1 8794   2.078   3.892   1.064  0.2851 -0.2480  0.6617
  589TMC3    O2 8795   2.398   4.486   1.169  0.4587 -0.3673 -0.3256
  590MPD2     C 8796   0.908   2.185  16.936  0.3930 -0.4307  0.3142
  590MPD2    C1 8797   0.861   2.182  16.803  0.2297 -0.5326  0.2950
  590MPD2    C2 8798   0.901   2.274  16.709 -0.0558  0.5788 -0.3204
  590MPD2    C3 8799   0.989   2.366  16.745  0.0071  0.0357 -0.9364
  590MPD2    C4 8800   1.049   2.369  16.872 -0.0359 -0.1335 -0.2350
  590MPD2    C5 8801   1.000   2.283  16.965 -0.0688  0.5639 -0.4560
  590MPD2     H 8802   0.862   2.275  16.608 -1.1454 -1.7993  0.0815
  590MPD2    H1 8803   1.126   2.438  16.904 -0.0139 -0.6421  0.8236
  590MPD2    H2 8804   0.867   2.115  17.008  2.5566 -1.5904  0.3974
  590MPD2    H3 8805   1.041   2.274  17.064 -0.6314 -0.1049 -0.2800
  590MPD2     N 8806   1.030   2.458  16.647 -0.1541  0.1873  0.1978
  590MPD2    H5 8807   0.973   2.458  16.563  0.8689  0.3902 -0.5080
  590MPD2    N1 8808   0.768   2.072  16.772  0.2661 -0.0641 -0.8107
  590MPD2    H7 8809   0.746   1.997  16.837 -2.1277  1.2900 -0.0832
  591TMC3    C1 8810   1.157   2.601  16.523  0.2750 -0.0781 -0.0907
  591TMC3    C2 8811   1.172   2.503  16.427 -0.4550 -0.0403 -0.4360
  591TMC3    C3 8812   1.236   2.526  16.314 -0.5674  0.2757  0.1547
  591TMC3    C4 8813   1.227   2.719  16.502  0.2195  0.2687 -0.2817
  591TMC3    C5 8814   1.284   2.742  16.386  0.3358  0.5344 -0.2091
  591TMC3    C6 8815   1.290   2.650  16.280 -0.4111  0.1382 -0.4790
  591TMC3     C 8816   1.123   2.553  16.654  0.3978 -0.1278 -0.9296
  591TMC3     O 8817   1.187   2.598  16.748  0.3805  0.3716 -0.2829
  591TMC3     H 8818   1.125   2.406  16.436 -4.4704  2.1064  1.9836
  591TMC3    H1 8819   1.226   2.795  16.579 -0.1827 -0.6550  0.6300
  591TMC3    H2 8820   1.343   2.665  16.187 -1.2840 -1.1041 -1.1831
  591TMC3    C7 8821   1.362   2.865  16.371 -0.2118 -0.3851 -0.0207
  591TMC3    C8 8822   1.247   2.422  16.210  0.4939 -0.0623  0.1095
  591TMC3    O1 8823   1.385   2.933  16.472  1.3042 -0.6991  0.2734
  591TMC3    O2 8824   1.295   2.457  16.103  0.3820 -0.3377  0.6364
  592MPD2     C 8825   1.257   4.448  11.235  0.2475  0.1290 -0.8123
  592MPD2    C1 8826   1.277   4.430  11.369  0.6543 -0.5121  0.0281
  592MPD2    C2 8827   1.202   4.343  11.442 -0.1461 -1.4296  1.1380
  592MPD2    C3 8828   1.116   4.259  11.375  0.3749 -0.9193  0.2909
  592MPD2    C4 8829   1.110   4.264  11.238 -0.2453  0.1521 -0.3606
  592MPD2    C5 8830   1.186   4.357  11.168  0.2544  0.4353 -0.5838
  592MPD2     H 8831   1.202   4.326  11.549 -1.0355 -0.5602  1.2797
  592MPD2    H1 8832   1.048   4.199  11.178  0.5036 -0.5398 -0.3802
  592MPD2    H2 8833   1.303   4.529  11.181 -1.2566  0.1161 -2.1091
  592MPD2    H3 8834   1.189   4.361  11.060  0.1764 -2.0594 -0.6821
  592MPD2     N 8835   1.034   4.166  11.446 -0.6597  0.5543  0.9318
  592MPD2    H5 8836   1.062   4.170  11.544  1.2798 -2.5661  0.5073
  592MPD2    N1 8837   1.376   4.512  11.422  0.2721  0.0876 -0.2090
  592MPD2    H7 8838   1.447   4.542  11.357  1.5288 -1.1545  0.5845
  593TMC3    C1 8839   1.495   4.629  11.588  0.1354  0.3011 -0.2213
  593TMC3    C2 8840   1.476   4.713  11.699  0.6117 -0.6866  0.0158
  593TMC3    C3 8841   1.593   0.009  11.764  0.5371 -0.9247 -0.2314
  593TMC3    C4 8842   1.620   4.612  11.529 -0.5277  0.2118  0.2684
  593TMC3    C5 8843   1.729   4.660  11.597 -0.1723  0.9960  0.6112
  593TMC3    C6 8844   1.718   4.729  11.712  0.3923 -0.4943  0.4648
  593TMC3     C 8845   1.379   4.544  11.552 -0.1016 -0.4394  0.3505
  593TMC3     O 8846   1.295   4.523  11.639 -0.2100  0.3667  0.8148
  593TMC3     H 8847   1.382   4.723  11.753  0.0818 -0.0214 -1.0415
  593TMC3    H1 8848   1.626   4.550  11.440 -1.5081 -0.1661  0.4708
  593TMC3    H2 8849   1.804   0.029  11.762 -0.9585 -0.1798  2.5385
  593TMC3    C7 8850   1.849   4.674  11.530 -0.2737  0.3492  0.4693
  593TMC3    C8 8851   1.575   0.108  11.876  0.4815 -0.4889 -0.5142
  593TMC3    O1 8852   1.947   4.703  11.600  0.0034 -0.3844 -0.0595
  593TMC3    O2 8853   1.466   0.155  11.898  0.2608 -0.2455  0.1969
  594MPD2     C 8854   0.577   2.698  14.237 -0.0357  0.3478  0.4790
  594MPD2    C1 8855   0.498   2.800  14.288 -0.1006  0.4710 -0.3101
  594MPD2    C2 8856   0.508   2.930  14.224 -0.3332  0.2771 -0.1777
  594MPD2    C3 8857   0.592   2.954  14.115  0.1962 -0.6577 -0.3867
  594MPD2    C4 8858   0.659   2.848  14.064  1.2532 -0.4499  0.1229
  594MPD2    C5 8859   0.645   2.720  14.116 -0.5012  0.4904  0.2548
  594MPD2     H 8860   0.441   3.012  14.249  0.8391  0.7498  1.4264
  594MPD2    H1 8861   0.733   2.859  13.986  1.9485 -0.0478  0.8462
  594MPD2    H2 8862   0.578   2.601  14.284 -1.1812  0.4449  0.7106
  594MPD2    H3 8863   0.709   2.643  14.076  0.5596  1.4516  0.1106
  594MPD2     N 8864   0.603   3.093  14.075 -0.3644  0.3739  0.3982
  594MPD2    H5 8865   0.531   3.160  14.101  1.9392  2.9980 -0.0297
  594MPD2    N1 8866   0.419   2.760  14.399 -0.4226 -0.0730  0.4061
  594MPD2    H7 8867   0.422   2.663  14.429  1.8856 -0.3913 -0.8290
  595TMC3    C1 8868   0.808   3.469  13.914  0.3832 -0.5303  0.3340
  595TMC3    C2 8869   0.780   3.333  13.900  0.0291  0.2341  0.2771
  595TMC3    C3 8870   0.681   3.276  13.965  0.3864  0.7057 -0.2527
  595TMC3    C4 8871   0.710   3.547  13.977  0.2494 -0.0403  0.4358
  595TMC3    C5 8872   0.617   3.482  14.054 -0.5338  0.0757 -0.1793
  595TMC3    C6 8873   0.602   3.347  14.051  0.1818 -0.0032 -0.8410
  595TMC3     C 8874   0.946   3.486  13.965  0.4729  0.2520  0.3976
  595TMC3     O 8875   1.006   3.388  14.002 -0.3957 -0.0707 -0.3892
  595TMC3     H 8876   0.852   3.264  13.855 -0.2883  1.0930 -1.5672
  595TMC3    H1 8877   0.721   3.654  13.988 -0.7102  0.1293 -0.2013
  595TMC3    H2 8878   0.508   3.307  14.090  1.6954 -0.6671  2.1547
  595TMC3    C7 8879   0.578   3.550  14.176 -0.4918 -0.2417  0.6991
  595TMC3    C8 8880   0.681   3.135  13.975  0.4934  0.2053  1.0717
  595TMC3    O1 8881   0.551   3.667  14.179  0.2716 -0.6407  0.3699
  595TMC3    O2 8882   0.747   3.069  13.891 -0.2693  0.8311 -0.1914
  596MPD2     C 8883   4.252   1.201  17.085  0.0677  0.7092  0.1747
  596MPD2    C1 8884   4.276   1.321  17.023 -0.1582  0.7271 -0.0990
  596MPD2    C2 8885   4.324   1.319  16.891  0.6775  0.1429 -0.2457
  596MPD2    C3 8886   4.344   1.201  16.820  0.7209 -0.0106 -1.2767
  596MPD2    C4 8887   4.309   1.086  16.891 -0.7194  0.3158  0.5000
  596MPD2    C5 8888   4.270   1.082  17.025  0.0577  0.5950 -0.5457
  596MPD2     H 8889   4.373   1.408  16.851 -0.0168  0.7181  0.1950
  596MPD2    H1 8890   4.315   0.991  16.839 -0.0131 -0.5537  2.2017
  596MPD2    H2 8891   4.213   1.204  17.185 -0.8557 -0.9018 -0.1441
  596MPD2    H3 8892   4.245   0.994  17.083  2.6308 -1.6525 -2.8296
  596MPD2     N 8893   4.382   1.192  16.681 -0.5415 -0.1559 -0.0834
  596MPD2    H5 8894   4.392   1.097  16.647  3.2941  1.2673 -2.8719
  596MPD2    N1 8895   4.237   1.441  17.086 -0.0100  0.0715 -0.3829
  596MPD2    H7 8896   4.261   1.523  17.031  2.2032 -1.4977 -1.6972
  597TMC3    C1 8897   4.108   1.604  17.203  0.3457  0.0536 -0.1761
  597TMC3    C2 8898   4.170   1.705  17.127 -1.4513  0.0348 -0.1244
  597TMC3    C3 8899   4.123   1.836  17.134  0.0954 -0.2497  0.0773
  597TMC3    C4 8900   3.997   1.625  17.279  0.0710 -0.6485  0.7386
  597TMC3    C5 8901   3.955   1.752  17.286 -0.3569 -0.4489 -0.7678
  597TMC3    C6 8902   4.020   1.852  17.226 -0.5998  0.7747 -0.1603
  597TMC3     C 8903   4.157   1.464  17.193 -0.6619  0.0237 -0.2058
  597TMC3     O 8904   4.103   1.384  17.267 -0.4721  0.3830  0.1398
  597TMC3     H 8905   4.255   1.688  17.063 -1.4236 -0.4978  0.0610
  597TMC3    H1 8906   3.952   1.544  17.335  1.8024 -1.7529  0.5438
  597TMC3    H2 8907   3.992   1.954  17.249 -2.2455  0.6767 -1.6774
  597TMC3    C7 8908   3.826   1.775  17.356  0.4576 -0.3644 -0.0562
  597TMC3    C8 8909   4.171   1.939  17.050  0.1808  1.2457  0.2976
  597TMC3    O1 8910   3.785   1.688  17.432  0.0924  0.2550 -0.8813
  597TMC3    O2 8911   4.131   2.051  17.075 -0.3060  0.3557  0.3817
  598TMC3    C1 8912   2.234   2.922  15.734 -0.2112  0.0212 -0.6648
  598TMC3    C2 8913   2.143   2.825  15.715 -0.4991  0.0869  0.1343
  598TMC3    C3 8914   2.125   2.770  15.589  0.3498 -0.1019  0.3630
  598TMC3    C4 8915   2.296   2.978  15.627 -0.0747 -0.4095  0.5830
  598TMC3    C5 8916   2.261   2.932  15.502  0.0644 -0.0953  0.0826
  598TMC3    C6 8917   2.182   2.824  15.481  0.4802  0.5071 -0.5535
  598TMC3     C 8918   2.306   2.914  15.858 -0.4073  0.5745  0.0876
  598TMC3     O 8919   2.292   3.010  15.933 -0.0182 -0.2542  0.1369
  598TMC3     H 8920   2.081   2.789  15.796  0.1725  0.9275  1.0276
  598TMC3    H1 8921   2.377   3.045  15.653  0.3221 -0.0685 -1.4856
  598TMC3    H2 8922   2.148   2.803  15.380 -1.9858  2.5433 -0.1447
  598TMC3    C7 8923   2.353   2.961  15.391  0.2897 -0.5713  0.0588
  598TMC3    C8 8924   2.029   2.662  15.581 -0.8931 -0.4948 -0.0492
  598TMC3    O1 8925   2.349   2.893  15.291 -0.7170  0.2687 -0.1700
  598TMC3    O2 8926   1.968   2.622  15.677  0.4849  0.4678  0.5836
  599MPD2     C 8927   2.527   0.382  16.103  0.0005 -0.2653  0.0627
  599MPD2    C1 8928   2.476   0.259  16.066  1.0452  0.7359 -0.7729
  599MPD2    C2 8929   2.341   0.257  16.048 -0.6975  0.7994  0.3951
  599MPD2    C3 8930   2.269   0.368  16.085 -0.6651  0.0363 -0.2537
  599MPD2    C4 8931   2.328   0.484  16.119  0.0081 -1.0108 -0.2559
  599MPD2    C5 8932   2.461   0.491  16.122  0.1922  0.6420  0.7601
  599MPD2     H 8933   2.293   0.165  16.016 -2.1464  1.4452  0.7235
  599MPD2    H1 8934   2.275   0.578  16.133  1.5576 -0.2167  0.2263
  599MPD2    H2 8935   2.635   0.392  16.099 -0.1401  1.4002  0.1251
  599MPD2    H3 8936   2.509   0.585  16.148  1.2590 -0.0225  1.1973
  599MPD2     N 8937   2.131   0.373  16.109  0.8950  0.1641 -0.5068
  599MPD2    H5 8938   2.096   0.456  16.155 -0.4934  0.3836 -1.9484
  599MPD2    N1 8939   2.563   0.150  16.051 -0.4424  0.0411 -0.2519
  599MPD2    H7 8940   2.657   0.180  16.074 -0.2589 -0.5336 -0.2550
  600TMC3    C1 8941   1.928   0.263  16.175 -0.5102  0.5527 -1.0322
  600TMC3    C2 8942   1.844   0.154  16.167  0.0116 -0.0067 -0.1419
  600TMC3    C3 8943   1.738   0.143  16.256  1.2456  0.1360  0.5429
  600TMC3    C4 8944   1.923   0.348  16.282 -0.3265  0.3900  0.3801
  600TMC3    C5 8945   1.822   0.336  16.368 -0.2034  1.4733 -0.7074
  600TMC3    C6 8946   1.732   0.240  16.357 -0.2509 -0.5079  0.3398
  600TMC3     C 8947   2.045   0.263  16.089 -0.4979  0.4917  0.0650
  600TMC3     O 8948   2.062   0.161  16.018  0.7686  0.5628 -0.2987
  600TMC3     H 8949   1.853   0.075  16.093  1.3023  0.9915 -1.0574
  600TMC3    H1 8950   1.995   0.427  16.299 -0.9342  1.6695 -3.0062
  600TMC3    H2 8951   1.649   0.238  16.427  0.6097  1.6115  1.3870
  600TMC3    C7 8952   1.781   0.441  16.449 -0.0862 -0.2585  0.3636
  600TMC3    C8 8953   1.692   0.009  16.303 -0.3021  0.2370 -0.2393
  600TMC3    O1 8954   1.659   0.470  16.453  0.0000 -0.3282 -0.1582
  600TMC3    O2 8955   1.700   4.735  16.425  0.0515  0.4670 -0.3705
  601MPD2     C 8956   4.230   3.562   0.400 -0.3934 -0.2594 -0.3425
  601MPD2    C1 8957   4.197   3.478   0.290 -0.5164 -0.4456 -0.5902
  601MPD2    C2 8958   4.181   3.346   0.311 -0.2935  0.3524  0.4727
  601MPD2    C3 8959   4.191   3.290   0.440  0.7516  0.1255 -0.0478
  601MPD2    C4 8960   4.234   3.372   0.535 -0.0988 -0.6578 -0.2450
  601MPD2    C5 8961   4.244   3.503   0.524 -0.2841 -0.4717 -0.1724
  601MPD2     H 8962   4.171   3.280   0.226  0.4388 -0.3560  0.9453
  601MPD2    H1 8963   4.255   3.331   0.634  2.3012 -3.4428 -1.8964
  601MPD2    H2 8964   4.235   3.670   0.396 -1.8417 -0.2453 -1.8468
  601MPD2    H3 8965   4.277   3.572   0.600  0.7158 -0.0262 -1.0133
  601MPD2     N 8966   4.187   3.151   0.466  0.4220 -0.2713 -0.0995
  601MPD2    H5 8967   4.209   3.124   0.562 -0.7563 -1.6286 -0.2208
  601MPD2    N1 8968   4.180   3.528   0.166  0.2240 -0.3375  0.1311
  601MPD2    H7 8969   4.154   3.463   0.092 -1.9756 -0.5455  1.0792
  602TMC3    C1 8970   4.160   3.696  17.755  0.2878 -0.4635 -0.1958
  602TMC3    C2 8971   4.222   3.803  17.700  0.3261  0.2172 -0.4268
  602TMC3    C3 8972   4.197   3.832  17.563 -0.8867 -0.4666 -0.4243
  602TMC3    C4 8973   4.081   3.615  17.679 -0.5936  0.8305  0.3485
  602TMC3    C5 8974   4.052   3.651  17.550  0.7494 -0.5887  0.1412
  602TMC3    C6 8975   4.120   3.755  17.490  0.5628 -0.5293  0.5186
  602TMC3     C 8976   4.213   3.652   0.128 -0.6459 -0.0065 -0.1547
  602TMC3     O 8977   4.286   3.737   0.185 -0.4695 -0.0427 -0.7948
  602TMC3     H 8978   4.304   3.851  17.752 -0.8753  1.3455  0.4029
  602TMC3    H1 8979   4.024   3.537  17.730  3.4384 -2.1339  0.3113
  602TMC3    H2 8980   4.093   3.791  17.392  0.7857 -0.8695  0.3343
  602TMC3    C7 8981   4.025   3.545  17.464  0.1927 -0.5277 -0.1574
  602TMC3    C8 8982   4.257   3.953  17.505 -0.2610  0.1819  0.3522
  602TMC3    O1 8983   3.955   3.451  17.505 -0.2612  0.4926  0.0846
  602TMC3    O2 8984   4.284   4.051  17.576  0.0881 -0.4442  0.1742
  603TMC3    C1 8985   2.859   3.231  10.724 -0.0256  0.7885  0.3323
  603TMC3    C2 8986   2.865   3.272  10.853 -0.3999  0.2822 -0.6517
  603TMC3    C3 8987   2.873   3.399  10.886 -0.9630 -0.0571  0.1878
  603TMC3    C4 8988   2.852   3.312  10.622 -0.0894  0.8197 -0.4647
  603TMC3    C5 8989   2.855   3.448  10.653  0.1673  0.0229 -0.3956
  603TMC3    C6 8990   2.862   3.490  10.784 -0.1533  0.0639  1.1620
  603TMC3     C 8991   2.784   3.109  10.706 -0.3064 -0.2760 -0.2667
  603TMC3     O 8992   2.815   3.021  10.783 -0.3364  0.1153 -0.0801
  603TMC3     H 8993   2.871   3.196  10.931  0.5009  0.1665 -0.8254
  603TMC3    H1 8994   2.878   3.274  10.524  0.2986  1.0877 -0.4688
  603TMC3    H2 8995   2.870   3.597  10.798  0.0266  0.0731  0.9955
  603TMC3    C7 8996   2.923   3.528  10.555  0.1125 -0.0103 -0.6703
  603TMC3    C8 8997   2.818   3.428  11.016 -0.2052 -0.0739  0.1196
  603TMC3    O1 8998   3.024   3.591  10.579  0.2002 -0.2637 -0.0164
  603TMC3    O2 8999   2.780   3.331  11.079  0.2215  0.2480  0.0748
  604MPD2     C 9000   3.154   2.158  16.645 -0.4361 -0.4347  0.6327
  604MPD2    C1 9001   3.110   2.258  16.563 -0.0126  0.0715 -0.8756
  604MPD2    C2 9002   3.159   2.262  16.431  0.0477 -0.2384  0.2588
  604MPD2    C3 9003   3.233   2.162  16.375 -0.4635 -0.5908 -1.0983
  604MPD2    C4 9004   3.273   2.054  16.458  0.0428 -0.4971  0.2505
  604MPD2    C5 9005   3.234   2.056  16.594 -0.0572 -0.0937 -0.0110
  604MPD2     H 9006   3.118   2.345  16.374  2.1682  0.6134 -0.0174
  604MPD2    H1 9007   3.336   1.977  16.416  1.1141  1.1907 -1.2392
  604MPD2    H2 9008   3.116   2.151  16.746 -3.0873  0.7106 -0.2738
  604MPD2    H3 9009   3.262   1.974  16.659 -2.3915 -1.0710 -0.2642
  604MPD2     N 9010   3.279   2.182  16.245 -0.2060 -0.1074 -0.4780
  604MPD2    H5 9011   3.259   2.273  16.205  0.8173  0.2734 -0.1268
  604MPD2    N1 9012   3.028   2.357  16.618 -0.1891  0.3335 -0.4233
  604MPD2    H7 9013   3.028   2.359  16.719  0.5509  0.6695 -0.4312
  605TMC3    C1 9014   2.898   2.551  16.621  0.4415  0.4166  1.1969
  605TMC3    C2 9015   2.958   2.591  16.740  0.3120 -0.8323 -0.6275
  605TMC3    C3 9016   2.933   2.722  16.777  0.8571  0.0683  0.0743
  605TMC3    C4 9017   2.816   2.640  16.553  0.2565  1.1782 -0.5938
  605TMC3    C5 9018   2.800   2.772  16.584  0.7400  0.7332  0.6044
  605TMC3    C6 9019   2.865   2.813  16.701  0.1187  0.2103 -0.6346
  605TMC3     C 9020   2.945   2.439  16.540 -0.2299 -0.0616 -0.2776
  605TMC3     O 9021   2.916   2.436  16.422 -0.3819  0.4440 -0.1179
  605TMC3     H 9022   3.016   2.525  16.803 -1.7600  0.6713  2.8462
  605TMC3    H1 9023   2.758   2.605  16.469  1.8724 -0.0378 -1.2127
  605TMC3    H2 9024   2.858   2.913  16.740  2.9438 -0.5219  1.7899
  605TMC3    C7 9025   2.678   2.843  16.551  0.8143  1.1282 -0.0654
  605TMC3    C8 9026   3.026   2.790  16.869  0.1259 -0.3566  0.1119
  605TMC3    O1 9027   2.688   2.964  16.566 -0.4762  0.0242 -0.5449
  605TMC3    O2 9028   2.979   2.878  16.944  0.0994  0.2701  0.7059
  606TMC3    C1 9029   3.981   1.392   0.438 -0.3030  0.0716 -0.1266
  606TMC3    C2 9030   4.073   1.391   0.537  0.2515 -0.0465  0.7539
  606TMC3    C3 9031   4.204   1.365   0.509  0.5870 -0.7883  0.3144
  606TMC3    C4 9032   4.010   1.356   0.310  0.0905  0.1427  0.6765
  606TMC3    C5 9033   4.144   1.337   0.288 -0.6138  0.2602  0.6812
  606TMC3    C6 9034   4.243   1.341   0.382 -0.0511  0.2338  0.3797
  606TMC3     C 9035   3.844   1.376   0.478 -0.6830 -0.5128  0.4341
  606TMC3     O 9036   3.781   1.305   0.402 -0.0971 -0.4188 -0.4716
  606TMC3     H 9037   4.039   1.406   0.639 -0.7222  2.5335  0.0485
  606TMC3    H1 9038   3.941   1.353   0.226  0.4282  2.6296  0.3117
  606TMC3    H2 9039   4.346   1.320   0.356  0.4522  2.8363  0.2037
  606TMC3    C7 9040   4.183   1.277   0.165 -0.1652 -0.0970  0.4064
  606TMC3    C8 9041   4.263   1.286   0.619  0.3886  0.0111  0.6122
  606TMC3    O1 9042   4.294   1.305   0.124 -0.4365  0.3376 -0.6037
  606TMC3    O2 9043   4.197   1.262   0.726 -0.1573  0.3689  0.3029
  607MPD2     C 9044   1.706   4.278  11.185  0.0912  0.4845  0.2484
  607MPD2    C1 9045   1.792   4.294  11.292 -0.4692 -0.2025  0.4433
  607MPD2    C2 9046   1.747   4.283  11.423 -0.3520 -0.7494 -0.6309
  607MPD2    C3 9047   1.619   4.242  11.453 -0.0199 -0.1093  0.7421
  607MPD2    C4 9048   1.534   4.212  11.346  0.2590  0.6957 -0.4407
  607MPD2    C5 9049   1.575   4.232  11.214  0.2762 -0.4377 -0.5474
  607MPD2     H 9050   1.820   4.303  11.501 -0.0884 -2.2637 -0.4999
  607MPD2    H1 9051   1.436   4.169  11.360 -0.5268  2.4253 -0.5513
  607MPD2    H2 9052   1.730   4.296  11.081  0.9002 -1.4038  0.1105
  607MPD2    H3 9053   1.508   4.215  11.131  1.5348  0.3375 -1.7246
  607MPD2     N 9054   1.596   4.231  11.588  0.0603  0.1272 -0.3500
  607MPD2    H5 9055   1.674   4.257  11.648  1.2151 -1.0961 -1.3179
  607MPD2    N1 9056   1.931   4.324  11.280  0.3685  0.5171 -0.0059
  607MPD2    H7 9057   1.979   4.303  11.367  2.2917  1.6169 -0.8034
  608TMC3    C1 9058   2.144   4.371  11.200 -0.2976 -0.3218  0.3326
  608TMC3    C2 9059   2.188   4.417  11.324  0.2581  0.0399 -0.4385
  608TMC3    C3 9060   2.322   4.419  11.357  0.0915  0.5306  0.0526
  608TMC3    C4 9061   2.234   4.360  11.098 -0.0488  0.7329  0.5823
  608TMC3    C5 9062   2.369   4.370  11.130  0.0001 -0.8393 -0.8209
  608TMC3    C6 9063   2.412   4.383  11.259  0.3065  0.2753 -0.0882
  608TMC3     C 9064   2.004   4.351  11.164  0.1486 -0.4588  0.6732
  608TMC3     O 9065   1.965   4.335  11.051 -0.0656  0.3652 -0.4442
  608TMC3     H 9066   2.115   4.419  11.404 -1.2618 -1.5829 -1.7879
  608TMC3    H1 9067   2.198   4.340  10.997 -0.5718  0.3841  0.8367
  608TMC3    H2 9068   2.517   4.388  11.282  0.4973 -0.8066 -0.7258
  608TMC3    C7 9069   2.457   4.313  11.036  0.4142  1.1248 -0.0328
  608TMC3    C8 9070   2.357   4.390  11.503  0.9697  0.3544  0.0972
  608TMC3    O1 9071   2.430   4.314  10.916 -0.0811 -0.8133 -0.3538
  608TMC3    O2 9072   2.461   4.338  11.535 -0.0533 -0.4312  0.1618
  609TMC3    C1 9073   0.052   2.590   9.631 -0.0193 -0.6001 -0.1203
  609TMC3    C2 9074   4.710   2.480   9.660 -0.0243  0.1338  0.0343
  609TMC3    C3 9075   0.022   2.362   9.680 -0.8585 -0.2314 -0.3095
  609TMC3    C4 9076   0.188   2.580   9.638  0.4467 -0.4139 -0.5247
  609TMC3    C5 9077   0.234   2.455   9.649  0.8676  0.3420  0.5687
  609TMC3    C6 9078   0.156   2.349   9.672  0.2847 -0.1911  0.4641
  609TMC3     C 9079   4.734   2.721   9.629 -0.1994 -0.4861  0.3250
  609TMC3     O 9080   4.614   2.733   9.641  0.0254 -0.4775 -0.2740
  609TMC3     H 9081   4.602   2.490   9.658 -0.1918 -1.3095  1.2726
  609TMC3    H1 9082   0.253   2.666   9.634 -1.8713  1.3624 -0.3177
  609TMC3    H2 9083   0.201   2.252   9.689  0.2720  0.3809  3.6700
  609TMC3    C7 9084   0.381   2.439   9.667  0.3887 -0.1012  0.7448
  609TMC3    C8 9085   4.690   2.236   9.710 -0.2903 -0.6968  0.0611
  609TMC3    O1 9086   0.455   2.530   9.713  0.2496 -0.6632  0.1481
  609TMC3    O2 9087   0.012   2.131   9.732 -0.5880  0.1236 -0.2473
  610TMC3    C1 9088   1.730   4.129  12.826  0.2230  0.2945  0.2590
  610TMC3    C2 9089   1.682   4.082  12.710  0.2494 -0.2278  0.1998
  610TMC3    C3 9090   1.698   3.951  12.680 -0.3958  0.0535  0.1167
  610TMC3    C4 9091   1.802   4.051  12.915  0.1419 -0.4419  0.2533
  610TMC3    C5 9092   1.812   3.922  12.882 -0.0438 -0.0377  0.4632
  610TMC3    C6 9093   1.764   3.863  12.765  1.7902 -0.4477 -0.7954
  610TMC3     C 9094   1.703   4.269  12.856 -0.2496 -0.4842  0.0820
  610TMC3     O 9095   1.656   4.334  12.763  0.9592  0.1000  0.6737
  610TMC3     H 9096   1.620   4.152  12.655  2.1537 -0.2983 -2.0297
  610TMC3    H1 9097   1.861   4.096  12.994  0.2408  1.8525 -1.1168
  610TMC3    H2 9098   1.754   3.756  12.756 -1.3288 -0.3539  1.4206
  610TMC3    C7 9099   1.904   3.839  12.960 -0.1486  0.5323  0.4500
  610TMC3    C8 9100   1.615   3.898  12.574  1.2735  0.3853 -0.0870
  610TMC3    O1 9101   1.950   3.738  12.909  0.1184  0.2778 -0.0208
  610TMC3    O2 9102   1.579   3.784  12.590 -0.6958  0.0779 -0.6390
  611MPD2     C 9103   1.881   3.878  10.442  0.4927  0.3638 -0.2742
  611MPD2    C1 9104   1.833   3.847  10.316  0.0229 -0.5079 -0.0535
  611MPD2    C2 9105   1.921   3.850  10.205 -0.1156 -0.6451 -0.3304
  611MPD2    C3 9106   2.058   3.865  10.232  0.1964  0.5569 -0.7552
  611MPD2    C4 9107   2.091   3.897  10.363  0.3821  0.3164  0.2202
  611MPD2    C5 9108   2.010   3.910  10.468  0.1898 -0.3335 -0.3842
  611MPD2     H 9109   1.895   3.820  10.104 -1.8134  1.5226 -0.5369
  611MPD2    H1 9110   2.196   3.913  10.385 -0.2483  1.9202  2.1320
  611MPD2    H2 9111   1.811   3.893  10.523 -0.1122 -2.5719 -0.2677
  611MPD2    H3 9112   2.039   3.937  10.569  0.8617 -0.8232 -0.4434
  611MPD2     N 9113   2.161   3.854  10.136 -0.0719  0.2328 -0.8023
  611MPD2    H5 9114   2.255   3.863  10.173  0.3696  0.2710 -1.9243
  611MPD2    N1 9115   1.691   3.815  10.303 -0.1005 -0.5267 -0.0408
  611MPD2    H7 9116   1.637   3.822  10.388 -0.5132 -0.8719 -0.2751
  612TMC3    C1 9117   2.256   3.827   9.923  0.0142  0.2689 -0.4208
  612TMC3    C2 9118   2.379   3.799   9.982  0.6719 -0.7035 -0.1659
  612TMC3    C3 9119   2.493   3.820   9.904 -0.0684  0.1112 -0.1607
  612TMC3    C4 9120   2.245   3.861   9.787 -0.5694 -0.4378 -0.3919
  612TMC3    C5 9121   2.355   3.861   9.713  0.5886  0.3380  0.0533
  612TMC3    C6 9122   2.483   3.841   9.764  0.3279  0.1225 -0.1304
  612TMC3     C 9123   2.133   3.827  10.004 -0.0471  0.8170 -0.5234
  612TMC3     O 9124   2.031   3.810   9.935  0.0544  0.2155  0.7595
  612TMC3     H 9125   2.392   3.771  10.086 -0.6985 -1.7838 -0.3026
  612TMC3    H1 9126   2.148   3.861   9.737  0.2971 -1.3673 -2.0824
  612TMC3    H2 9127   2.566   3.856   9.695 -1.6407  2.2768 -2.0398
  612TMC3    C7 9128   2.353   3.914   9.575  0.7743  0.4392  0.3839
  612TMC3    C8 9129   2.627   3.806   9.964  0.1244  0.0699 -0.1632
  612TMC3    O1 9130   2.463   3.952   9.527 -0.1702 -0.2626 -0.2120
  612TMC3    O2 9131   2.713   3.853   9.886 -0.1013  0.5295 -0.0827
  613MPD2     C 9132   0.899   1.345  16.873 -0.2843  0.3560  0.9163
  613MPD2    C1 9133   0.789   1.417  16.827 -0.0872  0.0137  0.1647
  613MPD2    C2 9134   0.696   1.451  16.926 -0.5031 -0.1480  0.2852
  613MPD2    C3 9135   0.709   1.424  17.058  0.0749  0.3766  0.7615
  613MPD2    C4 9136   0.826   1.352  17.102  0.2934 -0.7197  0.6379
  613MPD2    C5 9137   0.915   1.314  17.005  0.6200 -0.0132  0.8988
  613MPD2     H 9138   0.603   1.492  16.887  0.7934  3.0549  0.5305
  613MPD2    H1 9139   0.849   1.323  17.204  2.4070 -4.1619 -0.8003
  613MPD2    H2 9140   0.966   1.297  16.803  1.7552 -0.5282  3.4742
  613MPD2    H3 9141   0.996   1.252  17.042  0.9193  0.4802  1.0809
  613MPD2     N 9142   0.595   1.463  17.135 -0.5783  0.5583  0.0281
  613MPD2    H5 9143   0.516   1.506  17.089 -0.8565  0.8954  0.8212
  613MPD2    N1 9144   0.775   1.437  16.687 -1.2741  0.0752 -0.6261
  613MPD2    H7 9145   0.830   1.384  16.620 -0.4679 -0.1500  0.2163
  614TMC3    C1 9146   0.651   1.502  16.500  0.4207 -0.0628  0.0512
  614TMC3    C2 9147   0.626   1.370  16.471 -0.6435  0.0838  0.1818
  614TMC3    C3 9148   0.509   1.343  16.405 -0.4664  0.1746 -0.4865
  614TMC3    C4 9149   0.573   1.598  16.444  1.3613 -0.3231 -0.0056
  614TMC3    C5 9150   0.473   1.561  16.354 -0.3791 -0.7192 -0.4890
  614TMC3    C6 9151   0.438   1.430  16.333 -0.5803 -0.6895 -0.2035
  614TMC3     C 9152   0.677   1.519  16.637  0.0318  0.0035  0.4465
  614TMC3     O 9153   0.602   1.598  16.691  0.3373 -0.1157  0.0095
  614TMC3     H 9154   0.674   1.286  16.521 -2.6960 -0.7283  0.7852
  614TMC3    H1 9155   0.590   1.702  16.469 -1.3980  0.1025  0.1197
  614TMC3    H2 9156   0.334   1.407  16.318 -0.6258  0.6486 -1.8912
  614TMC3    C7 9157   0.392   1.664  16.287  0.7006 -0.1366 -0.5771
  614TMC3    C8 9158   0.415   1.280  16.500 -0.4941 -0.1439  0.5106
  614TMC3    O1 9159   0.399   1.779  16.332 -0.3159 -0.2559 -0.0905
  614TMC3    O2 9160   0.306   1.335  16.524  0.2904 -0.3849  0.4720
  615MPD2     C 9161   4.663   2.827  16.283  0.1178 -0.4038  0.5860
  615MPD2    C1 9162   4.739   2.860  16.177 -0.5575  0.2468  0.1680
  615MPD2    C2 9163   4.697   2.828  16.053  0.3708  0.2179  0.3963
  615MPD2    C3 9164   4.588   2.767  16.025  0.3510 -0.5527  0.1427
  615MPD2    C4 9165   4.504   2.740  16.134 -0.4180  0.1921 -0.5513
  615MPD2    C5 9166   4.541   2.765  16.260  0.1947 -0.1707  0.6553
  615MPD2     H 9167   0.018   2.856  15.968  0.2967 -1.1877 -0.1264
  615MPD2    H1 9168   4.408   2.696  16.112 -1.2288  1.8091 -0.2557
  615MPD2    H2 9169   4.695   2.844  16.385 -0.4201  0.4268  0.6127
  615MPD2    H3 9170   4.480   2.740  16.346  0.2016  1.2323  1.0768
  615MPD2     N 9171   4.549   2.733  15.897 -0.2040  0.3184 -0.4017
  615MPD2    H5 9172   4.452   2.727  15.871  0.8989 -0.4182 -4.3453
  615MPD2    N1 9173   0.126   2.909  16.189  0.7686  0.3317  0.4476
  615MPD2    H7 9174   0.177   2.933  16.104  0.2461 -0.4047 -0.0683
  616TMC3    C1 9175   0.336   2.967  16.269  1.1647  0.5800 -0.5459
  616TMC3    C2 9176   0.435   2.928  16.351  0.2849 -0.2789  0.1513
  616TMC3    C3 9177   0.554   2.994  16.344  0.1376  0.3546  0.1442
  616TMC3    C4 9178   0.337   3.082  16.192  0.3634  1.2656  1.0362
  616TMC3    C5 9179   0.454   3.157  16.200  0.3968 -0.3945  0.1510
  616TMC3    C6 9180   0.564   3.117  16.273  0.1053 -0.2543 -0.3077
  616TMC3     C 9181   0.204   2.914  16.303 -0.1364  0.2872  0.6467
  616TMC3     O 9182   0.178   2.868  16.415 -0.2351 -0.2375 -0.0095
  616TMC3     H 9183   0.424   2.847  16.422 -2.8030 -1.1783 -1.3309
  616TMC3    H1 9184   0.252   3.119  16.136 -0.9072 -2.2327  0.6125
  616TMC3    H2 9185   0.658   3.161  16.241  1.0596 -0.8693  1.5824
  616TMC3    C7 9186   0.451   3.267  16.103 -0.5574 -0.5614  1.0852
  616TMC3    C8 9187   0.651   2.961  16.452  0.4301 -0.1320  0.5042
  616TMC3    O1 9188   0.354   3.266  16.025 -0.0306  0.1322 -0.0036
  616TMC3    O2 9189   0.623   2.860  16.516  0.8202 -0.3208 -0.1655
  617MPD2     C 9190   2.857   1.211  13.550 -0.0954  0.8545 -0.2340
  617MPD2    C1 9191   2.924   1.164  13.660 -0.4251  0.4430  0.6350
  617MPD2    C2 9192   2.859   1.098  13.762 -0.7188 -0.1728  0.4955
  617MPD2    C3 9193   2.723   1.066  13.750 -0.4852  0.5985 -0.3826
  617MPD2    C4 9194   2.655   1.115  13.644 -0.6919  0.1203  0.3724
  617MPD2    C5 9195   2.722   1.192  13.542 -0.3779 -0.4016  0.1730
  617MPD2     H 9196   2.922   1.052  13.837  0.1118  0.6244  0.2776
  617MPD2    H1 9197   2.547   1.110  13.633 -0.4955  0.5320 -1.6214
  617MPD2    H2 9198   2.904   1.268  13.470  2.4675  0.3228  0.8984
  617MPD2    H3 9199   2.656   1.227  13.464 -1.3294  3.0617  2.5356
  617MPD2     N 9200   2.661   0.966  13.833 -0.3261 -0.3093  0.0792
  617MPD2    H5 9201   2.565   0.941  13.812 -0.0256 -2.5142  1.3006
  617MPD2    N1 9202   3.063   1.173  13.678 -0.0070  0.0743 -0.3506
  617MPD2    H7 9203   3.100   1.144  13.768 -0.0992  2.0743  0.3450
  618TMC3    C1 9204   3.287   1.173  13.628  0.0824 -0.1220  0.0895
  618TMC3    C2 9205   3.306   1.074  13.720  0.2243 -0.4133 -0.2359
  618TMC3    C3 9206   3.427   1.010  13.722  0.4059  0.1119 -0.5785
  618TMC3    C4 9207   3.388   1.199  13.535  0.5591 -0.7642 -0.0854
  618TMC3    C5 9208   3.512   1.148  13.555  0.6737 -0.4313  0.5206
  618TMC3    C6 9209   3.531   1.044  13.641 -0.2717  0.4152 -0.0568
  618TMC3     C 9210   3.153   1.190  13.577 -0.3597  0.3544  0.5395
  618TMC3     O 9211   3.134   1.211  13.456  0.6932 -0.1263  0.2233
  618TMC3     H 9212   3.230   1.034  13.787  1.2989 -1.6510  0.2397
  618TMC3    H1 9213   3.374   1.263  13.449  1.0401  1.4309  1.4843
  618TMC3    H2 9214   3.627   0.993  13.642 -0.2761  0.4053 -0.1637
  618TMC3    C7 9215   3.576   1.132  13.427 -0.3751  0.1617  0.4446
  618TMC3    C8 9216   3.437   0.914  13.828 -0.6121 -0.1464 -0.1929
  618TMC3    O1 9217   3.499   1.119  13.330  0.2067  0.2288  0.3161
  618TMC3    O2 9218   3.379   0.932  13.930  0.1742 -0.1958  0.1359
  619MPD2     C 9219   4.314   2.271  14.111 -0.8033  0.1548 -0.5010
  619MPD2    C1 9220   4.292   2.229  13.980 -0.4138 -0.6082 -0.0434
  619MPD2    C2 9221   4.179   2.154  13.955 -0.1968 -0.5975 -0.4538
  619MPD2    C3 9222   4.085   2.116  14.056  0.2374  0.5188  0.2608
  619MPD2    C4 9223   4.113   2.161  14.184 -0.8781  0.1076  0.1387
  619MPD2    C5 9224   4.227   2.232  14.209 -0.3534  0.3887 -0.1761
  619MPD2     H 9225   4.164   2.120  13.853  0.3889  2.0662 -1.4186
  619MPD2    H1 9226   4.044   2.141  14.265  0.9019 -0.2927  1.5518
  619MPD2    H2 9227   4.397   2.333  14.141  0.0281 -0.0592 -2.3306
  619MPD2    H3 9228   4.253   2.273  14.306  1.0267 -2.8433  0.7932
  619MPD2     N 9229   3.968   2.040  14.028 -0.0276 -0.7544  0.3341
  619MPD2    H5 9230   3.893   2.040  14.096 -2.6157  1.1367 -2.4905
  619MPD2    N1 9231   4.374   2.276  13.869 -0.0613  0.1127  0.6038
  619MPD2    H7 9232   4.351   2.239  13.777 -0.3861  0.3182  0.6023
  620TMC3    C1 9233   4.528   2.406  13.751 -0.2563  0.1831  0.3468
  620TMC3    C2 9234   4.455   2.368  13.638  0.3585  1.0983 -0.2633
  620TMC3    C3 9235   4.431   2.457  13.532  0.0575 -0.0947  0.2416
  620TMC3    C4 9236   4.575   2.528  13.755  0.3894 -0.0086  0.1763
  620TMC3    C5 9237   4.559   2.612  13.649  1.7875  0.4163 -0.3117
  620TMC3    C6 9238   4.492   2.578  13.538  0.1137  0.6678  0.2056
  620TMC3     C 9239   4.477   2.365  13.877 -0.4045  0.2573  0.0828
  620TMC3     O 9240   4.523   2.419  13.977  0.0691  0.2022 -0.0815
  620TMC3     H 9241   4.431   2.263  13.623  3.1363  0.4342 -0.0278
  620TMC3    H1 9242   4.621   2.574  13.842  0.1927  0.3957  0.0665
  620TMC3    H2 9243   4.473   2.646  13.455  2.7211 -0.9863 -1.7602
  620TMC3    C7 9244   4.536   2.752  13.698  0.2436 -0.2163  0.7356
  620TMC3    C8 9245   4.291   2.478  13.519 -0.2881  0.6039 -0.5200
  620TMC3    O1 9246   4.608   2.788  13.791 -0.2231 -0.8248 -0.0260
  620TMC3    O2 9247   4.252   2.592  13.528  0.2163  0.0481  0.6274
  621MPD2     C 9248   0.036   2.406  10.051  0.2081 -0.1467 -0.5803
  621MPD2    C1 9249   0.173   2.419  10.047  0.1847 -0.0703 -0.8221
  621MPD2    C2 9250   0.234   2.538  10.010  0.1346  0.4196  0.3939
  621MPD2    C3 9251   0.154   2.640   9.958  0.6556  0.2585 -0.2479
  621MPD2    C4 9252   0.019   2.622   9.949 -0.1006 -0.2091  0.5240
  621MPD2    C5 9253   4.704   2.509   9.998 -0.0663 -0.4445  0.9185
  621MPD2     H 9254   0.342   2.547  10.012  0.2444 -0.4884 -1.8977
  621MPD2    H1 9255   4.690   2.694   9.908  1.2324  0.1907 -1.0299
  621MPD2    H2 9256   4.722   2.317  10.079  2.6167 -1.1339  0.9833
  621MPD2    H3 9257   4.596   2.508  10.004 -0.2114 -1.6155 -1.9033
  621MPD2     N 9258   0.218   2.751   9.912 -0.3424 -0.0798 -0.1229
  621MPD2    H5 9259   0.318   2.749   9.925 -0.4029 -0.8384  0.1920
  621MPD2    N1 9260   0.262   2.317  10.083  0.0270 -0.2813  0.7670
  621MPD2    H7 9261   0.360   2.332  10.062  0.0498  0.5162  1.3988
  622TMC3    C1 9262   0.329   2.120  10.197 -0.4098 -0.3684 -0.6179
  622TMC3    C2 9263   0.271   2.020  10.271 -0.0981  1.1683  0.1552
  622TMC3    C3 9264   0.297   1.892  10.225 -0.2396 -0.0478 -0.6834
  622TMC3    C4 9265   0.419   2.096  10.097 -0.4871 -0.0547 -0.0383
  622TMC3    C5 9266   0.457   1.971  10.073 -0.0859 -0.5886  0.6417
  622TMC3    C6 9267   0.382   1.862  10.121  0.1342  0.6095 -0.0165
  622TMC3     C 9268   0.224   2.209  10.163 -0.0632 -0.0711 -0.7445
  622TMC3     O 9269   0.112   2.175  10.196  0.2792 -0.4894  0.1280
  622TMC3     H 9270   0.214   2.053  10.357 -2.0643 -2.1105  0.1082
  622TMC3    H1 9271   0.466   2.182  10.050  0.3038  0.0850  1.0076
  622TMC3    H2 9272   0.408   1.759  10.100 -0.1811  0.7239 -0.9759
  622TMC3    C7 9273   0.537   1.946   9.958  0.1029 -0.4504  0.6183
  622TMC3    C8 9274   0.176   1.816  10.219  0.8617  0.3521  0.4584
  622TMC3    O1 9275   0.653   1.979   9.953  0.4423  0.3030 -0.0263
  622TMC3    O2 9276   0.186   1.696  10.215 -0.2202 -0.3734  0.0707
  623MPD2     C 9277   3.505   2.718  15.896  0.2372 -0.5843  0.5229
  623MPD2    C1 9278   3.456   2.641  15.996  0.3624 -0.4615  0.1338
  623MPD2    C2 9279   3.518   2.640  16.119 -0.0706  0.6214  0.2485
  623MPD2    C3 9280   3.637   2.707  16.138  0.3334  0.3490  0.5784
  623MPD2    C4 9281   3.684   2.787  16.039 -0.5582  0.4956 -0.5744
  623MPD2    C5 9282   3.614   2.796  15.919 -0.2101 -0.0736 -0.3370
  623MPD2     H 9283   3.477   2.587  16.204  0.9066 -1.4915 -0.6113
  623MPD2    H1 9284   3.781   2.834  16.051 -1.5869  2.5917 -0.4935
  623MPD2    H2 9285   3.458   2.723  15.798  1.9642  2.2581 -0.1413
  623MPD2    H3 9286   3.655   2.860  15.842 -0.0485 -2.1321 -1.9731
  623MPD2     N 9287   3.702   2.699  16.264  0.2499  0.1364  0.1264
  623MPD2    H5 9288   3.671   2.625  16.326  1.1079 -0.7067 -0.4479
  623MPD2    N1 9289   3.336   2.570  15.961  0.2599 -0.1165 -0.1746
  623MPD2    H7 9290   3.296   2.589  15.870 -1.0626 -1.5658  0.1081
  624TMC3    C1 9291   3.956   2.833  16.628  0.1312  0.0697  0.2961
  624TMC3    C2 9292   3.873   2.773  16.718 -0.0647  0.1466  0.0049
  624TMC3    C3 9293   3.765   2.708  16.660 -0.6748  0.5373 -0.4876
  624TMC3    C4 9294   3.939   2.834  16.494  1.0556  0.2703 -0.2577
  624TMC3    C5 9295   3.831   2.761  16.448 -0.4161 -0.3517 -0.5252
  624TMC3    C6 9296   3.744   2.694  16.526  0.2076 -0.3917 -0.2409
  624TMC3     C 9297   4.065   2.918  16.690  0.4949 -0.4045  0.0913
  624TMC3     O 9298   4.077   2.925  16.812 -0.4586 -0.5316 -0.1118
  624TMC3     H 9299   3.883   2.792  16.824 -0.3903 -0.6405  0.1759
  624TMC3    H1 9300   4.009   2.883  16.427  0.2123 -0.6253 -1.7928
  624TMC3    H2 9301   3.646   2.667  16.488  0.4902 -2.5735  0.6137
  624TMC3    C7 9302   3.798   2.783  16.311  0.0314 -0.0533 -0.8034
  624TMC3    C8 9303   3.643   2.698  16.731  0.7979 -0.2176  1.1193
  624TMC3    O1 9304   3.840   2.888  16.265  0.4756 -0.2270  0.4566
  624TMC3    O2 9305   3.560   2.619  16.682  0.2804 -0.0819  0.3669
  625MPD2     C 9306   4.134   4.076   0.517  0.0941  0.1703 -0.1381
  625MPD2    C1 9307   4.185   4.201   0.557 -0.3043  0.7841 -0.2590
  625MPD2    C2 9308   4.314   4.212   0.597  0.0661 -0.1129 -0.6024
  625MPD2    C3 9309   4.410   4.108   0.589 -0.0395 -0.2962  0.5109
  625MPD2    C4 9310   4.358   3.990   0.552 -0.5439 -0.2766 -0.3119
  625MPD2    C5 9311   4.223   3.976   0.509 -0.1958  0.0970 -1.1978
  625MPD2     H 9312   4.345   4.310   0.632 -0.6677  0.4146 -1.4487
  625MPD2    H1 9313   4.422   3.902   0.552  1.4977  1.2032 -3.2185
  625MPD2    H2 9314   4.035   4.068   0.472  0.3955  0.5544 -0.8755
  625MPD2    H3 9315   4.191   3.878   0.475 -0.3083 -0.6084  0.9458
  625MPD2     N 9316   4.549   4.124   0.607  0.2209 -0.4028  0.2127
  625MPD2    H5 9317   4.614   4.050   0.584 -0.2149 -0.9070  0.6034
  625MPD2    N1 9318   4.103   4.321   0.566 -0.3568  0.3894 -0.0333
  625MPD2    H7 9319   4.144   4.405   0.605 -0.1634 -0.9141  2.5887
  626TMC3    C1 9320   3.934   4.471   0.512  0.3260 -0.2628  0.2360
  626TMC3    C2 9321   3.870   4.515   0.394 -0.2335  0.2888 -0.5576
  626TMC3    C3 9322   3.825   4.647   0.390 -1.1861  0.6618 -0.0391
  626TMC3    C4 9323   3.973   4.556   0.614 -0.5276  0.8339 -0.1847
  626TMC3    C5 9324   3.945   4.690   0.592 -0.2051  0.3613 -0.9246
  626TMC3    C6 9325   3.869   4.735   0.481  0.6460 -0.0456  0.3126
  626TMC3     C 9326   3.981   4.338   0.502 -0.2228 -0.6130  0.0129
  626TMC3     O 9327   3.934   4.266   0.415  0.0998 -0.0180 -0.2089
  626TMC3     H 9328   3.841   4.446   0.316  2.7984 -0.1644 -1.2595
  626TMC3    H1 9329   4.031   4.514   0.696  0.7697  1.4074 -0.8000
  626TMC3    H2 9330   3.827   0.094   0.489  1.6859  0.3593  0.6707
  626TMC3    C7 9331   3.996   0.056   0.678 -0.4938 -0.6556  0.3725
  626TMC3    C8 9332   3.761   4.693   0.267  0.1842 -0.2468  0.6192
  626TMC3    O1 9333   3.987   0.172   0.635 -0.5746 -0.6004 -0.8675
  626TMC3    O2 9334   3.751   4.611   0.172 -0.0177  0.4105 -0.2998
  627MPD2     C 9335   2.528   4.533  14.350  0.5700  0.3773  0.3232
  627MPD2    C1 9336   2.516   4.484  14.479 -0.3360 -0.1080  0.1533
  627MPD2    C2 9337   2.413   4.390  14.502  0.1849 -0.4668  0.4122
  627MPD2    C3 9338   2.334   4.346  14.397 -1.3321 -0.3565 -0.7556
  627MPD2    C4 9339   2.348   4.400  14.267 -0.0759 -0.2998  0.5305
  627MPD2    C5 9340   2.438   4.503  14.250 -1.1835  0.1161 -0.1401
  627MPD2     H 9341   2.389   4.348  14.599  0.0652 -1.2959  0.0225
  627MPD2    H1 9342   2.285   4.373  14.182 -1.6217  0.6965  1.3607
  627MPD2    H2 9343   2.592   4.614  14.318  2.6500 -1.6971 -0.7866
  627MPD2    H3 9344   2.449   4.551  14.154 -0.7124 -1.9664 -1.1235
  627MPD2     N 9345   2.252   4.234  14.430  0.2372 -0.0660 -0.3926
  627MPD2    H5 9346   2.246   4.209  14.528 -1.1467 -0.5195 -0.5890
  627MPD2    N1 9347   2.599   4.528  14.585  0.4813 -0.4373  0.1106
  627MPD2    H7 9348   2.586   4.485  14.676  1.3672 -1.4286 -0.2375
  628TMC3    C1 9349   2.775   4.649  14.688  0.1078  0.1845 -0.5207
  628TMC3    C2 9350   2.876   4.561  14.710 -0.6339  0.2440  0.9614
  628TMC3    C3 9351   2.985   4.606  14.772 -0.3585 -0.2510  0.4836
  628TMC3    C4 9352   2.786   0.042  14.717  0.5727  0.4714 -0.5172
  628TMC3    C5 9353   2.905   0.084  14.768  0.4168  0.2366  0.8816
  628TMC3    C6 9354   2.997   4.733  14.812  1.0867 -0.3066 -0.6104
  628TMC3     C 9355   2.694   4.626  14.572 -0.4812  0.0287  0.3731
  628TMC3     O 9356   2.714   4.704  14.483  0.2699 -0.1557  0.0231
  628TMC3     H 9357   2.873   4.462  14.668 -0.8569  1.3334 -1.5969
  628TMC3    H1 9358   2.694   0.096  14.693  1.8525  2.3768 -1.1548
  628TMC3    H2 9359   3.091   0.029  14.851  0.4845 -0.3819  0.9158
  628TMC3    C7 9360   2.930   0.225  14.780 -0.7169  0.0089 -0.2184
  628TMC3    C8 9361   3.090   4.507  14.791 -0.0431 -0.1675 -0.1221
  628TMC3    O1 9362   3.039   0.251  14.831  0.4272  0.2654 -0.2304
  628TMC3    O2 9363   3.210   4.541  14.771  0.4416 -1.0048  0.3036
  629MPD2     C 9364   1.085   3.035  16.734 -0.4866  0.3158 -0.6794
  629MPD2    C1 9365   1.055   3.149  16.650  0.3145 -0.3348  0.0044
  629MPD2    C2 9366   0.951   3.147  16.561  0.2706  0.1790  0.2911
  629MPD2    C3 9367   0.861   3.034  16.562 -0.5622 -0.2332  0.1532
  629MPD2    C4 9368   0.891   2.924  16.643 -0.1822 -0.2049 -0.1665
  629MPD2    C5 9369   1.004   2.922  16.726  0.1362  0.2853 -0.6867
  629MPD2     H 9370   0.930   3.234  16.499 -0.3503 -1.2589 -1.5166
  629MPD2    H1 9371   0.825   2.839  16.633 -1.0367  0.0950  2.7941
  629MPD2    H2 9372   1.175   3.046  16.793 -1.0090  1.0559 -0.0201
  629MPD2    H3 9373   1.028   2.829  16.776 -2.4973 -0.2575 -0.4021
  629MPD2     N 9374   0.759   3.045  16.464  0.3136  0.4842  0.6620
  629MPD2    H5 9375   0.766   3.132  16.413  0.3835 -0.9977 -1.8636
  629MPD2    N1 9376   1.152   3.252  16.649 -0.2980 -0.3050 -0.3625
  629MPD2    H7 9377   1.238   3.233  16.699 -0.4442  2.5126  0.9720
  630TMC3    C1 9378   1.264   3.455  16.594 -0.2542 -0.7339  0.2218
  630TMC3    C2 9379   1.301   3.547  16.499  0.5842  0.3969 -0.4330
  630TMC3    C3 9380   1.404   3.626  16.522 -0.1095 -0.0541 -0.0997
  630TMC3    C4 9381   1.342   3.444  16.712 -0.3358  0.4712  0.1476
  630TMC3    C5 9382   1.434   3.543  16.738 -0.0759 -0.2418 -0.2323
  630TMC3    C6 9383   1.466   3.637  16.645  0.5266 -0.2198 -0.0533
  630TMC3     C 9384   1.153   3.367  16.571  0.1061  0.0375  0.3553
  630TMC3     O 9385   1.086   3.404  16.476 -0.4746  0.2030  0.0041
  630TMC3     H 9386   1.244   3.563  16.408 -0.4766 -0.8722  0.0263
  630TMC3    H1 9387   1.300   3.376  16.785 -1.4225  0.8153 -0.1571
  630TMC3    H2 9388   1.545   3.707  16.668  0.9320 -1.2402  1.7009
  630TMC3    C7 9389   1.493   3.533  16.873 -0.5674 -0.3326  0.7616
  630TMC3    C8 9390   1.464   3.700  16.415  0.2851 -0.2523 -0.0238
  630TMC3    O1 9391   1.443   3.449  16.946  0.1167  0.3298 -0.4138
  630TMC3    O2 9392   1.535   3.796  16.447  0.1050 -0.1837  0.3204
  631MPD2     C 9393   3.798   3.031  15.568 -0.0097 -0.1892  0.4595
  631MPD2    C1 9394   3.904   3.112  15.525 -0.7747 -0.3044 -0.1929
  631MPD2    C2 9395   4.025   3.053  15.501 -0.9838 -0.3367 -0.1821
  631MPD2    C3 9396   4.050   2.919  15.527  0.0315  0.0451 -0.4100
  631MPD2    C4 9397   3.946   2.843  15.578  0.0206 -0.5500 -0.3501
  631MPD2    C5 9398   3.824   2.900  15.606  0.3467 -0.5289  0.3589
  631MPD2     H 9399   4.100   3.117  15.456 -1.7308  1.6181  1.3397
  631MPD2    H1 9400   3.956   2.739  15.606 -0.4334 -1.0308 -1.9971
  631MPD2    H2 9401   3.701   3.074  15.589 -0.0933 -0.3020  0.2977
  631MPD2    H3 9402   3.736   2.846  15.639  0.2865  0.2123  1.4062
  631MPD2     N 9403   4.179   2.856  15.505  0.0656 -0.2139 -0.1351
  631MPD2    H5 9404   4.253   2.910  15.461 -0.6856  1.4954  0.6970
  631MPD2    N1 9405   3.875   3.248  15.490  0.4871  0.3904  0.0057
  631MPD2    H7 9406   3.781   3.280  15.466  1.0555  1.6707 -0.4943
  632TMC3    C1 9407   3.917   3.465  15.413  0.5311 -0.7702 -0.0070
  632TMC3    C2 9408   3.793   3.519  15.448 -0.5388 -0.2755  0.2803
  632TMC3    C3 9409   3.727   3.610  15.363 -0.2103  0.7528 -0.5331
  632TMC3    C4 9410   3.982   3.509  15.303 -0.8686 -0.6434 -0.1072
  632TMC3    C5 9411   3.917   3.605  15.221  0.8750  0.1772 -0.3281
  632TMC3    C6 9412   3.785   3.652  15.245  0.6832 -0.4665 -0.1431
  632TMC3     C 9413   3.966   3.341  15.485  0.4580 -0.5052  0.1213
  632TMC3     O 9414   4.085   3.342  15.523  0.1010  0.8722  0.7520
  632TMC3     H 9415   3.737   3.466  15.524  0.1396  1.4916  1.9931
  632TMC3    H1 9416   4.077   3.465  15.272 -0.2260 -0.2656  1.3553
  632TMC3    H2 9417   3.741   3.733  15.188  1.6515 -0.5394 -1.0002
  632TMC3    C7 9418   3.962   3.620  15.082  0.1562  0.2712 -0.6074
  632TMC3    C8 9419   3.586   3.635  15.390  0.1192 -0.1730 -0.5914
  632TMC3    O1 9420   3.873   3.657  15.002  0.2856  0.0390 -0.1893
  632TMC3    O2 9421   3.519   3.635  15.287  0.3092  0.0243 -0.3515
  633MPD2     C 9422   3.553   1.222  17.659  0.0202 -0.1968 -0.3518
  633MPD2    C1 9423   3.595   1.141  17.553 -0.1903  0.4207  0.3866
  633MPD2    C2 9424   3.577   1.003  17.555  0.0814  0.3965  0.4722
  633MPD2    C3 9425   3.512   0.950  17.666 -0.2918 -0.1216  0.0920
  633MPD2    C4 9426   3.476   1.031   0.008 -0.9008 -0.3410  0.2598
  633MPD2    C5 9427   3.502   1.161   0.009 -1.1054 -0.0406 -0.3229
  633MPD2     H 9428   3.601   0.942  17.469  0.7147  0.3736  0.6646
  633MPD2    H1 9429   3.423   1.002   0.099 -0.6115  2.9614  1.4748
  633MPD2    H2 9430   3.557   1.331  17.660  0.3849 -0.2106 -1.3017
  633MPD2    H3 9431   3.476   1.214   0.100 -1.8755  1.0836 -1.1902
  633MPD2     N 9432   3.466   0.815  17.676 -0.5067  0.0926 -0.6704
  633MPD2    H5 9433   3.384   0.809  17.736  1.3734  0.1242  1.8678
  633MPD2    N1 9434   3.649   1.197  17.433  0.2321 -0.3478  1.0559
  633MPD2    H7 9435   3.693   1.142  17.359 -1.6272 -1.9037  1.0761
  634TMC3    C1 9436   3.716   1.347  17.275 -0.2659 -0.7581  0.2503
  634TMC3    C2 9437   3.787   1.244  17.220  0.1874  0.0674  0.0866
  634TMC3    C3 9438   3.817   1.262  17.086  0.8540  0.0347  0.4463
  634TMC3    C4 9439   3.682   1.465  17.212 -1.3265 -0.5706 -0.0785
  634TMC3    C5 9440   3.710   1.476  17.079 -0.3656 -0.1871 -0.7658
  634TMC3    C6 9441   3.780   1.375  17.015 -0.3204 -0.4193 -0.5851
  634TMC3     C 9442   3.656   1.326  17.404 -0.4963  0.5844  0.4986
  634TMC3     O 9443   3.609   1.422  17.465  0.0620 -0.3932 -0.1044
  634TMC3     H 9444   3.828   1.161  17.276  0.7544  1.7554  2.1772
  634TMC3    H1 9445   3.626   1.540  17.268 -0.1875  0.1655  0.0726
  634TMC3    H2 9446   3.786   1.385  16.908 -1.0868 -1.9456 -0.7621
  634TMC3    C7 9447   3.698   1.606  17.011 -0.3014  0.7739 -0.7697
  634TMC3    C8 9448   3.862   1.155  17.007 -0.3523 -0.2090 -0.6603
  634TMC3    O1 9449   3.772   1.615  16.913 -0.0229  0.1583  0.5008
  634TMC3    O2 9450   3.857   1.039  17.044  0.7354  0.0563 -0.2522
  635TMC3    C1 9451   3.652   2.248   0.016  0.2731  0.6735 -0.9680
  635TMC3    C2 9452   3.595   2.154   0.099 -0.4424  0.5989 -0.7801
  635TMC3    C3 9453   3.464   2.131   0.085  0.1425  0.2616  0.4477
  635TMC3    C4 9454   3.577   2.320  17.688 -0.5612 -0.2020  0.5316
  635TMC3    C5 9455   3.438   2.305  17.691 -0.1468  0.0167  0.4037
  635TMC3    C6 9456   3.386   2.212   0.010 -0.2387 -0.2136 -0.3230
  635TMC3     C 9457   3.781   2.297   0.059  0.3380  0.8518 -0.1688
  635TMC3     O 9458   3.809   2.282   0.175  0.2987 -0.2587 -0.6704
  635TMC3     H 9459   3.661   2.100   0.166 -0.4960  0.3449 -0.9307
  635TMC3    H1 9460   3.611   2.407  17.632 -0.2047  0.7095  2.1459
  635TMC3    H2 9461   3.281   2.191   0.021 -0.2331  0.5946  1.2897
  635TMC3    C7 9462   3.351   2.395  17.622 -0.3680 -0.1418 -0.2871
  635TMC3    C8 9463   3.400   2.030   0.170 -0.3257 -0.3071  0.0245
  635TMC3    O1 9464   3.401   2.499  17.579 -0.2508  0.2113  0.4040
  635TMC3    O2 9465   3.292   2.054   0.217 -0.3152 -0.6574 -0.0471
  636MPD2     C 9466   0.180   1.783  16.603  0.0784  0.8994 -0.8144
  636MPD2    C1 9467   0.119   1.855  16.704 -0.3286 -0.3256 -0.3053
  636MPD2    C2 9468   0.145   1.816  16.833  0.1387 -0.3953  0.3002
  636MPD2    C3 9469   0.203   1.693  16.852  0.6108 -0.4347 -1.0089
  636MPD2    C4 9470   0.235   1.615  16.745 -0.0645  0.1755  0.0817
  636MPD2    C5 9471   0.229   1.661  16.620 -0.2970 -0.0904  0.0294
  636MPD2     H 9472   0.107   1.878  16.914 -1.4339  0.9638 -1.4754
  636MPD2    H1 9473   0.288   1.520  16.752 -1.5847 -0.7487 -1.0154
  636MPD2    H2 9474   0.168   1.815  16.500  3.0946 -1.5731 -1.9389
  636MPD2    H3 9475   0.263   1.598  16.539  0.0384 -0.8084  0.7282
  636MPD2     N 9476   0.210   1.642  16.990  0.2976 -0.1728 -0.2976
  636MPD2    H5 9477   0.183   1.697  17.071 -1.7862  0.7877 -1.6486
  636MPD2    N1 9478   0.059   1.984  16.677 -0.6434  0.5000 -0.5096
  636MPD2    H7 9479   0.027   2.035  16.759 -1.0139 -2.8748  1.4368
  637TMC3    C1 9480   0.257   1.478  17.163  0.6048  0.1992  0.4194
  637TMC3    C2 9481   0.366   1.509  17.238 -0.2618 -0.5083 -0.8753
  637TMC3    C3 9482   0.428   1.402  17.289 -0.5013  0.2738  0.4371
  637TMC3    C4 9483   0.194   1.357  17.161  0.2604 -0.1751 -0.5698
  637TMC3    C5 9484   0.264   1.254  17.220  0.9631 -0.1752 -0.1218
  637TMC3    C6 9485   0.383   1.277  17.282 -0.1606  1.1990 -0.8945
  637TMC3     C 9486   0.260   1.521  17.027 -0.5902  0.5083  0.1634
  637TMC3     O 9487   0.314   1.436  16.959 -0.1261  0.3671  0.3207
  637TMC3     H 9488   0.418   1.603  17.218  0.4343 -1.0150 -1.4483
  637TMC3    H1 9489   0.122   1.328  17.084 -1.6028 -1.4905  1.6534
  637TMC3    H2 9490   0.454   1.195  17.291 -1.0069  0.7162  1.4729
  637TMC3    C7 9491   0.274   1.139  17.136 -0.2288  0.2633 -0.0750
  637TMC3    C8 9492   0.570   1.403  17.256  0.6435  0.0207  0.4454
  637TMC3    O1 9493   0.295   1.030  17.189 -0.0221 -0.2124  0.2135
  637TMC3    O2 9494   0.649   1.339  17.327 -0.2286 -0.4659 -0.1798
  638MPD2     C 9495   4.595   0.223  14.974 -0.1287  0.1371 -0.3962
  638MPD2    C1 9496   4.570   0.130  14.872  0.1042 -0.0383 -0.4238
  638MPD2    C2 9497   4.536   0.002  14.910  0.1930 -0.3720  0.8975
  638MPD2    C3 9498   4.524   4.711  15.040  0.3332  0.1307 -0.5647
  638MPD2    C4 9499   4.527   0.065  15.138  0.5935  0.3686  0.3205
  638MPD2    C5 9500   4.567   0.196  15.104  0.2214 -0.4893 -0.0090
  638MPD2     H 9501   4.520   4.663  14.839 -0.1938  0.5752 -0.0864
  638MPD2    H1 9502   4.507   0.041  15.242  1.2578  1.6222  0.7405
  638MPD2    H2 9503   4.631   0.323  14.951 -1.8054  1.0393  0.9213
  638MPD2    H3 9504   4.589   0.274  15.176 -1.7486  0.0553 -0.0185
  638MPD2     N 9505   4.494   4.579  15.060 -0.2314 -0.3915 -0.2520
  638MPD2    H5 9506   4.489   4.516  14.981  0.7061  1.1782 -1.5802
  638MPD2    N1 9507   4.610   0.162  14.743  0.3874  0.3722  0.8593
  638MPD2    H7 9508   4.662   0.248  14.731  1.8494 -0.8035 -1.3486
  639TMC3    C1 9509   4.504   4.379  15.164 -0.2195  0.4895 -0.3872
  639TMC3    C2 9510   4.465   4.324  15.044  0.2316 -0.1298 -0.4534
  639TMC3    C3 9511   4.529   4.213  15.000  1.0691  0.8278  0.0244
  639TMC3    C4 9512   4.609   4.330  15.233  0.1846 -0.4406  0.1229
  639TMC3    C5 9513   4.670   4.214  15.187 -0.0869  0.2196  0.1478
  639TMC3    C6 9514   4.627   4.149  15.069 -0.1428 -0.0101 -0.3100
  639TMC3     C 9515   4.494   4.520  15.185  0.0696 -0.5773  0.2055
  639TMC3     O 9516   4.532   4.560  15.291 -0.1354  0.0096  0.2447
  639TMC3     H 9517   4.382   4.365  14.988  0.5794  2.0291  0.6090
  639TMC3    H1 9518   4.650   4.379  15.322 -0.8178 -2.2364  1.5740
  639TMC3    H2 9519   4.683   4.069  15.023  1.3909  0.9508 -0.1044
  639TMC3    C7 9520   0.066   4.189  15.231 -0.3675  0.2780 -0.5123
  639TMC3    C8 9521   4.475   4.140  14.884  0.0742  0.5593  0.5747
  639TMC3    O1 9522   0.089   4.223  15.346  0.3368  0.1429  0.9159
  639TMC3    O2 9523   4.562   4.094  14.809 -0.1569  0.4130  0.1294
  640MPD2     C 9524   0.667   3.939  10.057 -0.5246 -0.2163  0.0025
  640MPD2    C1 9525   0.547   3.886  10.034  0.8030 -0.0691  0.8283
  640MPD2    C2 9526   0.435   3.942  10.094  0.0526  0.2954  0.1313
  640MPD2    C3 9527   0.458   4.044  10.189 -0.0924  0.6722 -0.5450
  640MPD2    C4 9528   0.585   4.075  10.219  0.9118  0.4580  0.2338
  640MPD2    C5 9529   0.695   4.028  10.153 -0.1260 -0.4272 -1.0006
  640MPD2     H 9530   0.335   3.903  10.082  0.3320 -0.6160  0.7803
  640MPD2    H1 9531   0.598   4.145  10.301  0.8017  0.8471 -0.0851
  640MPD2    H2 9532   0.752   3.914   9.996 -0.7506 -1.0237  0.0253
  640MPD2    H3 9533   0.794   4.063  10.177 -0.6377 -0.3152  0.9177
  640MPD2     N 9534   0.352   4.100  10.262 -0.2189  0.8263 -0.6963
  640MPD2    H5 9535   0.374   4.154  10.346 -0.0813 -0.0395 -0.1731
  640MPD2    N1 9536   0.539   3.794   9.924  0.3876 -0.0703 -0.0605
  640MPD2    H7 9537   0.623   3.749   9.891  1.0453  0.3620  1.0370
  641TMC3    C1 9538   0.454   3.647   9.756 -0.2858 -0.2765  0.7999
  641TMC3    C2 9539   0.565   3.568   9.777  0.4216  0.6612  0.3060
  641TMC3    C3 9540   0.579   3.459   9.693 -0.0746 -0.8664 -0.5362
  641TMC3    C4 9541   0.357   3.633   9.657  0.6127  0.1872  0.3186
  641TMC3    C5 9542   0.372   3.527   9.574 -0.4199  0.4865 -0.0049
  641TMC3    C6 9543   0.484   3.442   9.596 -0.4780  0.4988 -0.0543
  641TMC3     C 9544   0.428   3.755   9.856  0.5313 -0.2577  0.2717
  641TMC3     O 9545   0.317   3.805   9.861 -0.0210 -0.0404 -0.3232
  641TMC3     H 9546   0.627   3.575   9.866  1.8884 -0.3422 -0.6471
  641TMC3    H1 9547   0.264   3.690   9.657  1.0183  0.8471  0.3259
  641TMC3    H2 9548   0.480   3.348   9.541 -1.0221 -0.1869  1.1598
  641TMC3    C7 9549   0.288   3.502   9.463  0.0128 -1.2241  0.7141
  641TMC3    C8 9550   0.681   3.359   9.708 -0.2813  1.0870 -0.8984
  641TMC3    O1 9551   0.310   3.405   9.393  0.2984  0.3853 -0.5817
  641TMC3    O2 9552   0.653   3.244   9.678  0.2209  0.2439 -0.1994
  642TMC3    C1 9553   1.410   4.634  12.362  0.2224 -0.0253  0.5105
  642TMC3    C2 9554   1.532   4.656  12.307  1.1051  0.1040 -0.5999
  642TMC3    C3 9555   1.554   4.612  12.182 -0.5868 -0.7330  0.9301
  642TMC3    C4 9556   1.309   4.566  12.299  0.4379 -0.3079  0.0480
  642TMC3    C5 9557   1.333   4.535  12.169 -0.0713 -0.2211  0.5810
  642TMC3    C6 9558   1.460   4.551  12.106  0.8900 -0.3714 -0.2009
  642TMC3     C 9559   1.371   4.717  12.469  0.5071 -0.2808 -0.8743
  642TMC3     O 9560   1.424   0.086  12.472  0.0350 -0.2422 -0.4039
  642TMC3     H 9561   1.605   4.717  12.358  3.2944 -0.7801 -2.6903
  642TMC3    H1 9562   1.206   4.596  12.317  0.9376  1.3417  0.1597
  642TMC3    H2 9563   1.470   4.517  12.004  1.0897 -0.7631 -0.0497
  642TMC3    C7 9564   1.251   4.433  12.112 -0.0765 -0.2623 -0.4537
  642TMC3    C8 9565   1.695   4.598  12.138  0.3143  0.1038  0.2260
  642TMC3    O1 9566   1.271   4.414  11.996 -0.7940  0.4254  0.4179
  642TMC3    O2 9567   1.700   4.558  12.020 -0.1887 -0.0104 -0.3361
  643TMC3    C1 9568   1.049   3.976   0.484 -0.0349  0.0416  0.2915
  643TMC3    C2 9569   0.916   3.958   0.501 -0.2804  0.4716 -0.3742
  643TMC3    C3 9570   0.851   3.878   0.416  0.2930 -0.0871  0.2760
  643TMC3    C4 9571   1.117   3.924   0.381 -0.2390 -0.3837 -0.4314
  643TMC3    C5 9572   1.043   3.848   0.287 -0.0962  0.1911  0.7524
  643TMC3    C6 9573   0.914   3.820   0.309  0.8116 -0.6240 -0.5414
  643TMC3     C 9574   1.117   4.062   0.583  0.4517  0.2599  0.3671
  643TMC3     O 9575   1.047   4.133   0.653  0.1417  0.4530 -0.3725
  643TMC3     H 9576   0.859   4.014   0.574  2.2576  1.0689  1.1358
  643TMC3    H1 9577   1.218   3.949   0.351 -0.0918 -0.5295 -0.0612
  643TMC3    H2 9578   0.854   3.778   0.229  0.0965 -1.0196  0.2035
  643TMC3    C7 9579   1.069   3.861   0.150  0.8126  0.5619  0.6091
  643TMC3    C8 9580   0.716   3.908   0.368 -0.0975 -0.5289  0.0818
  643TMC3    O1 9581   1.109   3.971   0.112  0.2304 -0.3205  0.9124
  643TMC3    O2 9582   0.646   3.814   0.332  0.2293  0.0156  0.3288
  644MPD2     C 9583   0.605   4.205   9.882 -0.6110  0.0026 -0.5127
  644MPD2    C1 9584   0.736   4.231   9.855 -0.2778 -0.0965  0.6087
  644MPD2    C2 9585   0.797   4.337   9.915  0.1469 -1.1488  0.2160
  644MPD2    C3 9586   0.726   4.427   9.988 -0.5674 -0.2633  0.6985
  644MPD2    C4 9587   0.588   4.398  10.012  0.0309  0.2822  0.4586
  644MPD2    C5 9588   0.532   4.283   9.966 -0.8016 -0.3221  0.1280
  644MPD2     H 9589   0.903   4.360   9.907 -0.3907  0.8481 -1.1442
  644MPD2    H1 9590   0.526   4.471  10.062 -1.2508 -0.7069  0.3126
  644MPD2    H2 9591   0.550   4.122   9.838 -1.0585  1.0176 -1.8809
  644MPD2    H3 9592   0.430   4.255   9.989 -0.7798  0.0132  0.6452
  644MPD2     N 9593   0.799   4.536  10.049  0.0513  0.1756  0.4770
  644MPD2    H5 9594   0.895   4.551  10.020  0.2720 -2.4758 -0.1668
  644MPD2    N1 9595   0.800   4.143   9.763  0.2193  0.4669 -0.2626
  644MPD2    H7 9596   0.736   4.076   9.722  0.7036  0.9648 -1.8446
  645TMC3    C1 9597   0.840   4.689  10.230 -0.8223 -0.8199  0.3093
  645TMC3    C2 9598   0.797   0.001  10.351  0.3235  0.1453  0.4486
  645TMC3    C3 9599   0.892   0.073  10.419  0.2678  0.5594 -0.2327
  645TMC3    C4 9600   0.972   4.690  10.191  0.2465  0.3091  0.5539
  645TMC3    C5 9601   1.067   4.739  10.285  0.1139 -0.3433 -0.2786
  645TMC3    C6 9602   1.025   0.070  10.393  0.1307  0.7234 -0.3135
  645TMC3     C 9603   0.743   4.610  10.156 -0.5131 -0.2381  0.5950
  645TMC3     O 9604   0.628   4.607  10.198  0.3734 -0.3062  0.1201
  645TMC3     H 9605   0.692   4.733  10.378  0.1843 -0.5679 -0.3388
  645TMC3    H1 9606   1.003   4.633  10.104 -0.1046 -0.4849  0.9414
  645TMC3    H2 9607   1.097   0.112  10.463 -0.4529  1.2224 -0.0170
  645TMC3    C7 9608   1.210   0.021  10.249 -0.2951 -0.4317 -0.1108
  645TMC3    C8 9609   0.854   0.140  10.542  0.4384  0.3475  0.4771
  645TMC3    O1 9610   1.267   0.116  10.306  0.0665 -0.9101  0.3245
  645TMC3    O2 9611   0.942   0.150  10.622 -0.5027 -0.1665 -0.4797
  646MPD2     C 9612   0.255   3.388  14.396 -0.3273  0.3649  0.7979
  646MPD2    C1 9613   0.161   3.407  14.495  0.3476 -0.0484  0.1223
  646MPD2    C2 9614   0.045   3.478  14.465 -0.2143 -0.1249  0.1248
  646MPD2    C3 9615   0.018   3.511  14.333 -0.5100 -0.1151  0.6797
  646MPD2    C4 9616   0.109   3.476  14.240  0.1473  0.4044 -0.5327
  646MPD2    C5 9617   0.228   3.421  14.269 -0.3478 -0.0561 -0.3034
  646MPD2     H 9618   4.712   3.516  14.535  0.0926 -0.2587  0.5224
  646MPD2    H1 9619   0.101   3.503  14.135  0.7553 -1.6777 -1.1251
  646MPD2    H2 9620   0.353   3.347  14.417  0.1104 -0.0975 -2.0921
  646MPD2    H3 9621   0.292   3.384  14.190 -1.4490 -2.2985 -0.1579
  646MPD2     N 9622   4.638   3.575  14.291  0.0472 -0.2634 -0.5617
  646MPD2    H5 9623   4.570   3.599  14.362  0.1906 -2.3731  0.2741
  646MPD2    N1 9624   0.202   3.375  14.632 -0.2449  0.2715  0.0639
  646MPD2    H7 9625   0.293   3.330  14.639  1.0640  2.8805 -0.4868
  647TMC3    C1 9626   0.186   3.332  14.861  0.4714 -1.1368 -0.4633
  647TMC3    C2 9627   0.107   3.295  14.965 -0.5566  0.3879  0.1222
  647TMC3    C3 9628   0.171   3.226  15.060 -0.0034 -0.5141 -0.0797
  647TMC3    C4 9629   0.325   3.306  14.861  0.0245 -0.0168  0.0914
  647TMC3    C5 9630   0.382   3.235  14.960  0.5862 -0.0364  0.1482
  647TMC3    C6 9631   0.301   3.189  15.058 -0.2039 -0.1900  0.1635
  647TMC3     C 9632   0.121   3.371  14.741  0.0705  0.2169 -0.2740
  647TMC3     O 9633   0.001   3.385  14.738 -0.2555  0.1790  0.1883
  647TMC3     H 9634   0.003   3.324  14.972 -0.9262 -0.6121 -1.0790
  647TMC3    H1 9635   0.394   3.357  14.794  1.3609 -1.2673  0.4967
  647TMC3    H2 9636   0.357   3.149  15.142  2.3980  3.4483  0.1508
  647TMC3    C7 9637   0.527   3.206  14.975  0.5971 -0.8930  0.7975
  647TMC3    C8 9638   0.110   3.230  15.188  0.0359 -0.0431  0.2752
  647TMC3    O1 9639   0.569   3.193  15.088  0.4427  0.1963 -0.1934
  647TMC3    O2 9640   0.026   3.314  15.217 -0.0144  0.3765 -0.1520
  648TMC3    C1 9641   4.416   1.269  16.467  0.1615 -0.1697 -0.2447
  648TMC3    C2 9642   4.469   1.148  16.430 -0.0221 -0.0399 -0.0148
  648TMC3    C3 9643   4.459   1.116  16.302 -0.9027 -0.4525 -0.2717
  648TMC3    C4 9644   4.361   1.358  16.378 -0.7573 -0.6780  0.0794
  648TMC3    C5 9645   4.356   1.315  16.242  0.1167  0.2571  0.2655
  648TMC3    C6 9646   4.404   1.197  16.207  0.5541 -0.2453 -0.7175
  648TMC3     C 9647   4.406   1.305  16.605  0.0867 -0.3618 -1.7012
  648TMC3     O 9648   4.389   1.425  16.632  0.1299 -0.0848 -0.2527
  648TMC3     H 9649   4.518   1.080  16.499 -1.3586  1.0441  2.0025
  648TMC3    H1 9650   4.324   1.454  16.412  0.2157  0.4185 -1.9347
  648TMC3    H2 9651   4.420   1.171  16.103 -1.4687 -0.7347 -0.9005
  648TMC3    C7 9652   4.261   1.369  16.148  0.0692  0.0062 -0.4276
  648TMC3    C8 9653   4.527   1.005  16.255  0.1638  1.4367 -0.3140
  648TMC3    O1 9654   4.240   1.308  16.046  0.4768 -0.3114 -0.2608
  648TMC3    O2 9655   4.588   1.027  16.151  0.6526 -0.0938  0.5418
  649TMC3    C1 9656   2.764   2.276  13.220 -0.3504  0.3144  0.2420
  649TMC3    C2 9657   2.898   2.313  13.215 -0.3891 -0.0222 -0.2138
  649TMC3    C3 9658   2.993   2.236  13.283  0.2375 -0.3959 -0.3799
  649TMC3    C4 9659   2.719   2.163  13.286  0.5429  0.1632  0.1489
  649TMC3    C5 9660   2.819   2.084  13.339  0.4536  0.2715 -0.3204
  649TMC3    C6 9661   2.953   2.123  13.342 -0.3887  1.2076 -0.1208
  649TMC3     C 9662   2.662   2.359  13.141  0.3415 -0.0122 -0.1894
  649TMC3     O 9663   2.688   2.478  13.135  0.0240 -0.0350 -0.0171
  649TMC3     H 9664   2.916   2.391  13.142  0.2273 -0.1937 -0.2445
  649TMC3    H1 9665   2.616   2.129  13.294  1.3473 -2.1049  0.8259
  649TMC3    H2 9666   3.029   2.060  13.388  0.8661  0.6601 -2.9105
  649TMC3    C7 9667   2.768   1.976  13.418  0.1054 -0.5278 -0.8031
  649TMC3    C8 9668   3.127   2.256  13.242  0.3544 -0.5747  0.0801
  649TMC3    O1 9669   2.654   1.943  13.395 -0.1106  0.7964 -0.1795
  649TMC3    O2 9670   3.144   2.362  13.181  0.1697 -0.5821  0.2850
  650TMC3    C1 9671   0.730   3.429  12.431  0.0302  0.5808  0.3717
  650TMC3    C2 9672   0.692   3.478  12.559  0.2231  0.6021  0.2026
  650TMC3    C3 9673   0.605   3.584  12.561  0.0223  0.1141  0.0534
  650TMC3    C4 9674   0.685   3.495  12.316 -0.7632 -0.5990  0.6524
  650TMC3    C5 9675   0.590   3.593  12.326 -0.3708  0.0171 -1.4202
  650TMC3    C6 9676   0.550   3.638  12.449  0.5390  0.0217  0.3706
  650TMC3     C 9677   0.840   3.327  12.415  0.5063 -0.1776  0.8397
  650TMC3     O 9678   0.887   3.326  12.302  0.0320 -0.2626  0.0847
  650TMC3     H 9679   0.723   3.437  12.654 -0.0227 -0.3374 -0.1184
  650TMC3    H1 9680   0.734   3.472  12.222 -0.2532  1.1235  0.4906
  650TMC3    H2 9681   0.462   3.700  12.454 -0.3724 -1.3123  0.9401
  650TMC3    C7 9682   0.577   3.677  12.217  0.4231 -0.0694  0.3099
  650TMC3    C8 9683   0.561   3.653  12.681 -0.4306 -0.5386  0.2685
  650TMC3    O1 9684   0.588   3.639  12.101 -0.1101 -0.1042 -0.2511
  650TMC3    O2 9685   0.547   3.591  12.786 -0.0044  0.3546 -0.0006
  651MPD2     C 9686   4.536   0.815  10.095 -0.2148 -1.3154 -0.0501
  651MPD2    C1 9687   4.543   0.930  10.166 -0.6390 -0.5193 -0.0738
  651MPD2    C2 9688   4.658   0.991  10.196  0.4158 -0.5736  0.5709
  651MPD2    C3 9689   0.032   0.948  10.142  0.8763  0.3254 -0.1602
  651MPD2    C4 9690   0.031   0.838  10.064  0.3347 -0.1112  0.1003
  651MPD2    C5 9691   4.655   0.774  10.038  0.2333 -0.0505 -0.5059
  651MPD2     H 9692   4.648   1.073  10.265 -0.2098 -1.0606  1.0634
  651MPD2    H1 9693   0.123   0.808  10.016 -0.0267 -0.4727 -0.3709
  651MPD2    H2 9694   4.448   0.759  10.067 -0.8520  0.2830 -1.2391
  651MPD2    H3 9695   4.648   0.680   9.985  1.2837  0.3571 -1.3676
  651MPD2     N 9696   0.153   1.015  10.177 -0.1874  0.2575 -0.1094
  651MPD2    H5 9697   0.131   1.094  10.237  1.9289  0.9840 -0.2813
  651MPD2    N1 9698   4.431   0.997  10.205  0.1330 -0.3509  0.3562
  651MPD2    H7 9699   4.446   1.093  10.234  2.4213 -0.0026 -1.9684
  652TMC3    C1 9700   0.620   1.123  10.224  0.8418  0.3444 -0.3166
  652TMC3    C2 9701   0.521   1.039  10.170  0.2321  0.4514 -0.2213
  652TMC3    C3 9702   0.391   1.060  10.206  0.2494  0.5747 -0.3803
  652TMC3    C4 9703   0.585   1.222  10.315  0.0300  0.1805 -0.7052
  652TMC3    C5 9704   0.451   1.236  10.351 -0.0887 -0.1480  1.0893
  652TMC3    C6 9705   0.351   1.157  10.297 -0.7416 -0.1403  1.1088
  652TMC3     C 9706   0.746   1.056  10.268  0.4807  0.2109 -0.0836
  652TMC3     O 9707   0.765   1.050  10.388  0.4770  0.1941  0.1749
  652TMC3     H 9708   0.548   0.956  10.106 -1.5871 -0.6251  0.4318
  652TMC3    H1 9709   0.660   1.284  10.362 -0.0965 -0.5081  0.4083
  652TMC3    H2 9710   0.255   1.163  10.346 -1.0110  0.6726  0.4768
  652TMC3    C7 9711   0.411   1.362  10.402  0.4114  0.4411  0.1427
  652TMC3    C8 9712   0.283   0.978  10.146 -0.0267  1.1763 -0.7141
  652TMC3    O1 9713   0.313   1.361  10.478  0.1868 -0.3063  0.4718
  652TMC3    O2 9714   0.323   0.893  10.069 -0.0571  0.4971 -0.6411
  653MPD2     C 9715   3.143   1.218  17.704 -0.0048  0.3807  0.0612
  653MPD2    C1 9716   3.122   1.325  17.629  0.2951  0.3183 -0.9349
  653MPD2    C2 9717   3.078   1.293  17.496  0.0898  0.2720 -0.0287
  653MPD2    C3 9718   3.068   1.164  17.445 -0.9563  0.1051  0.2797
  653MPD2    C4 9719   3.107   1.059  17.527  0.4807 -0.5530 -0.7928
  653MPD2    C5 9720   3.139   1.087  17.656 -0.0209  0.4301  0.1575
  653MPD2     H 9721   3.040   1.366  17.426 -0.5460 -1.0090 -1.0113
  653MPD2    H1 9722   3.099   0.954  17.504 -2.1137 -0.6395  0.4852
  653MPD2    H2 9723   3.164   1.223   0.049 -0.8558  1.1080  0.1906
  653MPD2    H3 9724   3.147   1.015  17.736  0.0606 -2.0689 -2.1001
  653MPD2     N 9725   3.015   1.141  17.313  0.6787 -0.1501 -0.4506
  653MPD2    H5 9726   2.992   1.224  17.259  1.6450  0.0280 -0.5878
  653MPD2    N1 9727   3.114   1.463  17.669 -0.1494 -0.0855 -0.2479
  653MPD2    H7 9728   3.102   1.531  17.595 -1.0261 -0.5663 -0.5538
  654TMC3    C1 9729   2.951   1.031  17.110  0.6842  0.0982 -0.1075
  654TMC3    C2 9730   2.844   1.111  17.073 -0.1280 -0.6592 -0.2235
  654TMC3    C3 9731   2.765   1.085  16.967  0.1880 -0.3579  0.1644
  654TMC3    C4 9732   2.962   0.910  17.056 -0.1966  0.5447  0.5339
  654TMC3    C5 9733   2.874   0.877  16.962 -0.1984  0.0308 -0.1568
  654TMC3    C6 9734   2.777   0.963  16.911  0.1653 -0.0050 -0.6433
  654TMC3     C 9735   2.997   1.022  17.252 -0.4034  0.0608 -0.3924
  654TMC3     O 9736   2.994   0.902  17.287 -0.0591 -1.0753  0.1002
  654TMC3     H 9737   2.819   1.199  17.131 -1.4016 -1.5220  0.5294
  654TMC3    H1 9738   3.055   0.858  17.074 -2.3369 -2.5801  2.4544
  654TMC3    H2 9739   2.707   0.927  16.837 -0.7974 -0.1923  0.3504
  654TMC3    C7 9740   2.909   0.759  16.879  0.0547  0.0199  0.3782
  654TMC3    C8 9741   2.659   1.176  16.927  0.7732  0.0222 -0.0176
  654TMC3    O1 9742   2.869   0.755  16.762  0.3161  0.3454  0.1530
  654TMC3    O2 9743   2.635   1.266  17.006  0.0156  0.2933 -0.0526
  655MPD2     C 9744   4.562   1.308  15.892  0.5511 -0.1715 -0.0787
  655MPD2    C1 9745   4.504   1.417  15.831  0.0506  0.5050 -0.8636
  655MPD2    C2 9746   4.463   1.406  15.701  0.6079  0.0750 -0.1969
  655MPD2    C3 9747   4.463   1.291  15.637 -0.2108 -0.1419  0.0225
  655MPD2    C4 9748   4.520   1.184  15.700 -0.0653  0.0682  0.2820
  655MPD2    C5 9749   4.567   1.190  15.827  0.1457 -0.3571 -0.2072
  655MPD2     H 9750   4.423   1.496  15.657 -0.5362  0.4749  1.6504
  655MPD2    H1 9751   4.543   1.092  15.649 -0.4267  1.2605 -2.0165
  655MPD2    H2 9752   4.595   1.299  15.995 -2.6185 -1.2570  0.8561
  655MPD2    H3 9753   4.611   1.103  15.874 -0.4858  0.1272  1.2764
  655MPD2     N 9754   4.432   1.277  15.495  0.2801  0.2733 -0.4754
  655MPD2    H5 9755   4.452   1.188  15.451 -0.4872 -0.4001  0.5346
  655MPD2    N1 9756   4.490   1.545  15.893 -0.3394 -0.3416  0.1361
  655MPD2    H7 9757   4.452   1.617  15.832 -1.0086 -1.9729 -1.3616
  656TMC3    C1 9758   4.474   1.699  16.069 -0.2415  0.0786 -0.0260
  656TMC3    C2 9759   4.430   1.710  16.197  0.5119  0.0609  0.0764
  656TMC3    C3 9760   4.361   1.818  16.241 -0.2625  0.0158 -0.7497
  656TMC3    C4 9761   4.449   1.800  15.985  0.7178  0.5633 -0.2059
  656TMC3    C5 9762   4.375   1.909  16.027  0.4620  0.2390  0.3757
  656TMC3    C6 9763   4.339   1.923  16.155 -0.0585 -0.2202  0.6239
  656TMC3     C 9764   4.512   1.565  16.027  0.3921 -0.1576  0.3328
  656TMC3     O 9765   4.551   1.491  16.117  0.2537  0.2003 -0.1381
  656TMC3     H 9766   4.437   1.625  16.264 -0.3813 -0.0533  0.0282
  656TMC3    H1 9767   4.487   1.803  15.884 -0.3847  1.9014 -0.5647
  656TMC3    H2 9768   4.291   2.014  16.189  1.0700  0.3604  0.6628
  656TMC3    C7 9769   4.315   1.993  15.922  0.2760 -0.1048 -0.1962
  656TMC3    C8 9770   4.273   1.788  16.355  0.1216  0.2833  0.7372
  656TMC3    O1 9771   4.379   2.008  15.819  0.1426  0.4943 -0.2462
  656TMC3    O2 9772   4.270   1.672  16.395 -0.0874  0.3317 -0.3888
  657TMC3    C1 9773   3.061   1.048  15.533 -0.8205  0.6249 -0.1639
  657TMC3    C2 9774   3.179   1.120  15.546  0.5510  0.0514  0.0486
  657TMC3    C3 9775   3.179   1.258  15.537 -0.3923  0.4600  0.6150
  657TMC3    C4 9776   2.946   1.116  15.496 -0.7308 -0.1158 -0.2647
  657TMC3    C5 9777   2.958   1.247  15.466 -0.4500  0.0316 -0.0716
  657TMC3    C6 9778   3.065   1.323  15.503  0.2319  0.7350 -0.1552
  657TMC3     C 9779   3.055   0.910  15.495  0.2163  0.0572  0.1497
  657TMC3     O 9780   2.947   0.856  15.510  0.0396 -0.4055 -0.1685
  657TMC3     H 9781   3.275   1.076  15.571  1.2089  0.2674 -2.1875
  657TMC3    H1 9782   2.853   1.061  15.488 -0.6571 -0.2860  0.0709
  657TMC3    H2 9783   3.054   1.430  15.494 -1.0655  0.6602  0.3965
  657TMC3    C7 9784   2.838   1.320  15.444  0.6998 -0.1547  0.5974
  657TMC3    C8 9785   3.296   1.340  15.583 -0.5865 -0.1297 -0.0243
  657TMC3    O1 9786   2.832   1.433  15.481  0.1603  0.2850  0.0712
  657TMC3    O2 9787   3.309   1.449  15.528 -0.3228  0.0163 -0.1345
  658MPD2     C 9788   0.054   1.247  14.831 -0.0519 -0.4169  0.0141
  658MPD2    C1 9789   4.669   1.200  14.793  0.3531  0.6014 -0.1756
  658MPD2    C2 9790   4.636   1.192  14.661 -0.4104  0.4108 -0.1297
  658MPD2    C3 9791   4.737   1.222  14.565  0.2763 -0.0038 -0.3738
  658MPD2    C4 9792   0.122   1.267  14.607 -0.3872 -0.0288  0.1136
  658MPD2    C5 9793   0.147   1.287  14.740  0.4622 -0.2503 -0.0062
  658MPD2     H 9794   4.534   1.165  14.635 -0.1274 -0.3821 -0.4393
  658MPD2    H1 9795   0.198   1.299  14.537  0.5421 -0.9173  0.7251
  658MPD2    H2 9796   0.085   1.261  14.934 -2.1978  1.3696  0.4039
  658MPD2    H3 9797   0.245   1.320  14.770  0.1618 -1.0190  1.8147
  658MPD2     N 9798   4.719   1.208  14.431 -0.0482 -1.0546 -1.2549
  658MPD2    H5 9799   4.634   1.155  14.411  0.3847 -2.2434  0.1005
  658MPD2    N1 9800   4.560   1.191  14.886  0.2716 -0.6297 -0.6193
  658MPD2    H7 9801   4.468   1.175  14.845  0.2978 -1.2273 -0.4394
  659TMC3    C1 9802   4.451   1.229  15.094  0.3035  0.4088  0.5508
  659TMC3    C2 9803   4.457   1.256  15.226 -0.0374 -0.0514  0.5261
  659TMC3    C3 9804   4.356   1.331  15.281  0.4327 -0.3837 -0.2660
  659TMC3    C4 9805   4.338   1.273  15.028 -0.8802 -0.2187 -0.4981
  659TMC3    C5 9806   4.247   1.352  15.082  0.2625  0.2488 -0.6803
  659TMC3    C6 9807   4.253   1.384  15.213  0.6172 -0.3554  0.2685
  659TMC3     C 9808   4.573   1.216  15.020 -0.6328 -0.0233 -0.5069
  659TMC3     O 9809   4.676   1.213  15.097  0.4417  0.4032  0.1442
  659TMC3     H 9810   4.543   1.223  15.283  1.2508 -0.9367 -1.9179
  659TMC3    H1 9811   4.327   1.246  14.924 -1.5955  0.2870 -0.5577
  659TMC3    H2 9812   4.173   1.443  15.256 -0.4084 -0.8334 -1.0042
  659TMC3    C7 9813   4.127   1.387  15.008 -0.2311  0.0655 -0.9068
  659TMC3    C8 9814   4.364   1.370  15.416  0.2602 -0.1803  0.4160
  659TMC3    O1 9815   4.061   1.479  15.051 -0.0885 -0.0958  0.5014
  659TMC3    O2 9816   4.300   1.466  15.453 -0.4267 -0.0619  0.0076
  660MPD2     C 9817   2.533   4.620  12.633  0.6283  0.3444 -0.0911
  660MPD2    C1 9818   2.441   4.716  12.670  0.0851  0.3372  0.1028
  660MPD2    C2 9819   2.355   4.682  12.778  0.1313  0.1808  0.6115
  660MPD2    C3 9820   2.374   4.576  12.865 -0.2521  0.4507 -0.2673
  660MPD2    C4 9821   2.475   4.492  12.826 -0.2704  0.7882 -0.0577
  660MPD2    C5 9822   2.553   4.516  12.718 -0.3947 -0.0368 -0.4858
  660MPD2     H 9823   2.271   0.007  12.789 -0.1399 -0.2239  0.9855
  660MPD2    H1 9824   2.502   4.401  12.878 -3.0764  0.2604  0.5200
  660MPD2    H2 9825   2.592   4.629  12.543  0.4350 -1.9630 -0.4468
  660MPD2    H3 9826   2.638   4.451  12.699 -1.5744 -2.1482  1.5361
  660MPD2     N 9827   2.296   4.545  12.981 -0.4398  0.2950 -0.3106
  660MPD2    H5 9828   2.328   4.471  13.042 -0.9864  0.7411  0.5119
  660MPD2    N1 9829   2.430   0.087  12.598 -0.8569 -0.2029 -0.7069
  660MPD2    H7 9830   2.474   0.072  12.508  0.6847 -0.7461  0.1276
  661TMC3    C1 9831   2.313   0.268  12.513 -0.3020 -0.6141  0.0928
  661TMC3    C2 9832   2.398   0.299  12.414 -0.0804  0.2023 -0.5807
  661TMC3    C3 9833   2.356   0.374  12.312  0.0540 -0.1865  0.7055
  661TMC3    C4 9834   2.189   0.310  12.506 -0.2519  0.5284 -0.2119
  661TMC3    C5 9835   2.140   0.376  12.400  0.0807 -0.1378  0.2962
  661TMC3    C6 9836   2.221   0.416  12.297  0.4782 -0.0172 -0.7525
  661TMC3     C 9837   2.346   0.192  12.628 -0.1705 -0.2013 -0.2641
  661TMC3     O 9838   2.298   0.228  12.733  0.5472  0.5872  0.3125
  661TMC3     H 9839   2.500   0.264  12.424 -0.8769 -2.1513 -0.6081
  661TMC3    H1 9840   2.126   0.283  12.590  3.3930 -2.0093  1.7217
  661TMC3    H2 9841   2.173   0.474  12.219 -0.0447  0.5734  0.0097
  661TMC3    C7 9842   2.002   0.374  12.393 -0.4628 -0.4476  1.0068
  661TMC3    C8 9843   2.441   0.390  12.199  0.0204  0.0787 -0.6708
  661TMC3    O1 9844   1.939   0.382  12.500  0.0384 -0.1901  0.1626
  661TMC3    O2 9845   2.553   0.340  12.206 -0.2636  0.1136 -0.3822
  662MPD2     C 9846   3.568   4.392  16.689  0.3267 -0.6057 -0.7059
  662MPD2    C1 9847   3.453   4.327  16.717 -0.4218  0.2462 -0.0202
  662MPD2    C2 9848   3.345   4.397  16.759  0.3445  0.3325  0.4204
  662MPD2    C3 9849   3.351   4.534  16.791 -0.8919 -0.2275 -0.2916
  662MPD2    C4 9850   3.477   4.596  16.779 -0.4682 -0.0673  0.7936
  662MPD2    C5 9851   3.580   4.527  16.725  0.1736 -0.7603 -0.3505
  662MPD2     H 9852   3.251   4.344  16.772 -0.7140  1.9498 -0.7149
  662MPD2    H1 9853   3.497   4.700  16.803  0.3856 -0.1865  0.6097
  662MPD2    H2 9854   3.654   4.355  16.635 -0.6151 -2.7315 -0.7490
  662MPD2    H3 9855   3.676   4.576  16.731  0.1883 -0.9770  1.1344
  662MPD2     N 9856   3.253   4.605  16.860 -0.3292  0.1291  0.2674
  662MPD2    H5 9857   3.280   4.698  16.889  2.5142 -0.1668 -1.4337
  662MPD2    N1 9858   3.438   4.190  16.695  0.6663  0.0879 -0.4868
  662MPD2    H7 9859   3.345   4.154  16.710  0.8657  0.2817  1.1921
  663TMC3    C1 9860   3.504   3.969  16.689 -0.3216  0.0655 -0.4580
  663TMC3    C2 9861   3.599   3.903  16.764  0.4928 -0.2789 -0.1946
  663TMC3    C3 9862   3.558   3.809  16.861  0.5487  0.6749  0.3344
  663TMC3    C4 9863   3.372   3.936  16.698 -0.4403 -0.7899  0.4503
  663TMC3    C5 9864   3.343   3.826  16.773  0.4868 -0.9551 -0.3086
  663TMC3    C6 9865   3.428   3.775  16.871 -0.0345  0.2166  0.5603
  663TMC3     C 9866   3.542   4.104  16.659  0.3978  0.2158  0.1107
  663TMC3     O 9867   3.665   4.129  16.645  0.1437  0.0755 -0.0457
  663TMC3     H 9868   3.692   3.955  16.783  0.5477 -0.4517  0.0130
  663TMC3    H1 9869   3.305   3.965  16.618 -0.8219  1.5463  1.6308
  663TMC3    H2 9870   3.405   3.687  16.929 -0.7299  0.2736  0.3754
  663TMC3    C7 9871   3.226   3.747  16.726 -1.3874  0.2905  0.5451
  663TMC3    C8 9872   3.614   3.863  16.980  0.5680 -0.2125 -0.5088
  663TMC3    O1 9873   3.198   3.751  16.608 -0.2153  0.3217  0.1503
  663TMC3    O2 9874   3.734   3.846  16.999  0.3510 -0.0849 -0.0743
  664MPD2     C 9875   1.443   2.893   0.036 -0.1795  0.8720  0.5624
  664MPD2    C1 9876   1.481   3.018   0.066  0.2333 -0.8555  0.2407
  664MPD2    C2 9877   1.462   3.060   0.191  0.1866 -0.1057  0.3764
  664MPD2    C3 9878   1.427   2.977   0.296 -0.2350  0.6478 -0.1169
  664MPD2    C4 9879   1.385   2.849   0.261 -0.5649 -0.0828 -0.5370
  664MPD2    C5 9880   1.401   2.813   0.133 -0.7988 -0.7161 -0.5698
  664MPD2     H 9881   1.487   3.163   0.214 -0.3476  0.7903 -3.0453
  664MPD2    H1 9882   1.349   2.781   0.337 -2.4173 -0.2357 -1.5528
  664MPD2    H2 9883   1.434   2.854  17.697  1.4805 -1.3327  1.2592
  664MPD2    H3 9884   1.388   2.713   0.093  1.5624 -0.2980 -2.3998
  664MPD2     N 9885   1.409   3.026   0.430 -0.6247  0.1603  0.5006
  664MPD2    H5 9886   1.430   3.125   0.437 -0.4730  0.0927  0.9963
  664MPD2    N1 9887   1.517   3.113  17.727  0.4950  0.0829  0.1586
  664MPD2    H7 9888   1.532   3.207   0.002  1.2041  0.5046 -1.2318
  665TMC3    C1 9889   1.372   3.043   0.662  0.7458  0.0062  0.8202
  665TMC3    C2 9890   1.251   3.091   0.693 -0.6911  0.3726  0.2998
  665TMC3    C3 9891   1.250   3.211   0.758 -0.2768  0.2576 -0.3237
  665TMC3    C4 9892   1.485   3.115   0.682 -0.5182 -0.3453 -0.0685
  665TMC3    C5 9893   1.476   3.239   0.740  0.2489 -1.1308 -0.3613
  665TMC3    C6 9894   1.357   3.291   0.776  0.3648  0.1888 -0.3044
  665TMC3     C 9895   1.369   2.960   0.539 -0.1505 -0.2240 -0.0349
  665TMC3     O 9896   1.311   2.856   0.552 -0.1444  0.5819  0.0096
  665TMC3     H 9897   1.164   3.026   0.690  1.6469 -2.7568  0.7634
  665TMC3    H1 9898   1.574   3.064   0.646  0.0733 -0.3176  1.3481
  665TMC3    H2 9899   1.352   3.392   0.815 -0.7692 -0.5962  1.5804
  665TMC3    C7 9900   1.599   3.315   0.729 -0.3671  0.4091 -0.3109
  665TMC3    C8 9901   1.131   3.274   0.793 -0.0105  0.5244  0.0864
  665TMC3    O1 9902   1.680   3.279   0.647 -0.0890  0.2015 -0.3200
  665TMC3    O2 9903   1.135   3.367   0.872 -0.6970 -1.1261  0.0378
  666TMC3    C1 9904   0.248   2.974   9.832  0.0723  0.0474 -0.2921
  666TMC3    C2 9905   0.375   2.930   9.829 -0.1849  0.2743 -0.6505
  666TMC3    C3 9906   0.467   2.985   9.909  0.0631 -0.0823  0.0790
  666TMC3    C4 9907   0.219   3.095   9.900 -0.6548  0.0224  0.0071
  666TMC3    C5 9908   0.322   3.167   9.956 -0.0453  0.3012 -0.0040
  666TMC3    C6 9909   0.447   3.106   9.978 -0.0978  0.7582  0.6317
  666TMC3     C 9910   0.157   2.871   9.885  0.3833 -1.2604 -0.4582
  666TMC3     O 9911   0.049   2.916   9.917  0.7292 -0.0825  0.1532
  666TMC3     H 9912   0.401   2.842   9.771  0.9428 -0.6908  1.3241
  666TMC3    H1 9913   0.118   3.131   9.910 -1.1698 -1.4761  0.2409
  666TMC3    H2 9914   0.511   3.136  10.059  1.2864  1.4015 -0.6915
  666TMC3    C7 9915   0.289   3.299  10.004 -0.0206 -0.6382 -0.2058
  666TMC3    C8 9916   0.568   2.889   9.960 -0.2786  0.1058  0.0149
  666TMC3    O1 9917   0.176   3.340   9.999 -0.1872  0.1216 -0.2273
  666TMC3    O2 9918   0.547   2.771   9.937 -0.3952 -0.1039 -0.2051
  667MPD2     C 9919   1.915   2.420  14.784 -0.2112 -0.0290 -0.0440
  667MPD2    C1 9920   1.820   2.433  14.880 -0.2362 -0.5816 -0.7765
  667MPD2    C2 9921   1.732   2.324  14.903 -0.6199  0.3123 -0.0903
  667MPD2    C3 9922   1.737   2.212  14.825 -0.0914  0.2612 -0.1333
  667MPD2    C4 9923   1.828   2.209  14.725  0.8196 -0.0198 -0.0293
  667MPD2    C5 9924   1.912   2.308  14.709  1.0608  0.8246  0.5732
  667MPD2     H 9925   1.661   2.342  14.983 -0.3046 -1.1507  0.5174
  667MPD2    H1 9926   1.839   2.123  14.659  0.4593 -0.2413  0.2015
  667MPD2    H2 9927   1.981   2.503  14.762 -2.0635  1.1614 -1.0834
  667MPD2    H3 9928   1.982   2.298  14.627  0.4753  1.7378 -0.0392
  667MPD2     N 9929   1.642   2.113  14.832 -0.1782 -0.6915 -0.1925
  667MPD2    H5 9930   1.633   2.042  14.760 -2.0263 -0.6524 -0.0025
  667MPD2    N1 9931   1.813   2.547  14.961 -0.2517  0.1244  0.2920
  667MPD2    H7 9932   1.735   2.553  15.027 -1.0099  2.1785 -0.7943
  668TMC3    C1 9933   1.848   2.751  15.064  0.9578  0.1299 -0.0363
  668TMC3    C2 9934   1.942   2.814  15.142 -0.0526  0.2169  0.6700
  668TMC3    C3 9935   1.896   2.863  15.266 -0.2552 -1.1462 -0.4016
  668TMC3    C4 9936   1.726   2.731  15.099  0.2542  0.3247  0.2648
  668TMC3    C5 9937   1.683   2.774  15.219  0.4830  0.1037  0.1070
  668TMC3    C6 9938   1.772   2.829  15.310 -0.8732 -0.6545 -0.1887
  668TMC3     C 9939   1.902   2.657  14.964  0.2393 -0.7473  0.2616
  668TMC3     O 9940   2.019   2.668  14.928 -0.4256 -0.2136  0.4472
  668TMC3     H 9941   2.043   2.828  15.106 -0.5649 -0.0944 -0.8791
  668TMC3    H1 9942   1.652   2.696  15.028  0.9202 -0.8093  0.1359
  668TMC3    H2 9943   1.735   2.874  15.401 -1.1192 -0.7124 -0.2598
  668TMC3    C7 9944   1.563   2.704  15.264 -0.7575 -0.3059 -0.5643
  668TMC3    C8 9945   1.964   2.969  15.329  0.2097 -0.8610  0.8791
  668TMC3    O1 9946   1.481   2.671  15.179  0.4460 -0.0894 -0.0448
  668TMC3    O2 9947   1.922   3.004  15.437 -0.4412 -0.0637  0.0902
  669TMC3    C1 9948   0.127   2.640  14.679  0.1095 -0.0835  0.4266
  669TMC3    C2 9949   0.002   2.681  14.651 -0.6375 -1.1478 -0.2140
  669TMC3    C3 9950   4.732   2.765  14.543  0.1828 -0.8114  0.2331
  669TMC3    C4 9951   0.238   2.679  14.608  0.0933  0.5279 -0.0341
  669TMC3    C5 9952   0.218   2.768  14.511  0.5687  0.4114  0.4497
  669TMC3    C6 9953   0.098   2.826  14.487 -0.8607 -0.7546  1.0924
  669TMC3     C 9954   0.148   2.554  14.794 -0.0077  0.2995  0.5011
  669TMC3     O 9955   0.053   2.483  14.816  0.2084 -0.0004  0.5705
  669TMC3     H 9956   4.651   2.633  14.683 -1.6206  0.2432 -0.9558
  669TMC3    H1 9957   0.337   2.640  14.625 -0.3849 -0.7919 -0.3089
  669TMC3    H2 9958   0.091   2.883  14.395  0.0901 -0.6585  1.0796
  669TMC3    C7 9959   0.327   2.841  14.453  0.5335 -0.0397  1.3797
  669TMC3    C8 9960   4.600   2.785  14.489  0.1601 -0.0971  0.1144
  669TMC3    O1 9961   0.318   2.961  14.444  0.3117  0.4111 -0.2811
  669TMC3    O2 9962   4.513   2.701  14.504 -0.1232 -0.3275  0.3398
  670MPD2     C 9963   3.094   0.776  13.549 -0.4115 -0.3308  0.6111
  670MPD2    C1 9964   3.181   0.672  13.561  0.2891 -0.2577 -0.6417
  670MPD2    C2 9965   3.172   0.600  13.676  0.1476  0.4750  0.6696
  670MPD2    C3 9966   3.090   0.629  13.782  0.3780  0.2163 -0.3161
  670MPD2    C4 9967   3.019   0.747  13.780 -0.0236  0.2560  0.2613
  670MPD2    C5 9968   3.024   0.818  13.658  0.2733  0.5022 -0.5087
  670MPD2     H 9969   3.229   0.507  13.681  0.7686  0.8079 -0.2518
  670MPD2    H1 9970   2.967   0.787  13.866 -1.8790  1.6052 -1.4721
  670MPD2    H2 9971   3.077   0.838  13.462 -0.2617 -0.2719  0.6242
  670MPD2    H3 9972   2.959   0.904  13.647  1.0117  1.1386  0.0789
  670MPD2     N 9973   3.089   0.537  13.892 -0.2640  0.1291  0.6598
  670MPD2    H5 9974   3.143   0.453  13.876 -1.3652 -0.3646 -0.4950
  670MPD2    N1 9975   3.279   0.640  13.464  0.4686 -0.0693  0.0178
  670MPD2    H7 9976   3.338   0.564  13.494 -1.4660 -1.2461  0.7870
  671TMC3    C1 9977   3.026   0.434  14.083  0.2642  0.1961 -0.2809
  671TMC3    C2 9978   3.139   0.355  14.072  0.0537  0.6417 -0.1436
  671TMC3    C3 9979   3.153   0.254  14.167 -0.3726  0.8545 -0.4825
  671TMC3    C4 9980   2.926   0.394  14.173 -0.8133 -1.1486 -0.1848
  671TMC3    C5 9981   2.933   0.277  14.243 -0.4419 -0.0175 -0.4426
  671TMC3    C6 9982   3.057   0.217  14.250  0.0134  0.3043  0.7352
  671TMC3     C 9983   3.010   0.547  14.005  0.1288  0.5939  1.0928
  671TMC3     O 9984   2.933   0.635  14.043  0.1924 -0.0118 -0.2488
  671TMC3     H 9985   3.224   0.387  14.012  0.0817  0.8827  0.0230
  671TMC3    H1 9986   2.831   0.446  14.175 -0.4507 -0.6069  2.7683
  671TMC3    H2 9987   3.071   0.120  14.295 -0.3123 -0.1115 -0.0539
  671TMC3    C7 9988   2.825   0.181  14.206 -0.8938  0.2148  0.7437
  671TMC3    C8 9989   3.270   0.175  14.141 -0.3080 -0.3126 -0.9086
  671TMC3    O1 9990   2.864   0.071  14.167  0.1766 -0.1778 -0.1093
  671TMC3    O2 9991   3.316   0.176  14.026 -0.9116  0.2936 -0.2505
  672MPD2     C 9992   2.856   1.030   1.209 -0.4753 -0.3327 -0.3918
  672MPD2    C1 9993   2.979   0.988   1.156  0.0738 -0.6527 -0.4902
  672MPD2    C2 9994   3.092   1.068   1.179 -0.0007  0.3981  0.3395
  672MPD2    C3 9995   3.085   1.185   1.244  0.5786  0.8268 -0.1717
  672MPD2    C4 9996   2.960   1.233   1.279 -0.1832 -0.9634 -0.1113
  672MPD2    C5 9997   2.850   1.154   1.261  0.1086  0.1279 -0.0185
  672MPD2     H 9998   3.188   1.030   1.145 -0.8495  1.2694 -2.9407
  672MPD2    H1 9999   2.944   1.321   1.339  2.2918 -1.3124  1.0446
  672MPD2    H210000   2.761   0.978   1.198 -0.8289  0.2866 -0.2406
  672MPD2    H310001   2.759   1.193   1.307 -0.3289  1.1985 -1.8099
  672MPD2     N10002   3.192   1.268   1.277 -0.4555 -0.0843  0.2895
  672MPD2    H510003   3.162   1.362   1.301 -0.3676 -0.2446  1.0059
  672MPD2    N110004   2.987   0.872   1.078  0.7847  0.0145 -0.0028
  672MPD2    H710005   3.075   0.844   1.036  0.8773 -0.8351  0.7412
  673TMC3    C110006   2.944   0.713   0.925  0.1971  0.9952  0.4511
  673TMC3    C210007   3.071   0.672   0.960  0.7325  0.5162 -0.2368
  673TMC3    C310008   3.146   0.619   0.863 -0.1264  0.0463  0.0082
  673TMC3    C410009   2.893   0.706   0.798 -0.0955 -0.4610  0.4372
  673TMC3    C510010   2.965   0.644   0.701 -0.2923  0.3511  0.0322
  673TMC3    C610011   3.088   0.596   0.740 -0.1144  0.1050 -0.0705
  673TMC3     C10012   2.889   0.801   1.027  0.5368  0.4620 -0.9056
  673TMC3     O10013   2.769   0.806   1.043 -0.0202  0.4880 -0.2977
  673TMC3     H10014   3.095   0.655   1.064  0.6494 -0.0580 -0.3139
  673TMC3    H110015   2.791   0.737   0.778 -0.7282 -2.4577  0.5836
  673TMC3    H210016   3.161   0.572   0.663 -1.1807  1.9121 -1.6303
  673TMC3    C710017   2.963   0.699   0.575 -0.8328  0.6615 -0.0361
  673TMC3    C810018   3.243   0.515   0.904 -0.5611  0.5062  0.4029
  673TMC3    O110019   3.027   0.638   0.492 -0.4466 -0.1258 -0.0345
  673TMC3    O210020   3.228   0.402   0.856 -0.7828 -0.5245  0.4472
  674MPD2     C10021   3.494   0.876   0.578  0.3181  0.4917  0.1050
  674MPD2    C110022   3.485   0.738   0.581 -0.4056  0.6021  0.0283
  674MPD2    C210023   3.426   0.672   0.482 -0.1503 -0.4789  0.2196
  674MPD2    C310024   3.384   0.741   0.367 -0.0493 -0.3905 -0.2024
  674MPD2    C410025   3.412   0.878   0.360 -0.1911  0.2059 -0.2148
  674MPD2    C510026   3.467   0.943   0.465 -0.4817  0.3516  0.5148
  674MPD2     H10027   3.430   0.564   0.470  0.6346 -0.5216  0.9080
  674MPD2    H110028   3.375   0.932   0.274 -1.1981 -0.8107 -0.4369
  674MPD2    H210029   3.544   0.931   0.657  2.1235 -1.8498  0.6074
  674MPD2    H310030   3.486   1.049   0.455 -2.7811  0.6646 -0.4690
  674MPD2     N10031   3.318   0.663   0.270 -0.3810 -1.2168  0.5827
  674MPD2    H510032   3.295   0.571   0.306 -0.1113 -1.3646  0.3848
  674MPD2    N110033   3.550   0.668   0.688 -0.2047 -0.1518 -0.1830
  674MPD2    H710034   3.595   0.732   0.753 -0.9786  0.6196 -0.4000
  675TMC3    C110035   3.646   0.498   0.818 -0.6363  0.6810 -0.0819
  675TMC3    C210036   3.664   0.363   0.844  0.1035  0.1006 -0.6241
  675TMC3    C310037   3.768   0.322   0.923  0.4980 -0.0825  0.2860
  675TMC3    C410038   3.738   0.588   0.865 -0.3422  0.1330  0.7269
  675TMC3    C510039   3.848   0.530   0.924  1.0827 -0.1680  0.4102
  675TMC3    C610040   3.867   0.403   0.966  0.2299 -0.3197  0.5444
  675TMC3     C10041   3.562   0.536   0.705  0.8548 -0.5709  0.5781
  675TMC3     O10042   3.515   0.438   0.638  0.2692 -0.4454 -0.1843
  675TMC3     H10043   3.600   0.290   0.795 -4.4179  2.6433  1.5705
  675TMC3    H110044   3.748   0.680   0.809 -2.4866 -0.5587 -0.7727
  675TMC3    H210045   3.952   0.373   1.026  1.3138  1.4665 -0.1091
  675TMC3    C710046   3.950   0.631   0.977  0.2710 -0.0721 -0.1601
  675TMC3    C810047   3.800   0.184   0.932 -0.4349  0.0339 -0.0292
  675TMC3    O110048   4.052   0.584   1.027 -0.8352 -0.5006 -0.1861
  675TMC3    O210049   3.760   0.109   0.844  0.3667  0.1076 -0.6323
  676MPD2     C10050   0.875   3.852  10.872 -0.2867 -0.4033 -0.8188
  676MPD2    C110051   0.768   3.783  10.926 -0.1220 -0.3455  0.1724
  676MPD2    C210052   0.767   3.646  10.922 -0.1169  0.9076 -0.5792
  676MPD2    C310053   0.869   3.577  10.865  0.4467  0.4156  0.1695
  676MPD2    C410054   0.979   3.642  10.817 -0.5431  0.5086  0.6172
  676MPD2    C510055   0.976   3.782  10.818  0.3033  0.2206 -0.2814
  676MPD2     H10056   0.684   3.595  10.969 -1.0269  1.5487 -1.4961
  676MPD2    H110057   1.062   3.584  10.778 -0.2210  2.3028 -1.3811
  676MPD2    H210058   0.886   3.960  10.879 -1.8963 -0.2687 -0.2900
  676MPD2    H310059   1.069   3.830  10.788  1.3220 -0.9489  0.9700
  676MPD2     N10060   0.884   3.433  10.876  0.0093 -0.3212 -1.1373
  676MPD2    H510061   0.973   3.396  10.845 -0.1738 -0.8575 -1.0346
  676MPD2    N110062   0.661   3.840  10.999 -0.0508  0.0455  0.7550
  676MPD2    H710063   0.602   3.772  11.047  0.3995 -0.1161  1.0850
  677TMC3    C110064   0.530   3.994  11.122  0.0349  0.4339  0.0418
  677TMC3    C210065   0.427   3.901  11.121  0.1327 -0.1207  0.4489
  677TMC3    C310066   0.339   3.904  11.229  0.1577 -0.0395 -0.5492
  677TMC3    C410067   0.551   4.089  11.223  0.4128 -0.0601 -0.1618
  677TMC3    C510068   0.461   4.080  11.325  0.5957  0.3094  0.2122
  677TMC3    C610069   0.352   3.998  11.329 -0.0581  1.5190 -0.1868
  677TMC3     C10070   0.639   3.973  11.021  0.6222 -0.0522  0.4197
  677TMC3     O10071   0.701   4.070  10.980 -0.1566  0.1501  0.5914
  677TMC3     H10072   0.402   3.835  11.039  0.2660  1.4121 -0.8361
  677TMC3    H110073   0.643   4.147  11.215  1.9810 -2.2445  2.1248
  677TMC3    H210074   0.292   4.005  11.418  0.7714  2.4246  0.3057
  677TMC3    C710075   0.522   4.114  11.452  0.1326  0.3082 -0.2683
  677TMC3    C810076   0.215   3.820  11.226  0.0598 -0.2856 -0.5247
  677TMC3    O110077   0.488   4.046  11.550 -0.3741 -0.4732 -0.2325
  677TMC3    O210078   0.177   3.765  11.122  0.6619  0.6762  0.5543
  678MPD2     C10079   2.932   4.438   1.183 -0.3160  0.0996 -0.5632
  678MPD2    C110080   2.914   4.319   1.109 -0.4593  0.7285  0.1644
  678MPD2    C210081   2.783   4.298   1.065 -0.3226 -0.5387  0.4610
  678MPD2    C310082   2.667   4.366   1.117 -0.3266 -0.2721 -0.3192
  678MPD2    C410083   2.695   4.467   1.207  0.2825  0.2066  0.0706
  678MPD2    C510084   2.822   4.496   1.240  0.3609 -0.0118  0.2190
  678MPD2     H10085   2.765   4.216   0.996  1.2300  0.5249 -1.2052
  678MPD2    H110086   2.617   4.528   1.251  0.0378  1.2187 -1.7388
  678MPD2    H210087   3.032   4.470   1.208 -0.6825  0.9205 -0.1647
  678MPD2    H310088   2.840   4.587   1.296  0.4529 -0.5468  1.0623
  678MPD2     N10089   2.540   4.319   1.081 -0.0027  0.5766 -0.0248
  678MPD2    H510090   2.536   4.239   1.018  1.1052 -0.4546  1.2227
  678MPD2    N110091   3.021   4.234   1.063 -0.3507 -0.1369  0.9321
  678MPD2    H710092   2.998   4.175   0.983 -0.7169 -0.2028  1.0903
  679TMC3    C110093   3.395   3.965   1.124  0.0844  0.2422 -0.0869
  679TMC3    C210094   3.299   4.046   1.169 -0.5230 -0.4269 -0.2813
  679TMC3    C310095   3.227   4.124   1.079 -0.6413 -0.2033 -1.1866
  679TMC3    C410096   3.402   3.932   0.992  0.1558  0.2374 -0.7848
  679TMC3    C510097   3.317   3.995   0.908 -0.2926 -0.0696 -0.0290
  679TMC3    C610098   3.233   4.099   0.945 -0.0579 -0.8922 -0.4839
  679TMC3     C10099   3.475   3.887   1.215 -0.2059 -0.7840 -0.0780
  679TMC3     O10100   3.565   3.826   1.162  0.3815 -0.0972  0.1113
  679TMC3     H10101   3.297   4.081   1.271 -3.1575 -0.7202 -0.2342
  679TMC3    H110102   3.462   3.850   0.954 -0.2508  1.1487 -3.4426
  679TMC3    H210103   3.209   4.182   0.879  2.2939  0.0537 -0.1582
  679TMC3    C710104   3.344   3.990   0.768 -0.1576 -0.0145 -0.0506
  679TMC3    C810105   3.139   4.227   1.132  0.1208  0.1216  0.0627
  679TMC3    O110106   3.246   4.024   0.705 -0.6542  0.3379  0.2340
  679TMC3    O210107   3.169   4.270   1.241 -0.3802 -0.3888 -0.2442
  680MPD2     C10108   2.166   2.690  13.698 -0.5449  0.5866  0.6654
  680MPD2    C110109   2.252   2.603  13.760 -0.4659  0.4258  0.5431
  680MPD2    C210110   2.366   2.653  13.806 -0.4112  0.0835  1.3176
  680MPD2    C310111   2.401   2.790  13.792  0.5898  0.3694 -0.4879
  680MPD2    C410112   2.318   2.865  13.705  0.0432  1.1605 -1.2770
  680MPD2    C510113   2.201   2.814  13.663  0.2535 -0.6230 -1.0237
  680MPD2     H10114   2.422   2.587  13.870  1.3345  0.3235  0.0388
  680MPD2    H110115   2.337   2.967  13.672  0.3613  1.3057 -0.6440
  680MPD2    H210116   2.072   2.652  13.659 -0.1095 -0.6469  0.8245
  680MPD2    H310117   2.131   2.878  13.612  0.4591 -0.4293 -1.0610
  680MPD2     N10118   2.508   2.846  13.858  1.1626  0.0994 -0.2203
  680MPD2    H510119   2.512   2.946  13.840 -0.3439  0.0434 -0.8904
  680MPD2    N110120   2.206   2.467  13.794  0.2271 -0.3200 -0.7224
  680MPD2    H710121   2.109   2.441  13.778 -0.1548 -0.5119  1.9056
  681TMC3    C110122   2.209   2.235  13.853  0.1239  0.9128  0.0520
  681TMC3    C210123   2.121   2.256  13.960 -0.2030 -0.3077  0.0962
  681TMC3    C310124   2.141   2.179  14.070  0.1048  0.2529 -0.3711
  681TMC3    C410125   2.299   2.134  13.854 -0.4975  0.4388  0.3481
  681TMC3    C510126   2.328   2.066  13.966 -0.2334  0.4435 -0.2461
  681TMC3    C610127   2.257   2.096  14.074  0.9081  0.4895  0.3458
  681TMC3     C10128   2.285   2.358  13.823  0.2379 -0.5881  0.5549
  681TMC3     O10129   2.406   2.350  13.835  0.3415  0.1366  0.4706
  681TMC3     H10130   2.037   2.324  13.952  0.9723  1.4168  2.5782
  681TMC3    H110131   2.357   2.130  13.763  0.7595  0.9442  1.1267
  681TMC3    H210132   2.292   2.048  14.165 -0.7823  1.3640  1.4457
  681TMC3    C710133   2.453   1.993  13.981 -0.1747 -0.0124 -0.3756
  681TMC3    C810134   2.122   2.264  14.186  0.6176 -0.1643 -0.4538
  681TMC3    O110135   2.507   1.986  14.090 -0.2923 -0.6096 -0.1404
  681TMC3    O210136   2.011   2.310  14.183  0.9398 -0.3568 -0.1991
  682MPD2     C10137   4.574   3.885  11.107 -0.8572 -0.5077 -0.7202
  682MPD2    C110138   4.602   3.754  11.072  1.1601  0.1158 -0.0098
  682MPD2    C210139   4.604   3.655  11.172 -0.0895  0.3070 -0.1856
  682MPD2    C310140   4.595   3.690  11.304  0.2314 -0.5183  0.5209
  682MPD2    C410141   4.579   3.824  11.335  0.1649 -0.1611  0.6171
  682MPD2    C510142   4.578   3.916  11.238 -0.5853 -0.1826  0.5814
  682MPD2     H10143   4.622   3.551  11.150  2.6287  0.3883  1.6425
  682MPD2    H110144   4.559   3.853  11.437  0.6964 -0.8457  0.9122
  682MPD2    H210145   4.563   3.964  11.034  0.5135 -0.6740 -1.1139
  682MPD2    H310146   4.554   4.020  11.258  0.0528 -0.2221  1.5181
  682MPD2     N10147   4.591   3.596  11.417  0.9321  0.2223 -0.1338
  682MPD2    H510148   4.566   3.639  11.506  0.2417  1.5043 -0.9421
  682MPD2    N110149   4.609   3.712  10.940  0.7849 -0.4632  0.1671
  682MPD2    H710150   4.622   3.612  10.924  2.6436  0.0812 -1.8376
  683TMC3    C110151   4.695   3.396  11.755  1.0687  0.6845  0.2928
  683TMC3    C210152   4.705   3.256  11.755  0.0428 -0.5165 -0.9487
  683TMC3    C310153   4.679   3.187  11.634  0.2298 -0.5926 -0.1758
  683TMC3    C410154   4.649   3.462  11.651 -0.9404 -0.1339  0.0409
  683TMC3    C510155   4.612   3.396  11.542 -0.1100  0.2350 -0.0830
  683TMC3    C610156   4.625   3.258  11.532  0.1715  0.0065 -0.1253
  683TMC3     C10157   4.682   3.474  11.879 -0.4613  0.2921 -0.8621
  683TMC3     O10158   4.696   3.595  11.870  0.0090  0.3406 -0.3313
  683TMC3     H10159   0.035   3.209  11.821  0.6681  0.3174 -1.0230
  683TMC3    H110160   4.653   3.570  11.649  2.4319 -0.2428  1.3224
  683TMC3    H210161   4.594   3.206  11.442 -0.2407  0.4528 -0.2463
  683TMC3    C710162   4.618   3.460  11.411 -0.5315 -0.6756 -0.6990
  683TMC3    C810163   0.018   3.068  11.604  0.3977 -0.1961 -0.0059
  683TMC3    O110164   4.631   3.385  11.312 -0.5446  0.3349  0.8500
  683TMC3    O210165   0.028   3.048  11.483 -0.1795  0.2060 -0.4718
  684MPD2     C10166   3.190   2.946  16.520  0.2335  0.5799  0.0015
  684MPD2    C110167   3.145   2.983  16.392 -0.8120  0.8192  0.3542
  684MPD2    C210168   3.171   3.108  16.347  0.2250 -0.1823 -0.0487
  684MPD2    C310169   3.233   3.201  16.430  0.5242 -0.9576 -0.6047
  684MPD2    C410170   3.290   3.158  16.546  0.8486 -0.1989  0.4285
  684MPD2    C510171   3.268   3.030  16.591 -0.4046 -0.1454 -0.6767
  684MPD2     H10172   3.135   3.126  16.247 -0.2847 -0.9856 -0.0151
  684MPD2    H110173   3.355   3.225  16.601 -0.6457 -0.0519  2.0363
  684MPD2    H210174   3.162   2.853  16.568 -2.7282  1.4817  0.0316
  684MPD2    H310175   3.327   2.984  16.670 -1.6231 -1.2266 -0.4021
  684MPD2     N10176   3.260   3.335  16.397  0.2123 -0.2248  0.0922
  684MPD2    H510177   3.301   3.391  16.471 -1.8315 -0.2608  1.2672
  684MPD2    N110178   3.069   2.902  16.307  0.2424 -0.5172 -0.6752
  684MPD2    H710179   3.025   2.950  16.229 -0.4710 -2.1848 -1.3147
  685TMC3    C110180   3.024   2.700  16.202  0.0086  0.3391  0.4685
  685TMC3    C210181   2.966   2.770  16.098 -0.3914  0.0157  0.2773
  685TMC3    C310182   2.992   2.728  15.964  0.2657 -0.0219  0.0343
  685TMC3    C410183   3.091   2.579  16.181 -0.6124  0.3932 -0.1618
  685TMC3    C510184   3.122   2.549  16.053 -0.5126 -0.2083 -0.3809
  685TMC3    C610185   3.069   2.612  15.943  0.0290  0.0639 -0.4487
  685TMC3     C10186   3.054   2.767  16.325  0.2430 -0.1620 -0.2716
  685TMC3     O10187   3.107   2.695  16.405 -0.4644  0.1101 -0.1103
  685TMC3     H10188   2.903   2.853  16.126 -0.7041 -0.1057 -0.0605
  685TMC3    H110189   3.124   2.525  16.269 -0.5576  1.4658  0.4604
  685TMC3    H210190   3.085   2.571  15.844  0.7401 -1.0395  0.1186
  685TMC3    C710191   3.258   2.501  16.051 -0.1503  0.4046  0.2974
  685TMC3    C810192   2.928   2.806  15.858  0.6593 -0.0419  0.6727
  685TMC3    O110193   3.300   2.439  16.145  0.3328 -0.6101 -0.3134
  685TMC3    O210194   2.942   2.772  15.743 -0.5530  0.2517  0.2421
  686MPD2     C10195   4.334   3.249  15.376  0.5697 -0.2222  0.6693
  686MPD2    C110196   4.380   3.161  15.471 -0.7263  0.2995 -0.2810
  686MPD2    C210197   4.474   3.072  15.432  0.4560 -0.0188  0.7190
  686MPD2    C310198   4.495   3.033  15.300  0.1562 -0.2481  0.0011
  686MPD2    C410199   4.437   3.113  15.205  0.5761 -0.0378  0.5095
  686MPD2    C510200   4.362   3.224  15.247  0.7410 -0.3183  0.2496
  686MPD2     H10201   4.523   3.018  15.513  0.1094 -0.7999  0.4128
  686MPD2    H110202   4.434   3.080  15.102  0.1604 -0.3517  0.6192
  686MPD2    H210203   4.270   3.330  15.411  1.8282  1.2641 -0.5024
  686MPD2    H310204   4.320   3.282  15.164  1.0839 -1.0400 -0.4292
  686MPD2     N10205   4.578   2.928  15.252 -0.1312 -0.1768  0.6537
  686MPD2    H510206   4.605   2.934  15.154  2.3152 -2.4955  1.1764
  686MPD2    N110207   4.332   3.171  15.602 -0.0069 -0.8438  0.2309
  686MPD2    H710208   4.274   3.254  15.609  0.7103 -0.3569  0.4498
  687TMC3    C110209   4.550   2.793  15.448 -0.4211  0.1713  0.0851
  687TMC3    C210210   4.421   2.768  15.435  0.5174 -0.3767  0.1364
  687TMC3    C310211   4.360   2.705  15.542 -0.4245  0.4879 -0.6246
  687TMC3    C410212   4.622   2.761  15.555 -0.3715  0.3481 -0.0211
  687TMC3    C510213   4.562   2.712  15.667  0.2234 -0.0999  0.2832
  687TMC3    C610214   4.425   2.678  15.656 -0.0842 -0.3103 -0.3237
  687TMC3     C10215   4.634   2.829  15.333 -0.6118 -0.1102  0.6745
  687TMC3     O10216   0.001   2.769  15.315  0.6820  0.0245  0.5482
  687TMC3     H10217   4.364   2.784  15.344 -0.1327  0.8164  0.7560
  687TMC3    H110218   4.727   2.785  15.566 -0.1243  0.2258 -2.2035
  687TMC3    H210219   4.379   2.630  15.742 -0.9726  0.7715 -0.1949
  687TMC3    C710220   4.637   2.716  15.791  0.1666 -0.2020 -0.0014
  687TMC3    C810221   4.223   2.742  15.573 -0.2504  0.0831 -0.2095
  687TMC3    O110222   0.014   2.696  15.779 -0.1158 -0.1232 -0.1652
  687TMC3    O210223   4.168   2.681  15.668  0.2231  0.5520  0.3029
  688MPD2     C10224   3.437   2.089  17.457  0.1410 -0.3385  0.6483
  688MPD2    C110225   3.453   1.959  17.500 -0.1017 -0.6317  0.3094
  688MPD2    C210226   3.564   1.889  17.465 -0.1143 -0.0092 -0.0020
  688MPD2    C310227   3.657   1.951  17.385  0.0085  0.2128  0.8316
  688MPD2    C410228   3.644   2.081  17.347 -0.6940  0.2273  0.3161
  688MPD2    C510229   3.532   2.149  17.379 -0.1057 -0.4785 -0.1714
  688MPD2     H10230   3.571   1.788  17.505 -0.5991 -0.2015 -0.3985
  688MPD2    H110231   3.716   2.133  17.285  0.3715 -1.0982  0.4348
  688MPD2    H210232   3.346   2.141  17.486  0.5073 -1.5160  3.8848
  688MPD2    H310233   3.515   2.254  17.356 -1.7708 -1.2043 -2.2325
  688MPD2     N10234   3.777   1.894  17.330 -0.5128  0.4774  0.3038
  688MPD2    H510235   3.825   1.957  17.267  0.7794  0.5247  1.3375
  688MPD2    N110236   3.357   1.885  17.577  0.5520  0.4463  0.2323
  688MPD2    H710237   3.388   1.790  17.595  0.3905  1.0105  3.4815
  689TMC3    C110238   3.152   1.850  17.694  0.4252 -0.4702  0.3480
  689TMC3    C210239   3.074   1.917   0.027  0.9327 -0.2193 -0.3739
  689TMC3    C310240   3.035   1.840   0.134  0.2973 -0.4621  0.0892
  689TMC3    C410241   3.161   1.720  17.689  0.1798 -0.1439 -0.1250
  689TMC3    C510242   3.126   1.649   0.043  0.2004 -0.1964  0.2484
  689TMC3    C610243   3.056   1.706   0.146  0.4258 -0.1037 -0.3310
  689TMC3     C10244   3.230   1.937  17.611 -0.0597  0.6553  0.0859
  689TMC3     O10245   3.193   2.053  17.599 -0.2913 -0.0164 -0.2957
  689TMC3     H10246   3.076   2.025   0.027 -0.8047 -0.1775  0.1121
  689TMC3    H110247   3.230   1.666  17.625  3.0445  1.9925  1.1585
  689TMC3    H210248   3.012   1.652   0.229 -2.2299  1.0130 -0.9979
  689TMC3    C710249   3.141   1.505   0.040 -0.3861  0.6853 -0.0273
  689TMC3    C810250   2.983   1.891   0.251 -1.0930 -0.6679 -0.1627
  689TMC3    O110251   3.144   1.438   0.143 -0.3989 -0.0885 -0.5150
  689TMC3    O210252   2.990   1.816   0.350 -0.0293  0.3813 -0.0137
  690MPD2     C10253   1.548   3.718  15.653 -0.8874 -0.2290  1.1310
  690MPD2    C110254   1.451   3.689  15.552  0.1851  0.1830  0.1535
  690MPD2    C210255   1.501   3.689  15.422 -0.1278 -0.2562  1.0241
  690MPD2    C310256   1.635   3.710  15.392 -0.2112 -1.1039  0.5112
  690MPD2    C410257   1.725   3.742  15.491 -0.0494 -0.0565  0.2040
  690MPD2    C510258   1.673   3.761  15.616 -0.4389  0.1760 -0.4353
  690MPD2     H10259   1.429   3.670  15.343  0.2794 -1.0863  0.8572
  690MPD2    H110260   1.826   3.767  15.461 -0.0561 -0.0421  0.1931
  690MPD2    H210261   1.517   3.719  15.757 -2.3973 -2.6039  0.7174
  690MPD2    H310262   1.739   3.791  15.696  2.4726  1.4926 -3.3227
  690MPD2     N10263   1.674   3.690  15.256  0.1987 -0.0921 -0.2290
  690MPD2    H510264   1.597   3.661  15.196 -0.5842  0.9318  0.2651
  690MPD2    N110265   1.321   3.641  15.584 -0.3834 -0.4072  0.2163
  690MPD2    H710266   1.256   3.646  15.506  0.4660  0.2782 -0.4487
  691TMC3    C110267   1.135   3.594  15.726 -0.2104  0.3030  0.4376
  691TMC3    C210268   1.049   3.666  15.646 -0.1392  0.4157  0.2158
  691TMC3    C310269   0.914   3.652  15.672 -0.2084  0.3903  0.7834
  691TMC3    C410270   1.092   3.520  15.832 -0.0668  0.0139 -0.9348
  691TMC3    C510271   0.957   3.504  15.855  0.2071  0.6446 -0.4236
  691TMC3    C610272   0.872   3.572  15.774 -0.4545 -0.1575  0.1897
  691TMC3     C10273   1.278   3.610  15.709 -0.5437  0.3196  0.5907
  691TMC3     O10274   1.341   3.579  15.804 -0.1524 -0.5975  0.3340
  691TMC3     H10275   1.080   3.725  15.560  1.7411 -0.5419  0.2383
  691TMC3    H110276   1.161   3.457  15.887 -1.2606 -0.8141 -0.3954
  691TMC3    H210277   0.765   3.566  15.791 -0.7095  0.9424 -1.0590
  691TMC3    C710278   0.908   3.371  15.893  0.3258  0.4389  0.3230
  691TMC3    C810279   0.821   3.685  15.564 -0.3823  0.0335 -0.1715
  691TMC3    O110280   0.809   3.338  15.833  0.0463 -0.0447 -0.1898
  691TMC3    O210281   0.854   3.668  15.447  0.0848 -0.0629 -0.0039
  692TMC3    C110282   2.628   4.667  16.069 -0.0312 -0.2856 -0.3617
  692TMC3    C210283   2.764   4.698  16.076  0.4638  0.4344  0.7440
  692TMC3    C310284   2.859   4.599  16.098  0.2818 -0.2533 -0.3784
  692TMC3    C410285   2.581   4.550  16.110  0.0812 -0.3571 -0.6665
  692TMC3    C510286   2.673   4.457  16.145  0.5173  0.0710  0.1601
  692TMC3    C610287   2.810   4.477  16.130 -0.2820 -0.3668 -0.0923
  692TMC3     C10288   2.528   0.020  16.029 -0.5337  0.3369  0.1803
  692TMC3     O10289   2.417   4.719  15.997 -0.1551  0.4146 -0.1466
  692TMC3     H10290   2.788   0.056  16.039  1.0244 -0.0109 -0.1002
  692TMC3    H110291   2.476   4.524  16.125  0.5428 -0.3205  2.6804
  692TMC3    H210292   2.879   4.409  16.179 -0.6071  0.4622  1.5375
  692TMC3    C710293   2.615   4.329  16.185 -0.8444 -0.0268 -0.1626
  692TMC3    C810294   2.969   4.640  16.186  0.3820  0.0579  0.9732
  692TMC3    O110295   2.498   4.322  16.217  0.3154 -0.4324 -0.0221
  692TMC3    O210296   3.034   4.551  16.233 -0.3574 -0.5939 -0.0187
  693MPD2     C10297   2.236   2.668  10.040 -0.5108 -0.8690 -0.1460
  693MPD2    C110298   2.186   2.548  10.084 -0.2899  0.2558  0.0723
  693MPD2    C210299   2.242   2.483  10.191 -0.4928 -0.2356  0.0524
  693MPD2    C310300   2.350   2.538  10.252 -0.3203  0.4943  0.0803
  693MPD2    C410301   2.412   2.651  10.199  0.1668  0.4740 -0.1813
  693MPD2    C510302   2.354   2.709  10.091 -0.6762  0.3317 -0.1573
  693MPD2     H10303   2.197   2.388  10.215  0.2679 -0.5833  0.1078
  693MPD2    H110304   2.503   2.696  10.235  0.0978 -1.0334  1.8406
  693MPD2    H210305   2.191   2.724   9.959 -0.1009  1.6497  1.3362
  693MPD2    H310306   2.392   2.798  10.043 -0.0751  0.6288  0.8699
  693MPD2     N10307   2.409   2.489  10.369 -0.1633 -0.0659  0.7043
  693MPD2    H510308   2.492   2.525  10.414  1.2280 -2.2048 -0.1272
  693MPD2    N110309   2.073   2.502  10.016  0.3996 -0.0757  0.5657
  693MPD2    H710310   2.029   2.559   9.944  0.0463 -0.0865  0.7777
  694TMC3    C110311   1.869   2.393   9.984 -0.3114 -0.4037  0.1566
  694TMC3    C210312   1.829   2.272   9.945  0.3781  0.7787  0.0017
  694TMC3    C310313   1.715   2.228  10.007  0.1571  0.0805 -0.6065
  694TMC3    C410314   1.799   2.471  10.078  0.4134 -0.9145 -0.4062
  694TMC3    C510315   1.689   2.414  10.140 -0.5810  0.0546 -0.2499
  694TMC3    C610316   1.646   2.288  10.109  0.1076  0.5254 -0.7597
  694TMC3     C10317   2.005   2.383  10.034  0.0161 -0.2227 -0.1631
  694TMC3     O10318   2.021   2.290  10.113  0.3233 -0.6066  0.2597
  694TMC3     H10319   1.890   2.216   9.875 -3.1301  0.7413 -2.9635
  694TMC3    H110320   1.847   2.564  10.107 -0.0703 -0.8997  0.3447
  694TMC3    H210321   1.564   2.238  10.159 -0.3897  3.0380  0.9022
  694TMC3    C710322   1.670   2.456  10.280  0.1529 -0.4551 -0.4374
  694TMC3    C810323   1.655   2.106   9.958 -1.1333 -0.4573 -0.2650
  694TMC3    O110324   1.748   2.542  10.314  0.1448  0.2450  0.1095
  694TMC3    O210325   1.554   2.067  10.014  0.0102 -0.2027  0.1724
  695MPD2     C10326   3.166   4.361  13.264 -0.3220 -0.2791  0.5032
  695MPD2    C110327   3.162   4.377  13.405  0.3210  0.6947  0.0324
  695MPD2    C210328   3.036   4.413  13.459  0.2826 -0.7246  0.7463
  695MPD2    C310329   2.927   4.424  13.381  0.7435  0.1497 -0.0806
  695MPD2    C410330   2.934   4.386  13.246 -0.8643 -0.4058  0.0374
  695MPD2    C510331   3.052   4.355  13.188 -0.0466 -0.8010  0.2318
  695MPD2     H10332   3.022   4.418  13.566 -0.8071  0.3206  0.5510
  695MPD2    H110333   2.850   4.373  13.179  0.1377 -1.1412 -1.0673
  695MPD2    H210334   3.255   4.341  13.206 -0.1107  1.3570  0.2655
  695MPD2    H310335   3.051   4.354  13.080  3.0707 -0.0040  0.1826
  695MPD2     N10336   2.808   4.487  13.439 -0.1413 -0.1122  0.1820
  695MPD2    H510337   2.819   4.527  13.532  0.4959 -0.3787  0.2192
  695MPD2    N110338   3.272   4.360  13.490 -0.8701 -0.1721  0.0755
  695MPD2    H710339   3.253   4.377  13.588  1.1500  0.8750  0.2937
  696TMC3    C110340   2.588   4.581  13.454  0.8513 -0.1297  0.7497
  696TMC3    C210341   2.589   4.549  13.593 -1.0474 -0.8670 -0.6142
  696TMC3    C310342   2.500   4.620  13.670 -0.0941 -0.0508 -1.1474
  696TMC3    C410343   2.496   4.655  13.391  0.1285 -0.5422 -0.0156
  696TMC3    C510344   2.422   4.730  13.474  0.3987  0.2940  0.4183
  696TMC3    C610345   2.414   4.709  13.606 -0.6098  0.2243  0.3283
  696TMC3     C10346   2.690   4.518  13.376  0.8149 -0.2774 -0.0431
  696TMC3     O10347   2.660   4.511  13.259  0.4828 -0.0011 -0.0202
  696TMC3     H10348   2.660   4.479  13.634 -0.8810 -0.4688 -0.2218
  696TMC3    H110349   2.489   4.670  13.284 -1.8036  5.0877  0.8706
  696TMC3    H210350   2.340   0.024  13.663 -0.0290  2.4449 -1.0926
  696TMC3    C710351   2.365   0.112  13.432  0.5717 -0.3192  0.5239
  696TMC3    C810352   2.542   4.652  13.804 -0.6073  0.1974 -0.3874
  696TMC3    O110353   2.287   0.120  13.338 -0.5997 -0.1919  0.1609
  696TMC3    O210354   2.656   4.625  13.834 -0.0880 -0.1050 -0.3205
  697MPD2     C10355   2.029   1.611  15.830 -0.7802  0.6499 -0.3656
  697MPD2    C110356   2.110   1.593  15.715 -0.0987  0.4988  0.8609
  697MPD2    C210357   2.125   1.692  15.623  0.4084  0.6149 -0.7217
  697MPD2    C310358   2.066   1.814  15.645 -0.2302 -0.1000  0.7373
  697MPD2    C410359   1.967   1.829  15.745 -0.0659 -0.2954  0.4805
  697MPD2    C510360   1.956   1.731  15.843  0.0480 -0.1871  0.3605
  697MPD2     H10361   2.180   1.676  15.531 -0.1561 -0.1631 -0.9297
  697MPD2    H110362   1.926   1.927  15.768  1.6839  0.8943 -1.4328
  697MPD2    H210363   2.015   1.532  15.902 -0.0858 -0.1371 -1.0836
  697MPD2    H310364   1.886   1.750  15.925  0.5408  0.3381  0.6657
  697MPD2     N10365   2.101   1.921  15.560 -0.1687  0.3516  0.6365
  697MPD2    H510366   2.148   1.905  15.471 -0.4220  1.4887  0.2985
  697MPD2    N110367   2.182   1.476  15.687 -0.1828 -0.1637 -0.0047
  697MPD2    H710368   2.243   1.476  15.606  0.7266 -0.1043  0.6881
  698TMC3    C110369   2.108   2.137  15.479 -0.0831 -0.4029  0.9653
  698TMC3    C210370   2.169   2.254  15.518  0.6549 -0.4541  0.3210
  698TMC3    C310371   2.247   2.324  15.432 -0.2352 -0.1005 -0.3562
  698TMC3    C410372   2.129   2.088  15.357  0.0175 -0.6146  0.1986
  698TMC3    C510373   2.196   2.165  15.270  0.6204  0.0377  0.3944
  698TMC3    C610374   2.260   2.285  15.305  0.1154  0.0805  0.1025
  698TMC3     C10375   2.060   2.049  15.583  1.3847  0.1361 -0.3281
  698TMC3     O10376   2.027   2.110  15.683 -0.6328 -0.8743 -0.1871
  698TMC3     H10377   2.175   2.283  15.622 -2.8609 -1.3718  0.8010
  698TMC3    H110378   2.091   1.992  15.323 -1.9851  0.3841 -0.3545
  698TMC3    H210379   2.309   2.351  15.234 -0.0642  0.1616  0.0522
  698TMC3    C710380   2.187   2.131  15.132 -0.5099  0.4011 -0.5248
  698TMC3    C810381   2.327   2.435  15.492 -1.0475  0.0813  0.0874
  698TMC3    O110382   2.086   2.066  15.110  0.3228 -0.5066  0.4943
  698TMC3    O210383   2.318   2.463  15.610  0.0430  0.1143  0.0701
  699TMC3    C110384   2.131   4.594  13.142 -0.5910  0.5336 -0.1952
  699TMC3    C210385   2.161   4.484  13.217  0.1982  0.4062 -0.2732
  699TMC3    C310386   2.109   4.493  13.345  0.5125 -0.2980 -0.7080
  699TMC3    C410387   2.084   4.713  13.190  0.1263 -0.6067  0.4305
  699TMC3    C510388   2.051   4.716  13.324 -0.5410 -0.3379 -0.8407
  699TMC3    C610389   2.060   4.604  13.395 -0.0134  0.0630 -0.1886
  699TMC3     C10390   2.182   4.609  13.009  0.3988  0.7737 -0.2407
  699TMC3     O10391   2.113   4.692  12.953  0.5650 -0.6873 -0.7499
  699TMC3     H10392   2.198   4.389  13.182 -2.2103 -0.4166 -0.5724
  699TMC3    H110393   2.068   0.060  13.129  2.2463 -0.1030  0.6043
  699TMC3    H210394   2.023   4.611  13.497  0.2368  1.4618 -0.1909
  699TMC3    C710395   1.975   0.085  13.388 -0.1188  0.5358  0.4222
  699TMC3    C810396   2.135   4.383  13.438 -0.2292  0.2717  0.7194
  699TMC3    O110397   1.895   0.050  13.475 -0.1430 -0.6813  0.2340
  699TMC3    O210398   2.065   4.394  13.538 -0.4950  0.5818 -0.0875
  700TMC3    C110399   1.514   2.582  17.459 -0.2681 -0.2123  0.7505
  700TMC3    C210400   1.559   2.466  17.407  0.4010 -0.1142 -0.2123
  700TMC3    C310401   1.677   2.419  17.438  0.0483  0.0177 -0.8592
  700TMC3    C410402   1.592   2.650  17.550 -0.2084 -0.0536 -0.6656
  700TMC3    C510403   1.709   2.599  17.594  0.0989 -0.2939  0.2672
  700TMC3    C610404   1.754   2.486  17.528 -0.3835  0.0582  0.7560
  700TMC3     C10405   1.429   2.663  17.371  0.2880  0.5177  0.2528
  700TMC3     O10406   1.309   2.648  17.368 -0.6118  0.4291 -0.2434
  700TMC3     H10407   1.493   2.408  17.344  0.9480 -0.3526 -0.5667
  700TMC3    H110408   1.563   2.749  17.584 -1.6016 -2.0346  3.8141
  700TMC3    H210409   1.854   2.451  17.549 -0.6612 -1.9529 -1.2853
  700TMC3    C710410   1.795   2.682  17.683 -0.6130 -0.1438  0.0097
  700TMC3    C810411   1.716   2.292  17.385 -0.0190 -0.3351 -0.1819
  700TMC3    O110412   1.763   2.799  17.699 -0.6249 -0.2985  0.2337
  700TMC3    O210413   1.649   2.255  17.287 -0.5279 -0.6992  0.2328
  701TMC3    C110414   1.681   0.937  15.617 -0.2672 -0.8354 -0.1636
  701TMC3    C210415   1.653   0.878  15.500 -0.1540 -0.1149 -0.1976
  701TMC3    C310416   1.718   0.939  15.390 -0.5006  0.6602 -0.7077
  701TMC3    C410417   1.764   1.043  15.638  0.4303 -0.3140  0.4548
  701TMC3    C510418   1.820   1.104  15.534 -0.7763  0.3631 -0.1283
  701TMC3    C610419   1.798   1.051  15.405  0.3637  0.2452  0.4835
  701TMC3     C10420   1.611   0.902  15.743  0.0857 -0.2006 -0.4748
  701TMC3     O10421   1.641   0.962  15.845 -0.0130  0.8159  0.4412
  701TMC3     H10422   1.591   0.792  15.480 -1.5596  1.2173 -1.6519
  701TMC3    H110423   1.780   1.085  15.737  0.6582 -2.2002  1.2311
  701TMC3    H210424   1.828   1.104  15.316 -0.4042 -0.4497 -0.1884
  701TMC3    C710425   1.811   1.249  15.543  0.3469  0.0492 -0.0542
  701TMC3    C810426   1.733   0.859  15.266 -0.2565 -0.3814  0.9551
  701TMC3    O110427   1.767   1.297  15.650  0.3212  0.6375  0.5768
  701TMC3    O210428   1.823   0.895  15.192  0.3487  0.5164 -0.7141
  702MPD2     C10429   1.197   2.985  10.451 -0.4257 -0.5287 -0.5391
  702MPD2    C110430   1.164   3.091  10.529 -0.3241  0.3626  0.1500
  702MPD2    C210431   1.184   3.218  10.465 -0.5771 -0.1546  0.3137
  702MPD2    C310432   1.233   3.241  10.338  0.3873 -0.7154  0.4127
  702MPD2    C410433   1.274   3.130  10.265 -0.4089  1.0705 -0.1066
  702MPD2    C510434   1.260   3.006  10.330  0.5774  0.0355 -0.7590
  702MPD2     H10435   1.157   3.306  10.522 -1.3498 -0.9463  1.1647
  702MPD2    H110436   1.311   3.128  10.162  0.2028  2.1718  0.0897
  702MPD2    H210437   1.181   2.881  10.480 -1.2287 -0.4123 -0.5589
  702MPD2    H310438   1.287   2.919  10.271  1.7073  0.2072 -0.5012
  702MPD2     N10439   1.238   3.370  10.289  0.4148 -0.2251 -0.1215
  702MPD2    H510440   1.203   3.434  10.359  3.6771 -0.0064  1.3175
  702MPD2    N110441   1.099   3.085  10.656  0.3212 -0.2702 -0.1108
  702MPD2    H710442   1.090   3.174  10.704 -0.4846 -0.8344  0.7929
  703TMC3    C110443   1.338   3.548  10.174  0.0800 -1.3557 -0.5800
  703TMC3    C210444   1.236   3.626  10.229 -0.1474 -0.8115 -0.0801
  703TMC3    C310445   1.264   3.756  10.270 -0.6619 -0.9168 -0.4583
  703TMC3    C410446   1.467   3.589  10.165  0.1550  1.2610  0.2053
  703TMC3    C510447   1.489   3.711  10.210 -0.9428  0.3921 -0.7850
  703TMC3    C610448   1.398   3.801  10.262 -0.8241  0.3195  0.2538
  703TMC3     C10449   1.318   3.407  10.178 -0.6761 -1.3712 -0.1519
  703TMC3     O10450   1.386   3.338  10.104  0.4527 -0.0583  0.3343
  703TMC3     H10451   1.138   3.579  10.227  0.3102 -1.8304  1.4303
  703TMC3    H110452   1.545   3.531  10.116 -0.7459 -0.5971  0.9737
  703TMC3    H210453   1.427   3.894  10.308  1.5123 -0.0340 -0.5402
  703TMC3    C710454   1.628   3.759  10.193 -0.3429  0.0695  0.5793
  703TMC3    C810455   1.168   3.844  10.339 -0.1622  0.1103 -0.3594
  703TMC3    O110456   1.678   3.727  10.086 -0.0655  0.1120 -0.4452
  703TMC3    O210457   1.202   3.962  10.340  0.0993 -0.9068  0.0130
  704TMC3    C110458   3.125   1.770  12.038  0.3875  0.1390  0.4993
  704TMC3    C210459   3.207   1.751  11.928 -1.2228  0.0196 -0.7740
  704TMC3    C310460   3.316   1.675  11.957 -0.5313 -0.2295 -0.0984
  704TMC3    C410461   3.138   1.721  12.160 -0.0157 -0.2026 -0.2007
  704TMC3    C510462   3.243   1.639  12.182  0.4990 -0.7017  0.2383
  704TMC3    C610463   3.332   1.617  12.086 -0.1431  0.4793 -0.6154
  704TMC3     C10464   3.010   1.861  12.028  0.1251 -0.4339  0.3227
  704TMC3     O10465   2.937   1.878  12.124 -0.3640 -0.1705 -0.3102
  704TMC3     H10466   3.192   1.795  11.830 -0.8551 -2.0822 -1.7853
  704TMC3    H110467   3.070   1.751  12.239  0.8305 -1.4767  1.0120
  704TMC3    H210468   3.422   1.561  12.106 -0.6656 -1.3702 -3.4548
  704TMC3    C710469   3.231   1.529  12.277 -0.0431  0.1802 -0.2131
  704TMC3    C810470   3.400   1.626  11.849 -0.2299 -0.4866  0.1502
  704TMC3    O110471   3.321   1.444  12.271 -0.0013 -0.0163  0.1673
  704TMC3    O210472   3.476   1.534  11.889  0.3764  0.0162  0.0888
  705MPD2     C10473   3.114   4.105  16.435 -0.3660 -0.0355 -0.6573
  705MPD2    C110474   3.077   4.235  16.395  0.1082 -0.2757  0.2684
  705MPD2    C210475   2.955   4.289  16.421  0.2681  0.2134  0.1379
  705MPD2    C310476   2.869   4.216  16.500 -0.3174  0.1208 -0.3588
  705MPD2    C410477   2.892   4.081  16.535 -0.2692 -0.1124  0.5503
  705MPD2    C510478   3.020   4.033  16.505  0.1614  0.4703  0.3187
  705MPD2     H10479   2.933   4.392  16.395  0.8683  0.5928  1.0834
  705MPD2    H110480   2.826   4.016  16.591 -0.2488 -0.7690 -0.1845
  705MPD2    H210481   3.205   4.052  16.412 -0.4506 -1.2946  1.8878
  705MPD2    H310482   3.043   3.930  16.528  1.4287  0.9561  1.2241
  705MPD2     N10483   2.743   4.261  16.557 -0.6788  0.2311 -0.2220
  705MPD2    H510484   2.690   4.192  16.610  1.4924 -1.1486  0.1817
  705MPD2    N110485   3.162   4.314  16.314 -0.5731 -0.1452 -0.0498
  705MPD2    H710486   3.130   4.408  16.292  3.8398  1.3337 -0.1186
  706TMC3    C110487   3.488   4.411  16.010  0.0036 -0.1188  1.0467
  706TMC3    C210488   3.457   4.545  16.021  0.0081  0.1817  0.5168
  706TMC3    C310489   3.383   4.588  16.127 -0.0468  0.7626  0.0707
  706TMC3    C410490   3.450   4.323  16.107  1.0024 -0.5163  0.3280
  706TMC3    C510491   3.370   4.371  16.204  0.1443  0.1163 -0.0352
  706TMC3    C610492   3.341   4.502  16.222 -0.4258 -0.2454 -0.0881
  706TMC3     C10493   3.535   4.367  15.882  0.4240 -0.3690  0.7830
  706TMC3     O10494   3.620   4.436  15.825 -0.5704 -0.5475 -0.0945
  706TMC3     H10495   3.490   4.622  15.953  1.3552 -1.4314 -0.6360
  706TMC3    H110496   3.483   4.219  16.104  1.4528 -0.3255 -1.0198
  706TMC3    H210497   3.277   4.533  16.304 -1.1500 -2.0904  0.0385
  706TMC3    C710498   3.288   4.271  16.267 -0.1054  0.6240 -0.4617
  706TMC3    C810499   3.342   4.726  16.135  0.3247  0.2667 -0.1313
  706TMC3    O110500   3.339   4.159  16.268  0.2977  0.1318  0.6583
  706TMC3    O210501   3.343   0.053  16.032  0.3045 -0.2607  0.6571
  707TMC3    C110502   4.211   3.598   1.253  0.5773  0.0282  1.0645
  707TMC3    C210503   4.255   3.613   1.381 -0.2433  0.1981  0.1679
  707TMC3    C310504   4.360   3.530   1.410  0.1042  0.2381  0.1133
  707TMC3    C410505   4.259   3.505   1.169  0.9360 -0.2427 -1.0058
  707TMC3    C510506   4.350   3.413   1.211 -0.7495 -0.2648  0.7626
  707TMC3    C610507   4.404   3.427   1.333  0.4005  0.2971 -0.1582
  707TMC3     C10508   4.102   3.682   1.199 -0.5264  0.2461 -0.7904
  707TMC3     O10509   4.018   3.617   1.136 -0.0189 -0.8450  0.0372
  707TMC3     H10510   4.210   3.678   1.455  1.9974  1.3176  0.5462
  707TMC3    H110511   4.210   3.495   1.072 -0.5906  0.2178 -0.2850
  707TMC3    H210512   4.470   3.351   1.372  0.7443 -0.6149 -2.4885
  707TMC3    C710513   4.397   3.307   1.124  0.0106  0.2347 -0.5347
  707TMC3    C810514   4.457   3.578   1.509  0.1115 -0.4576  0.2191
  707TMC3    O110515   4.471   3.219   1.165 -0.2098  0.0767 -0.1205
  707TMC3    O210516   4.420   3.631   1.611  0.2401  0.1727 -0.0443
  708MPD2     C10517   1.096   2.354  14.029  0.2466 -0.1042 -0.2027
  708MPD2    C110518   1.079   2.443  14.135  0.7249 -0.1827 -0.2263
  708MPD2    C210519   1.152   2.424  14.247  0.1333 -0.1106  0.4899
  708MPD2    C310520   1.222   2.309  14.266 -0.1826  0.0766  0.4651
  708MPD2    C410521   1.225   2.212  14.168 -0.6393  0.2984  0.0206
  708MPD2    C510522   1.175   2.240  14.050  0.3464 -0.5435  0.4529
  708MPD2     H10523   1.157   2.495  14.329  1.7670  2.1896 -1.5872
  708MPD2    H110524   1.277   2.116  14.167 -2.0109 -0.4466  0.8595
  708MPD2    H210525   1.035   2.374  13.941  2.1610  0.3588 -1.4068
  708MPD2    H310526   1.185   2.164  13.974 -2.5134 -1.7193  1.2887
  708MPD2     N10527   1.290   2.273  14.387 -0.3020 -0.8847 -0.6685
  708MPD2    H510528   1.335   2.183  14.385 -1.2089 -1.3103 -2.0526
  708MPD2    N110529   1.017   2.567  14.087  0.1009 -0.1969  0.2558
  708MPD2    H710530   0.994   2.579  13.989 -1.6299 -1.0363  0.5505
  709TMC3    C110531   0.976   2.813  14.117  1.0082 -0.6445 -0.5630
  709TMC3    C210532   1.020   2.846  13.994 -0.3129 -0.1212 -0.3638
  709TMC3    C310533   1.060   2.974  13.970  0.0633  0.3777 -0.1496
  709TMC3    C410534   0.971   2.908  14.216 -0.3001  0.3593 -0.4557
  709TMC3    C510535   1.019   3.030  14.191 -0.4441 -0.5372 -0.4293
  709TMC3    C610536   1.079   3.072  14.070 -0.3073  0.0548 -0.4624
  709TMC3     C10537   0.999   2.677  14.176  0.7409  0.1059 -0.6542
  709TMC3     O10538   1.017   2.682  14.295  0.0178  0.4169 -0.4101
  709TMC3     H10539   1.004   2.769  13.920  1.0837 -1.4744  0.7608
  709TMC3    H110540   0.920   2.884  14.308  0.1933 -0.5483 -0.4116
  709TMC3    H210541   1.116   3.173  14.054 -2.1990  0.9594  0.9189
  709TMC3    C710542   1.094   3.065  14.311 -0.7868  0.2225  0.0845
  709TMC3    C810543   1.097   3.000  13.837  0.3748  0.2015 -0.0933
  709TMC3    O110544   1.074   3.174  14.357  0.4956  0.0639 -0.6707
  709TMC3    O210545   1.087   2.907  13.759  0.6950 -0.3595 -0.6588
  710TMC3    C110546   2.989   4.090  17.727 -0.1142  0.3744 -0.0919
  710TMC3    C210547   3.052   4.048  17.614 -0.6171 -0.0656 -0.5822
  710TMC3    C310548   3.176   4.001  17.629  0.1594  0.2514 -0.2467
  710TMC3    C410549   3.046   4.084   0.092 -0.4834  0.5584 -0.1828
  710TMC3    C510550   3.171   4.022   0.099 -0.3236 -0.3727 -0.5463
  710TMC3    C610551   3.240   3.981  17.749  0.6268 -0.3931 -0.6045
  710TMC3     C10552   2.876   4.173  17.713  0.1377  0.4030 -0.3888
  710TMC3     O10553   2.830   4.182  17.602 -0.6933 -0.0539  0.0581
  710TMC3     H10554   3.007   4.062  17.516  0.5145 -0.7409 -1.1873
  710TMC3    H110555   3.003   4.119   0.185 -2.3082  1.0010 -1.1876
  710TMC3    H210556   3.314   3.903  17.759 -0.2024 -1.0229  0.6755
  710TMC3    C710557   3.231   4.011   0.232  0.7509 -0.4542  0.3411
  710TMC3    C810558   3.243   3.963  17.512  0.3936  0.1337 -0.9283
  710TMC3    O110559   3.164   4.048   0.327  0.6520 -0.1751  0.0980
  710TMC3    O210560   3.181   3.943  17.412  0.4129  0.5715  1.2582
  711TMC3    C110561   2.219   0.612  14.956 -0.0663  0.2685  0.0624
  711TMC3    C210562   2.230   0.664  15.084  0.2429  0.2261 -1.3987
  711TMC3    C310563   2.355   0.678  15.137 -0.8661  0.2734 -0.7273
  711TMC3    C410564   2.332   0.568  14.890  0.5525  0.5358  0.6290
  711TMC3    C510565   2.454   0.579  14.956  0.5387 -0.3489 -0.5358
  711TMC3    C610566   2.468   0.637  15.080 -0.8594 -0.3791 -0.3920
  711TMC3     C10567   2.109   0.518  14.926  0.8622  1.1750  0.2280
  711TMC3     O10568   2.106   0.485  14.808 -0.1524 -0.2116  0.1798
  711TMC3     H10569   2.142   0.697  15.139  1.8198 -0.0921  1.3229
  711TMC3    H110570   2.324   0.512  14.798  0.1124  1.7809 -0.0811
  711TMC3    H210571   2.563   0.628  15.131 -0.7192  1.3641 -0.3504
  711TMC3    C710572   2.559   0.482  14.918  0.1170 -0.6127  0.4818
  711TMC3    C810573   2.357   0.697  15.290 -0.0818 -0.4308  0.6901
  711TMC3    O110574   2.668   0.497  14.972 -0.0253 -0.2955  0.2244
  711TMC3    O210575   2.250   0.720  15.332 -0.0989  0.0057  0.0440
  712MPD2     C10576   3.507   1.472  13.324 -1.0873 -0.2776 -0.1205
  712MPD2    C110577   3.411   1.550  13.385  0.1919 -0.4423 -0.3005
  712MPD2    C210578   3.455   1.643  13.479 -0.3898  0.3127  0.4264
  712MPD2    C310579   3.590   1.673  13.494  0.0256  0.2680  0.4151
  712MPD2    C410580   3.682   1.594  13.424 -0.4440 -0.0681 -0.1400
  712MPD2    C510581   3.637   1.494  13.350 -0.1160  0.1590 -0.3587
  712MPD2     H10582   3.378   1.694  13.536  0.2232 -1.0389  2.4761
  712MPD2    H110583   3.786   1.621  13.419 -0.4272 -0.2318 -0.6168
  712MPD2    H210584   3.472   1.391  13.260  0.8870 -0.6987 -0.6706
  712MPD2    H310585   3.708   1.442  13.287 -1.0586 -1.0403 -0.4427
  712MPD2     N10586   3.637   1.780  13.578 -0.2043  0.3759  0.2620
  712MPD2    H510587   3.737   1.782  13.594 -0.3353 -0.8398  1.2490
  712MPD2    N110588   3.274   1.533  13.373 -0.2619 -0.4229  0.1738
  712MPD2    H710589   3.211   1.587  13.432 -2.3722 -0.4446 -2.0672
  713TMC3    C110590   3.630   1.972  13.702 -0.2040 -0.3337  0.4775
  713TMC3    C210591   3.748   1.926  13.765 -0.3363  0.3316  0.6619
  713TMC3    C310592   3.786   1.987  13.877 -0.1843 -0.3318 -0.0913
  713TMC3    C410593   3.559   2.084  13.749  0.5564  0.9727  0.8444
  713TMC3    C510594   3.606   2.134  13.866  0.5630  0.2046  0.4483
  713TMC3    C610595   3.712   2.082  13.940  0.0145 -0.3663  1.0900
  713TMC3     C10596   3.559   1.885  13.623  0.1306 -0.4355 -0.0342
  713TMC3     O10597   3.442   1.897  13.606 -0.5180 -0.4572  0.2463
  713TMC3     H10598   3.812   1.845  13.731  0.5919  0.9418  0.9550
  713TMC3    H110599   3.479   2.139  13.701  0.5405 -0.2843 -0.5613
  713TMC3    H210600   3.743   2.136  14.029  3.2833  0.2085 -0.3897
  713TMC3    C710601   3.565   2.266  13.915  0.3412  0.5119 -0.1574
  713TMC3    C810602   3.934   1.997  13.900  0.3732  0.2162 -0.0714
  713TMC3    O110603   3.640   2.328  13.987 -0.5627  0.1097  0.8241
  713TMC3    O210604   3.996   1.986  13.795  0.7327 -0.1122  0.4127
  714MPD2     C10605   1.826   0.575   1.458 -0.4960 -0.4567  0.7635
  714MPD2    C110606   1.802   0.508   1.340 -0.2971 -0.7305  0.6944
  714MPD2    C210607   1.673   0.509   1.288 -0.0678 -0.1127 -0.3428
  714MPD2    C310608   1.578   0.584   1.351 -0.0062  0.0551 -0.0549
  714MPD2    C410609   1.604   0.647   1.469  0.0846 -0.2364  0.1060
  714MPD2    C510610   1.730   0.652   1.521  0.4414  0.2363  0.2429
  714MPD2     H10611   1.641   0.446   1.205 -2.1150  1.1629 -0.5053
  714MPD2    H110612   1.529   0.703   1.524  0.0283  0.2547 -0.4578
  714MPD2    H210613   1.921   0.581   1.509  0.3185  1.5416 -1.0131
  714MPD2    H310614   1.749   0.716   1.606 -0.4118 -2.2904  2.3185
  714MPD2     N10615   1.451   0.598   1.289  0.5029 -0.0837 -0.0145
  714MPD2    H510616   1.434   0.536   1.210 -1.2340  0.3090  0.0426
  714MPD2    N110617   1.911   0.432   1.288  0.0970  0.1171  0.0597
  714MPD2    H710618   1.990   0.419   1.351 -0.4496  0.6828  0.8591
  715TMC3    C110619   2.048   0.306   1.145 -0.1234  0.4855  0.4446
  715TMC3    C210620   2.055   0.204   1.055 -0.1121 -0.6695  0.4107
  715TMC3    C310621   2.169   0.135   1.042 -0.1105 -0.8390  0.3919
  715TMC3    C410622   2.156   0.337   1.229  0.3089 -0.8376  0.2400
  715TMC3    C510623   2.268   0.262   1.201  0.8892 -0.7880 -0.0967
  715TMC3    C610624   2.283   0.168   1.108  0.3580 -0.6677  0.0013
  715TMC3     C10625   1.918   0.379   1.163 -0.1220 -0.0814 -0.2594
  715TMC3     O10626   1.829   0.374   1.083  0.0557 -0.7840 -0.0508
  715TMC3     H10627   1.965   0.192   0.996 -1.3105  3.0998  1.4797
  715TMC3    H110628   2.168   0.427   1.287 -1.9654  0.3847 -1.1888
  715TMC3    H210629   2.371   0.106   1.101  1.7682  1.4092 -0.6282
  715TMC3    C710630   2.377   0.278   1.297  0.0620  0.9131  0.2365
  715TMC3    C810631   2.172   0.012   0.957 -0.0277 -0.4495 -0.1239
  715TMC3    O110632   2.489   0.265   1.250  0.0418  0.3519  0.4833
  715TMC3    O210633   2.063   4.727   0.907 -0.1428 -0.1214 -0.3895
  716MPD2     C10634   0.997   3.400   9.875 -0.0380  0.3080 -0.5709
  716MPD2    C110635   0.904   3.329   9.803  0.1472 -0.5385 -0.6799
  716MPD2    C210636   0.931   3.199   9.766  0.3615 -0.3897  0.2295
  716MPD2    C310637   1.050   3.138   9.803  0.0027  0.3049 -0.3492
  716MPD2    C410638   1.144   3.213   9.870 -0.1473  0.5581  0.6196
  716MPD2    C510639   1.121   3.344   9.894 -0.2649 -0.3812 -0.2043
  716MPD2     H10640   0.849   3.145   9.721  0.4560  0.5842 -1.1314
  716MPD2    H110641   1.241   3.174   9.898 -1.0351  0.3965  3.4235
  716MPD2    H210642   0.983   3.505   9.900 -1.3194  0.2620 -1.0658
  716MPD2    H310643   1.190   3.400   9.956 -0.1299 -1.5014  0.6411
  716MPD2     N10644   1.070   3.007   9.762  0.4456  0.2392  0.0374
  716MPD2    H510645   0.984   2.961   9.735 -0.0810  0.7759  0.8335
  716MPD2    N110646   0.792   3.401   9.764 -0.4353 -0.0094 -0.7173
  716MPD2    H710647   0.801   3.501   9.777 -0.1641 -0.1657  0.3274
  717TMC3    C110648   1.174   2.789   9.746 -0.5054 -0.0461 -0.0350
  717TMC3    C210649   1.054   2.726   9.747  0.1400 -0.7223 -0.3218
  717TMC3    C310650   1.051   2.600   9.700  0.5100  0.2940  0.0156
  717TMC3    C410651   1.298   2.733   9.703  0.7975 -0.2533  0.7365
  717TMC3    C510652   1.281   2.611   9.649 -0.5158  0.6893  0.4409
  717TMC3    C610653   1.164   2.538   9.653  0.1506  0.4231  0.3103
  717TMC3     C10654   1.184   2.937   9.779 -0.2372  0.6781 -0.4292
  717TMC3     O10655   1.297   2.974   9.817  0.3660  0.0970  0.2733
  717TMC3     H10656   0.964   2.764   9.795  0.9293  0.7888 -0.0500
  717TMC3    H110657   1.393   2.784   9.714  0.9399  0.1019 -2.1244
  717TMC3    H210658   1.158   2.436   9.617 -1.0397  0.5145  0.2361
  717TMC3    C710659   1.405   2.536   9.611  0.2562 -0.2965  0.4574
  717TMC3    C810660   0.917   2.543   9.676 -0.2499 -0.8353  0.2956
  717TMC3    O110661   1.400   2.437   9.539  0.8341 -0.0758 -0.1351
  717TMC3    O210662   0.821   2.615   9.703 -0.5209  0.2727 -0.4404
  718MPD2     C10663   0.455   1.934  12.518  0.2097  0.4990  0.0251
  718MPD2    C110664   0.340   1.911  12.458 -0.1500  0.5050 -0.2633
  718MPD2    C210665   0.236   1.865  12.534  0.0998  0.1629  0.1415
  718MPD2    C310666   0.238   1.866  12.667  0.5056  0.5003  0.0281
  718MPD2    C410667   0.354   1.916  12.733 -0.8283 -0.4845  0.2322
  718MPD2    C510668   0.468   1.939  12.654 -0.5140 -0.4244  0.1059
  718MPD2     H10669   0.141   1.834  12.493  0.5398 -2.1898  0.8991
  718MPD2    H110670   0.358   1.908  12.841 -0.1388 -1.3927  0.1486
  718MPD2    H210671   0.542   1.966  12.461  0.9991 -0.0331  0.9415
  718MPD2    H310672   0.562   1.971  12.697  0.0030  0.8366 -1.9681
  718MPD2     N10673   0.129   1.812  12.733 -0.2022 -0.0053  0.1075
  718MPD2    H510674   0.061   1.769  12.671  0.5254 -2.1709  0.8344
  718MPD2    N110675   0.325   1.891  12.325 -0.7943  0.3149 -0.3455
  718MPD2    H710676   0.410   1.873  12.272  0.2670  1.5706  0.9137
  719TMC3    C110677   0.204   1.796  12.135  0.0924 -0.2677  0.0803
  719TMC3    C210678   0.115   1.694  12.155  0.0574 -0.0432 -0.0015
  719TMC3    C310679   0.150   1.566  12.111 -0.0501  0.1691 -0.1630
  719TMC3    C410680   0.318   1.777  12.064  0.3378  0.1107  0.4246
  719TMC3    C510681   0.363   1.647  12.035 -0.2860  0.4681  1.2082
  719TMC3    C610682   0.284   1.534  12.058  0.3575 -0.0886  0.1280
  719TMC3     C10683   0.204   1.891  12.248  0.2897  0.1592 -0.2185
  719TMC3     O10684   0.101   1.955  12.273 -0.1677 -0.5157  0.0861
  719TMC3     H10685   0.031   1.713  12.220 -1.1902  1.5937 -2.0837
  719TMC3    H110686   0.389   1.858  12.050  0.0050  0.2739 -0.3108
  719TMC3    H210687   0.317   1.432  12.044  1.0271  0.4301 -2.0132
  719TMC3    C710688   0.494   1.627  11.971  0.5628  0.2476 -0.3144
  719TMC3    C810689   0.095   1.465  12.197  0.4492  0.8557 -0.1304
  719TMC3    O110690   0.546   1.726  11.919 -0.3217 -0.1479 -0.8019
  719TMC3    O210691   0.173   1.399  12.263 -0.4003 -0.5211 -0.1342
  720MPD2     C10692   3.319   3.761  14.064  0.0644  0.2955 -0.6771
  720MPD2    C110693   3.379   3.659  13.992  0.2384 -0.2345  0.3625
  720MPD2    C210694   3.513   3.634  14.022 -0.3301 -0.0895 -0.2523
  720MPD2    C310695   3.578   3.691  14.133  0.2825  0.3754 -0.3467
  720MPD2    C410696   3.518   3.785  14.206  0.0022  0.2204 -0.5606
  720MPD2    C510697   3.384   3.809  14.172  0.2154 -0.5410  0.2409
  720MPD2     H10698   3.569   3.568  13.957 -0.5604 -1.5565  1.0239
  720MPD2    H110699   3.561   3.838  14.290  1.8583  0.2067 -1.5176
  720MPD2    H210700   3.221   3.806  14.050  0.6175  1.7582  0.2132
  720MPD2    H310701   3.335   3.883  14.235  2.1425  2.0171 -1.2703
  720MPD2     N10702   3.719   3.650  14.152  0.5534 -0.0850 -0.8945
  720MPD2    H510703   3.756   3.581  14.088 -2.6323 -0.9608 -1.8161
  720MPD2    N110704   3.319   3.594  13.877 -0.1010  0.0802  0.2708
  720MPD2    H710705   3.361   3.509  13.842 -1.5990 -0.0663 -1.2227
  721TMC3    C110706   3.942   3.655  14.236 -0.3169 -0.1224  0.7104
  721TMC3    C210707   4.018   3.657  14.349  0.5472  0.5135 -0.2356
  721TMC3    C310708   4.130   3.575  14.355  0.1075 -0.0215 -0.4721
  721TMC3    C410709   3.976   3.582  14.123  0.1989  0.3322  0.2165
  721TMC3    C510710   4.083   3.499  14.133  0.7381  0.7007 -0.3286
  721TMC3    C610711   4.163   3.496  14.247  0.0221 -0.4922 -0.2904
  721TMC3     C10712   3.808   3.717  14.233  0.0851 -0.6916  0.2944
  721TMC3     O10713   3.791   3.798  14.324  0.4141 -0.3375 -0.1853
  721TMC3     H10714   3.988   3.722  14.430 -0.2183  0.2089 -0.2733
  721TMC3    H110715   3.929   3.593  14.026  1.2770 -0.1004 -0.3638
  721TMC3    H210716   4.245   3.426  14.254 -1.1975 -1.8705  0.3419
  721TMC3    C710717   4.150   3.444  14.018  0.5469 -0.4828  0.0294
  721TMC3    C810718   4.221   3.573  14.469  1.1388  0.0395  0.1811
  721TMC3    O110719   4.262   3.401  14.037  0.2214 -0.5324  0.0163
  721TMC3    O210720   4.334   3.533  14.451 -0.1007  0.6155  0.6448
  722MPD2     C10721   2.494   2.219  13.533  0.2722 -0.0890  0.5082
  722MPD2    C110722   2.470   2.340  13.470  0.0004 -0.4697  0.3566
  722MPD2    C210723   2.379   2.346  13.366 -1.2980 -0.1066  0.1728
  722MPD2    C310724   2.304   2.241  13.330  0.3623 -1.0977  0.2038
  722MPD2    C410725   2.318   2.122  13.401  0.4211 -0.1909 -0.2956
  722MPD2    C510726   2.407   2.114  13.503  0.1735 -0.0092  0.8019
  722MPD2     H10727   2.368   2.442  13.317 -2.0567 -0.6517 -0.7391
  722MPD2    H110728   2.254   2.035  13.389 -0.7241  0.6954 -0.6112
  722MPD2    H210729   2.561   2.203  13.617 -0.8055  0.8856  1.5381
  722MPD2    H310730   2.416   2.021  13.557  0.3493 -0.9117 -0.7626
  722MPD2     N10731   2.214   2.257  13.221 -0.5485  0.5816  0.4119
  722MPD2    H510732   2.193   2.348  13.181  0.3649  0.5106 -0.2313
  722MPD2    N110733   2.539   2.456  13.493 -0.2739 -0.4073 -0.5509
  722MPD2    H710734   2.499   2.548  13.477 -0.0052 -0.1196  0.4227
  723TMC3    C110735   2.061   2.208  13.052  0.0147 -0.0187 -0.4239
  723TMC3    C210736   1.995   2.117  12.976  0.0116  0.2135  0.5402
  723TMC3    C310737   1.916   2.162  12.873 -0.0993  0.6008  0.8651
  723TMC3    C410738   2.052   2.339  13.030 -0.1567  0.1455 -0.3936
  723TMC3    C510739   1.973   2.379  12.926 -0.2942 -0.2661  0.7269
  723TMC3    C610740   1.901   2.298  12.850  0.4357 -0.1587  0.6962
  723TMC3     C10741   2.140   2.158  13.161  0.1944  0.5572 -0.2085
  723TMC3     O10742   2.148   2.040  13.186  0.6092  0.2616 -0.2371
  723TMC3     H10743   1.991   2.012  13.004  1.1789  0.3864  1.3468
  723TMC3    H110744   2.114   2.413  13.080 -1.3699  0.7612  0.1939
  723TMC3    H210745   1.833   2.331  12.774  0.4920 -1.9893 -0.1456
  723TMC3    C710746   1.987   2.519  12.885  0.0862  0.5778 -0.0819
  723TMC3    C810747   1.836   2.071  12.796 -0.4894 -0.2169  0.4100
  723TMC3    O110748   2.037   2.598  12.959 -0.1152 -0.5500  0.3468
  723TMC3    O210749   1.741   2.113  12.731  0.0979  0.2662 -0.5295
  724TMC3    C110750   3.195   4.411  10.321  0.3075  0.4549  1.0591
  724TMC3    C210751   3.169   4.507  10.417  0.3851 -0.4150  0.5043
  724TMC3    C310752   3.201   4.637  10.383 -0.3264  0.1548  0.1230
  724TMC3    C410753   3.280   4.435  10.216 -0.3751  0.3560 -0.2202
  724TMC3    C510754   3.323   4.561  10.202  0.0365 -0.3043  0.0291
  724TMC3    C610755   3.282   4.669  10.276 -0.0028 -0.4394  0.6794
  724TMC3     C10756   3.159   4.277  10.348 -0.2417  0.5662  0.0059
  724TMC3     O10757   3.180   4.200  10.255  0.0904  0.1032 -0.1008
  724TMC3     H10758   3.077   4.497  10.474  0.7843  2.0861  1.5899
  724TMC3    H110759   3.308   4.363  10.140  0.3294 -0.1976  0.5647
  724TMC3    H210760   3.325   0.026  10.259 -0.0339 -0.2950  1.4208
  724TMC3    C710761   3.444   4.579  10.122 -0.5556 -0.7192  0.1479
  724TMC3    C810762   3.119   4.735  10.461  0.7967  0.7672  0.1700
  724TMC3    O110763   3.467   4.680  10.061 -0.1066 -0.2034 -0.1804
  724TMC3    O210764   3.039   4.702  10.544  0.6941  0.5521 -0.3134
  725TMC3    C110765   4.366   3.534  12.863  0.2405  0.6912 -0.1136
  725TMC3    C210766   4.333   3.569  12.733 -0.5339 -0.2927  0.1741
  725TMC3    C310767   4.306   3.469  12.644  0.8363  0.2626  0.0510
  725TMC3    C410768   4.377   3.409  12.901  0.3478 -0.4515  0.2611
  725TMC3    C510769   4.355   3.308  12.811  0.1156 -0.2038  0.1386
  725TMC3    C610770   4.321   3.337  12.680 -0.1704  0.0254  0.9675
  725TMC3     C10771   4.426   3.641  12.946 -0.6164  0.3371 -0.6874
  725TMC3     O10772   4.465   3.741  12.889 -0.2708 -0.3216  0.0016
  725TMC3     H10773   4.333   3.674  12.708 -1.1459 -0.3232  0.0585
  725TMC3    H110774   4.429   3.381  12.992  0.4195  0.3257  0.4554
  725TMC3    H210775   4.307   3.252  12.615 -0.0269  1.2467 -0.6591
  725TMC3    C710776   4.329   3.175  12.857  0.1313 -0.8783 -0.3572
  725TMC3    C810777   4.247   3.490  12.507 -0.0145 -0.6300 -0.1207
  725TMC3    O110778   4.310   3.089  12.778  0.5313  0.6420 -0.1977
  725TMC3    O210779   4.172   3.402  12.475  0.8235  0.6099  0.0048
  726MPD2     C10780   1.599   0.623  10.194  0.2202  0.4547  0.3261
  726MPD2    C110781   1.719   0.690  10.231 -0.3259  0.3701  0.3353
  726MPD2    C210782   1.773   0.655  10.348 -0.1457 -0.1957 -0.2569
  726MPD2    C310783   1.706   0.569  10.432 -0.1005 -0.5508  0.0400
  726MPD2    C410784   1.595   0.504  10.396 -0.0778 -0.1072  0.5878
  726MPD2    C510785   1.544   0.529  10.274 -0.4730  0.2105 -0.1060
  726MPD2     H10786   1.870   0.697  10.373 -0.6729 -0.1955  1.7630
  726MPD2    H110787   1.536   0.439  10.459  0.0483  1.3608  2.1965
  726MPD2    H210788   1.554   0.629  10.095  1.2435  0.5936 -0.1406
  726MPD2    H310789   1.453   0.482  10.237  0.1931  0.1486 -1.6739
  726MPD2     N10790   1.762   0.528  10.561 -0.0182  0.2434  0.2802
  726MPD2    H510791   1.713   0.449  10.603  1.3142 -0.4958  0.4287
  726MPD2    N110792   1.777   0.798  10.155  0.3738  0.0432 -0.2288
  726MPD2    H710793   1.864   0.834  10.193 -0.0275 -0.6778  1.3800
  727TMC3    C110794   1.823   0.945   9.972 -1.1416  0.6726  0.2106
  727TMC3    C210795   1.915   1.015  10.048 -0.2216  0.3236 -0.9354
  727TMC3    C310796   1.964   1.128   9.984 -0.0580 -0.2964  0.2022
  727TMC3    C410797   1.785   0.993   9.851  0.2917  0.4564  0.6353
  727TMC3    C510798   1.847   1.098   9.795 -0.1895 -0.4539 -0.3927
  727TMC3    C610799   1.939   1.169   9.860 -0.5096  0.5529 -0.0772
  727TMC3     C10800   1.744   0.836  10.028  0.0493  0.2861  0.5191
  727TMC3     O10801   1.645   0.806   9.969 -0.9116 -0.2729 -0.3093
  727TMC3     H10802   1.930   1.008  10.155  0.8397  0.7993 -1.0588
  727TMC3    H110803   1.712   0.942   9.789 -0.2464  0.9891  0.8330
  727TMC3    H210804   1.990   1.254   9.816  0.4924  0.5007  0.9782
  727TMC3    C710805   1.828   1.103   9.653  0.1712 -0.0953 -0.7282
  727TMC3    C810806   2.057   1.207  10.055  0.8288  0.5368  0.1083
  727TMC3    O110807   1.725   1.059   9.595  0.5090  0.5023  0.0046
  727TMC3    O210808   2.137   1.147  10.125  0.0053 -0.4955  0.3947
  728TMC3    C110809   1.794   3.649  15.067 -0.1258  0.1960 -0.1803
  728TMC3    C210810   1.870   3.541  15.020  0.7818  0.4944  0.0408
  728TMC3    C310811   1.866   3.538  14.882  0.2973 -0.5210  0.7658
  728TMC3    C410812   1.736   3.747  14.994  0.1223  1.4301 -0.1293
  728TMC3    C510813   1.750   3.732  14.857 -0.0220 -0.7487  0.4120
  728TMC3    C610814   1.816   3.630  14.796  0.2052 -0.5097  0.2580
  728TMC3     C10815   1.800   3.672  15.210 -0.1811  0.0349  0.0934
  728TMC3     O10816   1.902   3.647  15.270 -0.2168  0.2193 -0.1000
  728TMC3     H10817   1.927   3.479  15.088 -1.2033 -2.6371 -1.1575
  728TMC3    H110818   1.689   3.830  15.045 -1.2459  0.1524  0.6636
  728TMC3    H210819   1.822   3.630  14.688  0.2023 -1.0620  0.2606
  728TMC3    C710820   1.696   3.842  14.782 -0.0262 -0.5499 -0.3449
  728TMC3    C810821   1.934   3.423  14.821  0.4304 -0.1505 -0.1200
  728TMC3    O110822   1.658   3.933  14.851 -1.0780  0.1711 -0.1872
  728TMC3    O210823   1.930   3.313  14.875 -0.0723 -0.4498  0.0567
  729MPD2     C10824   3.513   0.551  16.670  0.9355 -1.0449  0.1313
  729MPD2    C110825   3.624   0.497  16.735  0.2577  0.4959 -0.7978
  729MPD2    C210826   3.643   0.511  16.878 -0.1130  0.0537 -0.3110
  729MPD2    C310827   3.544   0.572  16.952 -0.0126 -0.1612 -0.2990
  729MPD2    C410828   3.439   0.628  16.888 -0.5879 -0.1633  0.6938
  729MPD2    C510829   3.422   0.619  16.749  0.2541 -0.0486 -0.5720
  729MPD2     H10830   3.737   0.481  16.922 -0.0352  0.1605 -0.4029
  729MPD2    H110831   3.356   0.677  16.938 -2.5304 -0.3753 -2.3392
  729MPD2    H210832   3.501   0.546  16.562  0.1461 -0.1016  0.1800
  729MPD2    H310833   3.332   0.656  16.702  0.0400 -2.4660 -2.0595
  729MPD2     N10834   3.558   0.586  17.095 -0.3032  0.1866 -0.0094
  729MPD2    H510835   3.490   0.647  17.140 -0.9703 -1.6898  1.5642
  729MPD2    N110836   3.725   0.452  16.655 -0.1512  0.1465 -0.3365
  729MPD2    H710837   3.725   0.477  16.556  2.3084 -0.5328 -0.5156
  730TMC3    C110838   3.674   0.610  17.294 -0.7760  0.2412 -0.5885
  730TMC3    C210839   3.798   0.639  17.337 -0.1857 -0.5645  0.1774
  730TMC3    C310840   3.813   0.690  17.464 -0.0583  0.5370  0.5412
  730TMC3    C410841   3.558   0.643  17.368  0.4564 -0.3365  0.1330
  730TMC3    C510842   3.583   0.702  17.489 -0.1324 -0.1311 -0.5043
  730TMC3    C610843   3.706   0.712  17.545  0.6590  0.0241 -0.0739
  730TMC3     C10844   3.677   0.555  17.162  0.3918  0.1216 -0.0100
  730TMC3     O10845   3.779   0.501  17.129  0.0055  0.4279 -0.6833
  730TMC3     H10846   3.890   0.628  17.281 -0.7192  0.7707 -0.9530
  730TMC3    H110847   3.455   0.633  17.336  0.0732 -2.1442  1.9701
  730TMC3    H210848   3.718   0.740  17.649 -0.5177 -0.0632  0.0836
  730TMC3    C710849   3.469   0.715  17.579  0.0898  0.5995  0.6695
  730TMC3    C810850   3.943   0.743  17.489  1.1479 -0.2640 -0.1578
  730TMC3    O110851   3.376   0.634  17.564  0.1171  0.9533  0.2811
  730TMC3    O210852   4.040   0.701  17.418  0.7510 -0.4377  0.0330
  731MPD2     C10853   2.788   2.675  12.295 -0.0334 -0.4617  0.1918
  731MPD2    C110854   2.921   2.661  12.322 -0.4799  0.0839 -0.1898
  731MPD2    C210855   2.964   2.654  12.458 -0.0544  0.2123 -0.2111
  731MPD2    C310856   2.875   2.663  12.568 -0.0406  0.4078 -0.7164
  731MPD2    C410857   2.739   2.677  12.535 -0.8632  0.5597  1.0849
  731MPD2    C510858   2.699   2.683  12.405 -0.1293  0.1252  0.7065
  731MPD2     H10859   3.071   2.647  12.477 -0.2659  1.3329  1.3730
  731MPD2    H110860   2.657   2.666  12.606 -0.5794 -0.4841  1.2502
  731MPD2    H210861   2.747   2.691  12.196 -1.8394  2.4264  1.4019
  731MPD2    H310862   2.593   2.695  12.381  0.4801  3.8207 -0.1881
  731MPD2     N10863   2.930   2.674  12.696 -0.0137 -0.5103  0.4247
  731MPD2    H510864   3.031   2.672  12.697 -0.0278 -2.1346 -1.4893
  731MPD2    N110865   3.014   2.641  12.211  0.2360  0.5008  0.3809
  731MPD2    H710866   2.974   2.639  12.118  1.1489 -0.9920  0.0203
  732TMC3    C110867   3.223   2.637  12.095  0.0756  0.1758 -0.0072
  732TMC3    C210868   3.175   2.725  12.000  0.2150 -0.4504  0.7191
  732TMC3    C310869   3.266   2.773  11.902  0.4879 -0.0379 -0.0031
  732TMC3    C410870   3.344   2.568  12.078  0.1020 -0.0872  0.8039
  732TMC3    C510871   3.424   2.611  11.977  0.3759 -0.7072  0.0268
  732TMC3    C610872   3.385   2.703  11.888 -0.5783 -1.0395  0.2204
  732TMC3     C10873   3.152   2.628  12.219 -0.3807 -0.3610  0.4685
  732TMC3     O10874   3.224   2.617  12.316  0.8629 -0.5781  0.2006
  732TMC3     H10875   3.071   2.758  12.005  0.3346 -0.2683  2.0415
  732TMC3    H110876   3.378   2.496  12.153  0.4768  0.7155  1.4020
  732TMC3    H210877   3.445   2.719  11.800 -0.7190  1.4927  0.5939
  732TMC3    C710878   3.568   2.579  11.977  0.6447 -1.0542  0.2863
  732TMC3    C810879   3.212   2.838  11.788 -0.0477  0.1890 -0.3336
  732TMC3    O110880   3.623   2.576  11.867  0.7315 -0.3977 -0.2354
  732TMC3    O210881   3.275   2.844  11.686 -0.0893 -0.5119  0.5834
  733TMC3    C110882   4.584   1.646  13.052 -0.4136  0.0346 -0.5821
  733TMC3    C210883   4.664   1.744  13.007 -0.3398 -0.3725 -0.6928
  733TMC3    C310884   0.008   1.720  12.908  0.4131  0.1962  0.1891
  733TMC3    C410885   4.595   1.518  13.006  0.5583 -0.0995  0.1917
  733TMC3    C510886   4.677   1.493  12.895 -0.6002  0.2695 -0.3051
  733TMC3    C610887   0.005   1.597  12.838  0.0155  0.6207  0.1569
  733TMC3     C10888   4.449   1.694  13.072 -0.0564 -0.6103  1.2790
  733TMC3     O10889   4.422   1.805  13.022  0.1095 -0.4922  0.0300
  733TMC3     H10890   4.657   1.845  13.045  3.2865 -0.7865  1.0187
  733TMC3    H110891   4.535   1.432  13.035 -0.7687 -0.0005 -2.2693
  733TMC3    H210892   0.058   1.586  12.745 -0.7980  1.1240 -0.3622
  733TMC3    C710893   4.604   1.406  12.800 -0.3623 -0.3104  0.3265
  733TMC3    C810894   0.101   1.826  12.867 -0.4738  0.7276  0.2705
  733TMC3    O110895   4.488   1.377  12.827  0.4756 -0.6092  0.2841
  733TMC3    O210896   0.125   1.921  12.937 -0.1705 -0.0869  0.1060
  734MPD2     C10897   2.177   4.263  11.965  0.1118  0.0746  0.6023
  734MPD2    C110898   2.070   4.300  11.885 -0.0157  0.2755  0.5375
  734MPD2    C210899   2.096   4.372  11.765  0.3967 -0.5348  0.3144
  734MPD2    C310900   2.226   4.373  11.716 -0.1569  0.1515  0.1434
  734MPD2    C410901   2.331   4.327  11.789  0.4706  0.4981  0.3735
  734MPD2    C510902   2.304   4.281  11.911  0.1424 -0.2916  0.0831
  734MPD2     H10903   2.014   4.409  11.704 -0.5086 -2.2578  0.4908
  734MPD2    H110904   2.432   4.354  11.758  0.1088 -0.6257 -1.7792
  734MPD2    H210905   2.166   4.213  12.061 -0.1489  1.6704  1.4015
  734MPD2    H310906   2.379   4.246  11.982 -0.5324  0.7109  1.2829
  734MPD2     N10907   2.245   4.412  11.582 -0.1165 -0.4252 -0.2359
  734MPD2    H510908   2.165   4.464  11.546  1.4931  1.9329 -0.3833
  734MPD2    N110909   1.941   4.257  11.919  0.1819  0.2579 -0.1384
  734MPD2    H710910   1.927   4.217  12.011  1.2203  1.2735  0.4589
  735TMC3    C110911   1.697   4.219  11.922  0.3175 -1.1442  0.0470
  735TMC3    C210912   1.592   4.262  11.842  0.5964 -0.1944  0.3041
  735TMC3    C310913   1.504   4.170  11.793 -0.2341 -0.6926  0.3730
  735TMC3    C410914   1.697   4.091  11.972  0.1294 -0.2399  0.1747
  735TMC3    C510915   1.613   4.003  11.911  0.0679  0.0481  0.0202
  735TMC3    C610916   1.512   4.044  11.829 -0.3313  0.0537 -0.1492
  735TMC3     C10917   1.819   4.272  11.853  0.4424 -0.0494 -0.1387
  735TMC3     O10918   1.796   4.314  11.742 -0.7444 -0.2805 -0.5485
  735TMC3     H10919   1.586   4.366  11.810 -0.3391 -0.1481  0.6403
  735TMC3    H110920   1.778   4.058  12.036 -1.0782 -0.2943  1.6592
  735TMC3    H210921   1.444   3.972  11.785 -0.2996 -1.5547  2.4162
  735TMC3    C710922   1.647   3.868  11.930  0.3786 -0.1486  1.1934
  735TMC3    C810923   1.482   4.192  11.648 -0.5528 -0.3672  0.6348
  735TMC3    O110924   1.747   3.839  11.986 -0.0996 -0.4946 -0.4426
  735TMC3    O210925   1.392   4.123  11.602  0.0736  0.0627  0.5583
  736MPD2     C10926   1.489   3.558  11.790  0.3168  0.0160  0.1903
  736MPD2    C110927   1.589   3.641  11.829 -0.0684  0.7080  0.3401
  736MPD2    C210928   1.725   3.602  11.822 -0.5131  0.1704 -0.2470
  736MPD2    C310929   1.758   3.481  11.769 -0.2602  0.7091  0.6312
  736MPD2    C410930   1.657   3.402  11.731 -0.1619 -0.2339  0.0564
  736MPD2    C510931   1.523   3.433  11.750 -0.2582 -0.2807  0.6133
  736MPD2     H10932   1.807   3.666  11.854 -0.2188 -0.6079  0.5685
  736MPD2    H110933   1.675   3.304  11.689  2.7303 -0.1630  1.1106
  736MPD2    H210934   1.388   3.595  11.780 -0.4218 -1.7025  1.2937
  736MPD2    H310935   1.452   3.362  11.711  0.2537  0.0236 -0.8669
  736MPD2     N10936   1.893   3.426  11.752  0.9007 -0.1149  0.5574
  736MPD2    H510937   1.913   3.331  11.720 -1.4821 -0.5107  0.1972
  736MPD2    N110938   1.562   3.775  11.872 -0.3358 -0.1216  0.9509
  736MPD2    H710939   1.466   3.806  11.854  0.0565  1.0956  0.9453
  737TMC3    C110940   2.128   3.446  11.708  0.5550 -0.5057 -0.0786
  737TMC3    C210941   2.223   3.522  11.657 -0.4063 -0.4077  0.3381
  737TMC3    C310942   2.311   3.465  11.569 -0.9109  0.2647  0.6245
  737TMC3    C410943   2.119   3.311  11.674  0.1427 -1.1600  0.4302
  737TMC3    C510944   2.216   3.261  11.589 -0.1376 -0.2235  0.5572
  737TMC3    C610945   2.312   3.336  11.531  0.0666 -0.8710  0.7263
  737TMC3     C10946   2.010   3.506  11.758  0.3610 -0.6584  0.3011
  737TMC3     O10947   2.013   3.627  11.779 -0.3665  0.7895  0.1442
  737TMC3     H10948   2.203   3.628  11.667 -1.9208 -0.5166 -1.6208
  737TMC3    H110949   2.052   3.245  11.726  0.0072 -0.9684  0.5005
  737TMC3    H210950   2.383   3.292  11.462  1.2660  1.8536  0.2172
  737TMC3    C710951   2.200   3.117  11.549  0.7507  0.2367  0.1785
  737TMC3    C810952   2.411   3.556  11.515  0.6593 -0.4135  0.4114
  737TMC3    O110953   2.087   3.067  11.558 -0.0864  0.3045 -0.3755
  737TMC3    O210954   2.432   3.659  11.585  0.2539 -0.0537  0.3571
  738MPD2     C10955   2.527   2.655  15.546  0.2974  0.0574  0.3921
  738MPD2    C110956   2.524   2.579  15.433  0.2880  0.8108  0.0591
  738MPD2    C210957   2.612   2.604  15.325  0.1295 -0.2007  0.6239
  738MPD2    C310958   2.709   2.696  15.337  0.0053 -0.2828 -0.2004
  738MPD2    C410959   2.715   2.762  15.454  0.2852  0.6758 -0.6743
  738MPD2    C510960   2.630   2.750  15.560 -1.1852 -0.7236 -0.3679
  738MPD2     H10961   2.605   2.535  15.242  0.1216  0.1935  0.2990
  738MPD2    H110962   2.799   2.827  15.475  0.2638  0.3103  0.5731
  738MPD2    H210963   2.456   2.637  15.626  1.4049  0.0332  1.3710
  738MPD2    H310964   2.628   2.793  15.660 -1.5015  2.3026 -1.6877
  738MPD2     N10965   2.815   2.721  15.247  0.8007  0.3988  0.3457
  738MPD2    H510966   2.894   2.770  15.288  1.6223 -1.1092  0.5800
  738MPD2    N110967   2.428   2.477  15.410 -0.2269 -0.7398 -0.4342
  738MPD2    H710968   2.427   2.439  15.316  0.3974 -1.5503 -0.1047
  739TMC3    C110969   2.953   2.684  15.050  0.5332 -0.5071  0.5374
  739TMC3    C210970   2.949   2.650  14.913 -0.4407 -0.1652  0.8893
  739TMC3    C310971   3.061   2.606  14.849 -0.2020  0.5659 -0.3389
  739TMC3    C410972   3.065   2.639  15.120  0.0460  0.2551 -0.6583
  739TMC3    C510973   3.175   2.590  15.054  0.2738 -0.4848  0.7223
  739TMC3    C610974   3.172   2.573  14.916 -0.6322  0.1845  0.5319
  739TMC3     C10975   2.819   2.676  15.112  0.1679 -0.3435  0.1241
  739TMC3     O10976   2.722   2.645  15.042  0.3231  0.2992 -0.6076
  739TMC3     H10977   2.866   2.688  14.854  0.9043 -0.7409 -1.3464
  739TMC3    H110978   3.061   2.628  15.227 -2.5681 -1.8933 -0.9804
  739TMC3    H210979   3.264   2.531  14.875 -1.8181 -1.1390 -0.7422
  739TMC3    C710980   3.299   2.564  15.121 -0.3304  0.5811 -0.3849
  739TMC3    C810981   3.076   2.634  14.706 -0.2019 -0.1792  0.0158
  739TMC3    O110982   3.372   2.472  15.085 -0.3218 -0.0524 -0.7320
  739TMC3    O210983   2.966   2.650  14.653 -0.0779 -0.0452 -0.0415
  740TMC3    C110984   3.333   4.175  14.361  0.2382  0.3236  0.2619
  740TMC3    C210985   3.401   4.207  14.471  0.2592 -0.1261  0.0853
  740TMC3    C310986   3.538   4.229  14.452  0.1313  0.1692 -0.8318
  740TMC3    C410987   3.395   4.158  14.241  0.2775  0.3273 -0.4110
  740TMC3    C510988   3.532   4.177  14.224 -0.2054 -0.0899  0.5309
  740TMC3    C610989   3.606   4.201  14.335  0.0929 -0.0965 -0.2063
  740TMC3     C10990   3.189   4.172  14.364 -0.1398 -0.4287 -0.0188
  740TMC3     O10991   3.127   4.176  14.259 -0.8040  0.3862  0.2077
  740TMC3     H10992   3.353   4.241  14.561  1.3133 -1.4498  1.1589
  740TMC3    H110993   3.332   4.134  14.157  1.0054  2.8498 -1.6924
  740TMC3    H210994   3.710   4.226  14.321 -0.0238 -0.8225 -2.3755
  740TMC3    C710995   3.607   4.102  14.121 -0.1732  0.7178  0.9505
  740TMC3    C810996   3.607   4.284  14.567 -0.4294  0.2707 -0.4393
  740TMC3    O110997   3.725   4.080  14.148 -0.3256 -0.1967  0.5238
  740TMC3    O210998   3.543   4.337  14.659  0.3641 -1.0273 -0.2818
  741TMC3    C110999   2.737   3.713  14.081 -0.3857 -0.7960  0.0706
  741TMC3    C211000   2.642   3.612  14.108  0.0497 -1.2767 -0.3216
  741TMC3    C311001   2.685   3.494  14.169  0.4389  0.3431  0.3050
  741TMC3    C411002   2.865   3.687  14.108  0.4370  0.4248  0.0151
  741TMC3    C511003   2.896   3.570  14.172 -0.0113 -0.8618 -0.1578
  741TMC3    C611004   2.813   3.470  14.198 -0.8671 -0.4133  0.4816
  741TMC3     C11005   2.713   3.793  13.967 -0.1795  0.1595  0.0971
  741TMC3     O11006   2.605   3.765  13.909  0.5359 -0.2901  0.1485
  741TMC3     H11007   2.543   3.629  14.069  0.2610  2.5456  0.8851
  741TMC3    H111008   2.941   3.749  14.060  2.6717 -2.1636  0.2011
  741TMC3    H211009   2.861   3.383  14.241 -0.7933 -0.3949  0.4379
  741TMC3    C711010   3.032   3.559  14.200 -0.6650 -0.3035 -0.3687
  741TMC3    C811011   2.591   3.382  14.168  0.3099  0.3459  0.1019
  741TMC3    O111012   3.083   3.659  14.245  0.1914  0.3062  0.2288
  741TMC3    O211013   2.483   3.401  14.123 -0.0776  0.1773 -0.2421
  742TMC3    C111014   2.488   1.835  15.219 -0.1582  0.0762  0.2023
  742TMC3    C211015   2.392   1.805  15.131  0.5885 -0.4605 -0.4673
  742TMC3    C311016   2.430   1.802  15.001  0.4750 -0.6301 -0.5128
  742TMC3    C411017   2.620   1.873  15.192 -0.2251  0.5529 -0.1903
  742TMC3    C511018   2.659   1.856  15.063  0.0414 -0.1853 -0.8400
  742TMC3    C611019   2.563   1.831  14.968 -0.0062  0.2237  0.7614
  742TMC3     C11020   2.446   1.850  15.357 -0.6419  0.1900  0.2788
  742TMC3     O11021   2.326   1.839  15.376  0.1418  0.0317  0.0730
  742TMC3     H11022   2.288   1.791  15.159  1.0331 -1.8715  0.4855
  742TMC3    H111023   2.696   1.898  15.265 -1.1225  0.1791  0.8514
  742TMC3    H211024   2.590   1.833  14.863 -0.3576  0.8733  0.6873
  742TMC3    C711025   2.772   1.769  15.042  0.0672 -0.5586  0.4513
  742TMC3    C811026   2.384   1.699  14.910  0.3696  0.0646  0.1134
  742TMC3    O111027   2.863   1.775  15.122  0.6262  0.4006  0.6298
  742TMC3    O211028   2.465   1.673  14.820  0.0370 -0.6603 -0.6383
  743MPD2     C11029   0.681   4.104   1.628  0.0646  0.0745 -0.6063
  743MPD2    C111030   0.763   4.012   1.562 -0.2153  0.2487  0.3704
  743MPD2    C211031   0.899   4.013   1.590 -0.2333 -0.1656 -0.4233
  743MPD2    C311032   0.957   4.091   1.686 -0.1607  0.1998 -0.8549
  743MPD2    C411033   0.877   4.174   1.762  0.3671  0.2137 -0.2820
  743MPD2    C511034   0.744   4.184   1.725  0.8471 -0.7677  0.2942
  743MPD2     H11035   0.964   3.946   1.535 -2.7299 -3.1683  0.3070
  743MPD2    H111036   0.912   4.235   1.844  0.7844 -2.5991  1.6215
  743MPD2    H211037   0.575   4.099   1.603  0.2999 -3.3888 -0.8371
  743MPD2    H311038   0.678   4.254   1.776 -1.5276 -2.4379 -0.4488
  743MPD2     N11039   1.094   4.075   1.705 -0.1885  0.4300  0.7857
  743MPD2    H511040   1.136   4.001   1.649  2.1490  0.2003  2.8352
  743MPD2    N111041   0.699   3.926   1.471 -0.4235 -0.4682 -0.3755
  743MPD2    H711042   0.598   3.927   1.470 -0.4525 -1.2010  3.2295
  744TMC3    C111043   0.675   3.760   1.304  0.2473 -0.6775  0.4375
  744TMC3    C211044   0.553   3.724   1.354 -0.0437  0.7305  0.1624
  744TMC3    C311045   0.496   3.612   1.302  0.9918 -0.2021 -0.0119
  744TMC3    C411046   0.732   3.689   1.195 -0.0016  0.6155 -0.2455
  744TMC3    C511047   0.670   3.572   1.160 -0.2176  0.2222  0.1002
  744TMC3    C611048   0.554   3.532   1.210  0.4744 -0.0370  0.0898
  744TMC3     C11049   0.762   3.857   1.369 -0.3018 -0.1835 -0.3135
  744TMC3     O11050   0.880   3.840   1.357 -0.5240  0.4940  0.3859
  744TMC3     H11051   0.519   3.776   1.443  0.9401  0.1403  0.8800
  744TMC3    H111052   0.831   3.722   1.163  0.3701  0.9081  1.1735
  744TMC3    H211053   0.515   3.432   1.197  1.1872 -0.3139  0.1019
  744TMC3    C711054   0.746   3.472   1.092  0.4055  0.1873  0.5286
  744TMC3    C811055   0.364   3.563   1.345  0.0916 -0.3785  0.7307
  744TMC3    O111056   0.868   3.468   1.110  0.2571  0.8370  0.6604
  744TMC3    O211057   0.293   3.502   1.266 -0.2674 -0.0998 -0.3491
  745TMC3    C111058   3.068   1.480  13.272 -0.3848  0.2665  0.0529
  745TMC3    C211059   3.015   1.495  13.399 -0.0466 -0.7350 -0.3132
  745TMC3    C311060   2.891   1.567  13.404  0.6907  0.3233  0.3217
  745TMC3    C411061   3.011   1.526  13.159 -0.1683  0.1229  0.1652
  745TMC3    C511062   2.897   1.604  13.167  0.4973  0.4494  0.1566
  745TMC3    C611063   2.838   1.624  13.289  0.1224  0.2766 -0.2716
  745TMC3     C11064   3.212   1.461  13.272  0.0928 -0.6715 -0.6334
  745TMC3     O11065   3.262   1.397  13.180  0.3651  0.0444 -0.6161
  745TMC3     H11066   3.057   1.438  13.482  3.2558  0.1640 -1.3631
  745TMC3    H111067   3.060   1.512  13.063  0.6466  1.1628  0.4253
  745TMC3    H211068   2.753   1.688  13.310 -1.5543 -1.1665 -2.5503
  745TMC3    C711069   2.906   1.734  13.093 -0.1623  0.0205  0.2836
  745TMC3    C811070   2.817   1.563  13.530  0.0451 -0.2386 -0.2006
  745TMC3    O111071   2.803   1.801  13.111  0.1382  0.0441 -0.1461
  745TMC3    O211072   2.701   1.522  13.519  0.0114  0.5391 -0.1364
  746TMC3    C111073   0.814   3.205  10.896 -0.2308  0.2973 -0.0645
  746TMC3    C211074   0.933   3.164  10.846 -0.4824 -0.2714  0.2441
  746TMC3    C311075   0.955   3.028  10.835 -0.3219 -0.4285  0.3734
  746TMC3    C411076   0.709   3.122  10.920  0.4183 -0.3412  0.8516
  746TMC3    C511077   0.728   2.986  10.898  0.4653 -0.3086  0.1381
  746TMC3    C611078   0.852   2.937  10.867  0.2511 -0.0153 -0.0626
  746TMC3     C11079   0.783   3.348  10.908  0.4975 -0.2406  0.5150
  746TMC3     O11080   0.668   3.372  10.950  0.9679  0.1457  0.4436
  746TMC3     H11081   1.013   3.233  10.823  0.3125 -1.1052  0.4922
  746TMC3    H111082   0.606   3.151  10.938  0.7527  1.6953 -0.4981
  746TMC3    H211083   0.877   2.833  10.851  0.3791  0.3017 -1.9970
  746TMC3    C711084   0.614   2.916  10.852  0.0369  0.0206  0.0116
  746TMC3    C811085   1.050   2.978  10.728 -0.6753  0.4258  0.1807
  746TMC3    O111086   0.522   2.978  10.794  0.3575  0.2759 -0.8757
  746TMC3    O211087   1.031   2.863  10.694  0.1174  0.1550  0.1238
  747TMC3    C111088   2.948   2.729  10.891 -0.4813  0.3201  0.1071
  747TMC3    C211089   2.823   2.766  10.915  0.3600  0.3501 -0.5202
  747TMC3    C311090   2.778   2.804  11.041 -0.1424  1.4040  0.6050
  747TMC3    C411091   3.043   2.732  10.991 -0.3142 -0.3977  0.2262
  747TMC3    C511092   2.998   2.755  11.116  0.8013  0.6803  0.1769
  747TMC3    C611093   2.863   2.789  11.148 -0.0900 -0.6775 -0.0923
  747TMC3     C11094   2.993   2.706  10.755 -0.7146 -0.3736  0.8538
  747TMC3     O11095   3.080   2.622  10.743  0.3562  0.6772 -0.5821
  747TMC3     H11096   2.760   2.790  10.830  1.6984  1.6538 -1.1452
  747TMC3    H111097   3.149   2.730  10.968 -1.0278  0.7002 -3.0993
  747TMC3    H211098   2.840   2.828  11.246 -0.2972 -0.8258 -0.0830
  747TMC3    C711099   3.090   2.746  11.228  0.2036 -0.1926  0.3727
  747TMC3    C811100   2.638   2.821  11.067  0.6111  0.2164 -0.2906
  747TMC3    O111101   3.082   2.822  11.323 -0.5503 -0.0766 -0.6061
  747TMC3    O211102   2.559   2.780  10.979 -0.3819  0.0534  0.1239
  748MPD2     C11103   4.675   4.244   1.307  0.4411 -0.6326  0.4145
  748MPD2    C111104   4.719   4.198   1.189  0.6215 -0.0151 -0.3353
  748MPD2    C211105   0.112   4.198   1.167 -0.0962 -0.0072 -0.0957
  748MPD2    C311106   0.196   4.241   1.270 -0.2473 -0.6260  0.0431
  748MPD2    C411107   0.141   4.304   1.385 -0.7474  0.6560 -0.9842
  748MPD2    C511108   0.010   4.302   1.403 -0.5372  0.0953 -0.8861
  748MPD2     H11109   0.157   4.169   1.073  0.0091 -1.1307  0.2995
  748MPD2    H111110   0.203   4.334   1.469 -1.9639  2.4054 -0.7118
  748MPD2    H211111   4.568   4.244   1.326  0.1647 -0.0630 -1.1017
  748MPD2    H311112   4.702   4.354   1.485  2.1680 -0.3217  1.0188
  748MPD2     N11113   0.336   4.235   1.243 -0.0743 -0.2919  0.0294
  748MPD2    H511114   0.361   4.213   1.147 -0.5736  2.7675 -0.8224
  748MPD2    N111115   4.623   4.151   1.097  0.3472  0.7548  0.1045
  748MPD2    H711116   4.531   4.156   1.138  0.9113  0.0438  1.4618
  749TMC3    C111117   0.573   4.263   1.272  0.2732  0.5340  0.5198
  749TMC3    C211118   0.665   4.315   1.351 -0.2851  0.6299  0.0265
  749TMC3    C311119   0.796   4.300   1.307  0.6478  0.1915 -0.2429
  749TMC3    C411120   0.597   4.204   1.156  0.1441  0.4700 -0.5096
  749TMC3    C511121   0.720   4.205   1.104 -0.4599  0.4913  0.5966
  749TMC3    C611122   0.824   4.245   1.185 -0.2160 -0.5291  0.5858
  749TMC3     C11123   0.434   4.270   1.330  0.9883  0.7221 -0.1012
  749TMC3     O11124   0.427   4.302   1.449 -0.1011  0.2860  0.5730
  749TMC3     H11125   0.648   4.362   1.447  0.3475  0.6003  0.1527
  749TMC3    H111126   0.518   4.155   1.099  1.0001 -1.6101  0.1036
  749TMC3    H211127   0.922   4.250   1.137 -0.9780  2.6020 -0.6606
  749TMC3    C711128   0.729   4.255   0.974 -0.8340  0.1204 -0.1784
  749TMC3    C811129   0.892   4.368   1.386  0.0986 -0.0384 -0.1692
  749TMC3    O111130   0.819   4.331   0.947  0.2455 -1.1099  0.3695
  749TMC3    O211131   0.851   4.462   1.454  0.2834  0.3100  0.1915
  750MPD2     C11132   0.924   0.387  11.304  0.3133 -0.2775 -0.7427
  750MPD2    C111133   0.798   0.324  11.315  0.0279 -0.2591  0.0234
  750MPD2    C211134   0.778   0.216  11.232  0.0308  0.0806 -0.5265
  750MPD2    C311135   0.873   0.163  11.153 -0.0091  0.2789  0.1763
  750MPD2    C411136   0.997   0.216  11.155  0.3497  0.2076  0.2858
  750MPD2    C511137   1.020   0.332  11.227  0.1291  0.2945  0.6741
  750MPD2     H11138   0.686   0.159  11.234  1.1036 -1.6611 -0.8910
  750MPD2    H111139   1.078   0.178  11.094  1.4617  0.2731  1.7276
  750MPD2    H211140   0.946   0.481  11.354 -0.6339 -0.4969  0.0861
  750MPD2    H311141   1.117   0.378  11.211  0.1119  0.5877  1.4444
  750MPD2     N11142   0.855   0.049  11.067  0.1308  0.0112  0.2900
  750MPD2    H511143   0.938   4.738  11.043 -0.2269 -0.5833  0.3369
  750MPD2    N111144   0.702   0.381  11.403  0.3958 -0.5188 -0.4407
  750MPD2    H711145   0.724   0.473  11.441  0.1737 -1.3066  1.5820
  751TMC3    C111146   0.747   4.626  10.940 -0.1253 -0.9445  0.1479
  751TMC3    C211147   0.645   4.533  10.941 -0.3970  0.0159  0.1210
  751TMC3    C311148   0.653   4.420  10.862  0.3814  0.1075  0.2849
  751TMC3    C411149   0.844   4.621  10.846 -0.2807 -0.0150  0.2505
  751TMC3    C511150   0.844   4.520  10.758 -0.6092 -0.7771 -0.0566
  751TMC3    C611151   0.754   4.416  10.763  0.0850 -0.1577 -0.4626
  751TMC3     C11152   0.735   4.735  11.031 -0.1417 -0.3717  0.2653
  751TMC3     O11153   0.621   0.022  11.070 -0.3293  0.2911  0.2003
  751TMC3     H11154   0.567   4.551  11.015 -1.3717  0.3089 -0.9753
  751TMC3    H111155   0.901   4.713  10.836  1.5179 -1.2833 -1.0004
  751TMC3    H211156   0.767   4.328  10.702  0.2638  0.1755 -0.9094
  751TMC3    C711157   0.953   4.509  10.668 -0.9333 -0.8541 -0.1519
  751TMC3    C811158   0.545   4.322  10.853  0.4755  0.0861  0.1588
  751TMC3    O111159   1.060   4.545  10.714  0.8953 -0.2464 -0.4687
  751TMC3    O211160   0.542   4.250  10.754  0.2540 -0.0259 -0.1678
  752TMC3    C111161   4.396   0.306  17.572  0.6371  0.0589  0.8257
  752TMC3    C211162   4.467   0.274  17.685  0.0323 -0.6084  0.6753
  752TMC3    C311163   4.410   0.293   0.045  0.0829 -0.7321  0.0979
  752TMC3    C411164   4.276   0.367  17.584  0.2006  0.2157 -0.8675
  752TMC3    C511165   4.243   0.412  17.706 -0.5762  0.4439 -0.4218
  752TMC3    C611166   4.306   0.380   0.058  0.1296 -0.3287  0.2769
  752TMC3     C11167   4.423   0.233  17.450  0.1846 -0.4448 -0.1140
  752TMC3     O11168   4.508   0.146  17.469 -0.0913 -0.2507  0.2079
  752TMC3     H11169   4.556   0.213  17.671  0.0752 -0.4322  0.1742
  752TMC3    H111170   4.221   0.401  17.497 -1.2556  0.7802  0.2794
  752TMC3    H211171   4.261   0.392   0.156 -0.4164  0.0891 -0.0248
  752TMC3    C711172   4.121   0.482  17.728  0.4634  0.0026 -0.1775
  752TMC3    C811173   4.459   0.211   0.152 -0.4736  0.2123 -0.5230
  752TMC3    O111174   4.028   0.452  17.659 -1.0785  0.4744  0.0000
  752TMC3    O211175   4.432   0.249   0.264 -0.4313 -0.4392 -0.0767
  753TMC3    C111176   1.403   0.966  14.144  0.4683  0.2561  0.3275
  753TMC3    C211177   1.460   1.020  14.258 -0.3943 -0.0874  0.1885
  753TMC3    C311178   1.582   0.973  14.291 -0.5985  0.8902  0.4959
  753TMC3    C411179   1.471   0.869  14.071 -0.8486  0.5172  0.2100
  753TMC3    C511180   1.589   0.825  14.107  1.2539 -0.0775  0.3422
  753TMC3    C611181   1.648   0.873  14.221 -0.5016  0.0909  0.3131
  753TMC3     C11182   1.283   1.031  14.085 -0.0469  0.6457  0.2174
  753TMC3     O11183   1.254   1.001  13.973  0.4435 -0.0466 -0.4576
  753TMC3     H11184   1.416   1.095  14.322 -1.4424 -0.3633 -0.2016
  753TMC3    H111185   1.414   0.822  13.991  0.5255  1.4972 -1.3503
  753TMC3    H211186   1.749   0.854  14.254  0.0700  1.8778 -0.4068
  753TMC3    C711187   1.667   0.732  14.025  0.2654  0.6312  0.6539
  753TMC3    C811188   1.639   1.028  14.408  0.0052  0.0211  0.5959
  753TMC3    O111189   1.620   0.706  13.914 -0.4109 -0.0535  0.0156
  753TMC3    O211190   1.705   0.961  14.484 -0.2878 -0.4646 -0.0033
  754MPD2     C11191   0.584   0.075  13.072 -0.2444  0.1022  0.1927
  754MPD2    C111192   0.596   4.679  13.093 -1.5130 -0.2141 -0.9895
  754MPD2    C211193   0.494   4.598  13.064  0.4247  0.0446 -0.3386
  754MPD2    C311194   0.367   4.652  13.035  0.1453  0.0092 -0.5138
  754MPD2    C411195   0.354   0.046  13.015 -0.0791  0.3266  0.8663
  754MPD2    C511196   0.464   0.126  13.033  0.3964  0.3956  0.8105
  754MPD2     H11197   0.504   4.491  13.075 -1.0977 -0.2257 -1.5058
  754MPD2    H111198   0.257   0.085  12.985  0.2308  0.9599  0.6896
  754MPD2    H211199   0.658   0.150  13.095 -0.1543 -0.1474  0.7180
  754MPD2    H311200   0.460   0.234  13.027 -0.2473  0.4092  1.5727
  754MPD2     N11201   0.248   4.574  13.025 -0.3078 -0.1757  0.0109
  754MPD2    H511202   0.167   4.631  13.005 -1.1143 -0.4756  2.4556
  754MPD2    N111203   0.721   4.633  13.132 -0.6652 -0.0974  0.5947
  754MPD2    H711204   0.792   4.700  13.107 -1.5241  0.0454 -1.5229
  755MPD2     C11205   4.255   0.169  13.094  0.3409  0.1815 -0.3345
  755MPD2    C111206   4.227   0.078  13.194 -0.3334 -0.6860  0.1934
  755MPD2    C211207   4.310   4.710  13.203  0.3022 -0.6524 -0.0018
  755MPD2    C311208   4.415   4.688  13.108  0.6954 -0.0971 -0.1358
  755MPD2    C411209   4.427   0.035  13.005 -0.4506 -0.2690 -0.2008
  755MPD2    C511210   4.352   0.154  13.004 -0.3522 -0.2101  0.2929
  755MPD2     H11211   4.312   4.640  13.286 -1.9409 -0.0411  0.5418
  755MPD2    H111212   4.502   0.036  12.926 -0.1913  2.8896  0.0779
  755MPD2    H211213   4.201   0.263  13.089 -1.0286 -0.7528 -2.8945
  755MPD2    H311214   4.368   0.216  12.917 -0.4053  0.1834  0.5616
  755MPD2     N11215   4.520   4.590  13.114 -0.5299 -0.1406 -0.3317
  755MPD2    H511216   4.572   4.590  13.027 -2.5350 -1.1375 -1.5618
  755MPD2    N111217   4.126   0.088  13.292  0.1799  0.1220 -0.5472
  755MPD2    H711218   4.108   0.005  13.348  1.9074 -0.4816 -0.9022
  756MPD2     C11219   0.929   0.231   9.987  0.1239  0.0061  0.0049
  756MPD2    C111220   0.799   0.254  10.029  0.1063 -0.4935  0.5410
  756MPD2    C211221   0.695   0.193   9.958 -0.2300 -0.1816 -0.2784
  756MPD2    C311222   0.722   0.106   9.854 -0.1176 -0.3523  0.1108
  756MPD2    C411223   0.858   0.080   9.822  0.2619  0.0608  0.2891
  756MPD2    C511224   0.959   0.145   9.890 -0.2732  0.4497  0.5085
  756MPD2     H11225   0.594   0.204   9.995  1.1528  2.0695  2.9196
  756MPD2    H111226   0.888   0.001   9.753 -1.7102 -1.4341  1.1334
  756MPD2    H211227   1.021   0.274  10.025  0.2207 -1.5281  1.5471
  756MPD2    H311228   1.061   0.131   9.856  0.2249  1.0910  1.7283
  756MPD2     N11229   0.612   0.028   9.798  0.8859  0.1328 -0.2523
  756MPD2    H511230   0.524   0.021   9.849  1.7991  1.6795  1.5656
  756MPD2    N111231   0.770   0.335  10.134  0.3213  0.2340 -0.4435
  756MPD2    H711232   0.671   0.357  10.147  0.3118  0.0780 -0.2635
  757MPD2     C11233   4.541   4.165   9.823  0.0758  0.0157  0.2800
  757MPD2    C111234   4.592   4.142   9.700  0.8699  0.3585 -0.0779
  757MPD2    C211235   4.723   4.194   9.675  0.1747 -0.3068  0.1253
  757MPD2    C311236   0.046   4.279   9.761  0.6152  1.0344  0.9353
  757MPD2    C411237   4.729   4.298   9.882 -0.1070  0.2384 -0.1470
  757MPD2    C511238   4.602   4.252   9.912  0.0379 -0.9572  0.6290
  757MPD2     H11239   0.027   4.169   9.579 -3.7432  2.0199 -2.3170
  757MPD2    H111240   0.043   4.347   9.962 -0.0168 -0.5619  0.2789
  757MPD2    H211241   4.451   4.117   9.860 -0.2309 -0.0371 -0.5348
  757MPD2    H311242   4.553   4.253  10.008 -0.1139  1.7782  0.5171
  757MPD2     N11243   0.168   4.334   9.719  0.2406 -0.3479  0.1329
  757MPD2    H511244   0.192   4.317   9.621 -0.1234  0.6903 -0.1319
  757MPD2    N111245   4.512   4.079   9.607 -0.2157  0.0986  0.1211
  757MPD2    H711246   4.424   4.035   9.634 -0.7974  0.0001 -1.9379
  758MPD2     C11247   0.510   4.285  15.589  0.1461 -0.5306 -0.1951
  758MPD2    C111248   0.597   4.228  15.672  0.5000 -0.1464 -0.3382
  758MPD2    C211249   0.579   4.242  15.810  0.2265 -0.0408  0.8361
  758MPD2    C311250   0.467   4.313  15.865 -0.6298 -0.2418  0.2613
  758MPD2    C411251   0.385   4.375  15.776 -0.8907 -0.0638 -0.6768
  758MPD2    C511252   0.407   4.356  15.642 -0.5261 -0.3320  0.8019
  758MPD2     H11253   0.647   4.194  15.879  0.3924 -0.2730  0.5159
  758MPD2    H111254   0.303   4.440  15.807 -2.2770 -1.0865 -2.1797
  758MPD2    H211255   0.519   4.273  15.481  0.9471 -0.8211 -0.0955
  758MPD2    H311256   0.334   4.395  15.572  0.6206  0.5073  0.0865
  758MPD2     N11257   0.444   4.340  16.005  0.0440  0.2327 -0.2423
  758MPD2    H511258   0.358   4.387  16.028 -0.5557 -0.5606 -0.8671
  758MPD2    N111259   0.714   4.174  15.615 -0.1276  0.2179 -0.4373
  758MPD2    H711260   0.742   4.191  15.519 -1.1261 -1.3582 -0.9982
  759MPD2     C11261   4.115   2.756  10.314 -0.7180 -0.0711 -0.1452
  759MPD2    C111262   4.197   2.736  10.205 -0.3306  0.0273  1.1416
  759MPD2    C211263   4.270   2.843  10.152  1.2315 -0.3643  0.0001
  759MPD2    C311264   4.273   2.963  10.224 -0.1159 -0.1991 -0.0542
  759MPD2    C411265   4.190   2.981  10.337 -0.3942 -0.4417 -0.8220
  759MPD2    C511266   4.111   2.876  10.381 -0.6541  0.0733 -0.1827
  759MPD2     H11267   4.331   2.827  10.063 -1.2339 -5.1045 -0.8581
  759MPD2    H111268   4.187   3.072  10.395 -1.1739  0.2887 -1.9937
  759MPD2    H211269   4.053   2.680  10.361 -0.1267 -0.5936 -0.2016
  759MPD2    H311270   4.062   2.881  10.478 -0.8237 -0.9172 -0.2147
  759MPD2     N11271   4.351   3.067  10.168 -0.0380 -0.0394 -0.6618
  759MPD2    H511272   4.402   3.031  10.088  1.2171 -0.3714  0.2848
  759MPD2    N111273   4.198   2.613  10.130  0.0639 -0.1857  0.4810
  759MPD2    H711274   4.270   2.613  10.057 -1.2868 -0.7514 -0.8446
  760MPD2     C11275   3.594   4.641  12.102 -0.6418 -0.6854  0.5285
  760MPD2    C111276   3.679   4.673  11.993 -0.8700 -0.0568  0.2656
  760MPD2    C211277   3.785   4.580  11.967  1.0432 -0.2974  0.5591
  760MPD2    C311278   3.812   4.473  12.048 -0.1006 -0.7173 -0.1063
  760MPD2    C411279   3.717   4.438  12.144  0.3503  0.0521 -0.3100
  760MPD2    C511280   3.608   4.519  12.164 -0.3292 -0.1495 -0.1458
  760MPD2     H11281   3.841   4.599  11.876 -0.2229  1.8607  0.2275
  760MPD2    H111282   3.737   4.353  12.208  1.5776  0.1244 -0.5938
  760MPD2    H211283   3.520   4.714  12.133 -1.9544 -1.3055 -1.1251
  760MPD2    H311284   3.547   4.501  12.251 -1.5189  1.7973 -0.5825
  760MPD2     N11285   3.918   4.383  12.030  0.0717  0.0270 -0.0729
  760MPD2    H511286   3.944   4.338  12.117 -2.0165  0.8071  0.9438
  760MPD2    N111287   3.654   0.049  11.916  0.0775 -0.8960  0.2936
  760MPD2    H711288   3.569   0.096  11.945  0.4041  0.6731 -1.3023
  761MPD2     C11289   0.109   4.081  10.990 -0.6798 -0.1925  0.0016
  761MPD2    C111290   0.206   4.051  10.896 -0.5306  0.5371  0.3878
  761MPD2    C211291   0.316   4.138  10.881 -0.2765  0.4858  1.0048
  761MPD2    C311292   0.332   4.253  10.954  0.0185  0.3947 -0.4371
  761MPD2    C411293   0.235   4.272  11.053 -0.0283 -0.4260 -0.5388
  761MPD2    C511294   0.124   4.183  11.072 -0.1148 -0.3026 -0.8157
  761MPD2     H11295   0.387   4.100  10.810 -3.0414 -1.9447 -0.4881
  761MPD2    H111296   0.254   4.347  11.128  0.4925 -2.7443  1.6766
  761MPD2    H211297   0.033   4.006  11.008  0.3253 -0.1859  4.3080
  761MPD2    H311298   0.049   4.204  11.147  0.8231  1.3033 -0.3115
  761MPD2     N11299   0.443   4.337  10.949 -0.4230 -0.0574  0.2711
  761MPD2    H511300   0.449   4.407  11.022  2.8853 -1.6153  1.4971
  761MPD2    N111301   0.199   3.918  10.842  0.8134  0.1567 -0.0420
  761MPD2    H711302   0.117   3.865  10.871 -1.1651  1.8206 -2.5494
  762MPD2     C11303   0.712   3.952  10.545  0.8506 -0.0904  0.4095
  762MPD2    C111304   0.723   3.816  10.544  0.1188 -0.0257 -0.2959
  762MPD2    C211305   0.838   3.756  10.494  0.1613  0.3364  0.7191
  762MPD2    C311306   0.937   3.842  10.446  0.2724  0.2624  0.5250
  762MPD2    C411307   0.927   3.983  10.451  0.0531  0.5502 -0.0197
  762MPD2    C511308   0.808   4.040  10.496 -0.2456 -0.2963  0.2114
  762MPD2     H11309   0.868   3.651  10.499  1.1487  0.5770 -0.2895
  762MPD2    H111310   1.007   4.050  10.421  1.5042 -0.9255  0.5173
  762MPD2    H211311   0.611   3.989  10.561  0.4430 -0.6818 -0.8689
  762MPD2    H311312   0.792   4.147  10.504  1.7625  0.1323 -1.5613
  762MPD2     N11313   1.052   3.786  10.384 -0.1672  0.7529 -0.4976
  762MPD2    H511314   1.057   3.685  10.382 -1.1543  0.6922  0.6750
  762MPD2    N111315   0.609   3.743  10.590  0.7769 -0.4010  0.1791
  762MPD2    H711316   0.532   3.804  10.618 -0.5246 -1.3607 -1.2821
  763MPD2     C11317   2.069   4.651  16.331 -0.0140  0.0246  0.0901
  763MPD2    C111318   2.184   4.675  16.257  0.0105  0.2863 -0.0897
  763MPD2    C211319   2.262   0.041  16.293  0.3311  0.0517 -0.4138
  763MPD2    C311320   2.223   0.133  16.387 -0.7426 -0.3366  0.5330
  763MPD2    C411321   2.111   0.108  16.456  0.0888  0.2066 -0.1526
  763MPD2    C511322   2.039   4.736  16.436 -0.1128 -0.2047 -0.3526
  763MPD2     H11323   2.359   0.050  16.244  0.4193  3.7150  0.4639
  763MPD2    H111324   2.067   0.176  16.527  1.2295  1.5145 -0.7155
  763MPD2    H211325   1.999   4.570  16.315  0.1552 -0.2714  0.8477
  763MPD2    H311326   1.948   4.719  16.492  0.4790 -2.0736  0.0496
  763MPD2     N11327   2.299   0.249  16.391  0.2027  0.1869  0.0077
  763MPD2    H511328   2.393   0.239  16.353  0.1249 -0.6929  0.0374
  763MPD2    N111329   2.225   4.606  16.141  0.2700  0.2653  0.1851
  763MPD2    H711330   2.289   4.663  16.087  0.4883 -1.0723 -0.9597
  764MPD2     C11331   0.385   0.792  17.464  0.9334 -0.1366 -0.1556
  764MPD2    C111332   0.273   0.850  17.517  0.6141 -0.0373 -0.6725
  764MPD2    C211333   0.256   0.847  17.651 -0.2271 -0.5011  0.5006
  764MPD2    C311334   0.352   0.790  17.737  0.2439  1.4270  0.2132
  764MPD2    C411335   0.463   0.742  17.681 -0.3402 -0.2735 -0.0428
  764MPD2    C511336   0.474   0.738  17.546  0.0963 -0.3424  0.8482
  764MPD2     H11337   0.168   0.883  17.704  0.8665  0.0666  1.9067
  764MPD2    H111338   0.548   0.705  17.739 -0.8594 -0.1355  0.8089
  764MPD2    H211339   0.402   0.802  17.358 -0.7517  1.2500 -0.2834
  764MPD2    H311340   0.563   0.691  17.506 -1.1195 -1.2977 -0.7889
  764MPD2     N11341   0.322   0.796   0.116  0.1150  0.0198 -0.3355
  764MPD2    H511342   0.244   0.856   0.140  1.4129  2.1769 -1.5495
  764MPD2    N111343   0.179   0.900  17.426  0.6509 -0.8175  0.3039
  764MPD2    H711344   0.198   0.905  17.326  0.0573  0.8519  0.2840
  765MPD2     C11345   0.343   3.831  15.424 -0.5483  0.4010  0.0996
  765MPD2    C111346   0.365   3.874  15.552  0.0916 -0.1363 -0.9447
  765MPD2    C211347   0.486   3.842  15.607 -0.6739  0.1469  0.2796
  765MPD2    C311348   0.585   3.776  15.536  0.2799  0.5337  0.6375
  765MPD2    C411349   0.559   3.731  15.406  0.2459  0.0074  0.0263
  765MPD2    C511350   0.438   3.764  15.351  0.7208  0.1563 -0.4756
  765MPD2     H11351   0.513   3.878  15.705 -1.6399 -1.7848  1.2573
  765MPD2    H111352   0.632   3.676  15.347 -2.0340 -2.0892 -0.8696
  765MPD2    H211353   0.244   3.833  15.380 -0.5701  1.5483  0.2256
  765MPD2    H311354   0.423   3.723  15.252  0.2625 -0.3335 -0.1998
  765MPD2     N11355   0.702   3.738  15.614  0.4906 -0.0918 -0.0906
  765MPD2    H511356   0.702   3.766  15.712  0.2689 -1.6654  0.3648
  765MPD2    N111357   0.255   3.937  15.620 -0.5597 -0.1190  0.3239
  765MPD2    H711358   0.168   3.946  15.567 -1.4240  2.0358  2.1110
  766MPD2     C11359   4.314   3.981  15.320  0.0487 -0.3362 -0.4638
  766MPD2    C111360   4.452   3.965  15.343 -0.5263 -0.4835 -0.1864
  766MPD2    C211361   4.528   3.907  15.245 -0.0003  0.3638  0.0136
  766MPD2    C311362   4.475   3.873  15.121 -0.6975 -0.1067  0.0001
  766MPD2    C411363   4.342   3.898  15.099 -0.6630  0.2055 -0.3072
  766MPD2    C511364   4.259   3.938  15.203  0.4816 -0.9010  0.0348
  766MPD2     H11365   4.633   3.884  15.262  0.0689  0.2171 -0.5864
  766MPD2    H111366   4.298   3.866  15.006 -1.6243  2.4015 -0.6093
  766MPD2    H211367   4.254   4.035  15.392  3.3601  0.6176  1.6025
  766MPD2    H311368   4.152   3.940  15.187  0.5444 -1.1775 -0.4267
  766MPD2     N11369   4.556   3.818  15.013  0.1659 -0.1716 -0.3162
  766MPD2    H511370   4.516   3.802  14.921 -0.9638  1.4801 -0.0976
  766MPD2    N111371   4.505   4.005  15.468 -0.1700  0.0785 -0.0964
  766MPD2    H711372   4.454   4.063  15.534  0.1227  0.7608 -0.4659
  767MPD2     C11373   4.128   4.034  14.804  0.1915  0.0198  0.0377
  767MPD2    C111374   4.266   4.048  14.787 -0.0251  0.4050 -0.3700
  767MPD2    C211375   4.327   3.994  14.672 -1.4285  0.7749  0.9510
  767MPD2    C311376   4.250   3.947  14.574 -0.5103 -0.1653 -0.7249
  767MPD2    C411377   4.113   3.926  14.593  0.0324 -0.1678 -0.1538
  767MPD2    C511378   4.056   3.963  14.712  0.3351  0.0243  0.0358
  767MPD2     H11379   4.435   3.998  14.665 -1.4783  2.5515  1.1315
  767MPD2    H111380   4.048   3.876  14.522 -2.7414  0.8779  1.6573
  767MPD2    H211381   4.087   4.055  14.901 -1.8271  1.5958 -1.1666
  767MPD2    H311382   3.953   3.944  14.740  0.8398 -1.3309  0.9685
  767MPD2     N11383   4.305   3.901  14.457  0.3384 -0.6399 -0.3137
  767MPD2    H511384   4.405   3.886  14.453  0.3205 -0.4204 -1.4708
  767MPD2    N111385   4.339   4.124  14.884 -0.4804 -0.0705  0.4626
  767MPD2    H711386   4.279   4.165  14.955  2.1666  0.7309  2.2231
  768MPD2     C11387   0.607   2.925  10.325 -0.3498 -0.6463  0.0819
  768MPD2    C111388   0.575   2.786  10.326 -0.1033 -0.0080 -0.7362
  768MPD2    C211389   0.664   2.698  10.383 -0.4594 -0.2301  0.1889
  768MPD2    C311390   0.779   2.741  10.443 -1.1530 -0.5956  0.4453
  768MPD2    C411391   0.801   2.875  10.454  0.6057 -0.4499  0.5171
  768MPD2    C511392   0.722   2.969  10.392 -0.2114 -0.3502 -1.0075
  768MPD2     H11393   0.635   2.594  10.373  1.1860 -0.6371 -0.2744
  768MPD2    H111394   0.893   2.905  10.502  1.2585  0.2982 -1.2010
  768MPD2    H211395   0.541   3.001  10.285 -2.5016 -1.1067  2.7240
  768MPD2    H311396   0.742   3.075  10.401 -1.2038 -0.3218  1.0013
  768MPD2     N11397   0.874   2.661  10.509  0.5137 -0.9656  0.1525
  768MPD2    H511398   0.952   2.715  10.544 -1.8339  0.3301  3.3949
  768MPD2    N111399   0.454   2.739  10.285  0.3051  0.2747 -0.3582
  768MPD2    H711400   0.443   2.638  10.291 -1.5298  0.5347  0.6868
  769MPD2     C11401   1.647   0.445  14.957  0.3601 -0.3360  0.3070
  769MPD2    C111402   1.540   0.459  15.041  0.1681  0.2055  0.4571
  769MPD2    C211403   1.549   0.554  15.141 -0.2716 -0.1537  0.6629
  769MPD2    C311404   1.656   0.645  15.152 -0.4804 -0.6979 -0.1125
  769MPD2    C411405   1.758   0.629  15.070  0.0296  0.8476  0.0239
  769MPD2    C511406   1.745   0.536  14.971  0.0702  0.3765  0.2665
  769MPD2     H11407   1.473   0.559  15.218 -1.4929 -2.9801 -0.3676
  769MPD2    H111408   1.848   0.690  15.069  1.7882 -1.7570  0.1771
  769MPD2    H211409   1.655   0.386  14.866 -1.6965 -0.5617  0.2737
  769MPD2    H311410   1.826   0.524  14.900  0.7700 -0.8245  1.2553
  769MPD2     N11411   1.644   0.748  15.245 -0.1705  0.0393  0.4306
  769MPD2    H511412   1.556   0.746  15.296  0.3287  0.0631  1.2956
  769MPD2    N111413   1.419   0.384  15.026 -0.6625  0.3291  0.1991
  769MPD2    H711414   1.425   0.303  14.964  1.6883  1.8384 -1.5202
  770MPD2     C11415   1.185   4.284  14.656  0.4341  0.2124  0.1479
  770MPD2    C111416   1.058   4.331  14.655 -0.1326 -0.3633 -0.0394
  770MPD2    C211417   1.020   4.464  14.702 -0.2894  0.1939 -0.3704
  770MPD2    C311418   1.132   4.541  14.753 -0.6172  0.1577 -0.7410
  770MPD2    C411419   1.258   4.482  14.760  0.1291 -0.3902  0.1164
  770MPD2    C511420   1.291   4.360  14.702  0.3567 -0.3010  0.1110
  770MPD2     H11421   0.919   4.503  14.694 -0.7174 -0.2441  2.8074
  770MPD2    H111422   1.339   4.535  14.808  0.0402  0.8013 -1.0333
  770MPD2    H211423   1.206   4.182  14.628  0.3001  0.7675 -2.0324
  770MPD2    H311424   1.390   4.316  14.707 -0.2770 -1.6536  0.9167
  770MPD2     N11425   1.100   4.672  14.798 -0.1121 -0.0886 -0.4854
  770MPD2    H511426   1.002   4.700  14.796 -0.0207  0.2483 -0.2003
  770MPD2    N111427   0.964   4.237  14.606 -0.0260  0.4338 -0.7424
  770MPD2    H711428   0.995   4.145  14.578  1.6370 -0.1664  3.0187
  771MPD2     C11429   2.138   3.356  13.723  0.0436 -0.0934  0.1137
  771MPD2    C111430   2.052   3.452  13.684 -0.0996 -0.2872 -0.9977
  771MPD2    C211431   2.000   3.441  13.553 -0.1336  0.2562 -0.2781
  771MPD2    C311432   2.020   3.335  13.467 -0.6577 -0.5596 -0.2915
  771MPD2    C411433   2.099   3.235  13.514  0.3312 -0.5935  0.0469
  771MPD2    C511434   2.159   3.245  13.636  0.5038  0.5268 -0.0203
  771MPD2     H11435   1.940   3.525  13.522 -1.5646 -0.5537  0.2821
  771MPD2    H111436   2.109   3.140  13.463  0.2782 -1.8358  2.2968
  771MPD2    H211437   2.184   3.361  13.821  0.5221  3.3185 -0.2640
  771MPD2    H311438   2.239   3.176  13.663  0.1665 -0.3967 -1.3982
  771MPD2     N11439   1.968   3.352  13.343 -0.3568 -0.3560 -0.5195
  771MPD2    H511440   1.901   3.428  13.331 -0.2985 -0.0505  1.1187
  771MPD2    N111441   2.013   3.555  13.771  0.3778 -0.7377  0.1620
  771MPD2    H711442   2.049   3.550  13.866  0.2906 -2.0733  0.1206
  772MPD2     C11443   1.355   4.051  14.000 -0.2746  0.3239  0.2292
  772MPD2    C111444   1.394   3.956  13.916  0.0758  0.0764  0.0562
  772MPD2    C211445   1.290   3.901  13.839 -0.2735 -0.0051 -0.1129
  772MPD2    C311446   1.159   3.938  13.851  0.1294  0.0023 -0.7623
  772MPD2    C411447   1.127   4.043  13.930  0.9363  0.1974  0.4834
  772MPD2    C511448   1.223   4.086  14.015 -0.0723  0.1812 -0.1747
  772MPD2     H11449   1.316   3.823  13.768  1.7196  1.4996 -1.0622
  772MPD2    H111450   1.026   4.076  13.952  0.6291 -0.1803 -0.3686
  772MPD2    H211451   1.423   4.088  14.076 -0.6395  1.0978  0.1808
  772MPD2    H311452   1.186   4.151  14.094  0.2138  0.2959 -0.1371
  772MPD2     N11453   1.052   3.892  13.765 -0.2838  0.3651  0.2910
  772MPD2    H511454   0.975   3.958  13.774  0.2234  0.9715  0.2508
  772MPD2    N111455   1.528   3.916  13.889  0.3823  0.4389 -0.0205
  772MPD2    H711456   1.540   3.846  13.817  2.8829 -0.3451  1.1472
  773MPD2     C11457   1.068   0.133   0.287  0.3769  0.1036  0.0690
  773MPD2    C111458   1.058   0.011   0.224  0.9020  0.3251 -0.1698
  773MPD2    C211459   1.137   4.647   0.263  0.2734 -0.6101 -0.0002
  773MPD2    C311460   1.239   4.662   0.352  0.1095  0.2399 -0.0914
  773MPD2    C411461   1.264   0.041   0.403 -0.4228 -0.2643  0.0360
  773MPD2    C511462   1.172   0.142   0.380 -0.6845 -0.1066  0.0933
  773MPD2     H11463   1.131   4.550   0.214  2.8164  0.1719 -1.8401
  773MPD2    H111464   1.351   0.061   0.464 -1.3886  1.9476  0.7018
  773MPD2    H211465   0.999   0.214   0.265 -0.0613  0.0920  1.4409
  773MPD2    H311466   1.190   0.238   0.427  1.0867 -0.8222  0.8891
  773MPD2     N11467   1.326   4.554   0.376 -0.2871  0.1893 -0.8367
  773MPD2    H511468   1.312   4.470   0.321  0.6376 -1.4559  1.4408
  773MPD2    N111469   0.951   4.727   0.135  0.2021 -0.3085  0.1141
  773MPD2    H711470   0.945   4.628   0.112  2.6553 -0.2061 -0.9753
  774MPD2     C11471   0.293   3.641  13.209  0.2142  0.4638  0.2705
  774MPD2    C111472   0.248   3.699  13.324  0.1995  0.1681 -0.3012
  774MPD2    C211473   0.273   3.834  13.343 -0.0850  0.0995 -0.5485
  774MPD2    C311474   0.373   3.893  13.273 -0.4025  0.0473 -0.0127
  774MPD2    C411475   0.439   3.824  13.168 -0.1269  0.3713 -0.2988
  774MPD2    C511476   0.385   3.703  13.132  1.0333 -0.5101  0.5490
  774MPD2     H11477   0.222   3.882  13.426 -3.1163 -1.2308 -1.6087
  774MPD2    H111478   0.509   3.862  13.095  0.9044 -0.4515  0.2578
  774MPD2    H211479   0.267   3.539  13.181  2.0429 -0.0452  0.4223
  774MPD2    H311480   0.437   3.655  13.050  0.0020 -0.3466 -0.1849
  774MPD2     N11481   0.420   4.030  13.308  0.4281  0.0341  0.3772
  774MPD2    H511482   0.374   4.070  13.389 -2.7327  1.0317 -1.9223
  774MPD2    N111483   0.155   3.622  13.397 -0.3951  0.2115  0.5850
  774MPD2    H711484   0.132   3.532  13.356  2.4022 -1.2196  2.1706
  775MPD2     C11485   1.819   0.544  15.640  0.2180  0.2510  0.1997
  775MPD2    C111486   1.866   0.599  15.761  0.5282 -0.1370 -0.3100
  775MPD2    C211487   1.965   0.693  15.754 -0.3877  0.7561 -0.0165
  775MPD2    C311488   2.017   0.734  15.629  0.7170  0.5892 -0.1209
  775MPD2    C411489   1.985   0.667  15.523 -0.0933 -0.4822  0.4528
  775MPD2    C511490   1.884   0.575  15.523 -0.5753 -0.0339  0.7592
  775MPD2     H11491   1.999   0.744  15.843 -0.4526 -0.1489  0.5266
  775MPD2    H111492   2.028   0.685  15.426 -1.0105 -1.0199 -0.0562
  775MPD2    H211493   1.736   0.475  15.635 -1.4724  2.1390  1.9407
  775MPD2    H311494   1.872   0.526  15.427  1.6902  2.1420 -0.6430
  775MPD2     N11495   2.116   0.831  15.602 -0.0903 -0.1300 -0.3856
  775MPD2    H511496   2.161   0.839  15.512 -1.0695  1.6793 -0.7094
  775MPD2    N111497   1.785   0.570  15.874  0.6945 -0.0525  0.7545
  775MPD2    H711498   1.713   0.500  15.860  1.4114 -1.1600  2.5687
  776MPD2     C11499   0.290   0.985  11.856 -0.2838  0.1332 -0.3413
  776MPD2    C111500   0.388   0.930  11.773  0.3971 -0.1405  0.4752
  776MPD2    C211501   0.455   1.026  11.699  0.0275  1.0198 -0.0051
  776MPD2    C311502   0.451   1.160  11.729  0.3982 -0.2304 -0.0195
  776MPD2    C411503   0.371   1.210  11.827 -0.2714 -0.2044 -1.1165
  776MPD2    C511504   0.289   1.121  11.886 -0.4413  0.2635  0.5508
  776MPD2     H11505   0.516   0.997  11.614  0.6787 -2.5858  1.6596
  776MPD2    H111506   0.359   1.318  11.828  1.6477 -0.0107  1.5324
  776MPD2    H211507   0.222   0.924  11.913 -0.0825  2.7368  2.6783
  776MPD2    H311508   0.215   1.166  11.952 -1.6824  1.3640 -1.5983
  776MPD2     N11509   0.522   1.253  11.649  0.0564  0.3206 -0.5511
  776MPD2    H511510   0.498   1.352  11.654  2.4746  0.8465  0.4915
  776MPD2    N111511   0.399   0.787  11.753  0.3512  0.2978 -0.0600
  776MPD2    H711512   0.341   0.740  11.822 -0.4053  0.9951 -0.2241
  777MPD2     C11513   1.924   3.670   0.901  0.1475  0.2633 -0.2224
  777MPD2    C111514   1.820   3.658   0.996  0.3366  0.6462 -0.0106
  777MPD2    C211515   1.717   3.571   0.975  0.4488 -0.6158 -0.8681
  777MPD2    C311516   1.722   3.493   0.857 -0.2415  0.6392  0.8970
  777MPD2    C411517   1.834   3.501   0.780 -0.1159 -0.2197  0.0313
  777MPD2    C511518   1.933   3.589   0.795 -0.0361  0.3149  1.1823
  777MPD2     H11519   1.627   3.575   1.036  0.4479  1.3949 -1.0207
  777MPD2    H111520   1.840   3.433   0.696  0.8954 -0.5785  0.4045
  777MPD2    H211521   2.004   3.743   0.912  1.9831 -2.2421  2.9443
  777MPD2    H311522   2.022   3.573   0.734  0.1244 -1.3480  1.8298
  777MPD2     N11523   1.611   3.405   0.830  0.1873  0.3515 -0.2202
  777MPD2    H511524   1.536   3.405   0.898  0.0760 -0.5679 -0.3384
  777MPD2    N111525   1.825   3.752   1.104 -0.0145 -0.0093 -0.0156
  777MPD2    H711526   1.898   3.822   1.093  0.0996  0.0865  1.3630
  778MPD2     C11527   2.052   3.250  15.367 -0.3208  0.2213 -0.1950
  778MPD2    C111528   2.090   3.173  15.262 -0.0819  0.3457  0.2064
  778MPD2    C211529   2.157   3.223  15.159 -0.2318 -0.7522  0.1044
  778MPD2    C311530   2.205   3.348  15.155 -1.0040 -0.7278 -0.3931
  778MPD2    C411531   2.173   3.434  15.263 -0.4138  0.1125 -0.4229
  778MPD2    C511532   2.094   3.384  15.366  0.2522  0.1987 -0.5847
  778MPD2     H11533   2.196   3.159  15.081  1.1593  1.9589 -1.4157
  778MPD2    H111534   2.192   3.541  15.259 -1.0026  0.2254 -0.2816
  778MPD2    H211535   1.996   3.222  15.455 -0.0365 -0.0476 -0.1002
  778MPD2    H311536   2.067   3.459  15.440 -0.7643  0.1801 -0.9481
  778MPD2     N11537   2.270   3.388  15.035 -0.2981 -0.0404  0.1955
  778MPD2    H511538   2.285   3.311  14.970  1.4528  0.2400  0.2526
  778MPD2    N111539   2.039   3.045  15.239  0.1208  0.0978 -0.7169
  778MPD2    H711540   2.058   3.004  15.148 -1.0118 -2.0319 -0.0055
  779MPD2     C11541   1.552   2.293  14.028  0.8218  0.6964 -0.1786
  779MPD2    C111542   1.679   2.313  14.087  0.1097  0.4401 -0.4021
  779MPD2    C211543   1.740   2.431  14.064  0.2978  0.2255  0.6202
  779MPD2    C311544   1.685   2.535  13.984 -0.4461 -0.7605 -0.4187
  779MPD2    C411545   1.567   2.508  13.926  0.0178 -0.1420  0.1190
  779MPD2    C511546   1.503   2.386  13.946  0.3056 -0.9234  0.1668
  779MPD2     H11547   1.834   2.455  14.112  1.9207 -1.2198 -1.8448
  779MPD2    H111548   1.532   2.588  13.862  0.6689 -0.4923 -0.6826
  779MPD2    H211549   1.493   2.202  14.036 -0.2375  1.2382 -2.1030
  779MPD2    H311550   1.411   2.356  13.897 -1.1973  2.7435  0.7413
  779MPD2     N11551   1.745   2.660  13.964 -0.2260  0.3532 -0.2468
  779MPD2    H511552   1.691   2.735  13.921  0.0215 -0.0823 -1.3087
  779MPD2    N111553   1.749   2.218  14.165 -0.0716 -0.2678 -0.6723
  779MPD2    H711554   1.847   2.236  14.184 -0.1728  0.0263 -0.4310
  780MPD2     C11555   1.632   1.917   1.118 -0.8069 -0.6307  0.0906
  780MPD2    C111556   1.569   1.943   0.996  0.2536  0.1470 -0.7596
  780MPD2    C211557   1.644   2.017   0.904  0.3681 -0.0075 -0.4551
  780MPD2    C311558   1.768   2.061   0.938 -0.5425  0.5363 -0.3547
  780MPD2    C411559   1.823   2.051   1.068  0.5822  0.7316 -0.0175
  780MPD2    C511560   1.749   1.978   1.158 -0.5096 -0.3590  0.5267
  780MPD2     H11561   1.609   2.022   0.802 -0.5384  3.2249  0.0110
  780MPD2    H111562   1.925   2.080   1.088  0.2662  1.8660 -0.0413
  780MPD2    H211563   1.586   1.852   1.191 -0.5783  2.2751  2.8028
  780MPD2    H311564   1.794   1.965   1.256  3.1787  1.7822 -0.8814
  780MPD2     N11565   1.844   2.123   0.841 -0.1511 -0.9038 -0.6301
  780MPD2    H511566   1.804   2.132   0.748  1.4408  0.3091 -1.2035
  780MPD2    N111567   1.453   1.869   0.953  0.0843  0.1806  0.6680
  780MPD2    H711568   1.419   1.796   1.015 -1.3045  0.1991 -0.0632
  781MPD2     C11569   3.345   3.643  11.715 -0.0720 -0.0963  0.4169
  781MPD2    C111570   3.367   3.599  11.844  0.4512  0.1056  0.3468
  781MPD2    C211571   3.434   3.481  11.867 -0.1164 -0.2620  0.1683
  781MPD2    C311572   3.474   3.396  11.762 -0.1193  0.4094  0.0618
  781MPD2    C411573   3.468   3.452  11.635  0.3973  0.6717  0.0114
  781MPD2    C511574   3.399   3.572  11.613  0.1531 -0.5239  0.2175
  781MPD2     H11575   3.446   3.442  11.968 -1.4695 -4.1009 -1.1581
  781MPD2    H111576   3.498   3.396  11.547 -1.2444  0.8203 -0.6503
  781MPD2    H211577   3.289   3.732  11.689  2.3699  1.7084  1.2744
  781MPD2    H311578   3.384   3.604  11.511  0.2192 -0.2641  0.2894
  781MPD2     N11579   3.523   3.262  11.775  0.0697 -0.1698  0.2478
  781MPD2    H511580   3.567   3.220  11.694 -1.4693 -1.5802  0.1288
  781MPD2    N111581   3.319   3.670  11.958 -0.1027  0.4653  0.1321
  781MPD2    H711582   3.350   3.640  12.049  1.0673  2.5536  0.3919
  782MPD2     C11583   2.120   4.468  10.661 -0.6791 -0.0568 -0.0182
  782MPD2    C111584   2.006   4.531  10.620  0.2041  0.1432  0.0334
  782MPD2    C211585   1.983   4.652  10.669  0.1400  0.0312 -0.4859
  782MPD2    C311586   2.070   4.718  10.750 -0.6543  0.0659 -0.9530
  782MPD2    C411587   2.187   4.661  10.782 -0.5485 -0.3524 -0.1689
  782MPD2    C511588   2.208   4.534  10.746 -0.1097  0.6338  0.0178
  782MPD2     H11589   1.900   4.709  10.628  0.9239  0.4108 -1.5401
  782MPD2    H111590   2.265   4.713  10.836 -0.6053 -0.4719  0.0260
  782MPD2    H211591   2.148   4.370  10.625 -0.6163  0.6359 -1.8583
  782MPD2    H311592   2.299   4.482  10.774 -2.1579 -1.5835  2.5412
  782MPD2     N11593   2.035   0.111  10.764  0.1387 -0.9132  0.3821
  782MPD2    H511594   1.941   0.140  10.738  0.1950 -2.5073 -1.6118
  782MPD2    N111595   1.931   4.471  10.516 -0.2552  0.4343 -0.0009
  782MPD2    H711596   1.979   4.390  10.477  0.1312 -1.0038  3.4603
  783MPD2     C11597   0.933   4.362  10.330 -0.1195 -0.3903 -1.2460
  783MPD2    C111598   1.000   4.410  10.439 -0.3280  0.0274 -0.8361
  783MPD2    C211599   1.139   4.402  10.442  0.3115  0.0134  0.0315
  783MPD2    C311600   1.217   4.357  10.342 -0.2039  0.2648 -0.4219
  783MPD2    C411601   1.147   4.297  10.237  0.2176 -0.0300 -0.5258
  783MPD2    C511602   1.010   4.293  10.240 -0.0110 -0.4347 -0.2014
  783MPD2     H11603   1.193   4.439  10.529  0.8846 -2.1942  0.6150
  783MPD2    H111604   1.200   4.267  10.147  0.7388  2.3121 -1.0105
  783MPD2    H211605   0.829   4.380  10.305 -0.1483  0.5022 -0.4793
  783MPD2    H311606   0.961   4.254  10.152 -1.5118 -0.8813  0.8308
  783MPD2     N11607   1.355   4.362  10.345  0.0094  0.0043 -0.4855
  783MPD2    H511608   1.397   4.426  10.411 -0.8997  1.7711 -1.5911
  783MPD2    N111609   0.917   4.453  10.553  0.4115  0.0500 -0.6546
  783MPD2    H711610   0.818   4.432  10.542  0.7038 -0.7857 -1.7108
  784MPD2     C11611   3.586   0.309   1.227  0.6114  0.7497 -0.0734
  784MPD2    C111612   3.602   0.446   1.227  0.1046 -0.6557 -0.1176
  784MPD2    C211613   3.514   0.524   1.156  0.1974  0.8793 -0.2692
  784MPD2    C311614   3.417   0.464   1.078  0.2282 -0.1235 -0.6267
  784MPD2    C411615   3.411   0.324   1.070 -0.0628  0.4332  0.2873
  784MPD2    C511616   3.494   0.249   1.145  0.3656  0.6483  0.1855
  784MPD2     H11617   3.527   0.631   1.162  1.9418  0.6925 -0.6246
  784MPD2    H111618   3.342   0.272   1.004  0.2396 -1.4142  1.4384
  784MPD2    H211619   3.656   0.245   1.279 -0.7773 -0.9002 -0.2362
  784MPD2    H311620   3.491   0.141   1.141  0.6888  0.6245  0.5762
  784MPD2     N11621   3.324   0.551   1.011 -0.3521 -0.1719 -0.0328
  784MPD2    H511622   3.319   0.650   1.033  1.1914 -0.0275 -0.3764
  784MPD2    N111623   3.714   0.510   1.291  0.2895  0.3165  0.1446
  784MPD2    H711624   3.721   0.611   1.292  1.3242  0.2184  2.2431
  785MPD2     C11625   4.415   2.910  11.029 -0.3713 -0.4334 -0.3736
  785MPD2    C111626   4.327   2.989  11.096  0.1732 -0.2646 -0.8808
  785MPD2    C211627   4.201   2.937  11.119 -0.4857 -0.2346 -0.2685
  785MPD2    C311628   4.151   2.820  11.067 -0.0321  0.2151  0.1693
  785MPD2    C411629   4.240   2.734  11.000 -0.0672  0.0165 -0.3620
  785MPD2    C511630   4.369   2.786  10.995 -0.3993  0.0490  0.2049
  785MPD2     H11631   4.128   2.986  11.182  0.3983  2.8524 -1.6625
  785MPD2    H111632   4.205   2.639  10.960 -2.3421 -0.3209  2.4242
  785MPD2    H211633   4.515   2.949  11.013 -1.1102  1.2194 -0.9272
  785MPD2    H311634   4.438   2.724  10.938  0.5230 -0.7561  2.1850
  785MPD2     N11635   4.015   2.792  11.090 -0.2728  0.4808 -0.2804
  785MPD2    H511636   3.961   2.861  11.142 -0.6063 -1.0658  1.4025
  785MPD2    N111637   4.357   3.119  11.132 -0.6120  0.0086 -0.4866
  785MPD2    H711638   4.447   3.156  11.103 -2.0004  0.5184 -4.0567
  786MPD2     C11639   2.142   1.260  14.821 -1.0361  0.0060  0.5301
  786MPD2    C111640   2.266   1.306  14.773 -0.0997 -0.2346 -0.4317
  786MPD2    C211641   2.305   1.432  14.809  0.6365 -0.2287  0.8620
  786MPD2    C311642   2.233   1.513  14.904  0.0188  0.6618 -0.6062
  786MPD2    C411643   2.117   1.453  14.957  0.4098 -0.0549 -0.2348
  786MPD2    C511644   2.074   1.327  14.921 -0.1971 -0.2002  0.5171
  786MPD2     H11645   2.393   1.468  14.757 -1.6362  0.9091 -2.2027
  786MPD2    H111646   2.056   1.504  15.030  3.8517  1.6229  1.4352
  786MPD2    H211647   2.104   1.163  14.790  2.0145 -1.0189 -0.0479
  786MPD2    H311648   1.981   1.286  14.959 -0.1479  0.8846  1.8103
  786MPD2     N11649   2.267   1.637  14.949  0.1443 -0.5201  0.1556
  786MPD2    H511650   2.203   1.683  15.014  0.0452  0.1728 -0.4364
  786MPD2    N111651   2.344   1.235  14.673 -0.4775 -0.0226 -0.1966
  786MPD2    H711652   2.437   1.272  14.656 -0.5995 -0.0566 -0.9175
  787MPD2     C11653   2.925   1.305  14.629  0.9672  0.4263  0.4000
  787MPD2    C111654   2.907   1.180  14.573 -0.8370  0.4287  0.6754
  787MPD2    C211655   3.016   1.091  14.579 -0.3304 -0.2224  0.0259
  787MPD2    C311656   3.141   1.122  14.646 -0.0447 -0.0769 -0.4611
  787MPD2    C411657   3.161   1.253  14.684  0.4016  0.0609  0.7634
  787MPD2    C511658   3.051   1.339  14.668 -0.2718 -0.3346  0.3656
  787MPD2     H11659   3.015   0.997  14.524  1.0715  1.1840 -2.4088
  787MPD2    H111660   3.249   1.287  14.737  1.4455  1.2697 -1.7725
  787MPD2    H211661   2.849   1.380  14.639 -1.1394 -1.1501 -4.0857
  787MPD2    H311662   3.074   1.437  14.708  1.6416 -0.1534 -1.2050
  787MPD2     N11663   3.236   1.019  14.668  0.4532  0.2808  0.1637
  787MPD2    H511664   3.208   0.931  14.627  2.7694 -0.3961  0.0448
  787MPD2    N111665   2.775   1.149  14.525  0.3224 -0.4316 -0.5730
  787MPD2    H711666   2.708   1.224  14.542  1.6984  0.2226  1.9171
  788MPD2     C11667   0.220   0.075   0.832  0.2383 -0.2609  0.4848
  788MPD2    C111668   0.109   0.005   0.790  0.5044  0.4844  0.2229
  788MPD2    C211669   4.734   0.078   0.769  0.7795  0.4482  0.3502
  788MPD2    C311670   4.732   0.215   0.765 -0.2538  0.2173  0.2592
  788MPD2    C411671   0.106   0.281   0.797  0.4339  0.3263 -0.3297
  788MPD2    C511672   0.220   0.209   0.832  0.0000 -0.2264  0.5431
  788MPD2     H11673   4.645   0.022   0.743  0.8865  1.4765 -2.1897
  788MPD2    H111674   0.111   0.389   0.800 -3.0557  0.5443 -2.3816
  788MPD2    H211675   0.315   0.025   0.852  0.3293  0.0522  0.8436
  788MPD2    H311676   0.299   0.268   0.877 -1.7224  2.4014  0.0904
  788MPD2     N11677   4.617   0.290   0.723  0.0710  0.5384 -0.0646
  788MPD2    H511678   4.625   0.390   0.737 -0.0119  0.3844  1.0732
  788MPD2    N111679   0.107   4.607   0.780  0.2684  0.0284 -0.3671
  788MPD2    H711680   0.020   4.567   0.747  0.2241 -0.0066 -0.2072
  789MPD2     C11681   0.271   4.142  16.451 -0.0099  0.0854  0.3559
  789MPD2    C111682   0.162   4.178  16.376 -0.7839  0.6988 -0.7079
  789MPD2    C211683   0.081   4.284  16.418  0.0622  0.0249  0.1805
  789MPD2    C311684   0.107   4.351  16.536 -0.3277 -0.0198 -0.9392
  789MPD2    C411685   0.222   4.316  16.615  0.2699 -0.3433  0.7270
  789MPD2    C511686   0.301   4.213  16.566  0.1617  0.4516 -0.2718
  789MPD2     H11687   0.009   4.322  16.347 -0.9221 -1.7587  0.2406
  789MPD2    H111688   0.236   4.363  16.711  0.5670 -0.3850  0.7048
  789MPD2    H211689   0.325   4.050  16.429  2.2205  1.5204 -0.0666
  789MPD2    H311690   0.394   4.191  16.617 -0.8241  0.1088  1.3656
  789MPD2     N11691   0.023   4.457  16.584  0.3292  0.2881 -0.4581
  789MPD2    H511692   0.047   4.493  16.676  0.3973  0.7675 -0.6654
  789MPD2    N111693   0.115   4.094  16.274  0.3101  0.3671 -0.1808
  789MPD2    H711694   0.177   4.019  16.246  1.7815  0.9406  1.5129
  790MPD2     C11695   1.274   1.000  13.655 -0.3334 -0.0412  0.2470
  790MPD2    C111696   1.137   0.978  13.641 -0.5355 -0.5395  0.1753
  790MPD2    C211697   1.082   0.965  13.511 -0.6123  0.0458 -0.5459
  790MPD2    C311698   1.167   0.984  13.399 -0.3982 -0.3405  0.1045
  790MPD2    C411699   1.298   1.017  13.418  0.1211  0.2154 -0.3288
  790MPD2    C511700   1.352   1.014  13.545 -1.3622  0.2490  0.0350
  790MPD2     H11701   0.976   0.948  13.495 -0.6558  1.3467 -1.6374
  790MPD2    H111702   1.365   1.038  13.335  0.4921  0.0096 -0.0823
  790MPD2    H211703   1.316   1.007  13.754  1.1597  0.6982 -0.4487
  790MPD2    H311704   1.453   1.046  13.566 -1.0159 -0.1224 -1.0735
  790MPD2     N11705   1.117   0.958  13.272 -1.0546 -0.2561  0.4014
  790MPD2    H511706   1.016   0.951  13.268 -1.2113  2.2545 -0.3107
  790MPD2    N111707   1.066   0.955  13.760 -0.1242  0.3207  0.4489
  790MPD2    H711708   1.119   0.972  13.845  0.6917  2.3933 -0.4823
  791MPD2     C11709   0.546   1.267  13.087 -0.2980 -0.8977 -0.4013
  791MPD2    C111710   0.571   1.160  13.011 -0.6481  0.7702 -0.0703
  791MPD2    C211711   0.464   1.102  12.955  0.4087  0.1083 -0.2904
  791MPD2    C311712   0.335   1.151  12.972  0.3154  0.5087 -1.0186
  791MPD2    C411713   0.313   1.258  13.052 -0.3342 -0.0020 -0.4263
  791MPD2    C511714   0.419   1.320  13.102 -0.6804  0.3317  0.3077
  791MPD2     H11715   0.484   1.009  12.903  1.0884  0.2789 -0.3441
  791MPD2    H111716   0.213   1.299  13.064 -0.3050  0.3900 -1.5307
  791MPD2    H211717   0.635   1.309  13.134 -0.4447  0.6273 -1.5001
  791MPD2    H311718   0.409   1.407  13.167 -1.7329  0.5212 -0.1095
  791MPD2     N11719   0.224   1.076  12.921  0.0672 -0.8174 -0.0621
  791MPD2    H511720   0.245   0.986  12.878  0.8624 -0.3533 -0.6679
  791MPD2    N111721   0.708   1.115  13.007 -0.0571 -0.1644 -0.3952
  791MPD2    H711722   0.783   1.160  13.059 -1.6342  2.5560 -0.4895
  792MPD2     C11723   1.182   1.029  11.205  0.6188  0.7174  0.1398
  792MPD2    C111724   1.129   1.110  11.109 -0.4125  0.4277  0.2384
  792MPD2    C211725   0.998   1.146  11.108 -0.2439 -0.1808 -0.2489
  792MPD2    C311726   0.899   1.082  11.192 -0.8368 -0.3588  0.2341
  792MPD2    C411727   0.956   1.001  11.293  0.7910 -0.5498 -0.3661
  792MPD2    C511728   1.094   0.974  11.295  0.1046 -0.7499 -0.3615
  792MPD2     H11729   0.974   1.223  11.035 -1.0517 -1.3723 -1.2233
  792MPD2    H111730   0.896   0.953  11.369 -0.4382  0.5734 -0.6393
  792MPD2    H211731   1.284   0.992  11.205 -0.0691 -1.1507 -1.0323
  792MPD2    H311732   1.126   0.903  11.370  1.2250  1.5926  1.3904
  792MPD2     N11733   0.759   1.102  11.193 -0.0314  0.1939  0.0149
  792MPD2    H511734   0.712   1.032  11.248  0.2574  0.6501  0.8397
  792MPD2    N111735   1.221   1.158  11.011  0.0303  0.1411  0.3785
  792MPD2    H711736   1.307   1.105  11.010  0.0647  0.2029  0.1188
  793MPD2     C11737   0.289   0.820  10.459  0.3573 -0.7603 -0.2190
  793MPD2    C111738   0.412   0.873  10.488 -0.2393  0.3305 -0.3890
  793MPD2    C211739   0.416   0.968  10.581 -0.0061  0.4358  0.5016
  793MPD2    C311740   0.310   1.013  10.655  0.4670 -0.6659 -0.5487
  793MPD2    C411741   0.184   0.972  10.622  0.3152 -0.2552  0.6443
  793MPD2    C511742   0.180   0.880  10.519 -0.1376  0.2895  0.5935
  793MPD2     H11743   0.516   0.986  10.620  0.0945 -0.1568  0.5164
  793MPD2    H111744   0.092   1.011  10.666  0.8102  2.5947 -0.8159
  793MPD2    H211745   0.269   0.749  10.380 -1.7480  1.4948 -1.7394
  793MPD2    H311746   0.081   0.845  10.491  1.1654 -2.0028 -1.1421
  793MPD2     N11747   0.345   1.089  10.768  0.6626  0.2013  0.8201
  793MPD2    H511748   0.442   1.115  10.784  0.5221  0.7794  0.7382
  793MPD2    N111749   0.535   0.810  10.460  0.0016 -0.0684 -0.0049
  793MPD2    H711750   0.616   0.839  10.514  1.0959  0.2792 -1.8216
  794MPD2     C11751   0.883   0.167  17.118  0.3500 -0.3117  0.1068
  794MPD2    C111752   0.758   0.130  17.144  0.0338  0.0966 -0.3373
  794MPD2    C211753   0.666   0.125  17.043 -0.9109 -0.4296  0.0415
  794MPD2    C311754   0.697   0.179  16.919  0.7248 -0.1100 -0.3129
  794MPD2    C411755   0.825   0.218  16.893  0.6209  0.3829 -0.0072
  794MPD2    C511756   0.912   0.229  16.997 -0.5076 -0.2762 -0.0453
  794MPD2     H11757   0.562   0.100  17.061 -0.7104 -0.9194  0.5247
  794MPD2    H111758   0.858   0.271  16.804 -0.7624  0.6045 -0.3936
  794MPD2    H211759   0.958   0.171  17.196 -0.3920 -0.2122  0.8151
  794MPD2    H311760   1.010   0.275  16.989 -1.2275  1.1057 -0.9509
  794MPD2     N11761   0.595   0.196  16.824  0.2860  0.4453 -0.1321
  794MPD2    H511762   0.500   0.189  16.859  0.3520 -0.2734 -0.1078
  794MPD2    N111763   0.724   0.074  17.275  0.2237 -0.3819 -0.1179
  794MPD2    H711764   0.627   0.046  17.279  0.0684  0.1883 -0.0203
  795MPD2     C11765   3.218   2.634  13.979  0.1456 -0.3062 -0.2736
  795MPD2    C111766   3.165   2.538  13.892  0.1865 -0.1998  0.0025
  795MPD2    C211767   3.234   2.422  13.869 -0.1016  0.0989  0.0562
  795MPD2    C311768   3.362   2.401  13.924  0.2831 -0.3812 -1.1104
  795MPD2    C411769   3.407   2.500  14.009  0.1442  0.4150  0.1281
  795MPD2    C511770   3.336   2.611  14.043 -0.3728  0.2939  0.1926
  795MPD2     H11771   3.204   2.350  13.795 -0.6347 -1.0716  1.4052
  795MPD2    H111772   3.509   2.499  14.046 -0.9047 -1.3274  2.9875
  795MPD2    H211773   3.170   2.729  14.001  2.4412  0.5324  1.1347
  795MPD2    H311774   3.376   2.676  14.120  1.2798  0.6275 -0.9712
  795MPD2     N11775   3.434   2.282  13.882 -0.6286  0.3578  0.0972
  795MPD2    H511776   3.394   2.207  13.826 -3.7894  0.4772  2.1474
  795MPD2    N111777   3.045   2.568  13.816  0.4658  0.1374 -0.9055
  795MPD2    H711778   3.027   2.496  13.747 -2.5573 -0.8754  0.9320
  796MPD2     C11779   2.718   3.833  16.335  0.7133  0.0647  0.0672
  796MPD2    C111780   2.823   3.884  16.254 -0.1304  0.1189 -0.4943
  796MPD2    C211781   2.809   4.009  16.197 -0.6659  0.0128  0.3566
  796MPD2    C311782   2.700   4.088  16.219 -0.6985 -0.1553  0.9655
  796MPD2    C411783   2.601   4.036  16.295 -0.5743  0.4801  0.5260
  796MPD2    C511784   2.603   3.910  16.350 -0.5461 -0.1553 -0.4691
  796MPD2     H11785   2.890   4.055  16.140 -2.7674  2.1398 -0.9079
  796MPD2    H111786   2.512   4.089  16.327 -0.0804  1.8919 -0.4248
  796MPD2    H211787   2.718   3.730  16.368 -0.9092  0.4573  1.3273
  796MPD2    H311788   2.525   3.868  16.412  1.6532 -0.8513  1.8037
  796MPD2     N11789   2.705   4.222  16.176  0.1467  0.5726 -0.6085
  796MPD2    H511790   2.793   4.250  16.136  0.5962 -1.4017 -1.0037
  796MPD2    N111791   2.946   3.813  16.249 -0.3050  0.1907  0.7554
  796MPD2    H711792   2.939   3.732  16.310 -0.0474 -0.7961 -0.5408
  797MPD2     C11793   4.004   3.376  17.197  0.3840  0.1835 -0.3892
  797MPD2    C111794   4.077   3.492  17.212  0.1512  0.0154  0.3489
  797MPD2    C211795   4.149   3.538  17.106 -0.0256 -0.8212  0.1515
  797MPD2    C311796   4.150   3.480  16.986 -0.6356  0.1242 -0.2198
  797MPD2    C411797   4.079   3.360  16.972  0.0086 -0.3463  0.1407
  797MPD2    C511798   4.023   3.302  17.080 -0.0564 -0.0573 -0.2913
  797MPD2     H11799   4.219   3.620  17.119 -0.1528 -0.7611  0.4672
  797MPD2    H111800   4.077   3.311  16.876 -2.6371 -1.1304  0.6035
  797MPD2    H211801   3.939   3.351  17.280 -0.7981  0.5719 -1.2001
  797MPD2    H311802   3.968   3.209  17.073 -3.0422  1.7010 -0.4137
  797MPD2     N11803   4.229   3.544  16.889  0.6995 -0.3822  0.2202
  797MPD2    H511804   4.287   3.622  16.918 -0.9782  1.0711 -0.2851
  797MPD2    N111805   4.084   3.563  17.337 -0.5950  0.0454 -0.0975
  797MPD2    H711806   4.156   3.634  17.326 -1.8528  1.0101 -2.1015
  798MPD2     C11807   4.430   4.185  17.075  0.3671  0.0744  0.1025
  798MPD2    C111808   4.400   4.054  17.051 -0.3630  0.0380 -0.1444
  798MPD2    C211809   4.344   3.979  17.150  0.2176 -0.2578  0.3103
  798MPD2    C311810   4.343   4.018  17.282 -0.8929 -0.4422 -0.1775
  798MPD2    C411811   4.392   4.142  17.310  0.6162 -0.3792 -0.1418
  798MPD2    C511812   4.437   4.225  17.207 -0.3583  0.2042 -0.1075
  798MPD2     H11813   4.302   3.882  17.127  1.2050 -0.8462  1.0171
  798MPD2    H111814   4.387   4.168  17.415  0.1137 -0.4764 -0.1431
  798MPD2    H211815   4.466   4.259  17.003 -0.3892  0.6012  0.2622
  798MPD2    H311816   4.475   4.324  17.232 -3.2210  0.9920  1.0572
  798MPD2     N11817   4.296   3.928  17.380 -0.6746 -0.2858 -0.6518
  798MPD2    H511818   4.278   3.832  17.353 -0.4662 -0.5143  0.0383
  798MPD2    N111819   4.404   4.007  16.916 -0.3425 -0.2247  0.0594
  798MPD2    H711820   4.402   4.072  16.839  1.4838 -1.3138 -0.9060
  799MPD2     C11821   2.954   0.512  14.718 -0.6272  0.5955  0.6208
  799MPD2    C111822   2.866   0.435  14.661  0.1370  0.4787  0.0912
  799MPD2    C211823   2.786   0.480  14.558  1.1625  0.2220  0.7557
  799MPD2    C311824   2.812   0.607  14.501  0.4634 -0.3100 -0.9649
  799MPD2    C411825   2.901   0.688  14.567 -0.1829 -0.2021 -0.2785
  799MPD2    C511826   2.963   0.644  14.682  0.7551 -0.9955 -0.7469
  799MPD2     H11827   2.726   0.407  14.504  1.4153  0.8020 -0.3202
  799MPD2    H111828   2.931   0.783  14.525 -0.4051 -0.1356 -0.2869
  799MPD2    H211829   3.019   0.477  14.796 -0.2236  0.2352  0.1202
  799MPD2    H311830   3.034   0.712  14.729 -1.5722 -0.3024  1.7291
  799MPD2     N11831   2.750   0.654  14.384 -0.1583  0.2006  0.0520
  799MPD2    H511832   2.795   0.736  14.344 -0.9686  1.1672  1.1158
  799MPD2    N111833   2.839   0.299  14.705  0.2091 -0.7983 -0.1099
  799MPD2    H711834   2.759   0.246  14.673  0.1475 -0.7195 -0.0871
  800MPD2     C11835   2.840   1.497  14.032 -0.3400  0.5925 -0.2012
  800MPD2    C111836   2.967   1.534  13.995  0.1396  0.0865  0.1956
  800MPD2    C211837   2.992   1.561  13.860  0.2152 -0.3351  0.2090
  800MPD2    C311838   2.884   1.537  13.772  0.2782 -0.8210 -0.1201
  800MPD2    C411839   2.761   1.492  13.816 -0.5133  0.4846 -0.5134
  800MPD2    C511840   2.737   1.467  13.948 -0.2940  0.7480  0.0861
  800MPD2     H11841   3.088   1.600  13.828 -0.6677  0.4777 -1.4905
  800MPD2    H111842   2.673   1.489  13.753 -2.1996  1.6614  1.7946
  800MPD2    H211843   2.819   1.484  14.138 -1.4561  2.7286 -0.1643
  800MPD2    H311844   2.634   1.459  13.980  0.3376 -1.4270  1.5957
  800MPD2     N11845   2.903   1.569  13.631  0.1608  0.4029 -0.2290
  800MPD2    H511846   2.992   1.611  13.609 -0.3203  0.8019 -1.3928
  800MPD2    N111847   3.063   1.566  14.100 -0.3995 -0.1939 -0.5279
  800MPD2    H711848   3.034   1.538  14.193  0.7673 -2.3225 -0.8065
  801MPD2     C11849   3.241   2.264  14.319  0.0190  0.2069  0.6239
  801MPD2    C111850   3.185   2.159  14.389 -0.0711  0.4493 -0.1185
  801MPD2    C211851   3.082   2.175  14.482  0.4487  0.1041 -0.3243
  801MPD2    C311852   3.034   2.304  14.509 -0.2457 -0.0261  0.2302
  801MPD2    C411853   3.084   2.406  14.432 -0.0650  0.0468  0.7236
  801MPD2    C511854   3.183   2.387  14.343  0.1165 -0.3538  0.1109
  801MPD2     H11855   3.044   2.097  14.547  2.2272  0.9282  1.7201
  801MPD2    H111856   3.042   2.506  14.440 -2.8799 -0.9393 -1.4820
  801MPD2    H211857   3.324   2.247  14.251  0.6014  2.8047  0.7154
  801MPD2    H311858   3.222   2.470  14.285  2.7103 -0.5352  1.6102
  801MPD2     N11859   2.944   2.343  14.607 -0.8123 -0.3089 -0.5451
  801MPD2    H511860   2.901   2.435  14.603 -0.8071 -0.2688  0.4952
  801MPD2    N111861   3.243   2.034  14.377  0.1097  0.1492 -0.2117
  801MPD2    H711862   3.333   2.027  14.332  0.3520 -2.1964  0.6256
  802MPD2     C11863   1.986   2.550  17.310  0.3127  0.7317  0.2966
  802MPD2    C111864   2.107   2.521  17.374  0.0687 -0.2518 -0.0249
  802MPD2    C211865   2.170   2.399  17.344 -0.2906 -0.5709  1.0540
  802MPD2    C311866   2.127   2.317  17.240 -0.1326 -0.0612  0.0258
  802MPD2    C411867   2.021   2.358  17.167 -0.0178  0.8386 -0.3698
  802MPD2    C511868   1.940   2.462  17.211 -0.5565 -0.0942  0.7065
  802MPD2     H11869   2.262   2.377  17.396 -0.1578 -1.3256  0.4950
  802MPD2    H111870   1.990   2.303  17.079  0.5596 -1.2388  0.7166
  802MPD2    H211871   1.938   2.645  17.331 -0.0783  0.6171 -0.0739
  802MPD2    H311872   1.851   2.493  17.159 -1.0735 -2.2412  0.3092
  802MPD2     N11873   2.221   2.223  17.204 -0.0047 -0.1302  0.1802
  802MPD2    H511874   2.310   2.220  17.254  0.5118 -1.5882 -0.8210
  802MPD2    N111875   2.174   2.611  17.459  0.0085  0.0260  0.5952
  802MPD2    H711876   2.266   2.574  17.484 -1.0836 -2.2371  1.2407
  803MPD2     C11877   3.472   0.675  11.923 -0.5624  0.2827  0.1607
  803MPD2    C111878   3.546   0.789  11.949  0.5765  0.2127 -0.0971
  803MPD2    C211879   3.580   0.818  12.081 -1.1305 -0.1150 -0.5035
  803MPD2    C311880   3.536   0.738  12.184  0.5920 -0.0341  0.3983
  803MPD2    C411881   3.463   0.625  12.161 -0.0867  0.6314  0.5814
  803MPD2    C511882   3.434   0.597  12.031 -0.1071  0.7130 -0.5491
  803MPD2     H11883   3.645   0.901  12.104 -0.7606  0.1214 -2.3903
  803MPD2    H111884   3.415   0.571  12.241 -1.7322  0.3526 -0.5881
  803MPD2    H211885   3.442   0.634  11.828  0.6373  0.5527 -0.3445
  803MPD2    H311886   3.393   0.501  12.003 -1.0385  0.6724  0.9206
  803MPD2     N11887   3.537   0.774  12.320  0.2291  0.7033  0.0022
  803MPD2    H511888   3.470   0.718  12.372  0.9539  0.9413  1.1900
  803MPD2    N111889   3.592   0.866  11.837  0.5626  0.8146  0.4018
  803MPD2    H711890   3.637   0.954  11.862  0.7671  0.9277 -0.3728
  804MPD2     C11891   3.280   2.373  17.020 -0.0620  0.0377  0.7699
  804MPD2    C111892   3.248   2.375  17.148  0.3884 -0.1438 -0.0494
  804MPD2    C211893   3.309   2.454  17.238 -0.1156  0.1394 -0.0225
  804MPD2    C311894   3.411   2.540  17.198  0.4342 -0.0781  0.3903
  804MPD2    C411895   3.430   2.552  17.063  1.0025 -0.2373 -0.1471
  804MPD2    C511896   3.361   2.471  16.975 -0.4957 -0.8159 -0.3478
  804MPD2     H11897   3.295   2.455  17.345  0.8284  0.0269  0.1039
  804MPD2    H111898   3.513   2.608  17.024  0.5824  0.2759 -0.3084
  804MPD2    H211899   3.240   2.302  16.949  1.7133  0.7080 -0.9040
  804MPD2    H311900   3.385   2.473  16.869  2.0476  1.4941  0.2709
  804MPD2     N11901   3.496   2.614  17.288 -0.0502 -0.5850  0.1426
  804MPD2    H511902   3.484   2.599  17.388 -1.1323  0.1528  0.1259
  804MPD2    N111903   3.169   2.268  17.212 -0.2349  0.3025 -0.1346
  804MPD2    H711904   3.174   2.278  17.313 -1.6493 -0.9349  0.0593
  805MPD2     C11905   2.395   0.669  15.580  0.5174 -0.6911 -0.2032
  805MPD2    C111906   2.501   0.698  15.495 -0.3056  1.4267 -0.1216
  805MPD2    C211907   2.629   0.705  15.543 -0.6144  0.1050  0.4009
  805MPD2    C311908   2.651   0.696  15.681  0.0670  0.6403  0.1142
  805MPD2    C411909   2.547   0.671  15.763 -0.3591  0.5373  0.4236
  805MPD2    C511910   2.419   0.651  15.713 -0.0915  0.2675 -0.1690
  805MPD2     H11911   2.701   0.743  15.471  0.3398  0.3273  1.4598
  805MPD2    H111912   2.554   0.661  15.871  1.3379  0.7567  0.3283
  805MPD2    H211913   2.291   0.659  15.551 -0.1055  2.0206  1.1163
  805MPD2    H311914   2.332   0.642  15.777  0.7667 -0.8168  0.8496
  805MPD2     N11915   2.779   0.709  15.727 -0.1850 -0.5429  0.2694
  805MPD2    H511916   2.830   0.774  15.668 -0.4085  0.7324  1.4613
  805MPD2    N111917   2.481   0.700  15.357 -0.2907 -0.1210 -0.2247
  805MPD2    H711918   2.559   0.729  15.299 -0.5429  3.6705  1.3595
  806MPD2     C11919   3.984   4.508   1.171  1.3376 -0.6084 -0.4727
  806MPD2    C111920   4.016   4.618   1.247  0.0098 -0.7373 -0.2061
  806MPD2    C211921   3.971   4.741   1.206 -0.2024 -0.0707  0.1757
  806MPD2    C311922   3.901   0.021   1.088 -0.4240 -0.0418 -0.7037
  806MPD2    C411923   3.873   4.644   1.014 -0.0239 -0.1630  0.4737
  806MPD2    C511924   3.907   4.519   1.058 -0.7612  0.0402 -0.4201
  806MPD2     H11925   4.013   0.085   1.259  0.1920  0.2196 -0.5991
  806MPD2    H111926   3.814   4.645   0.924  1.0247  0.4076 -0.2049
  806MPD2    H211927   4.023   4.409   1.192 -0.5345 -1.2520 -0.0511
  806MPD2    H311928   3.894   4.431   0.997  0.8510 -0.6984  0.3071
  806MPD2     N11929   3.851   0.150   1.056 -0.1240  0.3957  0.2946
  806MPD2    H511930   3.870   0.225   1.122  0.6800 -1.0213  1.6712
  806MPD2    N111931   4.087   4.618   1.364  0.2878  0.0914  0.2914
  806MPD2    H711932   4.105   4.710   1.403 -1.7606 -0.5588  2.7721
  807MPD2     C11933   4.243   0.221   1.978 -0.5111 -0.0749 -0.0987
  807MPD2    C111934   4.174   0.131   1.898  0.5341 -0.6199 -0.4939
  807MPD2    C211935   4.043   0.106   1.935  0.4608  0.3474 -0.5191
  807MPD2    C311936   3.988   0.162   2.046 -0.2955 -0.2676 -0.0913
  807MPD2    C411937   4.060   0.254   2.121  0.4018 -0.5826 -0.1535
  807MPD2    C511938   4.190   0.280   2.084 -0.7492 -0.1306  0.3119
  807MPD2     H11939   3.992   0.032   1.874 -2.2427  1.7634  0.0333
  807MPD2    H111940   4.022   0.317   2.200  2.8649 -0.0191  0.5878
  807MPD2    H211941   4.343   0.247   1.945 -1.0764  0.1461 -1.6330
  807MPD2    H311942   4.253   0.345   2.144  0.0511 -2.2099  1.7193
  807MPD2     N11943   3.853   0.143   2.075  0.2777  0.3614  0.0498
  807MPD2    H511944   3.790   0.080   2.024 -0.1446  0.8305 -0.0079
  807MPD2    N111945   4.222   0.066   1.782  0.3233  0.3399 -0.1576
  807MPD2    H711946   4.161   4.739   1.738  1.6962 -0.3450 -1.0134
  808MPD2     C11947   3.186   0.964   9.553  0.1737 -0.0103  0.2156
  808MPD2    C111948   3.239   1.039   9.653 -1.1060 -0.2275 -0.1971
  808MPD2    C211949   3.292   1.159   9.622 -0.1104  0.4956 -0.0813
  808MPD2    C311950   3.308   1.208   9.494  0.1885 -0.6196  0.1358
  808MPD2    C411951   3.253   1.133   9.397  0.4421 -0.0030  0.4261
  808MPD2    C511952   3.192   1.011   9.424 -0.9936  0.3041  0.3494
  808MPD2     H11953   3.340   1.222   9.695  0.6682 -0.9890  0.6840
  808MPD2    H111954   3.259   1.158   9.292 -0.1825 -0.6329  0.2399
  808MPD2    H211955   3.144   0.869   9.581 -1.4025  0.1014 -1.8018
  808MPD2    H311956   3.156   0.948   9.343 -0.0993  1.0626 -0.6297
  808MPD2     N11957   3.388   1.316   9.455 -0.2527  0.7669  0.4272
  808MPD2    H511958   3.416   1.331   9.359 -2.5650 -3.0793 -0.8533
  808MPD2    N111959   3.224   1.004   9.789 -0.6255 -1.0759 -0.3442
  808MPD2    H711960   3.286   1.062   9.845 -1.5079  0.8048 -1.3226
  809MPD2     C11961   4.264   1.259   9.471 -0.5138  0.3138 -0.6533
  809MPD2    C111962   4.258   1.388   9.428 -0.0342 -0.0906 -0.8152
  809MPD2    C211963   4.137   1.446   9.409 -0.4678  0.5734  0.9908
  809MPD2    C311964   4.026   1.363   9.427  0.1578  0.0775 -0.7317
  809MPD2    C411965   4.039   1.233   9.464  0.3070 -0.2121  0.3341
  809MPD2    C511966   4.160   1.176   9.490 -0.1070  0.0618  1.4717
  809MPD2     H11967   4.125   1.546   9.368  0.5384  0.1275 -0.4178
  809MPD2    H111968   3.950   1.172   9.479  0.6989 -0.4193  1.7988
  809MPD2    H211969   4.359   1.214   9.496 -0.4654  2.3601  2.7976
  809MPD2    H311970   4.169   1.074   9.524 -2.4448 -0.0976  1.6468
  809MPD2     N11971   3.892   1.415   9.421 -1.1049 -0.2076  0.1080
  809MPD2    H511972   3.812   1.355   9.438 -1.8523  0.9847  0.8352
  809MPD2    N111973   4.372   1.465   9.390  0.2181 -0.0452  0.1860
  809MPD2    H711974   4.353   1.553   9.343 -0.0670 -0.2615 -0.0993
  810MPD2     C11975   2.822   0.753  10.775  0.5086  0.5011 -0.0618
  810MPD2    C111976   2.736   0.771  10.673 -0.9185  0.2968 -0.7283
  810MPD2    C211977   2.743   0.895  10.604 -1.1301 -0.1600 -0.0483
  810MPD2    C311978   2.818   1.002  10.649 -0.3991  0.5449 -0.1760
  810MPD2    C411979   2.902   0.979  10.752 -0.2533 -0.5733  0.7732
  810MPD2    C511980   2.899   0.864  10.818 -0.4461  0.1282  0.2399
  810MPD2     H11981   2.677   0.910  10.519  3.2678 -2.3412 -3.7962
  810MPD2    H111982   2.958   1.058  10.800  0.1462  0.0803 -0.7727
  810MPD2    H211983   2.823   0.662  10.834  0.0744  0.2784 -0.3983
  810MPD2    H311984   2.951   0.850  10.912  0.3913  1.1362 -0.0735
  810MPD2     N11985   2.821   1.135  10.602 -0.3235 -0.5723 -0.9087
  810MPD2    H511986   2.884   1.196  10.653  0.0325  0.0949 -2.1386
  810MPD2    N111987   2.662   0.659  10.624  0.1422 -0.4659  0.3897
  810MPD2    H711988   2.693   0.565  10.646 -3.5191 -1.3146  1.7832
  811MPD2     C11989   2.170   0.662   9.909 -0.6086  0.9384  0.4079
  811MPD2    C111990   2.297   0.687   9.963  0.4945  0.3781 -0.2617
  811MPD2    C211991   2.365   0.810   9.931 -0.5433 -0.3899  0.5590
  811MPD2    C311992   2.297   0.908   9.859  0.5294 -0.5647 -0.2078
  811MPD2    C411993   2.167   0.885   9.827 -0.4006  0.1160  0.2627
  811MPD2    C511994   2.106   0.764   9.850 -0.0921 -0.2862 -0.0663
  811MPD2     H11995   2.469   0.817   9.960 -0.7154  0.7666  0.9147
  811MPD2    H111996   2.106   0.958   9.777  2.2136  0.1310 -2.8746
  811MPD2    H211997   2.113   0.571   9.913 -1.5751  1.4882 -0.7654
  811MPD2    H311998   2.000   0.751   9.834 -0.3022 -0.8063  1.7006
  811MPD2     N11999   2.368   1.031   9.834 -0.3224 -0.3534  0.4190
  811MPD2    H512000   2.461   1.037   9.874 -0.4787 -2.1269  1.0427
  811MPD2    N112001   2.358   0.593  10.047  0.1399 -0.1504 -1.0138
  811MPD2    H712002   2.298   0.518  10.081 -0.3553  1.2047  1.0818
  812MPD2     C12003   2.133   0.953  11.865  0.3746 -0.5577  0.5544
  812MPD2    C112004   2.001   0.920  11.838  0.1308 -0.4560  0.3782
  812MPD2    C212005   1.936   0.849  11.938  0.4082  0.1489 -0.6381
  812MPD2    C312006   1.990   0.817  12.059  0.8791 -1.0798 -0.8299
  812MPD2    C412007   2.115   0.853  12.080  0.3007  0.1363  0.4393
  812MPD2    C512008   2.189   0.915  11.984  0.1547  0.6337  0.5185
  812MPD2     H12009   1.840   0.805  11.910  0.3405  0.2203 -0.5143
  812MPD2    H112010   2.164   0.837  12.175  2.2568  0.7222 -0.4641
  812MPD2    H212011   2.188   1.002  11.786 -0.3300 -1.1995 -0.3337
  812MPD2    H312012   2.289   0.943  12.016  1.8190 -3.6284 -0.8637
  812MPD2     N12013   1.899   0.751  12.145  0.0584 -0.4015  0.1591
  812MPD2    H512014   1.803   0.753  12.111 -0.4489 -1.0369  1.5661
  812MPD2    N112015   1.953   0.946  11.711 -0.0091 -0.2426 -0.5548
  812MPD2    H712016   2.029   0.965  11.646  0.3464  1.4174  0.3416
  813MPD2     C12017   1.226   2.294  13.140 -0.1183  0.2345 -0.2170
  813MPD2    C112018   1.145   2.405  13.110 -0.1779  0.5738 -1.4083
  813MPD2    C212019   1.013   2.398  13.143 -0.5865  0.4360  0.1352
  813MPD2    C312020   0.959   2.287  13.215 -1.0129 -0.2566 -0.4724
  813MPD2    C412021   1.039   2.180  13.247  0.4254  0.2026  0.2453
  813MPD2    C512022   1.171   2.188  13.215  0.6112  0.3758  0.1241
  813MPD2     H12023   0.958   2.490  13.128 -0.8871  0.2396  0.0295
  813MPD2    H112024   0.990   2.095  13.294  0.1403 -0.4019 -1.1167
  813MPD2    H212025   1.331   2.295  13.113  0.1624 -2.6807  0.8355
  813MPD2    H312026   1.246   2.115  13.245 -0.6163  0.5279  3.5827
  813MPD2     N12027   0.824   2.301  13.253  0.4335 -0.4260 -0.1019
  813MPD2    H512028   0.774   2.381  13.214 -0.9637 -1.5457 -0.5861
  813MPD2    N112029   1.187   2.528  13.055 -0.5033 -0.7003 -0.1471
  813MPD2    H712030   1.114   2.598  13.041 -0.1575 -0.3495 -0.2013
  814MPD2     C12031   0.885   4.081  12.137 -0.0109  0.4091  0.1327
  814MPD2    C112032   0.955   4.126  12.032 -0.0338  0.2339 -0.8402
  814MPD2    C212033   1.043   4.233  12.046 -0.8104 -0.0969  0.2406
  814MPD2    C312034   1.066   4.280  12.171 -0.1953  0.5797 -0.1762
  814MPD2    C412035   0.989   4.234  12.276  0.2481 -0.3208 -0.5000
  814MPD2    C512036   0.896   4.135  12.259  0.5926  0.3866  0.1546
  814MPD2     H12037   1.091   4.272  11.957  2.2294  0.4455  2.0964
  814MPD2    H112038   1.000   4.274  12.376 -1.5562 -0.0140 -0.4261
  814MPD2    H212039   0.807   4.007  12.128 -0.2346  1.0642 -3.0049
  814MPD2    H312040   0.823   4.103  12.333  1.1257  0.5651  0.7539
  814MPD2     N12041   1.176   4.366  12.206 -0.3538  0.3245 -0.2522
  814MPD2    H512042   1.183   4.388  12.305  0.9275  0.3894 -0.3588
  814MPD2    N112043   0.956   4.073  11.906  0.3690 -0.0977 -0.2445
  814MPD2    H712044   1.028   4.097  11.840  0.7043 -0.1321  0.1119
  815MPD2     C12045   1.896   1.771  11.609  0.6365  0.3717  0.0308
  815MPD2    C112046   1.849   1.846  11.503 -0.0804  0.4522  0.6157
  815MPD2    C212047   1.713   1.858  11.479 -0.4470  0.6513  1.0003
  815MPD2    C312048   1.625   1.786  11.557  0.4037  0.2668  0.6044
  815MPD2    C412049   1.676   1.703  11.665 -0.0213  0.2115  0.3936
  815MPD2    C512050   1.811   1.708  11.690  0.2546 -0.2807  0.1748
  815MPD2     H12051   1.677   1.916  11.395  0.3594  0.0618  0.2374
  815MPD2    H112052   1.611   1.654  11.737 -1.2422 -1.9013 -2.1440
  815MPD2    H212053   2.001   1.773  11.635  0.7268  1.1141 -0.4146
  815MPD2    H312054   1.848   1.664  11.782  1.0190  1.8516  0.8880
  815MPD2     N12055   1.487   1.809  11.532  0.9367  0.1513  0.2079
  815MPD2    H512056   1.471   1.877  11.458  1.9555 -0.2065 -0.3420
  815MPD2    N112057   1.951   1.893  11.418  0.0909 -0.3742  0.4750
  815MPD2    H712058   2.040   1.843  11.424 -1.1567 -2.8310 -1.2120
  816MPD2     C12059   1.919   2.019  17.537  0.3669  0.1331  0.2062
  816MPD2    C112060   1.860   2.090  17.436 -0.2781  0.5040  1.1878
  816MPD2    C212061   1.871   2.043  17.304 -0.4415 -0.3757  0.5492
  816MPD2    C312062   1.950   1.933  17.270  0.5869 -0.3321 -0.4581
  816MPD2    C412063   2.005   1.859  17.373 -0.1519  0.4394 -0.6156
  816MPD2    C512064   1.993   1.910  17.504 -0.4959 -0.0932  0.0900
  816MPD2     H12065   1.831   2.097  17.219 -0.0326 -0.4100  0.3394
  816MPD2    H112066   2.075   1.776  17.365 -0.6418  0.0870 -1.1954
  816MPD2    H212067   1.916   2.054  17.639 -0.4683 -0.6844  0.4658
  816MPD2    H312068   2.047   1.851  17.577  0.4012  0.0682 -0.4407
  816MPD2     N12069   1.956   1.890  17.135 -0.1310 -0.0569 -0.2466
  816MPD2    H512070   1.913   1.952  17.067  0.1520 -0.6943 -1.0128
  816MPD2    N112071   1.795   2.211  17.474  0.3111 -0.0227 -0.2735
  816MPD2    H712072   1.807   2.232  17.572  0.1659  1.0673 -0.4964
  817MPD2     C12073   1.723   3.666   9.388  0.1571 -0.5925  0.9708
  817MPD2    C112074   1.642   3.566   9.442  0.4638 -0.9545 -0.8075
  817MPD2    C212075   1.515   3.599   9.482  0.4967 -0.1247 -0.1084
  817MPD2    C312076   1.478   3.731   9.483 -0.8757  0.1065 -0.3810
  817MPD2    C412077   1.565   3.833   9.450  0.0892 -0.2463 -0.4067
  817MPD2    C512078   1.685   3.795   9.394 -0.0352 -0.2758  0.4379
  817MPD2     H12079   1.440   3.526   9.508 -0.5824  1.1263  0.2798
  817MPD2    H112080   1.551   3.938   9.475 -0.4537 -0.1940 -0.9189
  817MPD2    H212081   1.813   3.643   9.333 -0.4903 -0.0121 -0.3392
  817MPD2    H312082   1.755   3.867   9.352 -1.1041 -0.2609 -1.3097
  817MPD2     N12083   1.340   3.750   9.519 -0.0931  0.5524  0.0899
  817MPD2    H512084   1.293   3.661   9.534 -0.2687  0.7966  1.0189
  817MPD2    N112085   1.678   3.432   9.439  0.8269  0.1067  0.7849
  817MPD2    H712086   1.607   3.368   9.471 -0.3375  0.3550 -1.2872
  818MPD2     C12087   0.380   3.697  10.305  0.1498 -0.1813  0.2358
  818MPD2    C112088   0.267   3.625  10.283 -0.0858 -0.5074 -0.5313
  818MPD2    C212089   0.277   3.515  10.199 -0.3647  0.3893 -0.4402
  818MPD2    C312090   0.395   3.477  10.136 -0.1689 -0.0230  0.7346
  818MPD2    C412091   0.509   3.552  10.154 -0.1128  0.8872  0.4190
  818MPD2    C512092   0.495   3.660  10.241  0.5274  0.2537  0.1561
  818MPD2     H12093   0.192   3.449  10.208  0.3504 -0.4073  0.5756
  818MPD2    H112094   0.607   3.532  10.111 -0.9737  0.6127 -1.4273
  818MPD2    H212095   0.371   3.785  10.369  3.5707 -1.3874  2.3671
  818MPD2    H312096   0.585   3.719  10.258  0.0751  0.0924  3.0956
  818MPD2     N12097   0.401   3.363  10.050 -0.0411  0.1663  0.2711
  818MPD2    H512098   0.494   3.326  10.033 -0.0277  0.8137 -1.0459
  818MPD2    N112099   0.151   3.633  10.357 -0.3876 -0.2136  0.1410
  818MPD2    H712100   0.093   3.550  10.348  0.1322 -0.6686  1.0641
  819MPD2     C12101   3.125   0.544  15.669  0.1548  0.3627 -0.9159
  819MPD2    C112102   3.109   0.413  15.707  0.5480 -0.5825 -0.0951
  819MPD2    C212103   3.186   0.363  15.811 -0.7439  0.0443  1.4548
  819MPD2    C312104   3.298   0.433  15.857  0.2376 -0.2642  0.3266
  819MPD2    C412105   3.318   0.562  15.813 -0.1143  0.8587  0.1191
  819MPD2    C512106   3.231   0.618  15.726  0.1457 -0.1037 -0.3175
  819MPD2     H12107   3.181   0.258  15.836  0.0359 -0.0857  1.0762
  819MPD2    H112108   3.407   0.617  15.842 -0.0232  1.3989 -1.2120
  819MPD2    H212109   3.075   0.588  15.584  3.2548 -0.1994 -3.0392
  819MPD2    H312110   3.256   0.718  15.691 -0.3137 -0.0616 -0.5194
  819MPD2     N12111   3.388   0.368  15.935 -0.3032  0.3874  0.5898
  819MPD2    H512112   3.377   0.268  15.947 -1.1227  0.1951 -1.7113
  819MPD2    N112113   3.014   0.337  15.638 -0.5132  0.3121  0.9133
  819MPD2    H712114   2.952   0.386  15.574 -1.1460  0.5566  1.7247
  820MPD2     C12115   2.460   0.135  14.842  0.5244  0.2267 -0.2167
  820MPD2    C112116   2.537   0.240  14.894  0.2059 -0.5692 -0.1274
  820MPD2    C212117   2.620   0.207  15.002 -0.2099  0.4229 -0.3888
  820MPD2    C312118   2.621   0.081  15.057 -0.5594 -0.2866 -0.0578
  820MPD2    C412119   2.565   4.725  14.983 -0.3008  0.3968 -0.1802
  820MPD2    C512120   2.475   0.004  14.886 -0.0330 -0.6491 -0.1075
  820MPD2     H12121   2.669   0.289  15.053 -0.3131  0.9479 -1.1219
  820MPD2    H112122   2.593   4.626  15.019  0.3486  1.0999  1.2628
  820MPD2    H212123   2.383   0.143  14.766  1.2407  2.7054 -0.6644
  820MPD2    H312124   2.422   4.659  14.847  1.3198 -1.5179 -0.0382
  820MPD2     N12125   2.671   0.047  15.187 -0.2275  1.2080 -0.6940
  820MPD2    H512126   2.649   4.695  15.222 -0.8492  1.3827 -0.6189
  820MPD2    N112127   2.498   0.371  14.865  0.2692  0.3912  0.1900
  820MPD2    H712128   2.424   0.397  14.801  0.6639 -1.8804 -1.1628
  821MPD2     C12129   2.985   1.985  12.950 -0.4988 -0.1471  0.4296
  821MPD2    C112130   3.067   1.873  12.967 -0.2947  0.2463  0.0465
  821MPD2    C212131   3.201   1.879  12.931  0.7129 -0.3944  0.5724
  821MPD2    C312132   3.246   1.994  12.871  0.3942 -0.7052 -0.1454
  821MPD2    C412133   3.166   2.106  12.862  0.4857  0.0570  0.6056
  821MPD2    C512134   3.036   2.098  12.889 -0.6786 -0.5820  0.0707
  821MPD2     H12135   3.259   1.791  12.952  1.2379 -1.0946 -3.8244
  821MPD2    H112136   3.211   2.187  12.806  0.0259  0.3625  0.6847
  821MPD2    H212137   2.877   1.994  12.963 -0.1775  1.2118  2.2506
  821MPD2    H312138   2.984   2.189  12.863 -1.0464 -0.2749  1.8372
  821MPD2     N12139   3.378   2.013  12.844 -0.2815  0.0975 -0.3183
  821MPD2    H512140   3.395   2.112  12.830 -0.0366  0.2306  0.9426
  821MPD2    N112141   3.030   1.761  13.035  0.4935  0.1689  0.2100
  821MPD2    H712142   3.099   1.687  13.035 -0.6040 -0.8445  1.6018
  822MPD2     C12143   4.094   1.558  15.986  0.1000  0.1581  0.6728
  822MPD2    C112144   4.100   1.555  16.121  0.8941  0.1429 -0.3783
  822MPD2    C212145   4.025   1.647  16.190 -1.1510 -0.4004 -0.0151
  822MPD2    C312146   3.949   1.747  16.136 -0.6613 -0.3524 -0.5650
  822MPD2    C412147   3.945   1.748  15.999  0.2291  0.2116  0.4381
  822MPD2    C512148   4.014   1.654  15.934 -0.3764 -0.2110  0.9154
  822MPD2     H12149   4.025   1.635  16.298 -1.4000  1.2229  0.1627
  822MPD2    H112150   3.888   1.823  15.943 -0.3557 -0.4972  0.0770
  822MPD2    H212151   4.155   1.495  15.923  0.6594 -0.5732  1.9464
  822MPD2    H312152   4.008   1.653  15.826 -0.6237 -1.0589  0.9353
  822MPD2     N12153   3.885   1.838  16.217  0.0495 -0.4311  0.0022
  822MPD2    H512154   3.904   1.834  16.317 -2.7100 -1.3272  0.4826
  822MPD2    N112155   4.188   1.480  16.195 -0.5150 -0.5068  0.4482
  822MPD2    H712156   4.207   1.509  16.290 -0.8571 -0.3260  0.4588
  823MPD2     C12157   3.477   2.065  16.923 -0.8547  0.3850  0.0434
  823MPD2    C112158   3.549   1.984  16.839 -0.4760  0.4879  0.1518
  823MPD2    C212159   3.598   1.860  16.886  0.2747 -1.0749 -0.2489
  823MPD2    C312160   3.567   1.815  17.015 -0.2475  0.1979 -0.2452
  823MPD2    C412161   3.486   1.892  17.086  0.3555 -0.0063  0.4903
  823MPD2    C512162   3.442   2.018  17.046 -0.1059 -0.2367  0.3310
  823MPD2     H12163   3.643   1.791  16.816 -0.9887 -0.6493 -1.4690
  823MPD2    H112164   3.463   1.862  17.187  0.3674 -0.9190  0.2177
  823MPD2    H212165   3.436   2.161  16.895  1.1395  1.2165 -0.0581
  823MPD2    H312166   3.374   2.071  17.111 -1.0920 -0.6046 -0.4025
  823MPD2     N12167   3.604   1.689  17.067  0.1364  0.4647  0.1105
  823MPD2    H512168   3.555   1.669  17.154 -0.1250  0.3438 -0.0656
  823MPD2    N112169   3.579   2.030  16.710  0.2650 -0.4283 -0.1189
  823MPD2    H712170   3.581   2.130  16.692 -0.0919 -0.3181  0.4615
  824MPD2     C12171   4.556   0.676  16.413 -0.0434  0.5134 -0.0256
  824MPD2    C112172   4.576   0.773  16.319  0.3921  0.3481 -0.4901
  824MPD2    C212173   4.652   0.745  16.211  0.5315 -0.3675  0.2260
  824MPD2    C312174   4.711   0.624  16.191  0.5114 -0.1674  0.3338
  824MPD2    C412175   4.687   0.526  16.286 -0.3935 -0.2074 -0.0164
  824MPD2    C512176   4.610   0.549  16.395 -0.9220  0.3845 -0.0286
  824MPD2     H12177   4.674   0.813  16.129 -1.7115 -1.1018 -0.9740
  824MPD2    H112178   4.741   0.431  16.282  1.2986  0.7062  1.4010
  824MPD2    H212179   4.498   0.691  16.503 -0.0903  1.3650 -0.1991
  824MPD2    H312180   4.588   0.472  16.468 -1.3668  3.5447  3.1541
  824MPD2     N12181   0.041   0.602  16.070 -0.0327 -0.0391  0.5264
  824MPD2    H512182   0.061   0.681  16.010 -1.1938 -0.3381 -0.2355
  824MPD2    N112183   4.517   0.900  16.340 -0.1147  0.4519 -0.0062
  824MPD2    H712184   4.457   0.919  16.419  0.3548  2.0936 -0.0465
  825MPD2     C12185   0.141   0.754  15.262  0.2844 -0.0423 -0.4048
  825MPD2    C112186   0.141   0.797  15.399 -0.4770 -0.2777  0.5506
  825MPD2    C212187   0.125   0.936  15.419 -0.5666  0.2002 -1.0596
  825MPD2    C312188   0.108   1.025  15.314 -1.2849 -0.2264  0.0059
  825MPD2    C412189   0.106   0.976  15.180 -0.2459 -0.3766  0.1708
  825MPD2    C512190   0.133   0.845  15.157 -0.1165 -1.1424  0.4617
  825MPD2     H12191   0.123   0.971  15.522  1.2624 -0.9369 -0.6431
  825MPD2    H112192   0.086   1.033  15.090  0.1237  0.9934  0.9604
  825MPD2    H212193   0.162   0.651  15.234 -1.5746 -0.9594  1.6097
  825MPD2    H312194   0.127   0.804  15.057  0.9573  0.4618 -0.2542
  825MPD2     N12195   0.078   1.163  15.326 -0.0428  0.8500  0.7445
  825MPD2    H512196   0.042   1.208  15.242  2.6718  0.7416 -0.4797
  825MPD2    N112197   0.163   0.695  15.497 -0.4769  0.8118  0.3843
  825MPD2    H712198   0.156   0.594  15.482  0.3644  0.9806 -1.1491
  826MPD2     C12199   4.409   0.820  13.149  0.1567 -0.2936  0.0142
  826MPD2    C112200   4.452   0.737  13.244 -0.2034  0.3764 -0.2764
  826MPD2    C212201   4.366   0.687  13.338  0.3473  0.3251 -0.0726
  826MPD2    C312202   4.236   0.736  13.342 -0.0840  0.3328 -0.7232
  826MPD2    C412203   4.199   0.819  13.244  0.1450  0.3535 -0.2122
  826MPD2    C512204   4.280   0.863  13.141 -0.2710  0.0465  0.6502
  826MPD2     H12205   4.412   0.627  13.415  0.0750 -0.0106 -0.1760
  826MPD2    H112206   4.094   0.846  13.238 -0.1772 -0.7986  0.2750
  826MPD2    H212207   4.476   0.869  13.078  0.0028 -0.4215 -0.2208
  826MPD2    H312208   4.246   0.939  13.071 -0.4614 -2.6289 -2.2011
  826MPD2     N12209   4.143   0.712  13.448 -0.1506 -0.3137  0.2289
  826MPD2    H512210   4.050   0.749  13.436  0.8665  2.0918 -0.2164
  826MPD2    N112211   4.587   0.702  13.248  0.4275 -0.3666  0.8814
  826MPD2    H712212   4.618   0.613  13.288 -2.3222 -1.5522  0.3637
  827MPD2     C12213   0.874   1.675   9.375 -0.1321 -0.1338  0.4001
  827MPD2    C112214   0.883   1.552   9.436  0.2024 -0.0380  0.0518
  827MPD2    C212215   0.809   1.448   9.382  0.5127 -0.7245 -0.0303
  827MPD2    C312216   0.734   1.472   9.262  0.0091  0.0704 -0.6093
  827MPD2    C412217   0.715   1.601   9.217 -0.2569  0.1657 -0.3749
  827MPD2    C512218   0.793   1.697   9.271 -0.3444  0.7441 -0.6882
  827MPD2     H12219   0.825   1.346   9.413 -1.1203 -0.8308  0.4429
  827MPD2    H112220   0.674   1.622   9.119  1.6295  0.7177 -1.0391
  827MPD2    H212221   0.933   1.758   9.414  0.2486 -1.5005  2.7594
  827MPD2    H312222   0.795   1.798   9.231 -0.8298  1.2372  0.5269
  827MPD2     N12223   0.658   1.360   9.211 -0.4718  0.4042  0.1152
  827MPD2    H512224   0.663   1.271   9.259 -0.8728  0.4241  0.1891
  827MPD2    N112225   0.968   1.544   9.555  0.3101  0.3586  0.0558
  827MPD2    H712226   1.012   1.631   9.582  1.9813  0.2618 -2.3676
  828MPD2     C12227   3.714   1.817  12.150 -0.5682  0.3219 -0.0034
  828MPD2    C112228   3.620   1.859  12.052  0.3635 -0.2377  0.1633
  828MPD2    C212229   3.637   1.836  11.915 -0.0448 -0.1663 -0.1576
  828MPD2    C312230   3.757   1.774  11.879 -0.5846  0.4149 -0.0024
  828MPD2    C412231   3.851   1.736  11.971 -0.4153 -0.6461 -0.2849
  828MPD2    C512232   3.829   1.755  12.105 -0.1165 -0.0664 -0.1090
  828MPD2     H12233   3.566   1.877  11.844 -1.1434  0.5957  1.3935
  828MPD2    H112234   3.943   1.691  11.936 -0.5931 -0.8053 -0.5467
  828MPD2    H212235   3.706   1.845  12.255 -1.2238  1.1479 -0.2738
  828MPD2    H312236   3.910   1.741  12.176 -0.8546  0.9022  0.9311
  828MPD2     N12237   3.787   1.751  11.745  0.1369 -0.3190 -0.3262
  828MPD2    H512238   3.861   1.685  11.723 -0.8406 -2.2973  2.3460
  828MPD2    N112239   3.502   1.937  12.085  0.4936  0.1026  0.2986
  828MPD2    H712240   3.442   1.978  12.015  1.2739 -0.7204 -0.8606
  829MPD2     C12241   3.140   2.518  11.595 -0.0880 -0.5931  0.0146
  829MPD2    C112242   3.049   2.534  11.698  0.6982  0.5067 -0.8028
  829MPD2    C212243   3.066   2.458  11.818 -0.2134 -0.3568  0.4137
  829MPD2    C312244   3.181   2.382  11.826 -0.3901 -0.1127 -0.6032
  829MPD2    C412245   3.277   2.382  11.732 -0.1742 -0.0683 -0.1798
  829MPD2    C512246   3.249   2.442  11.612  0.2486  0.1289 -0.2809
  829MPD2     H12247   2.994   2.453  11.899 -1.3970 -0.8953 -0.6708
  829MPD2    H112248   3.369   2.323  11.738  0.7573  1.3651 -0.3809
  829MPD2    H212249   3.131   2.564  11.497 -3.4026 -0.6920  0.2679
  829MPD2    H312250   3.315   2.431  11.527 -0.1872 -0.7524 -0.5002
  829MPD2     N12251   3.211   2.296  11.936 -0.0043  0.2128 -0.2096
  829MPD2    H512252   3.303   2.253  11.931  0.0299  0.4174 -1.2439
  829MPD2    N112253   2.931   2.607  11.680 -0.5598 -0.0078  0.3969
  829MPD2    H712254   2.911   2.647  11.589  1.9775  0.0893 -0.1262
  830MPD2     C12255   4.087   0.134  15.897 -0.1487 -0.0645 -0.2076
  830MPD2    C112256   3.958   0.129  15.855  0.1247 -0.2456 -0.4929
  830MPD2    C212257   3.926   0.172  15.725 -0.0185  0.0047  0.8639
  830MPD2    C312258   4.021   0.227  15.638 -0.1303  0.3773  0.1706
  830MPD2    C412259   4.147   0.226  15.685  0.1831 -0.1562  0.7919
  830MPD2    C512260   4.183   0.181  15.809 -0.2703  0.6810  0.6622
  830MPD2     H12261   3.828   0.152  15.682  0.8370 -1.5904 -0.3782
  830MPD2    H112262   4.234   0.266  15.633 -0.3938  1.0947  0.8002
  830MPD2    H212263   4.124   0.104  15.994  0.6121  0.8464 -0.2195
  830MPD2    H312264   4.287   0.189  15.839  0.2136  0.2732 -0.9387
  830MPD2     N12265   3.992   0.282  15.509 -0.2207 -0.2823 -0.0180
  830MPD2    H512266   4.069   0.319  15.453  0.0331 -0.1586  0.4174
  830MPD2    N112267   3.869   0.082  15.956  0.3272  0.1182  0.0399
  830MPD2    H712268   3.899   0.076  16.053 -0.5134  1.6765  0.4082
  831MPD2     C12269   4.066   1.999  16.584  0.2279 -0.5137  0.9866
  831MPD2    C112270   4.096   1.887  16.505  0.2144 -0.5405 -0.2374
  831MPD2    C212271   4.026   1.773  16.542  0.2844  0.1086  0.6868
  831MPD2    C312272   3.915   1.768  16.626 -0.1158  0.8577  0.1558
  831MPD2    C412273   3.895   1.882  16.708  0.4613 -0.2327  0.4765
  831MPD2    C512274   3.977   1.991  16.688 -0.7778  0.0741 -0.3623
  831MPD2     H12275   4.044   1.680  16.489 -1.3493 -0.6276  1.4350
  831MPD2    H112276   3.814   1.885  16.780 -1.2543  1.4160 -1.5246
  831MPD2    H212277   4.122   2.092  16.583 -0.7517  0.0600 -3.2339
  831MPD2    H312278   3.964   2.080  16.748 -0.2182 -0.9172  1.2295
  831MPD2     N12279   3.823   1.658  16.632  0.5927  0.2712 -0.5037
  831MPD2    H512280   3.743   1.674  16.692  2.0160 -0.9675  1.7388
  831MPD2    N112281   4.193   1.896  16.397  0.5506  0.0204 -0.0632
  831MPD2    H712282   4.227   1.984  16.362  0.5153 -0.1162 -0.4394
  832MPD2     C12283   2.433   2.870  17.215  0.2643  0.2948  0.5959
  832MPD2    C112284   2.471   2.997  17.199  0.6939  0.3983 -0.1810
  832MPD2    C212285   2.380   3.098  17.159  0.0846  0.0250  0.2607
  832MPD2    C312286   2.246   3.071  17.151  0.8921  0.8863 -0.2878
  832MPD2    C412287   2.208   2.940  17.170 -0.1371  0.5040  0.0819
  832MPD2    C512288   2.300   2.837  17.197  0.7081  1.0422 -0.4258
  832MPD2     H12289   2.413   3.201  17.165 -0.9629  0.2685  1.9495
  832MPD2    H112290   2.107   2.906  17.150  0.7738 -3.7735  2.9908
  832MPD2    H212291   2.494   2.781  17.230 -1.5966 -0.7915  1.7441
  832MPD2    H312292   2.269   2.733  17.198  2.9292  0.3670  0.4921
  832MPD2     N12293   2.147   3.163  17.115 -0.9192 -0.1160  0.2811
  832MPD2    H512294   2.052   3.127  17.107 -0.7478 -0.4182 -0.3381
  832MPD2    N112295   2.604   3.033  17.225  0.5722  0.0011 -0.6017
  832MPD2    H712296   2.625   3.125  17.187  0.1911 -0.3596 -1.7023
  833MPD2     C12297   4.140   4.173  13.030  0.9224 -0.3161  0.1152
  833MPD2    C112298   4.214   4.262  12.952 -0.0875 -0.0051 -0.2430
  833MPD2    C212299   4.338   4.220  12.908 -0.5021  0.2904  0.2697
  833MPD2    C312300   4.378   4.085  12.920  0.0655  0.5819  0.4072
  833MPD2    C412301   4.302   3.997  12.988  0.4783  0.6005 -0.1420
  833MPD2    C512302   4.183   4.044  13.046 -0.2059  0.1709  1.0532
  833MPD2     H12303   4.407   4.283  12.854  1.0714 -0.9752  0.8264
  833MPD2    H112304   4.348   3.903  13.015 -0.9717 -0.0319  0.1154
  833MPD2    H212305   4.048   4.202  13.078  1.0746  0.1057  0.1574
  833MPD2    H312306   4.130   3.978  13.114 -2.3258  0.1054 -0.6809
  833MPD2     N12307   4.496   4.029  12.864 -0.5648 -0.2817  0.0799
  833MPD2    H512308   4.510   3.929  12.866 -1.3789 -0.3907  0.2563
  833MPD2    N112309   4.158   4.386  12.937  0.2241  0.2748 -0.0807
  833MPD2    H712310   4.062   4.398  12.967  0.0438 -0.2375 -0.4520
  834MPD2     C12311   4.596   3.337  12.209 -1.1170 -0.6470 -0.4301
  834MPD2    C112312   4.631   3.434  12.119 -0.2105 -0.4537  0.1409
  834MPD2    C212313   4.646   3.567  12.167  0.0230  0.0527  0.1973
  834MPD2    C312314   4.615   3.597  12.297 -1.1988  0.1903 -0.3530
  834MPD2    C412315   4.574   3.498  12.386 -0.6353  0.0306  0.0792
  834MPD2    C512316   4.566   3.368  12.342 -0.1763  0.2096  0.1661
  834MPD2     H12317   4.684   3.642  12.099  1.4846  0.6762  1.6974
  834MPD2    H112318   4.555   3.510  12.492  0.7610 -0.7748  0.4213
  834MPD2    H212319   4.583   3.234  12.178 -0.9542 -0.2528 -1.7956
  834MPD2    H312320   4.529   3.297  12.415 -1.3520 -0.2819 -0.9188
  834MPD2     N12321   4.622   3.732  12.334  0.2240  0.2658 -0.2388
  834MPD2    H512322   4.651   3.798  12.263  2.5804  0.1290  0.6173
  834MPD2    N112323   4.655   3.389  11.984  0.5427  0.5700 -0.0774
  834MPD2    H712324   4.639   3.291  11.964  0.6999  0.9264 -1.9819
  835MPD2     C12325   0.153   1.599  10.754 -0.2689 -0.0202  0.9525
  835MPD2    C112326   0.020   1.625  10.738  0.2439  0.2973  0.5400
  835MPD2    C212327   4.671   1.562  10.823 -0.0232 -1.0004 -0.1210
  835MPD2    C312328   4.706   1.466  10.916  0.0102 -0.7073  0.7566
  835MPD2    C412329   0.102   1.440  10.927  0.4844 -0.6180 -0.0490
  835MPD2    C512330   0.192   1.503  10.838  0.3473 -0.3162  0.8352
  835MPD2     H12331   4.569   1.599  10.823 -0.8880 -3.3984 -0.6443
  835MPD2    H112332   0.144   1.377  11.005 -0.0567  1.1389  1.6617
  835MPD2    H212333   0.226   1.644  10.687 -2.2418 -1.3621 -2.0844
  835MPD2    H312334   0.299   1.481  10.838  0.4900  0.3994 -3.0014
  835MPD2     N12335   4.624   1.419  11.019 -0.7243  0.7065  0.0894
  835MPD2    H512336   4.671   1.374  11.096  1.8059 -0.6212 -2.2488
  835MPD2    N112337   4.708   1.723  10.662  0.1162  0.9322  0.6829
  835MPD2    H712338   4.613   1.751  10.686 -0.5108 -1.0011  0.4765
  836MPD2     C12339   4.036   1.850  11.208  0.3399 -0.1041 -0.5792
  836MPD2    C112340   4.086   1.796  11.323 -0.0733 -0.2424  0.5633
  836MPD2    C212341   4.073   1.862  11.443 -0.3498  0.2454 -0.6409
  836MPD2    C312342   4.005   1.978  11.445  0.3860  0.5697  0.0696
  836MPD2    C412343   3.949   2.036  11.333  0.0158  0.3451  0.8144
  836MPD2    C512344   3.971   1.968  11.214  0.6289  0.5432 -0.0716
  836MPD2     H12345   4.095   1.805  11.532  2.2859 -0.4129 -1.7291
  836MPD2    H112346   3.897   2.130  11.342 -1.4097 -0.5255  1.6889
  836MPD2    H212347   4.049   1.804  11.111 -2.4393 -0.7910 -0.6284
  836MPD2    H312348   3.938   2.011  11.120 -0.0187  0.7554  0.2517
  836MPD2     N12349   3.971   2.046  11.560 -0.1131 -0.2140 -0.3448
  836MPD2    H512350   3.925   2.136  11.555 -0.6688 -0.5021 -0.4147
  836MPD2    N112351   4.155   1.675  11.305  0.1605  0.1996  0.2663
  836MPD2    H712352   4.166   1.658  11.206 -0.8936  0.9660  0.0115
  837MPD2     C12353   2.889   1.588  10.100 -0.3054 -0.6261  0.1794
  837MPD2    C112354   2.845   1.604   9.974 -0.4238  0.5354  0.4338
  837MPD2    C212355   2.871   1.724   9.903  0.1891 -0.5074  0.6068
  837MPD2    C312356   2.937   1.837   9.962  0.3021 -0.3021  0.1946
  837MPD2    C412357   2.983   1.812  10.094  0.1384  0.3752 -0.1366
  837MPD2    C512358   2.956   1.691  10.163 -0.0465  0.1932  0.0768
  837MPD2     H12359   2.820   1.738   9.808 -0.4564  0.9763  1.1749
  837MPD2    H112360   3.040   1.884  10.152  1.5331 -2.0992  1.5808
  837MPD2    H212361   2.874   1.502  10.164 -1.3759  1.1559  2.3071
  837MPD2    H312362   3.002   1.669  10.259 -1.6703  0.5809  0.9498
  837MPD2     N12363   2.935   1.959   9.889 -0.0694 -0.1479 -0.7876
  837MPD2    H512364   2.877   1.959   9.806 -2.8009 -0.0209  1.1141
  837MPD2    N112365   2.754   1.514   9.910  0.3251 -0.8353 -0.2439
  837MPD2    H712366   2.710   1.548   9.824  0.2947  2.5174  1.1032
  838MPD2     C12367   1.190   0.248  12.074 -0.2588  0.6745  0.0777
  838MPD2    C112368   1.113   0.152  12.026 -0.3742  0.5867  0.3094
  838MPD2    C212369   1.051   0.071  12.120 -0.4595  0.0339  0.1094
  838MPD2    C312370   1.059   0.099  12.255 -0.2428 -0.3708 -0.8112
  838MPD2    C412371   1.140   0.193  12.302 -0.1690 -0.2093 -0.2584
  838MPD2    C512372   1.206   0.272  12.207  0.2062  0.0514  0.4976
  838MPD2     H12373   0.980   4.735  12.092 -0.2729  0.0280 -0.3405
  838MPD2    H112374   1.147   0.210  12.409 -0.1845  0.2356 -0.3280
  838MPD2    H212375   1.252   0.305  12.007  0.0480 -0.6368 -0.7589
  838MPD2    H312376   1.271   0.348  12.250 -0.1400  1.1196 -0.8860
  838MPD2     N12377   0.973   0.037  12.356  0.0387  0.5361  0.3089
  838MPD2    H512378   0.949   0.085  12.442 -1.0538  2.0831 -0.8401
  838MPD2    N112379   1.097   0.134  11.883  0.0927  0.2505  0.0781
  838MPD2    H712380   1.077   0.043  11.845  0.3351 -0.7611  2.3560
  839MPD2     C12381   0.655   4.240  11.684  0.4214 -0.1221 -0.1591
  839MPD2    C112382   0.686   4.271  11.548 -0.1377  0.3779  0.5520
  839MPD2    C212383   0.771   4.376  11.519 -0.0263 -0.4890  0.3591
  839MPD2    C312384   0.843   4.437  11.624  0.1579 -0.1173 -0.0456
  839MPD2    C412385   0.821   4.396  11.755  0.3871  0.4370 -0.3073
  839MPD2    C512386   0.721   4.306  11.784 -0.7987 -0.3761 -0.8444
  839MPD2     H12387   0.779   4.411  11.416  3.4676  1.4213  1.2594
  839MPD2    H112388   0.877   4.443  11.835 -0.3295  1.7885 -0.6028
  839MPD2    H212389   0.587   4.164  11.721  0.2815  0.7429  1.3583
  839MPD2    H312390   0.702   4.280  11.888 -0.1166 -0.4011 -0.7277
  839MPD2     N12391   0.935   4.546  11.609  0.1499  0.1649 -0.2021
  839MPD2    H512392   1.006   4.561  11.681 -0.6036  1.5028  0.2503
  839MPD2    N112393   0.619   4.209  11.441 -0.6183  0.5159 -0.3025
  839MPD2    H712394   0.639   4.238  11.345 -0.0738  0.1498 -0.2978
  840MPD2     C12395   1.514   1.810   9.556 -0.0148  0.1416  0.4923
  840MPD2    C112396   1.461   1.821   9.680  0.3156 -0.2026 -0.0501
  840MPD2    C212397   1.510   1.914   9.770 -0.0677 -0.5025  0.0076
  840MPD2    C312398   1.615   1.993   9.737  0.6337 -0.5513  0.2982
  840MPD2    C412399   1.669   1.984   9.609 -0.6113 -0.2340  0.0161
  840MPD2    C512400   1.624   1.888   9.530 -0.0735 -0.5380  0.0272
  840MPD2     H12401   1.485   1.924   9.875  0.4144  0.6382  0.0114
  840MPD2    H112402   1.760   2.036   9.581 -1.2545  1.4985  1.1248
  840MPD2    H212403   1.486   1.744   9.475  2.9953 -1.0000  0.3664
  840MPD2    H312404   1.672   1.877   9.434 -0.1882 -1.7774  0.1123
  840MPD2     N12405   1.686   2.083   9.822 -1.1101 -0.0345 -0.1810
  840MPD2    H512406   1.759   2.143   9.784 -0.4179 -1.0151 -0.3748
  840MPD2    N112407   1.369   1.723   9.708  0.7375 -0.7223  0.2898
  840MPD2    H712408   1.343   1.656   9.636  1.7249 -0.4933 -0.2731
  841MPD2     C12409   0.692   2.097  14.549 -0.4514  0.1415  0.2599
  841MPD2    C112410   0.680   2.051  14.676  0.5800  0.1416 -0.1781
  841MPD2    C212411   0.799   2.042  14.750  0.0730  0.1216 -0.0331
  841MPD2    C312412   0.926   2.074  14.699 -0.6227  0.2591  0.1906
  841MPD2    C412413   0.935   2.122  14.568  0.5029  0.6496 -0.5268
  841MPD2    C512414   0.818   2.135  14.500  0.6495  0.4424  0.1756
  841MPD2     H12415   0.797   1.994  14.847 -1.3079  1.5764  0.6603
  841MPD2    H112416   1.020   2.160  14.513 -0.1023  0.7277 -1.4030
  841MPD2    H212417   0.602   2.106  14.490  0.1670 -0.7121 -0.8148
  841MPD2    H312418   0.823   2.149  14.392  0.7477 -2.2654 -0.1585
  841MPD2     N12419   1.044   2.052  14.777  0.1782 -0.5135  0.6563
  841MPD2    H512420   1.032   2.026  14.874  0.9720 -1.3151  0.5423
  841MPD2    N112421   0.551   2.014  14.718  0.1493 -0.2035  0.3911
  841MPD2    H712422   0.473   2.022  14.653 -0.3087 -0.5765  0.8912
  842MPD2     C12423   1.804   3.656  17.011  0.7098 -0.2602 -0.1543
  842MPD2    C112424   1.670   3.621  17.019 -0.7783 -0.1859 -0.2453
  842MPD2    C212425   1.622   3.575  17.133 -0.1695 -0.4340 -0.2697
  842MPD2    C312426   1.702   3.579  17.246  0.3916 -0.1543 -0.1637
  842MPD2    C412427   1.838   3.616  17.241 -0.4918 -0.0455  0.1813
  842MPD2    C512428   1.888   3.658  17.121  0.6268 -0.3722 -0.1795
  842MPD2     H12429   1.516   3.556  17.142 -0.9312  3.0168 -2.2100
  842MPD2    H112430   1.900   3.620  17.330  0.2238  0.9935 -0.3616
  842MPD2    H212431   1.843   3.699  16.920  1.6572  1.4694  1.0624
  842MPD2    H312432   1.995   3.668  17.109  0.6647  2.9824  2.8679
  842MPD2     N12433   1.642   3.541  17.367  0.1819 -0.0384 -0.0109
  842MPD2    H512434   1.541   3.533  17.363  0.1207 -0.4528  1.9555
  842MPD2    N112435   1.608   3.611  16.899  0.3743  0.7011  0.5931
  842MPD2    H712436   1.648   3.670  16.827  2.5563  0.5344  1.6732
  843MPD2     C12437   3.684   3.644  17.674 -0.0565  0.3301  0.8711
  843MPD2    C112438   3.754   3.620   0.036 -0.0417  0.9785  0.1403
  843MPD2    C212439   3.809   3.733   0.099 -0.8523 -0.7111  0.3634
  843MPD2    C312440   3.828   3.845   0.015 -0.2585 -0.0247  0.4243
  843MPD2    C412441   3.767   3.852  17.653 -0.0727  0.0942 -0.0782
  843MPD2    C512442   3.681   3.758  17.607  0.1350  0.2972  0.0602
  843MPD2     H12443   3.847   3.727   0.200 -0.7724 -2.2437  0.2387
  843MPD2    H112444   3.780   3.941  17.592  0.0143 -0.0394 -0.2548
  843MPD2    H212445   3.624   3.568  17.626 -1.0137  0.3985  1.9544
  843MPD2    H312446   3.624   3.767  17.515  0.1669 -1.7460 -0.1524
  843MPD2     N12447   3.910   3.955   0.046 -0.1894  0.1359 -0.5474
  843MPD2    H512448   3.916   4.027  17.737 -3.6086  1.2392  0.2707
  843MPD2    N112449   3.750   3.487   0.083  0.0987 -0.6024  0.1129
  843MPD2    H712450   3.703   3.413   0.032 -1.7851  0.7732 -0.1811
  844MPD2     C12451   1.718   2.873  16.620  0.5752 -0.1221  0.2778
  844MPD2    C112452   1.811   2.800  16.547  0.2554  0.4319  0.1787
  844MPD2    C212453   1.949   2.812  16.564 -0.9697  0.4487 -0.4586
  844MPD2    C312454   1.995   2.899  16.666  0.0590 -0.2123  0.0623
  844MPD2    C412455   1.903   2.968  16.737 -0.7694 -0.1950 -0.2671
  844MPD2    C512456   1.767   2.956  16.717  0.3448 -0.2713  0.9423
  844MPD2     H12457   2.010   2.748  16.502 -2.6922 -1.1477 -0.5175
  844MPD2    H112458   1.931   3.033  16.819 -1.1989  1.3037 -1.3116
  844MPD2    H212459   1.614   2.863  16.591  0.8395 -1.2133 -0.2617
  844MPD2    H312460   1.689   3.001  16.777 -0.5184  1.7569 -1.6898
  844MPD2     N12461   2.133   2.921  16.683 -0.1794  0.7763  0.3711
  844MPD2    H512462   2.193   2.861  16.627  1.6585  0.2944  2.8820
  844MPD2    N112463   1.766   2.716  16.442 -0.3505  0.3629  0.0618
  844MPD2    H712464   1.823   2.716  16.358 -0.4986  1.0640 -0.0368
  845MPD2     C12465   2.653   3.739  17.027 -0.1513 -0.6290  1.1860
  845MPD2    C112466   2.517   3.706  17.037 -0.0353  0.4774  0.2096
  845MPD2    C212467   2.481   3.573  17.011  0.9342  0.0716 -0.2535
  845MPD2    C312468   2.576   3.479  16.966  0.4381 -0.3312  0.4228
  845MPD2    C412469   2.712   3.513  16.961 -0.1821 -0.4306 -0.1896
  845MPD2    C512470   2.741   3.642  16.996  0.3943 -0.3127  0.4899
  845MPD2     H12471   2.383   3.537  17.039  0.5868 -0.2179 -1.8300
  845MPD2    H112472   2.793   3.442  16.944  0.2231 -0.1351  0.5063
  845MPD2    H212473   2.696   3.834  17.058 -1.6407  0.4308  0.0537
  845MPD2    H312474   2.845   3.669  16.997 -0.1006  1.6316 -0.8272
  845MPD2     N12475   2.525   3.351  16.940  0.5020 -0.0680 -0.3913
  845MPD2    H512476   2.425   3.344  16.958  0.4103 -0.4243 -1.0223
  845MPD2    N112477   2.424   3.811  17.079 -0.3837 -0.1955  0.2318
  845MPD2    H712478   2.457   3.904  17.101  0.8977 -0.7664  0.7361
  846MPD2     C12479   3.613   3.771  13.728  0.8911  0.7137 -0.6507
  846MPD2    C112480   3.496   3.848  13.713 -0.0974  0.5778 -0.0705
  846MPD2    C212481   3.463   3.935  13.819 -0.8445 -0.6175  0.6620
  846MPD2    C312482   3.553   3.956  13.921  0.2135  0.2345 -0.1930
  846MPD2    C412483   3.675   3.891  13.922  0.0079  0.0059 -0.5051
  846MPD2    C512484   3.704   3.791  13.831 -0.2027 -0.9236 -0.1803
  846MPD2     H12485   3.379   4.003  13.817  0.8513  1.4837  0.1544
  846MPD2    H112486   3.751   3.909  13.997  0.0424  3.2545 -1.3098
  846MPD2    H212487   3.655   3.707  13.651 -0.5538  0.4460 -1.2242
  846MPD2    H312488   3.799   3.740  13.838  0.6491  0.5386 -0.9909
  846MPD2     N12489   3.532   4.066  14.011  0.0800 -0.1337 -0.6390
  846MPD2    H512490   3.447   4.119  13.997  0.2325  0.0019 -1.0498
  846MPD2    N112491   3.419   3.842  13.591  0.7885 -0.4708  0.5664
  846MPD2    H712492   3.350   3.915  13.575  0.6642 -0.3607  1.6401
  847MPD2     C12493   4.144   0.211  15.165  0.5296  0.0929  0.0166
  847MPD2    C112494   4.245   0.240  15.251  0.2976  0.3963  0.1288
  847MPD2    C212495   4.286   0.154  15.342  0.4331 -0.3602  0.0800
  847MPD2    C312496   4.230   0.030  15.358 -0.0739 -0.5414 -0.3377
  847MPD2    C412497   4.122   0.002  15.272  0.1974 -0.4535 -0.3304
  847MPD2    C512498   4.081   0.092  15.177 -0.2816 -0.0137  0.6071
  847MPD2     H12499   4.362   0.175  15.417 -0.3012 -0.6561  0.9103
  847MPD2    H112500   4.078   4.644  15.262  1.4575 -0.9077 -1.4961
  847MPD2    H212501   4.104   0.281  15.094 -2.0526 -2.3478 -0.9017
  847MPD2    H312502   4.000   0.066  15.110  0.1918 -1.2354  0.5010
  847MPD2     N12503   4.277   4.680  15.454  0.3544 -0.6616 -0.1753
  847MPD2    H512504   4.211   4.607  15.480 -1.1368  1.3245  1.6798
  847MPD2    N112505   4.311   0.368  15.249 -0.3858  0.3942 -0.1722
  847MPD2    H712506   4.368   0.396  15.328 -0.6968  1.1812 -0.2272
  848MPD2     C12507   1.880   3.442  16.428 -0.4615  0.0884  0.2766
  848MPD2    C112508   1.960   3.508  16.521 -0.0005  0.3542 -0.0537
  848MPD2    C212509   2.042   3.611  16.473 -0.1238 -0.2447 -0.6889
  848MPD2    C312510   2.025   3.650  16.340  0.1533 -0.0021  0.5576
  848MPD2    C412511   1.942   3.593  16.250 -0.7787 -0.1515 -0.0036
  848MPD2    C512512   1.875   3.483  16.297  0.0597 -0.4080  0.4298
  848MPD2     H12513   2.120   3.647  16.539 -1.2513  0.1680  0.4016
  848MPD2    H112514   1.931   3.624  16.147  0.2647 -0.0041 -0.0608
  848MPD2    H212515   1.814   3.360  16.451  2.0441 -2.1276 -0.3751
  848MPD2    H312516   1.816   3.422  16.228 -1.1684  0.7805  0.4375
  848MPD2     N12517   2.100   3.742  16.273 -0.5143  0.0204  0.1249
  848MPD2    H512518   2.071   3.759  16.177  0.5180 -1.4730 -0.4410
  848MPD2    N112519   1.973   3.458  16.649 -0.0069 -0.2761  0.0172
  848MPD2    H712520   2.044   3.502  16.707  2.0358 -1.5337 -1.5464
  849MPD2     C12521   1.220   3.034  14.587 -0.0550 -0.3371  0.6484
  849MPD2    C112522   1.192   2.931  14.503 -0.5734 -0.0009  0.1109
  849MPD2    C212523   1.242   2.801  14.533 -0.0132  0.0706 -0.2388
  849MPD2    C312524   1.322   2.788  14.644 -0.7218 -1.0445 -0.2886
  849MPD2    C412525   1.343   2.889  14.727  0.7802 -0.0035 -0.0245
  849MPD2    C512526   1.291   3.010  14.703 -0.0978  0.0311 -0.2356
  849MPD2     H12527   1.230   2.723  14.459  2.3326 -1.6208  1.2035
  849MPD2    H112528   1.398   2.891  14.821 -1.1677  3.0125  1.0584
  849MPD2    H212529   1.192   3.137  14.566  1.9791 -0.1829 -1.4469
  849MPD2    H312530   1.298   3.085  14.781  0.1024 -0.0976 -0.1287
  849MPD2     N12531   1.383   2.666  14.667 -0.2854  0.0052  0.8849
  849MPD2    H512532   1.352   2.588  14.609  2.8754 -0.0548 -0.6911
  849MPD2    N112533   1.133   2.949  14.377  0.1970  0.5652  0.3115
  849MPD2    H712534   1.123   2.862  14.326 -0.2421  0.6059  0.3282
  850MPD2     C12535   3.737   1.250  14.701  0.2589  0.2780  0.1705
  850MPD2    C112536   3.730   1.307  14.827  0.1267 -0.3018 -0.4841
  850MPD2    C212537   3.853   1.338  14.883  0.0547 -0.3112  0.3336
  850MPD2    C312538   3.975   1.295  14.828  0.2491 -0.8673  0.1943
  850MPD2    C412539   3.977   1.226  14.708 -0.1504 -0.0866  0.1148
  850MPD2    C512540   3.856   1.217  14.634  0.0651  0.6444  0.3061
  850MPD2     H12541   3.849   1.387  14.980 -0.1266 -1.2164  0.7861
  850MPD2    H112542   4.064   1.199  14.650 -0.2227 -0.1499  0.0369
  850MPD2    H212543   3.644   1.220  14.655  0.7702 -1.6575  0.4301
  850MPD2    H312544   3.862   1.187  14.531 -0.9181 -2.1360  1.0583
  850MPD2     N12545   4.101   1.303  14.900 -0.3572  0.3831 -0.1646
  850MPD2    H512546   4.170   1.234  14.872  0.1930  0.0166  2.0780
  850MPD2    N112547   3.604   1.331  14.889 -0.3920 -0.5091  0.0314
  850MPD2    H712548   3.528   1.273  14.853  0.0664  0.5331 -2.6651
  851MPD2     C12549   3.844   1.142  15.554  0.2641  0.5222  0.1108
  851MPD2    C112550   3.739   1.088  15.484  0.3849  0.4295  0.0689
  851MPD2    C212551   3.747   0.963  15.426  0.0517  0.2810  0.4114
  851MPD2    C312552   3.872   0.899  15.423  0.6185 -0.3903 -0.3281
  851MPD2    C412553   3.978   0.953  15.500 -0.4787  0.4508  0.0618
  851MPD2    C512554   3.957   1.066  15.576 -0.3426  0.2776  0.2613
  851MPD2     H12555   3.669   0.921  15.364  0.5421  1.4969 -1.0069
  851MPD2    H112556   4.066   0.893  15.517 -1.4780 -0.7271  1.0744
  851MPD2    H212557   3.845   1.242  15.594 -0.0084  0.4154  0.3804
  851MPD2    H312558   4.036   1.114  15.632  0.2399 -0.4596  0.0623
  851MPD2     N12559   3.876   0.783  15.347  0.5249  0.0929  0.0043
  851MPD2    H512560   3.785   0.753  15.314 -0.4729  2.2560  0.7971
  851MPD2    N112561   3.634   1.174  15.428  0.1039  0.2302 -0.5270
  851MPD2    H712562   3.661   1.272  15.426 -0.6730  0.4492 -0.2273
  852MPD2     C12563   3.578   2.877  10.523 -0.1441  0.4634  0.0346
  852MPD2    C112564   3.673   2.940  10.600 -0.1559  0.1878  0.6785
  852MPD2    C212565   3.769   3.024  10.543  0.3202 -0.1306  0.1372
  852MPD2    C312566   3.761   3.055  10.404  0.1631  0.0444 -0.2487
  852MPD2    C412567   3.661   2.998  10.334 -0.5673  0.0005  0.4098
  852MPD2    C512568   3.577   2.903  10.385  0.3725  0.0976 -0.4106
  852MPD2     H12569   3.839   3.080  10.604 -0.9027 -0.2008  1.6209
  852MPD2    H112570   3.651   3.016  10.227 -1.2050  0.2306  0.5088
  852MPD2    H212571   3.525   2.791  10.561 -0.4785  0.9735  0.7310
  852MPD2    H312572   3.505   2.856  10.319 -0.3659  1.1042 -0.3297
  852MPD2     N12573   3.865   3.132  10.347  0.2086 -0.0660 -0.5665
  852MPD2    H512574   3.931   3.168  10.416  0.8679 -2.3438 -0.0330
  852MPD2    N112575   3.679   2.920  10.737 -0.3461 -0.3939  0.3291
  852MPD2    H712576   3.757   2.945  10.797  2.3070 -0.5370 -3.0294
  853MPD2     C12577   0.975   2.703  12.181 -1.0148  0.4127  0.0303
  853MPD2    C112578   0.892   2.803  12.147 -0.2054 -0.0676  0.6469
  853MPD2    C212579   0.894   2.850  12.019  0.2205  0.2612  0.2604
  853MPD2    C312580   0.970   2.785  11.924 -0.1841 -0.4342 -0.5368
  853MPD2    C412581   1.054   2.682  11.958  0.0700 -0.1313 -0.4776
  853MPD2    C512582   1.055   2.648  12.090 -0.3906 -0.2618 -0.6213
  853MPD2     H12583   0.815   2.912  11.977 -2.4629 -2.3643  1.4455
  853MPD2    H112584   1.121   2.637  11.886  1.5381  0.2690  0.6398
  853MPD2    H212585   0.973   2.652  12.277  0.3034  0.6142  0.1589
  853MPD2    H312586   1.117   2.565  12.119 -0.6276  0.3066  1.5179
  853MPD2     N12587   0.962   2.808  11.781  0.0156 -0.0286  0.4045
  853MPD2    H512588   1.010   2.744  11.718  1.3302  1.0749  0.2829
  853MPD2    N112589   0.794   2.846  12.242  0.2261 -0.7378 -0.1725
  853MPD2    H712590   0.730   2.913  12.201 -0.8000 -0.7350  1.4189
  854MPD2     C12591   1.977   3.876  13.334 -0.6935  0.3557  1.0157
  854MPD2    C112592   1.989   3.831  13.201  0.1581  0.1139 -0.8882
  854MPD2    C212593   2.093   3.745  13.173  0.6255  0.9578 -0.0416
  854MPD2    C312594   2.175   3.697  13.272  0.2913  0.2740  0.3215
  854MPD2    C412595   2.144   3.716  13.407  0.4928  0.1112 -0.3351
  854MPD2    C512596   2.050   3.814  13.433  0.2919 -0.0023  0.6971
  854MPD2     H12597   2.114   3.706  13.073  0.4465  0.9182 -0.0624
  854MPD2    H112598   2.200   3.663  13.484 -0.4824  0.4774  0.6335
  854MPD2    H212599   1.894   3.940  13.361  0.1097  1.4029  0.9718
  854MPD2    H312600   2.028   3.835  13.537  1.2433  1.1175  0.6690
  854MPD2     N12601   2.296   3.631  13.249 -1.0768  0.5233  0.2818
  854MPD2    H512602   2.346   3.594  13.329 -0.3724 -3.2062 -1.8664
  854MPD2    N112603   1.907   3.878  13.095  0.4870 -0.2293  0.1516
  854MPD2    H712604   1.844   3.953  13.124  0.4769  0.2517 -1.1236
  855MPD2     C12605   2.884   3.448  13.814  0.4091 -0.1417  0.1230
  855MPD2    C112606   2.811   3.337  13.765 -0.1663 -0.7872  0.5099
  855MPD2    C212607   2.769   3.347  13.636 -0.1584 -0.1933  0.5592
  855MPD2    C312608   2.784   3.467  13.561 -0.1450 -0.2247 -0.6312
  855MPD2    C412609   2.829   3.581  13.627 -0.4100 -0.1475 -0.4658
  855MPD2    C512610   2.877   3.564  13.752 -0.1533  0.4895  0.1390
  855MPD2     H12611   2.721   3.263  13.587  1.1653 -0.9802  0.6053
  855MPD2    H112612   2.844   3.670  13.567 -0.3473 -0.0586 -0.3184
  855MPD2    H212613   2.929   3.443  13.912  0.4042 -2.4274  0.0275
  855MPD2    H312614   2.933   3.646  13.796 -1.4443  0.6823  1.4186
  855MPD2     N12615   2.740   3.484  13.432 -0.2854  0.3123  0.3221
  855MPD2    H512616   2.735   3.576  13.389  1.9361 -1.1695 -3.1378
  855MPD2    N112617   2.798   3.220  13.841 -0.2801 -0.2174  0.5222
  855MPD2    H712618   2.750   3.146  13.791 -1.8193  1.2463 -0.1593
  856MPD2     C12619   4.682   3.911  13.852  0.7730 -0.6765  0.9056
  856MPD2    C112620   4.658   4.020  13.935  0.1610 -0.4060  0.6635
  856MPD2    C212621   4.534   4.093  13.926 -0.5513 -0.2773  0.5173
  856MPD2    C312622   4.445   4.067  13.817  0.1506  0.3321  0.1317
  856MPD2    C412623   4.473   3.958  13.741  0.6603  0.8727 -0.1298
  856MPD2    C512624   4.585   3.879  13.757 -0.1672  0.7626 -0.6551
  856MPD2     H12625   4.528   4.182  13.987 -0.4622  0.7460 -0.9623
  856MPD2    H112626   4.413   3.927  13.657  1.1176 -0.3745 -0.0005
  856MPD2    H212627   0.036   3.859  13.857  0.7070 -0.8914 -0.0539
  856MPD2    H312628   4.595   3.787  13.701 -3.3235  0.1814 -0.2435
  856MPD2     N12629   4.331   4.150  13.784 -0.7229  0.0865 -0.1910
  856MPD2    H512630   4.286   4.112  13.702 -1.5081 -2.0117  1.2006
  856MPD2    N112631   0.025   4.072  14.014  0.9935 -0.6395 -0.2757
  856MPD2    H712632   0.013   4.164  14.056 -2.1807 -0.9238 -0.5709
  857MPD2     C12633   1.671   1.605  12.633  0.3489  0.0655 -0.4510
  857MPD2    C112634   1.812   1.604  12.642 -0.3889  0.0680 -0.0163
  857MPD2    C212635   1.887   1.716  12.685 -0.4571 -0.6627 -0.1466
  857MPD2    C312636   1.819   1.834  12.724  0.5053  0.6103 -0.3531
  857MPD2    C412637   1.683   1.836  12.716 -0.7481 -0.5196 -0.0391
  857MPD2    C512638   1.612   1.716  12.692  0.5510  0.6026 -0.7641
  857MPD2     H12639   1.996   1.719  12.681 -0.4523 -1.4179 -0.6885
  857MPD2    H112640   1.624   1.917  12.755 -1.1058 -0.2577 -1.1353
  857MPD2    H212641   1.614   1.519  12.599 -2.6387  2.5434 -1.6902
  857MPD2    H312642   1.505   1.722  12.707  0.8350  2.9780  0.4293
  857MPD2     N12643   1.896   1.942  12.771 -0.1296 -0.4720  0.7123
  857MPD2    H512644   1.992   1.925  12.800  0.1352  0.4241  0.3656
  857MPD2    N112645   1.870   1.485  12.596  0.2707  0.0877 -0.2433
  857MPD2    H712646   1.807   1.417  12.553 -0.2241 -0.5444  1.4719
  858MPD2     C12647   2.228   0.988  16.731  0.0470 -0.3721 -0.1393
  858MPD2    C112648   2.337   0.909  16.723 -0.2282  0.3190 -0.1776
  858MPD2    C212649   2.407   0.886  16.840  0.1447  0.8246  0.1922
  858MPD2    C312650   2.374   0.949  16.960 -0.0493  0.0765  0.0264
  858MPD2    C412651   2.266   1.035  16.960 -0.2320 -0.2026 -0.5985
  858MPD2    C512652   2.191   1.057  16.844 -0.0708 -0.3403  0.0827
  858MPD2     H12653   2.488   0.814  16.849  0.5870  0.9457 -2.6620
  858MPD2    H112654   2.218   1.076  17.049 -0.6955 -3.1615  0.5161
  858MPD2    H212655   2.152   0.992  16.653 -0.7425 -0.1906  0.6387
  858MPD2    H312656   2.094   1.106  16.846  1.5943  2.8157  4.7570
  858MPD2     N12657   2.443   0.927  17.084 -0.4762  0.6611 -0.0920
  858MPD2    H512658   2.411   0.980  17.164  0.0862 -0.6157  0.9751
  858MPD2    N112659   2.364   0.831  16.611 -0.1723  0.7531  0.1869
  858MPD2    H712660   2.294   0.821  16.538 -1.5550 -2.9877  2.0539
  859MPD2     C12661   1.015   2.688  15.955  0.4591 -0.3593 -0.2752
  859MPD2    C112662   1.014   2.631  15.831 -0.3491 -0.0057  0.1900
  859MPD2    C212663   0.984   2.498  15.817  0.0160  0.5209 -0.1187
  859MPD2    C312664   0.959   2.414  15.925 -0.3130  0.6082 -0.3082
  859MPD2    C412665   0.961   2.466  16.055 -0.1196 -0.1565 -0.4631
  859MPD2    C512666   0.988   2.606  16.061 -0.3281 -0.5195 -0.1670
  859MPD2     H12667   0.985   2.452  15.719  0.6265 -0.0691  0.1615
  859MPD2    H112668   0.943   2.404  16.142  2.5518  0.8736  0.8359
  859MPD2    H212669   1.024   2.795  15.969 -1.2138 -0.3391  0.6396
  859MPD2    H312670   0.968   2.644  16.161 -1.4006 -1.8116  0.1064
  859MPD2     N12671   0.927   2.281  15.918 -0.9000  0.2484 -0.1793
  859MPD2    H512672   0.912   2.244  16.011  1.0683 -2.2025 -0.8272
  859MPD2    N112673   1.048   2.718  15.719 -0.7063  0.0091  0.5249
  859MPD2    H712674   1.086   2.810  15.742  0.7098  0.2970 -3.0542
  860MPD2     C12675   3.008   2.952  11.608 -0.6789 -0.2770  0.3620
  860MPD2    C112676   2.996   2.963  11.741  0.0345 -0.8576  0.5606
  860MPD2    C212677   2.878   3.013  11.800 -0.4413 -0.0192  0.6602
  860MPD2    C312678   2.784   3.080  11.721 -0.3314 -0.1634 -0.4054
  860MPD2    C412679   2.791   3.060  11.582  0.5534 -0.3925 -0.0787
  860MPD2    C512680   2.904   2.998  11.536  0.4856 -0.1007  0.4630
  860MPD2     H12681   2.864   3.014  11.908 -2.7598 -0.2638  0.3461
  860MPD2    H112682   2.714   3.093  11.513  0.0791 -1.6033 -0.1310
  860MPD2    H212683   3.089   2.899  11.560 -0.1778 -0.5573  1.5387
  860MPD2    H312684   2.919   3.002  11.429  1.7588 -0.7869  0.6283
  860MPD2     N12685   2.678   3.140  11.795  0.0521 -0.0212  0.5147
  860MPD2    H512686   2.675   3.143  11.896  1.5821 -1.5324  0.6090
  860MPD2    N112687   3.090   2.894  11.829  0.6243  0.4109 -0.2092
  860MPD2    H712688   3.071   2.903  11.929 -0.6847 -1.5105 -0.2744
  861MPD2     C12689   2.621   1.024  10.980 -0.0354  0.9176  0.7202
  861MPD2    C112690   2.655   1.153  10.939  0.4152 -0.3050  0.2001
  861MPD2    C212691   2.573   1.216  10.840 -0.3555  0.1608 -0.2966
  861MPD2    C312692   2.464   1.146  10.788  0.2418 -0.2431 -0.2035
  861MPD2    C412693   2.430   1.024  10.848 -0.0540 -0.0615  0.2350
  861MPD2    C512694   2.506   0.966  10.944  0.4198 -0.4858  0.1096
  861MPD2     H12695   2.591   1.320  10.815  2.3138 -0.6091 -1.5489
  861MPD2    H112696   2.339   0.972  10.824  0.9355 -1.9259  0.5202
  861MPD2    H212697   2.696   0.974  11.039  0.4879  0.3384 -0.4281
  861MPD2    H312698   2.484   0.864  10.974  0.7332 -0.1737  1.4016
  861MPD2     N12699   2.373   1.193  10.692 -0.1801 -0.0722 -0.1197
  861MPD2    H512700   2.298   1.130  10.664  0.4855 -0.8378 -0.1810
  861MPD2    N112701   2.753   1.240  10.999 -0.4413  0.1058  0.3483
  861MPD2    H712702   2.761   1.339  10.976 -0.5877 -0.1363 -0.7217
  862MPD2     C12703   1.695   0.991  10.451  0.5153 -0.2016  0.6766
  862MPD2    C112704   1.788   1.009  10.547 -0.3395  0.3191 -0.5801
  862MPD2    C212705   1.771   0.944  10.664 -0.5817  0.4083 -0.0554
  862MPD2    C312706   1.667   0.858  10.686  0.9040 -0.2180  0.2384
  862MPD2    C412707   1.572   0.846  10.592 -0.1330  0.5022 -0.2586
  862MPD2    C512708   1.587   0.914  10.475 -0.4912  0.2555  0.2648
  862MPD2     H12709   1.852   0.960  10.735  0.6714  0.0057 -1.3923
  862MPD2    H112710   1.483   0.785  10.608 -0.4683  1.7117  2.3453
  862MPD2    H212711   1.693   1.047  10.359  0.5253 -0.3180  0.6060
  862MPD2    H312712   1.501   0.917  10.410  0.4143 -0.0423 -0.9530
  862MPD2     N12713   1.628   0.796  10.810  1.2571  0.3724 -0.5883
  862MPD2    H512714   1.540   0.746  10.811  1.9361 -0.8000 -0.4343
  862MPD2    N112715   1.898   1.094  10.527  0.0719  0.2791 -0.4948
  862MPD2    H712716   1.971   1.093  10.597 -0.1502  0.2487 -0.2670
  863MPD2     C12717   0.693   3.972  16.638 -0.2746 -0.4874 -0.0948
  863MPD2    C112718   0.720   4.105  16.653  0.1487  0.8584  0.3318
  863MPD2    C212719   0.798   4.151  16.753 -0.4412 -0.3975 -0.2247
  863MPD2    C312720   0.835   4.070  16.855  0.0472 -0.0479 -0.0464
  863MPD2    C412721   0.804   3.934  16.845  0.4434 -0.3258 -0.0949
  863MPD2    C512722   0.730   3.883  16.737 -0.5407 -0.1507 -0.1566
  863MPD2     H12723   0.830   4.253  16.740  1.7962 -1.3763 -2.2616
  863MPD2    H112724   0.840   3.866  16.921  0.3104 -0.3667 -0.0675
  863MPD2    H212725   0.624   3.941  16.561 -0.0250  0.3753 -0.6676
  863MPD2    H312726   0.710   3.777  16.733 -0.0649 -0.2089 -1.1776
  863MPD2     N12727   0.920   4.101  16.968  0.5500  0.3063  0.2312
  863MPD2    H512728   0.941   4.030  17.038 -0.6246  0.7225  1.0050
  863MPD2    N112729   0.676   4.192  16.549  0.2293 -0.4336 -0.5585
  863MPD2    H712730   0.635   4.153  16.465 -2.0915  0.3403  0.2351
  864MPD2     C12731   1.264   0.123  17.270  0.8804  0.2066  0.2715
  864MPD2    C112732   1.237   0.158  17.139 -0.1654  0.2789 -0.2059
  864MPD2    C212733   1.238   0.290  17.099  0.2811 -0.4774 -0.7424
  864MPD2    C312734   1.277   0.390  17.186 -0.3313 -0.0652  0.3966
  864MPD2    C412735   1.294   0.359  17.319 -0.1257  0.2033 -0.2200
  864MPD2    C512736   1.280   0.225  17.363  0.2054 -0.4498 -0.2962
  864MPD2     H12737   1.212   0.323  16.999  1.9853 -0.0427 -1.0558
  864MPD2    H112738   1.312   0.437  17.392  1.8990  0.2284 -0.7543
  864MPD2    H212739   1.278   0.020  17.301 -0.2741 -0.0257  0.0005
  864MPD2    H312740   1.312   0.199  17.463  0.2756  2.0749  0.3374
  864MPD2     N12741   1.294   0.532  17.152 -0.5959 -0.1428  0.4467
  864MPD2    H512742   1.346   0.592  17.214  0.6298  0.6817 -1.3968
  864MPD2    N112743   1.209   0.044  17.053  0.1241 -0.4951 -0.0408
  864MPD2    H712744   1.188   4.699  17.102  1.6470 -1.3391 -0.8861
  865MPD2     C12745   1.514   1.147  16.366 -0.6162  0.4355 -1.4047
  865MPD2    C112746   1.451   1.021  16.384 -0.8796  0.7932 -0.1743
  865MPD2    C212747   1.372   1.002  16.497 -0.4012  0.8584 -0.8586
  865MPD2    C312748   1.389   1.096  16.600  0.4410  0.4588 -0.0399
  865MPD2    C412749   1.447   1.220  16.585 -0.8326  0.1516 -0.0584
  865MPD2    C512750   1.496   1.243  16.460  0.3159 -0.1459 -0.4801
  865MPD2     H12751   1.326   0.906  16.521 -1.3028  1.8881  1.5339
  865MPD2    H112752   1.444   1.286  16.671  0.3123 -0.6932  0.6378
  865MPD2    H212753   1.562   1.178  16.274 -0.7901 -0.4970 -1.8137
  865MPD2    H312754   1.542   1.341  16.449  0.9806 -0.5281 -1.0814
  865MPD2     N12755   1.358   1.069  16.736  0.2656 -0.1563 -0.6874
  865MPD2    H512756   1.395   1.126  16.811  1.3109 -2.4574  0.5797
  865MPD2    N112757   1.476   0.921  16.287 -0.2482  0.2034 -0.6047
  865MPD2    H712758   1.553   0.932  16.221  0.7840 -2.2237  0.1974
  866MPD2     C12759   3.221   1.661  10.933  0.4018  0.2941 -0.3985
  866MPD2    C112760   3.138   1.555  10.911  0.2184  0.1949 -0.3417
  866MPD2    C212761   2.999   1.587  10.911  0.4054 -0.0391 -0.1875
  866MPD2    C312762   2.957   1.709  10.954  0.1643 -0.4157  0.3065
  866MPD2    C412763   3.045   1.812  10.974  0.1792  0.3303 -0.1781
  866MPD2    C512764   3.178   1.789  10.962 -0.3125  0.2790  0.1734
  866MPD2     H12765   2.928   1.516  10.871 -0.2751  0.3695  0.2842
  866MPD2    H112766   3.005   1.910  10.995  1.5782  0.2457  2.8328
  866MPD2    H212767   3.327   1.650  10.915  0.4393  1.8023 -1.1152
  866MPD2    H312768   3.239   1.876  10.984  0.0476  0.7173 -2.6024
  866MPD2     N12769   2.818   1.741  10.957 -0.5359  0.1327 -0.3270
  866MPD2    H512770   2.788   1.837  10.966  1.3086  0.6834 -0.0227
  866MPD2    N112771   3.196   1.438  10.871  0.0464  0.0897  0.6323
  866MPD2    H712772   3.296   1.428  10.881  0.0806  0.0914  0.2772
  867MPD2     C12773   0.112   0.816  16.515  0.5063 -0.0100 -0.0509
  867MPD2    C112774   0.139   0.730  16.624 -0.7886  0.5032  0.0566
  867MPD2    C212775   0.099   0.769  16.752 -0.1387 -0.0016 -0.9042
  867MPD2    C312776   0.035   0.885  16.775 -0.5132 -0.0611 -0.4474
  867MPD2    C412777   0.009   0.971  16.670  1.2370  0.1048  0.2202
  867MPD2    C512778   0.044   0.937  16.543 -0.2326 -0.1060 -0.3767
  867MPD2     H12779   0.116   0.699  16.833  1.1992 -0.5414 -1.6619
  867MPD2    H112780   4.699   1.064  16.690  2.4497  0.7578  0.2457
  867MPD2    H212781   0.141   0.797  16.412  0.5413 -0.3626  0.0217
  867MPD2    H312782   0.037   1.010  16.464  1.1023  0.2258 -0.1852
  867MPD2     N12783   4.710   0.923  16.901  0.0349 -0.2924  0.6150
  867MPD2    H512784   4.665   1.014  16.903 -1.7618 -1.1638  0.1283
  867MPD2    N112785   0.209   0.616  16.587  0.3188  0.1462  0.2717
  867MPD2    H712786   0.241   0.607  16.490 -0.6449  0.8373 -0.1078
  868MPD2     C12787   1.978   0.424  13.243  0.3159  0.1173 -0.3837
  868MPD2    C112788   1.929   0.320  13.324 -0.5776 -0.0796  0.2508
  868MPD2    C212789   1.809   0.338  13.398  0.0759  0.2677  0.1819
  868MPD2    C312790   1.750   0.460  13.405 -0.0483  0.1307  0.1900
  868MPD2    C412791   1.802   0.560  13.330 -1.3692  0.0987 -0.5580
  868MPD2    C512792   1.914   0.547  13.253 -0.8804  0.2615  0.3694
  868MPD2     H12793   1.768   0.264  13.466  0.7255  1.3976  1.8097
  868MPD2    H112794   1.773   0.663  13.347  1.3845  0.7047  0.3369
  868MPD2    H212795   2.072   0.425  13.188  0.8992 -0.5998  0.6002
  868MPD2    H312796   1.964   0.631  13.206 -1.3167 -0.2932 -1.0888
  868MPD2     N12797   1.639   0.473  13.482  0.3060 -0.5864 -0.0741
  868MPD2    H512798   1.608   0.388  13.529  0.5637 -1.0129 -0.6698
  868MPD2    N112799   2.000   0.198  13.319  0.0220  0.3539 -0.3501
  868MPD2    H712800   2.078   0.187  13.255  0.8042 -1.0809  0.8510
  869MPD2     C12801   3.182   2.643   1.579 -0.0095  0.6727 -0.5500
  869MPD2    C112802   3.166   2.692   1.452  0.5996  0.3103  0.2117
  869MPD2    C212803   3.261   2.767   1.406 -0.3822 -0.9581 -0.3741
  869MPD2    C312804   3.375   2.803   1.486 -0.0402 -0.6034  0.7396
  869MPD2    C412805   3.390   2.761   1.618  0.1492  0.4504 -0.1937
  869MPD2    C512806   3.288   2.682   1.663 -0.1736  0.4967  0.0962
  869MPD2     H12807   3.251   2.811   1.307 -0.5115 -1.9234 -0.7857
  869MPD2    H112808   3.475   2.791   1.679 -0.7885  2.3393  0.1722
  869MPD2    H212809   3.102   2.575   1.607  0.3233  0.6436  0.3287
  869MPD2    H312810   3.291   2.635   1.761  0.7315  1.9860  0.7669
  869MPD2     N12811   3.468   2.892   1.422  0.3795  0.6779  0.6767
  869MPD2    H512812   3.462   2.913   1.323 -0.4777 -2.2684  0.0943
  869MPD2    N112813   3.058   2.661   1.372  0.8986 -0.1010 -0.5553
  869MPD2    H712814   2.989   2.606   1.423  1.9997 -0.7525  0.2298
  870MPD2     C12815   2.512   1.065   1.640  0.1372 -0.6271  0.7954
  870MPD2    C112816   2.591   1.171   1.599  0.2673 -0.6710  0.0982
  870MPD2    C212817   2.525   1.287   1.566  0.5447  0.0442 -0.3273
  870MPD2    C312818   2.389   1.291   1.568  0.1298  0.2175  0.0310
  870MPD2    C412819   2.317   1.181   1.606  0.0850 -0.2951  0.0609
  870MPD2    C512820   2.379   1.068   1.640  0.0804 -0.1497 -0.8709
  870MPD2     H12821   2.581   1.373   1.534 -1.4879  0.8824 -1.5933
  870MPD2    H112822   2.209   1.166   1.600 -0.0574  0.4526  0.8233
  870MPD2    H212823   2.557   0.971   1.666  0.4436 -0.2582  1.6063
  870MPD2    H312824   2.324   0.982   1.677 -0.7467  0.4636 -0.6707
  870MPD2     N12825   2.317   1.403   1.529 -0.0785  0.0507 -0.1950
  870MPD2    H512826   2.371   1.483   1.496 -0.6157 -0.2996 -1.8959
  870MPD2    N112827   2.728   1.145   1.610 -0.5559  0.1870 -0.4426
  870MPD2    H712828   2.755   1.049   1.626  1.5260  0.3681 -2.7602
  871MPD2     C12829   4.027   1.200  16.681 -0.0633 -0.3910 -0.2486
  871MPD2    C112830   3.967   1.125  16.781 -0.1577  0.4419  0.0377
  871MPD2    C212831   3.971   0.986  16.759 -0.1455  0.0644 -0.1425
  871MPD2    C312832   4.046   0.933  16.657  0.1907 -0.7075  1.2307
  871MPD2    C412833   4.111   1.010  16.564  0.0023 -0.0129 -0.4160
  871MPD2    C512834   4.093   1.148  16.572  0.4656  0.0195  1.0195
  871MPD2     H12835   3.939   0.924  16.842 -0.8976  2.5786  1.4546
  871MPD2    H112836   4.166   0.975  16.478  1.5571  0.4316  0.3886
  871MPD2    H212837   4.006   1.307  16.686  2.7220  0.0957  1.0743
  871MPD2    H312838   4.144   1.222  16.510  0.8567  0.4902  1.8994
  871MPD2     N12839   4.051   0.788  16.649 -0.0629  0.0923  0.6619
  871MPD2    H512840   3.995   0.730  16.710  0.8005 -1.0661  0.3513
  871MPD2    N112841   3.923   1.202  16.892  0.3187 -0.2790 -0.2182
  871MPD2    H712842   3.935   1.303  16.896  0.5953 -0.3481  0.7320
  872MPD2     C12843   4.223   3.317  13.532  0.8011 -0.2490  0.2406
  872MPD2    C112844   4.306   3.350  13.635 -0.7226  0.4380  0.0419
  872MPD2    C212845   4.257   3.393  13.752 -0.2822  0.0104 -0.2941
  872MPD2    C312846   4.120   3.414  13.777  0.1009  0.0523  0.0733
  872MPD2    C412847   4.032   3.384  13.671  0.0854  0.5736  0.6136
  872MPD2    C512848   4.092   3.344  13.550  0.1805 -0.1467 -0.4372
  872MPD2     H12849   4.325   3.428  13.829 -1.7419 -2.1669  1.9981
  872MPD2    H112850   3.925   3.397  13.687 -0.0930  0.0943 -0.1736
  872MPD2    H212851   4.266   3.287  13.437 -0.8982 -1.4265 -0.1603
  872MPD2    H312852   4.026   3.328  13.465 -1.6401 -0.2296  1.0071
  872MPD2     N12853   4.074   3.449  13.904  0.1285 -0.3329 -0.3208
  872MPD2    H512854   3.973   3.455  13.909  0.1850  0.3056  0.0879
  872MPD2    N112855   4.438   3.330  13.625 -0.9887 -0.4391 -0.2901
  872MPD2    H712856   4.488   3.327  13.713 -2.1790  1.2372  0.4421
  873MPD2     C12857   2.461   3.700   1.013  0.1873  0.1483  0.1932
  873MPD2    C112858   2.336   3.745   1.044  0.3346  0.2791  0.1797
  873MPD2    C212859   2.240   3.654   1.094  0.1172  0.2724  1.0756
  873MPD2    C312860   2.283   3.523   1.111 -0.3326  0.2900  0.0865
  873MPD2    C412861   2.402   3.477   1.074  0.0164 -0.2887  0.9494
  873MPD2    C512862   2.488   3.567   1.016  0.7598  0.5637 -0.5688
  873MPD2     H12863   2.143   3.685   1.130 -0.3309  0.4081 -0.2722
  873MPD2    H112864   2.423   3.370   1.068  1.0977  0.0812 -1.9942
  873MPD2    H212865   2.539   3.763   0.971 -1.1621  1.1159 -0.8830
  873MPD2    H312866   2.585   3.529   0.986  0.8815  0.0459  0.4749
  873MPD2     N12867   2.191   3.428   1.154 -0.0963 -0.0100  0.7976
  873MPD2    H512868   2.219   3.332   1.133 -1.0200  0.1328 -1.0197
  873MPD2    N112869   2.312   3.886   1.032  0.8066 -0.1439 -0.4389
  873MPD2    H712870   2.380   3.951   0.995 -3.3672  3.5566 -1.5185
  874MPD2     C12871   1.537   3.559  16.077 -0.0603  0.1542 -0.1111
  874MPD2    C112872   1.538   3.660  16.180  0.0806 -0.0941  0.3982
  874MPD2    C212873   1.623   3.766  16.168  0.0895 -0.4300  0.4634
  874MPD2    C312874   1.715   3.780  16.070  0.6122  0.0972  0.0416
  874MPD2    C412875   1.708   3.690  15.961  0.1067 -0.1604 -0.0592
  874MPD2    C512876   1.619   3.582  15.972 -0.7836  0.0509 -0.1084
  874MPD2     H12877   1.617   3.841  16.246  1.9744 -0.0040  0.2173
  874MPD2    H112878   1.776   3.685  15.877 -0.0671  0.0110 -0.2103
  874MPD2    H212879   1.474   3.471  16.077  0.7729 -0.4428  2.0389
  874MPD2    H312880   1.615   3.515  15.887  0.2867 -1.9799  1.4277
  874MPD2     N12881   1.815   3.878  16.081 -0.0375  0.0017  0.2380
  874MPD2    H512882   1.816   3.937  16.164 -1.1788  1.2395 -0.6388
  874MPD2    N112883   1.464   3.624  16.297  0.1105 -0.2256 -0.2452
  874MPD2    H712884   1.429   3.528  16.300  0.2989 -0.4305 -3.8170
  875MPD2     C12885   2.324   2.055  14.647  0.1872  0.3870 -0.4999
  875MPD2    C112886   2.200   2.053  14.706  0.0192 -0.9471  0.3006
  875MPD2    C212887   2.190   2.068  14.844  0.0537 -0.0944 -0.2606
  875MPD2    C312888   2.304   2.108  14.919  0.4696 -0.5530  0.3440
  875MPD2    C412889   2.423   2.125  14.849 -0.4231  0.1513  0.1369
  875MPD2    C512890   2.435   2.095  14.715  0.2387 -0.3078 -0.6423
  875MPD2     H12891   2.093   2.063  14.890 -0.3583  0.8256 -1.0305
  875MPD2    H112892   2.516   2.128  14.905 -0.5474  0.6006  0.3239
  875MPD2    H212893   2.342   2.025  14.544 -1.7935  0.1246 -0.7794
  875MPD2    H312894   2.532   2.086  14.666 -0.6374 -0.3023 -2.3609
  875MPD2     N12895   2.301   2.146  15.054 -0.7522  0.6178 -0.2840
  875MPD2    H512896   2.382   2.180  15.105 -0.5067 -0.1286 -0.1652
  875MPD2    N112897   2.082   2.018  14.637  0.9566  0.7010  0.4774
  875MPD2    H712898   1.997   2.001  14.689  0.0643 -2.3884 -1.9848
  876MPD2     C12899   1.640   3.210  16.112  0.3526 -0.0984 -0.8703
  876MPD2    C112900   1.543   3.165  16.027  0.3678 -0.5839  0.8415
  876MPD2    C212901   1.460   3.060  16.074  0.6055  0.1877 -0.6847
  876MPD2    C312902   1.478   3.000  16.198 -1.0241  0.5683 -0.5895
  876MPD2    C412903   1.572   3.055  16.278  0.0456  0.6912  0.1632
  876MPD2    C512904   1.657   3.153  16.233 -0.2901  0.0972 -0.2804
  876MPD2     H12905   1.383   3.022  16.007  0.3726 -0.3066 -0.1337
  876MPD2    H112906   1.586   3.015  16.378 -0.2068  1.7241  0.6217
  876MPD2    H212907   1.703   3.296  16.094 -1.2254  1.1894 -0.2791
  876MPD2    H312908   1.739   3.183  16.298 -1.0018  0.4175  0.4798
  876MPD2     N12909   1.390   2.897  16.242  0.0152 -0.2106  0.0960
  876MPD2    H512910   1.323   2.859  16.176 -2.4472 -0.9086  2.9699
  876MPD2    N112911   1.527   3.226  15.911 -0.5896  1.2011 -0.2153
  876MPD2    H712912   1.588   3.302  15.883 -1.1526  0.7014 -2.8213
  877MPD2     C12913   1.089   3.289  15.125 -0.2017 -0.0601 -0.1111
  877MPD2    C112914   1.225   3.300  15.136 -0.0088  0.4161  0.3194
  877MPD2    C212915   1.296   3.303  15.016 -0.6001  0.5014 -0.7013
  877MPD2    C312916   1.232   3.326  14.891 -0.4639  0.7154 -0.1541
  877MPD2    C412917   1.098   3.320  14.893 -0.5556 -0.2352  0.3638
  877MPD2    C512918   1.030   3.303  15.002 -0.5917  0.0180  0.0039
  877MPD2     H12919   1.404   3.300  15.023 -0.6391  2.7351  0.7396
  877MPD2    H112920   1.044   3.336  14.800 -1.4568 -0.6508  0.8171
  877MPD2    H212921   1.027   3.272  15.213  0.3234 -0.0163  0.2680
  877MPD2    H312922   0.922   3.297  14.998 -0.5535 -0.0270 -1.0260
  877MPD2     N12923   1.301   3.344  14.770 -0.5964  0.1645  0.6635
  877MPD2    H512924   1.240   3.339  14.689  0.4866  0.8094 -0.1909
  877MPD2    N112925   1.303   3.304  15.256 -0.6437  0.4114  0.0261
  877MPD2    H712926   1.404   3.316  15.253 -0.7228  1.0033 -0.3899
  878MPD2     C12927   1.192   3.297  13.426 -0.1092  0.4910  0.1917
  878MPD2    C112928   1.208   3.163  13.444  0.2424 -0.1567 -0.2943
  878MPD2    C212929   1.188   3.106  13.570  0.2352  0.6118  0.0602
  878MPD2    C312930   1.163   3.187  13.682  0.1962  0.1386 -0.5450
  878MPD2    C412931   1.172   3.321  13.668  0.0226 -0.1611  0.2094
  878MPD2    C512932   1.171   3.374  13.539 -0.0661  0.6166 -0.3873
  878MPD2     H12933   1.185   2.998  13.576  3.1685  0.5353 -0.0465
  878MPD2    H112934   1.141   3.378  13.754  0.2097  1.4168 -0.7547
  878MPD2    H212935   1.196   3.352  13.333 -0.3378 -0.7280 -0.5451
  878MPD2    H312936   1.149   3.480  13.534 -1.1059  0.5221  2.2046
  878MPD2     N12937   1.136   3.133  13.813  0.4667 -0.5812 -0.4772
  878MPD2    H512938   1.124   3.205  13.884  0.3715 -1.0192 -0.0479
  878MPD2    N112939   1.246   3.090  13.325  0.3202  0.1796  0.8140
  878MPD2    H712940   1.243   3.137  13.235  1.1811 -0.6577  0.3543
  879MPD2     C12941   1.543   4.652  16.897 -1.1903  0.2986 -0.0100
  879MPD2    C112942   1.566   4.542  16.974 -0.1610 -0.0247 -0.1300
  879MPD2    C212943   1.514   4.415  16.936  0.3782 -0.4206  0.3352
  879MPD2    C312944   1.426   4.410  16.833 -0.0638 -0.2351 -0.3319
  879MPD2    C412945   1.392   4.525  16.762  0.3850  0.3673 -0.0880
  879MPD2    C512946   1.464   4.639  16.788 -0.8213  0.5012 -0.0865
  879MPD2     H12947   1.532   4.323  16.990 -1.0537 -2.0727 -1.9997
  879MPD2    H112948   1.313   4.526  16.688 -0.0556  2.3873  0.3916
  879MPD2    H212949   1.589   0.009  16.912  1.8525 -1.3188  1.2454
  879MPD2    H312950   1.442   4.726  16.729  0.7724  0.8704 -0.1492
  879MPD2     N12951   1.361   4.291  16.790  0.0950  0.2447  0.2440
  879MPD2    H512952   1.284   4.304  16.724  1.2334 -1.4324 -1.4075
  879MPD2    N112953   1.660   4.564  17.082  0.5135  0.2525 -0.1165
  879MPD2    H712954   1.677   4.660  17.112  1.5770  0.3734 -1.1024
  880MPD2     C12955   2.927   1.115   0.287 -0.1712 -0.2734 -0.0077
  880MPD2    C112956   2.840   1.137   0.389 -0.4287 -0.1438 -0.3721
  880MPD2    C212957   2.828   1.029   0.474 -0.6214  0.2132 -0.0479
  880MPD2    C312958   2.907   0.910   0.461 -0.4549  0.5422  0.0584
  880MPD2    C412959   2.990   0.895   0.353  0.2985  0.0127  0.3628
  880MPD2    C512960   2.990   0.994   0.259 -0.3306  0.5617 -0.0368
  880MPD2     H12961   2.778   1.032   0.569 -2.9877 -0.6553 -1.2664
  880MPD2    H112962   3.056   0.809   0.349  0.2835 -0.0886  2.1064
  880MPD2    H212963   2.950   1.198   0.221 -1.4507 -0.7175 -1.0103
  880MPD2    H312964   3.055   0.987   0.172  0.2479  0.0174  0.4392
  880MPD2     N12965   2.897   0.818   0.565  0.6851  0.2122  0.2031
  880MPD2    H512966   2.836   0.848   0.640  1.9636  1.7869  0.6085
  880MPD2    N112967   2.773   1.266   0.400  0.6712  0.1683 -0.4629
  880MPD2    H712968   2.790   1.339   0.332  0.3005  1.4758  0.8535
  881MPD2     C12969   2.580   2.079  17.679  0.4703 -0.1857  0.3680
  881MPD2    C112970   2.657   1.970  17.676  0.0698  0.0273  0.4817
  881MPD2    C212971   2.656   1.885   0.023 -0.4561  0.2207  0.4820
  881MPD2    C312972   2.564   1.909   0.131  0.0743  0.4687  0.8166
  881MPD2    C412973   2.479   2.017   0.128 -0.4079 -0.7580 -0.1623
  881MPD2    C512974   2.494   2.100   0.021 -0.7062  0.2818 -0.0291
  881MPD2     H12975   2.724   1.800   0.020 -1.4125 -0.5497  0.6046
  881MPD2    H112976   2.410   2.040   0.208 -0.0766 -3.4279  0.8980
  881MPD2    H212977   2.570   2.154  17.602  1.0743  0.7675  1.2335
  881MPD2    H312978   2.423   2.182   0.013 -0.8667  0.3307  1.9014
  881MPD2     N12979   2.547   1.817   0.236  0.4886 -0.1850  0.2687
  881MPD2    H512980   2.472   1.832   0.303  1.7825 -1.2882  1.9935
  881MPD2    N112981   2.758   1.938  17.576  0.1523  0.4558 -0.6272
  881MPD2    H712982   2.811   1.852  17.583  0.8149  0.8024 -1.3971
  882MPD2     C12983   1.190   3.782  14.317  0.2633  0.4340 -0.7084
  882MPD2    C112984   1.212   3.651  14.278  0.3510 -0.3230 -0.6382
  882MPD2    C212985   1.135   3.593  14.177 -0.0511  0.1376  0.1103
  882MPD2    C312986   1.045   3.667  14.105 -0.1780 -0.6376 -0.2874
  882MPD2    C412987   1.026   3.796  14.142  0.6591 -0.1655  0.0537
  882MPD2    C512988   1.093   3.856  14.253 -0.3075  0.2515 -0.1524
  882MPD2     H12989   1.140   3.486  14.161 -1.7234 -0.0566  0.9713
  882MPD2    H112990   0.940   3.851  14.105  0.3567 -1.9448 -1.8566
  882MPD2    H212991   1.242   3.829  14.400  1.9175 -1.1492 -0.8431
  882MPD2    H312992   1.064   3.954  14.288  3.0556  0.3426  2.3103
  882MPD2     N12993   0.959   3.621  14.003 -0.5211  0.1855 -0.6099
  882MPD2    H512994   0.877   3.679  13.984  0.8897  1.2889 -3.3669
  882MPD2    N112995   1.312   3.573  14.346  0.7686 -0.1499  0.0977
  882MPD2    H712996   1.341   3.615  14.434 -0.6554 -0.0002  0.4953
  883MPD2     C12997   3.204   2.960  15.680 -1.3921  0.0113 -0.0219
  883MPD2    C112998   3.209   3.087  15.630  0.1572 -0.2308  0.4181
  883MPD2    C212999   3.297   3.180  15.684  0.2955  0.4400  0.3602
  883MPD2    C313000   3.370   3.140  15.794  0.3399 -0.3369  1.2177
  883MPD2    C413001   3.353   3.016  15.851  0.6565 -0.6479  0.2466
  883MPD2    C513002   3.273   2.927  15.794 -0.3631 -0.3353 -0.1406
  883MPD2     H13003   3.301   3.286  15.663  2.4146  0.3552  0.3127
  883MPD2    H113004   3.407   2.981  15.939  1.2415 -0.0812  0.1190
  883MPD2    H213005   3.135   2.885  15.644 -1.1042 -0.1308 -0.2878
  883MPD2    H313006   3.265   2.828  15.838  0.9488 -0.1332  0.5511
  883MPD2     N13007   3.451   3.238  15.857 -0.8400 -0.0204  0.2509
  883MPD2    H513008   3.452   3.325  15.805 -3.4093 -0.8288 -1.1804
  883MPD2    N113009   3.128   3.143  15.534  0.3074  0.6618  0.0431
  883MPD2    H713010   3.134   3.244  15.529  4.0030  0.4442  0.3499
  884MPD2     C13011   0.549   4.058  15.141 -0.6674  0.1952  0.4756
  884MPD2    C113012   0.478   4.057  15.025 -0.1376 -0.0895  0.3022
  884MPD2    C213013   0.345   4.087  15.021  0.6358 -0.6604 -0.0238
  884MPD2    C313014   0.279   4.123  15.135 -0.0099 -0.3986 -0.2590
  884MPD2    C413015   0.352   4.119  15.252 -0.2286  0.3089  0.2256
  884MPD2    C513016   0.483   4.079  15.259  0.7400  0.0385 -0.4418
  884MPD2     H13017   0.284   4.078  14.931  0.0384  1.3720  0.1949
  884MPD2    H113018   0.307   4.141  15.347  1.0424 -0.0258  0.9081
  884MPD2    H213019   0.655   4.037  15.133  0.0542  2.8423  2.9519
  884MPD2    H313020   0.528   4.070  15.357 -1.9071  1.3780  0.9067
  884MPD2     N13021   0.134   4.136  15.130 -0.0245 -0.7268  0.4442
  884MPD2    H513022   0.087   4.124  15.041 -2.4005  2.1319  1.2830
  884MPD2    N113023   0.530   4.028  14.905 -0.7221 -0.5600 -0.1602
  884MPD2    H713024   0.476   4.046  14.821 -0.2120  0.2393 -0.3152
  885MPD2     C13025   3.599   0.277   0.236  0.5219  0.0656  0.2528
  885MPD2    C113026   3.649   0.160   0.188  0.9371  0.7322 -0.4668
  885MPD2    C213027   3.640   0.131   0.051  0.0366  0.2313  0.1271
  885MPD2    C313028   3.591   0.215  17.719 -0.0940 -0.0641  0.5097
  885MPD2    C413029   3.554   0.342   0.007 -0.2295 -0.8494 -0.3367
  885MPD2    C513030   3.544   0.364   0.148  0.2032  0.3885 -0.8252
  885MPD2     H13031   3.682   0.035   0.024  0.0509  0.4243 -0.5509
  885MPD2    H113032   3.513   0.420  17.705  0.9802  1.7084  2.0624
  885MPD2    H213033   3.604   0.303   0.341 -1.2038  1.7486 -0.0929
  885MPD2    H313034   3.505   0.459   0.181  1.1455  0.3940  0.2477
  885MPD2     N13035   3.594   0.187  17.583  0.3595  0.1291 -0.0924
  885MPD2    H513036   3.645   0.103  17.558 -1.5639 -0.4410 -2.1384
  885MPD2    N113037   3.721   0.082   0.284  0.2325 -0.1051 -0.2711
  885MPD2    H713038   3.746   0.125   0.373  1.8916 -1.2097 -0.2112
  886MPD2     C13039   0.088   3.041  15.678  0.1561 -0.4948 -0.2415
  886MPD2    C113040   0.186   2.975  15.608  0.1898  0.0695  0.0871
  886MPD2    C213041   0.202   3.003  15.470  0.6019  0.5387  0.0434
  886MPD2    C313042   0.132   3.104  15.408 -0.1066 -0.3721  0.7274
  886MPD2    C413043   0.046   3.186  15.479  0.0843  0.0526  0.6345
  886MPD2    C513044   0.023   3.148  15.611  0.1961  0.2227  0.6173
  886MPD2     H13045   0.278   2.958  15.407 -1.2055 -0.9070 -1.1001
  886MPD2    H113046   4.736   3.275  15.444  2.8262  1.3258 -0.1930
  886MPD2    H213047   0.064   3.022  15.782 -2.0468 -0.3025 -0.7259
  886MPD2    H313048   4.684   3.195  15.667 -1.3364 -0.7138 -0.8103
  886MPD2     N13049   0.153   3.120  15.267 -0.1729 -0.0735  0.4492
  886MPD2    H513050   0.210   3.047  15.225 -3.4785 -1.3904 -1.7639
  886MPD2    N113051   0.249   2.868  15.670 -0.0710 -0.8102  0.3658
  886MPD2    H713052   0.307   2.806  15.614 -1.2484 -0.0744 -1.6783
  887MPD2     C13053   0.900   2.955  16.177  0.3422  0.0549  0.2277
  887MPD2    C113054   0.817   2.995  16.076  0.6686  0.2167  0.2830
  887MPD2    C213055   0.841   3.120  16.019 -0.6426  0.4003 -0.4251
  887MPD2    C313056   0.950   3.193  16.057 -0.6778 -0.4219  0.3525
  887MPD2    C413057   1.012   3.159  16.179 -0.1796 -0.8608 -0.5809
  887MPD2    C513058   0.992   3.038  16.233  0.2602  0.2930 -0.7248
  887MPD2     H13059   0.779   3.143  15.933  1.7921  1.8308 -1.8010
  887MPD2    H113060   1.096   3.220  16.209 -2.0666  2.5356 -2.1232
  887MPD2    H213061   0.881   2.860  16.226 -0.2467 -0.9839 -2.0233
  887MPD2    H313062   1.063   3.003  16.307  0.8718  1.5957 -0.6886
  887MPD2     N13063   0.973   3.321  16.001  0.1900 -0.2836 -0.2228
  887MPD2    H513064   1.041   3.384  16.042  0.6187  0.0011 -1.3798
  887MPD2    N113065   0.712   2.916  16.021  0.3844  0.6624 -0.3534
  887MPD2    H713066   0.673   2.955  15.936 -0.5370 -2.9688 -1.6175
  888MPD2     C13067   2.558   3.040  15.202  0.3609  0.4767 -0.2311
  888MPD2    C113068   2.492   3.127  15.286 -0.4106  0.5530  0.3876
  888MPD2    C213069   2.510   3.262  15.265 -0.2918  0.2005  0.6863
  888MPD2    C313070   2.580   3.317  15.155 -0.3061 -0.0458 -0.0363
  888MPD2    C413071   2.632   3.225  15.065 -0.1228 -0.5076 -0.3159
  888MPD2    C513072   2.618   3.088  15.088 -0.3638 -0.5513 -0.1522
  888MPD2     H13073   2.464   3.330  15.336 -1.7783 -0.7886  0.6646
  888MPD2    H113074   2.689   3.242  14.975  0.8476  0.3954  0.4641
  888MPD2    H213075   2.555   2.933  15.219 -0.3181  0.7701  1.4860
  888MPD2    H313076   2.655   3.018  15.015 -1.1159 -2.4904  1.3350
  888MPD2     N13077   2.597   3.456  15.145  0.3308 -0.0240  0.2862
  888MPD2    H513078   2.539   3.518  15.200  2.0913 -1.3204  3.6068
  888MPD2    N113079   2.414   3.082  15.391 -0.5967  0.4220 -0.2831
  888MPD2    H713080   2.379   3.140  15.466  2.4910  1.1919  0.5373
  889MPD2     C13081   1.892   2.678  12.575  0.1304  0.4904  0.9675
  889MPD2    C113082   1.918   2.662  12.705  0.6679  0.3049  0.4717
  889MPD2    C213083   1.866   2.763  12.787  0.2767  0.1287 -0.2975
  889MPD2    C313084   1.841   2.888  12.736  0.0590  0.5486 -0.0896
  889MPD2    C413085   1.832   2.905  12.600 -0.6228  0.0395 -0.3661
  889MPD2    C513086   1.861   2.804  12.523  0.6774 -0.6174  0.7311
  889MPD2     H13087   1.862   2.750  12.894  1.0193 -0.8655 -0.3928
  889MPD2    H113088   1.803   2.999  12.553 -3.0552 -0.7560 -0.4433
  889MPD2    H213089   1.925   2.598  12.509 -0.9777  1.0473 -0.2560
  889MPD2    H313090   1.862   2.812  12.415  0.2549  1.3178  0.8687
  889MPD2     N13091   1.827   2.999  12.832 -0.4781 -0.0090 -0.2820
  889MPD2    H513092   1.846   2.975  12.929  2.0796 -0.0033 -0.7832
  889MPD2    N113093   1.948   2.536  12.755 -0.1670 -0.6872  0.1278
  889MPD2    H713094   1.954   2.455  12.695  0.7088  0.4943 -1.3834
  890MPD2     C13095   1.491   4.076  14.375  0.3854  0.2092  0.1729
  890MPD2    C113096   1.549   4.124  14.490 -0.5390 -0.1128 -0.0095
  890MPD2    C213097   1.599   4.035  14.587 -0.2651 -0.3280  0.2984
  890MPD2    C313098   1.593   3.899  14.556  0.2528 -0.9330  0.1549
  890MPD2    C413099   1.534   3.851  14.443 -0.0150 -0.6159 -0.1040
  890MPD2    C513100   1.482   3.940  14.352  0.1617  0.0715  0.9769
  890MPD2     H13101   1.658   4.073  14.670 -1.7698  3.2428 -0.2560
  890MPD2    H113102   1.518   3.745  14.431  0.9845 -0.9682  1.6805
  890MPD2    H213103   1.455   4.141  14.297  3.4296  2.8859  1.0014
  890MPD2    H313104   1.429   3.899  14.267 -0.2747  1.7078  0.4464
  890MPD2     N13105   1.657   3.807  14.651 -0.1303  0.1582  1.1939
  890MPD2    H513106   1.672   3.709  14.629 -0.7013 -0.1221  2.0686
  890MPD2    N113107   1.568   4.267  14.501 -0.1125 -0.1678 -0.0448
  890MPD2    H713108   1.529   4.325  14.427  0.1406  1.3713  1.0148
  891MPD2     C13109   4.364   3.037  16.520 -0.4661 -0.2136 -0.4757
  891MPD2    C113110   4.297   2.978  16.623  0.4323  0.0185 -0.5564
  891MPD2    C213111   4.362   2.954  16.739 -0.5051 -0.3150 -0.9289
  891MPD2    C313112   4.491   2.988  16.762 -0.5673 -0.1696 -0.2382
  891MPD2    C413113   4.557   3.048  16.655 -0.1779  0.3207 -0.5874
  891MPD2    C513114   4.495   3.076  16.539 -0.3836 -0.5697  0.1561
  891MPD2     H13115   4.320   2.901  16.823 -4.1430  3.5452 -0.2987
  891MPD2    H113116   4.664   3.066  16.659 -0.4654  1.5853  1.9077
  891MPD2    H213117   4.316   3.072  16.429 -0.4144 -0.6139 -0.6535
  891MPD2    H313118   4.557   3.121  16.462 -0.0529  0.4839  1.0271
  891MPD2     N13119   4.553   2.940  16.881  0.4032  0.2294  0.0256
  891MPD2    H513120   4.493   2.890  16.946  1.9208 -2.1370 -0.3908
  891MPD2    N113121   4.160   2.947  16.599 -0.0950  0.0114 -0.4314
  891MPD2    H713122   4.126   2.951  16.503 -1.7261 -0.1626  0.1424
  892MPD2     C13123   0.569   3.541  14.692 -0.4987  0.8185 -0.0472
  892MPD2    C113124   0.491   3.611  14.604  0.0045  0.3847 -0.0345
  892MPD2    C213125   0.504   3.590  14.465 -0.3324 -0.5575  0.2112
  892MPD2    C313126   0.597   3.500  14.420  0.4104  0.4414  0.4657
  892MPD2    C413127   0.677   3.437  14.508  0.1545  0.1636  0.2066
  892MPD2    C513128   0.662   3.453  14.642 -0.6933  0.2692 -0.3491
  892MPD2     H13129   0.443   3.643  14.393 -0.2953 -1.0695 -0.2014
  892MPD2    H113130   0.758   3.379  14.465  0.7759  0.4305  1.0247
  892MPD2    H213131   0.567   3.546  14.800 -1.0648  2.4097 -0.1346
  892MPD2    H313132   0.730   3.399  14.708  0.0552 -0.8620 -2.0544
  892MPD2     N13133   0.615   3.471  14.286  0.2469 -0.4188 -0.0241
  892MPD2    H513134   0.680   3.394  14.269 -0.6758 -0.8280 -1.6917
  892MPD2    N113135   0.389   3.697  14.656  0.0695 -0.1002 -0.4692
  892MPD2    H713136   0.347   3.765  14.593 -1.4551 -0.5238  0.0971
  893MPD2     C13137   1.762   3.065   1.480 -0.3090 -1.7922  0.1728
  893MPD2    C113138   1.869   3.032   1.397  0.0446 -0.2050 -0.4321
  893MPD2    C213139   1.985   3.107   1.413 -0.1438  0.3296 -0.7666
  893MPD2    C313140   2.003   3.202   1.509  0.1013  0.1740  0.0073
  893MPD2    C413141   1.900   3.220   1.600 -0.1745  0.3977 -0.0499
  893MPD2    C513142   1.779   3.150   1.585  0.6007  0.0411  0.4759
  893MPD2     H13143   2.054   3.099   1.329  0.5100 -2.6689  0.0578
  893MPD2    H113144   1.911   3.281   1.689  3.3042 -0.3940  0.0635
  893MPD2    H213145   1.663   3.021   1.471 -0.8616 -0.7782  1.2342
  893MPD2    H313146   1.694   3.175   1.646  0.2802  1.5487 -0.5980
  893MPD2     N13147   2.111   3.291   1.516  0.0051  0.3833 -0.5139
  893MPD2    H513148   2.108   3.379   1.566 -0.2984 -0.5315  1.0478
  893MPD2    N113149   1.866   2.923   1.302  0.8811  0.3284 -0.4903
  893MPD2    H713150   1.948   2.903   1.247 -0.1332 -1.0626 -1.5028
  894MPD2     C13151   0.744   4.660   1.108 -0.4760  0.3008  0.0566
  894MPD2    C113152   0.668   0.027   1.144 -0.1124 -0.1888 -0.1781
  894MPD2    C213153   0.730   0.150   1.166  0.6193  0.2669  0.4896
  894MPD2    C313154   0.858   0.170   1.147  0.3791  0.1511 -0.4918
  894MPD2    C413155   0.938   0.061   1.116  0.7772  0.5420 -0.1365
  894MPD2    C513156   0.875   4.681   1.087 -0.0851 -0.7044  0.3919
  894MPD2     H13157   0.670   0.237   1.191  1.3777  1.2408 -1.0885
  894MPD2    H113158   1.044   0.065   1.093  0.6508  1.1591 -0.6264
  894MPD2    H213159   0.698   4.565   1.082 -0.7372  0.1144  1.2070
  894MPD2    H313160   0.931   4.592   1.059  1.4233  1.1164 -2.3487
  894MPD2     N13161   0.918   0.299   1.175  0.2564 -0.2300  0.1293
  894MPD2    H513162   0.860   0.373   1.212  2.1197  0.4862  1.6266
  894MPD2    N113163   0.529   0.023   1.169 -0.2571  0.0888  0.4971
  894MPD2    H713164   0.489   0.110   1.203 -0.1670 -0.4310  1.9477
  895MPD2     C13165   4.165   3.075  13.828  0.1676  0.3690 -0.7409
  895MPD2    C113166   4.122   2.993  13.730  0.1611 -0.4219 -0.5955
  895MPD2    C213167   4.208   2.903  13.671  0.2868  0.1806  0.0492
  895MPD2    C313168   4.337   2.893  13.714  0.1070  0.2295  0.2307
  895MPD2    C413169   4.381   2.969  13.815  0.9106  0.3065  0.4498
  895MPD2    C513170   4.298   3.069  13.869 -0.3999 -0.2556 -0.0850
  895MPD2     H13171   4.170   2.825  13.605 -0.7604  2.8160 -2.4220
  895MPD2    H113172   4.480   2.959  13.858  1.0661 -0.6960 -0.1545
  895MPD2    H213173   4.102   3.150  13.876 -1.9322 -1.7263 -0.2004
  895MPD2    H313174   4.343   3.138  13.939 -0.7316 -0.8472  0.7232
  895MPD2     N13175   4.408   2.783  13.668 -0.0951  0.2112  0.1773
  895MPD2    H513176   4.365   2.716  13.606 -1.0761 -1.1336  2.3133
  895MPD2    N113177   3.990   2.979  13.690  0.0604  0.0333 -0.5393
  895MPD2    H713178   3.965   2.906  13.625 -0.1318  0.8057 -1.3269
  896MPD2     C13179   2.119   0.839   1.272  0.2054  0.3472  0.1168
  896MPD2    C113180   2.104   0.750   1.169  0.0613 -0.7938 -0.2774
  896MPD2    C213181   1.985   0.733   1.101  0.5900  0.4042  0.6830
  896MPD2    C313182   1.872   0.809   1.145 -0.5267 -0.6285 -0.3766
  896MPD2    C413183   1.888   0.891   1.247  0.7114 -0.1517 -0.1322
  896MPD2    C513184   2.010   0.905   1.314 -0.1734 -0.1704  0.4484
  896MPD2     H13185   1.973   0.651   1.031 -1.2403  2.3097 -1.2045
  896MPD2    H113186   1.808   0.958   1.274  1.5769  1.6819 -2.0263
  896MPD2    H213187   2.215   0.846   1.321 -0.5741  1.4263  1.5120
  896MPD2    H313188   2.011   0.975   1.397  2.2776  0.7033 -0.3355
  896MPD2     N13189   1.749   0.790   1.086 -0.4997 -0.2359  0.3674
  896MPD2    H513190   1.742   0.720   1.014  0.7216 -0.5923  0.5990
  896MPD2    N113191   2.220   0.685   1.137 -0.5006 -0.3412 -0.3354
  896MPD2    H713192   2.295   0.703   1.203  0.9420  2.4386 -2.7355
  897MPD2     C13193   3.182   2.109  10.578  0.1793  0.1368 -0.4886
  897MPD2    C113194   3.117   2.197  10.494 -0.2605  0.8904 -1.1599
  897MPD2    C213195   3.006   2.260  10.531 -0.3130  0.6399 -0.3417
  897MPD2    C313196   2.936   2.216  10.641 -0.2757 -0.1407  0.1265
  897MPD2    C413197   3.000   2.121  10.725 -0.4245 -0.4047 -0.1632
  897MPD2    C513198   3.125   2.071  10.696  0.5534 -0.3155  0.1832
  897MPD2     H13199   2.952   2.326  10.464  0.1954  1.5199  0.1071
  897MPD2    H113200   2.948   2.073  10.807 -3.0144  1.2969 -0.8293
  897MPD2    H213201   3.280   2.070  10.552  0.2225  1.3356 -2.1323
  897MPD2    H313202   3.175   2.003  10.764  2.0891 -1.6017 -2.2157
  897MPD2     N13203   2.803   2.260  10.649  0.3645 -0.4027  0.4527
  897MPD2    H513204   2.768   2.336  10.591 -2.6065 -1.0284  1.4153
  897MPD2    N113205   3.176   2.245  10.374  0.5618  0.3976  0.0746
  897MPD2    H713206   3.128   2.327  10.339  0.8385  0.0421 -1.1535
  898MPD2     C13207   0.711   3.556  17.746  0.1350  0.1407 -0.0312
  898MPD2    C113208   0.624   3.560   0.091  0.1052  0.3698 -0.4702
  898MPD2    C213209   0.496   3.598   0.065  0.4750  0.4492  0.3540
  898MPD2    C313210   0.456   3.651  17.708  1.0142  0.6012  0.2010
  898MPD2    C413211   0.543   3.649  17.599  0.3192  0.6131  0.4700
  898MPD2    C513212   0.667   3.593  17.618 -0.1250 -0.8025 -0.1842
  898MPD2     H13213   0.433   3.608   0.153  0.4014  0.6605  0.2762
  898MPD2    H113214   0.521   3.675  17.496 -3.9134 -0.8052  1.0214
  898MPD2    H213215   0.810   3.512  17.750  0.9431  2.0852  1.3912
  898MPD2    H313216   0.732   3.598  17.531 -1.2577  0.4195 -0.9483
  898MPD2     N13217   0.323   3.694  17.688  0.2777  0.0028 -0.7822
  898MPD2    H513218   0.248   3.682  17.756 -0.3293 -0.6642 -1.5621
  898MPD2    N113219   0.663   3.520   0.214  0.6211 -0.4471 -0.0050
  898MPD2    H713220   0.591   3.523   0.286  0.3788  0.0602 -0.2659
  899MPD2     C13221   1.047   3.677  17.422 -0.2627 -0.4461  0.2270
  899MPD2    C113222   1.055   3.804  17.473  0.3086  0.0151 -0.1881
  899MPD2    C213223   1.041   3.828  17.609 -0.0412 -0.6087 -0.0587
  899MPD2    C313224   1.041   3.723  17.696 -0.6206 -0.3458 -0.4451
  899MPD2    C413225   1.038   3.589  17.644  0.2488 -0.2789  0.4848
  899MPD2    C513226   1.027   3.576  17.511 -1.0783  1.3191 -0.4508
  899MPD2     H13227   1.046   3.928  17.650 -0.7123  0.3291 -2.2596
  899MPD2    H113228   1.025   3.502  17.707  0.9130 -0.4458  0.3912
  899MPD2    H213229   1.060   3.665  17.315 -2.1994 -0.4964 -0.0124
  899MPD2    H313230   1.002   3.481  17.465 -2.7274  0.3909  2.3661
  899MPD2     N13231   1.044   3.744   0.079  0.2225  0.3675 -0.0277
  899MPD2    H513232   1.037   3.664   0.141  1.6129 -0.0924 -0.4773
  899MPD2    N113233   1.068   3.903  17.378 -0.3595  0.4829 -0.1941
  899MPD2    H713234   1.082   3.870  17.283  1.0160  1.7390 -0.4201
  900MPD2     C13235   0.465   0.429  12.634 -0.0673  0.2805 -0.2336
  900MPD2    C113236   0.389   0.323  12.600  0.4484  0.4498 -0.1668
  900MPD2    C213237   0.277   0.342  12.519 -0.6533 -0.7158  0.3726
  900MPD2    C313238   0.253   0.465  12.458  0.2954 -0.6257  0.4640
  900MPD2    C413239   0.339   0.574  12.496  0.0977 -1.1418 -0.0127
  900MPD2    C513240   0.445   0.554  12.579  0.7638  0.4243 -0.4127
  900MPD2     H13241   0.224   0.252  12.490  0.1086 -0.9991 -0.1259
  900MPD2    H113242   0.328   0.673  12.454  5.5967 -0.1597  0.8771
  900MPD2    H213243   0.552   0.412  12.695 -0.3001 -1.4027 -0.3735
  900MPD2    H313244   0.510   0.635  12.609  1.1097 -0.6339  1.7305
  900MPD2     N13245   0.135   0.478  12.381  0.0308  0.5806 -0.0382
  900MPD2    H513246   0.073   0.397  12.377 -0.8752  1.2429  0.8959
  900MPD2    N113247   0.423   0.195  12.652  0.3707 -0.8770 -0.0536
  900MPD2    H713248   0.511   0.182  12.700 -0.6906 -1.2646  1.7630
  901MPD2     C13249   0.391   3.851  12.812 -0.4122 -0.2043 -1.0644
  901MPD2    C113250   0.489   3.881  12.716  0.4764  0.3057  0.5912
  901MPD2    C213251   0.501   4.011  12.670  0.7025 -0.0871  0.5760
  901MPD2    C313252   0.412   4.107  12.728 -0.7923  0.0998 -0.2109
  901MPD2    C413253   0.309   4.075  12.815  0.4492  0.2734  0.3579
  901MPD2    C513254   0.304   3.947  12.854  0.9531  0.5893  0.1226
  901MPD2     H13255   0.571   4.046  12.595  0.4899  1.1252  0.9546
  901MPD2    H113256   0.239   4.149  12.852 -1.8100 -1.4990 -0.4209
  901MPD2    H213257   0.363   3.750  12.840 -2.5615  0.2502 -1.5230
  901MPD2    H313258   0.216   3.916  12.910  1.2343  0.6959  0.6174
  901MPD2     N13259   0.441   4.244  12.696  0.3880  0.0678 -0.0429
  901MPD2    H513260   0.529   4.267  12.652  1.1966 -1.1703  0.9314
  901MPD2    N113261   0.564   3.785  12.656  0.4345 -0.2044 -0.2067
  901MPD2    H713262   0.622   3.816  12.579  0.3046 -0.0345 -0.2350
  902MPD2     C13263   4.324   3.062  13.212  0.3148 -0.1214  0.3230
  902MPD2    C113264   4.296   3.060  13.072  0.2474 -0.4769  0.0472
  902MPD2    C213265   4.242   2.942  13.020  0.4125 -1.1139  0.0994
  902MPD2    C313266   4.206   2.835  13.097 -0.6984 -0.5361 -0.1393
  902MPD2    C413267   4.250   2.835  13.229 -0.4187 -0.6574  0.6261
  902MPD2    C513268   4.296   2.952  13.287  0.5016 -0.2074 -0.5404
  902MPD2     H13269   4.213   2.940  12.915  0.7587 -1.0231  0.0027
  902MPD2    H113270   4.257   2.743  13.286 -0.6486 -1.1829 -0.1868
  902MPD2    H213271   4.358   3.156  13.256  0.2458  1.2248 -2.4829
  902MPD2    H313272   4.327   2.945  13.390  3.7707 -3.1808 -1.7081
  902MPD2     N13273   4.148   2.730  13.036  0.0116  0.0293 -0.2016
  902MPD2    H513274   4.148   2.645  13.092  0.7499 -0.3360 -0.7418
  902MPD2    N113275   4.321   3.177  12.995  0.1957  0.1814 -0.2081
  902MPD2    H713276   4.337   3.266  13.041  1.2671 -0.2298  0.2161
  903MPD2     C13277   3.993   2.452  12.206  0.5443  0.3998  0.0455
  903MPD2    C113278   3.904   2.485  12.300 -0.1998  0.2300 -0.2060
  903MPD2    C213279   3.770   2.513  12.272 -0.5847 -0.0629 -0.2729
  903MPD2    C313280   3.743   2.512  12.139  0.5763  0.1607 -0.2228
  903MPD2    C413281   3.832   2.470  12.037  0.1836 -0.3722  0.5063
  903MPD2    C513282   3.965   2.453  12.071  0.4210 -0.1631 -0.0330
  903MPD2     H13283   3.704   2.536  12.355  0.3839 -0.5184  0.6205
  903MPD2    H113284   3.806   2.465  11.932 -2.3097  2.2094  0.9882
  903MPD2    H213285   4.096   2.422  12.224  0.3126 -0.2397  0.3130
  903MPD2    H313286   4.045   2.433  12.000  1.4438  2.1729  0.4660
  903MPD2     N13287   3.611   2.552  12.102  0.4352  0.6803  0.5871
  903MPD2    H513288   3.545   2.581  12.173 -0.0509 -0.1462  0.4768
  903MPD2    N113289   3.966   2.473  12.431 -0.2191 -0.0554 -0.0868
  903MPD2    H713290   4.065   2.448  12.429 -0.6839 -1.8962 -0.6186
  904MPD2     C13291   4.087   2.271  14.513  0.5676 -0.3911  0.5250
  904MPD2    C113292   4.124   2.404  14.477 -0.3768  0.9448 -0.1604
  904MPD2    C213293   4.255   2.447  14.504 -0.8342  0.2817  0.5991
  904MPD2    C313294   4.342   2.363  14.562 -0.4175 -0.5968 -0.0468
  904MPD2    C413295   4.299   2.248  14.611 -0.0626 -0.7644 -0.3097
  904MPD2    C513296   4.171   2.204  14.600  0.6831  0.2094 -0.0504
  904MPD2     H13297   4.301   2.540  14.472  1.6792 -1.8365 -1.8888
  904MPD2    H113298   4.361   2.184  14.673  3.4116  2.7727 -0.1559
  904MPD2    H213299   3.989   2.241  14.480  0.8863 -2.8002  1.7942
  904MPD2    H313300   4.137   2.111  14.646 -3.3063  1.8609  0.3212
  904MPD2     N13301   4.477   2.403  14.563  0.1368 -0.5594  0.2463
  904MPD2    H513302   4.503   2.492  14.521 -0.5188  0.3736  1.8194
  904MPD2    N113303   4.065   2.477  14.375  0.6752 -0.1430 -0.6173
  904MPD2    H713304   4.122   2.552  14.335 -0.0974  0.5407 -0.4244
  905MPD2     C13305   3.828   2.300  13.620 -0.0319  0.6395 -0.6956
  905MPD2    C113306   3.904   2.398  13.678 -0.1219 -0.6365  0.1271
  905MPD2    C213307   4.031   2.433  13.625 -0.0067 -0.0994  0.2966
  905MPD2    C313308   4.080   2.357  13.517 -0.6504  0.1801  0.0107
  905MPD2    C413309   4.007   2.253  13.463  0.0213 -0.2654 -0.4311
  905MPD2    C513310   3.881   2.229  13.512 -0.4615 -0.0847 -0.8512
  905MPD2     H13311   4.090   2.512  13.669 -1.8415  0.4337  1.7687
  905MPD2    H113312   4.041   2.202  13.373  1.5896 -1.8402  1.0599
  905MPD2    H213313   3.729   2.272  13.653  0.5228 -0.7318 -0.1794
  905MPD2    H313314   3.807   2.156  13.479 -0.9800  1.1051 -2.3059
  905MPD2     N13315   4.217   2.370  13.480  0.1743 -0.4916  0.2394
  905MPD2    H513316   4.262   2.292  13.435  2.4833  0.8258  0.2743
  905MPD2    N113317   3.854   2.466  13.793  0.6188 -0.4453  0.1345
  905MPD2    H713318   3.773   2.430  13.842  0.6013 -3.0193 -1.7696
  906MPD2     C13319   1.599   2.502  10.569 -0.0295  0.2756 -0.1508
  906MPD2    C113320   1.563   2.394  10.486 -0.2307 -0.3163 -0.4681
  906MPD2    C213321   1.508   2.287  10.553 -0.3629  0.1705 -0.0841
  906MPD2    C313322   1.487   2.292  10.693  0.3480  0.4610 -0.0829
  906MPD2    C413323   1.524   2.396  10.769 -0.1733  0.1434  0.2355
  906MPD2    C513324   1.586   2.500  10.708  0.3820 -0.1493 -0.3701
  906MPD2     H13325   1.496   2.192  10.501  0.4498  1.3190 -2.3878
  906MPD2    H113326   1.511   2.403  10.876 -0.1799  0.4211  0.2172
  906MPD2    H213327   1.655   2.586  10.529  1.0240 -1.3169 -1.9649
  906MPD2    H313328   1.615   2.583  10.771  0.9047 -1.6852  1.4345
  906MPD2     N13329   1.446   2.173  10.760  0.4110  0.2722 -0.1654
  906MPD2    H513330   1.450   2.170  10.862  1.4952 -1.5292 -0.2717
  906MPD2    N113331   1.577   2.384  10.344  0.2662  1.2968 -0.6309
  906MPD2    H713332   1.542   2.297  10.307  1.0505  1.0599 -0.8217
  907MPD2     C13333   0.037   1.797  15.937 -0.7160  0.4363 -0.4550
  907MPD2    C113334   0.085   1.673  15.904 -0.4078  0.1375 -0.1214
  907MPD2    C213335   0.175   1.618  15.992  0.3967 -0.1863 -0.1774
  907MPD2    C313336   0.212   1.681  16.107 -0.5390 -0.0047 -0.3779
  907MPD2    C413337   0.159   1.802  16.144  0.0609  0.9025 -0.2412
  907MPD2    C513338   0.065   1.854  16.059 -1.5224 -0.0995 -0.3533
  907MPD2     H13339   0.220   1.523  15.965  0.3579 -0.5250  0.9217
  907MPD2    H113340   0.191   1.860  16.229  1.3241 -0.6098  0.3200
  907MPD2    H213341   4.722   1.860  15.868 -1.1368 -0.4676 -0.9423
  907MPD2    H313342   0.024   1.950  16.087 -2.6265  0.4348 -3.7927
  907MPD2     N13343   0.313   1.615  16.181 -0.7409  0.0531  0.3448
  907MPD2    H513344   0.346   1.526  16.148  0.6482  1.1045 -1.0999
  907MPD2    N113345   0.067   1.608  15.782  0.0210  0.3398  0.0968
  907MPD2    H713346   0.135   1.535  15.763  2.1351  1.3379  3.9003
  908MPD2     C13347   3.267   1.995   9.449  0.6027  0.5719  0.1427
  908MPD2    C113348   3.226   1.927   9.561 -0.2965 -0.1334  0.3890
  908MPD2    C213349   3.246   1.993   9.684 -0.8115 -0.0112  0.2776
  908MPD2    C313350   3.301   2.119   9.692 -0.0374 -0.0571 -0.7359
  908MPD2    C413351   3.343   2.177   9.579  0.1954  0.1907 -0.4182
  908MPD2    C513352   3.321   2.119   9.456  0.3104  0.0853 -0.7623
  908MPD2     H13353   3.208   1.951   9.776  0.2679 -1.5374  0.0170
  908MPD2    H113354   3.396   2.270   9.565  2.6792 -1.3977 -1.5769
  908MPD2    H213355   3.246   1.955   9.350 -0.3638  1.2453  0.0803
  908MPD2    H313356   3.348   2.163   9.361  1.0492  0.6117 -0.3123
  908MPD2     N13357   3.322   2.175   9.822  0.0237  0.1911  0.9007
  908MPD2    H513358   3.294   2.123   9.905 -0.8735 -1.7448 -0.6329
  908MPD2    N113359   3.160   1.802   9.543 -0.7108 -0.4559  0.1520
  908MPD2    H713360   3.158   1.773   9.446  2.8359 -2.3257  0.6199
  909MPD2     C13361   3.404   0.167  11.433 -0.5241 -0.0123 -0.5751
  909MPD2    C113362   3.387   0.300  11.406  0.6592 -0.1947  0.3648
  909MPD2    C213363   3.352   0.388  11.507  0.5459  0.4192 -0.3962
  909MPD2    C313364   3.311   0.336  11.634  0.0307 -1.0586 -0.1422
  909MPD2    C413365   3.323   0.201  11.661 -0.4337 -0.5071 -0.1515
  909MPD2    C513366   3.373   0.121  11.563  0.3105 -0.2433  0.2387
  909MPD2     H13367   3.337   0.492  11.480 -0.6124  0.2252 -0.4904
  909MPD2    H113368   3.298   0.155  11.756  3.5636 -2.2282  0.0599
  909MPD2    H213369   3.445   0.103  11.355  0.0700 -0.4754  0.1162
  909MPD2    H313370   3.389   0.020  11.599  2.8262 -0.1047 -0.4916
  909MPD2     N13371   3.240   0.429  11.717  0.0061 -0.5016 -0.2820
  909MPD2    H513372   3.233   0.524  11.682  1.2564 -1.4972 -3.2899
  909MPD2    N113373   3.428   0.362  11.282 -0.7870 -0.1948  1.0379
  909MPD2    H713374   3.447   0.461  11.281  0.5217 -0.4840 -2.3298
  910MPD2     C13375   4.367   2.442  16.171  0.3514 -0.2750 -0.1835
  910MPD2    C113376   4.495   2.406  16.143 -1.5993  0.2347  0.1309
  910MPD2    C213377   4.535   2.379  16.013  0.3538  1.0012  0.6544
  910MPD2    C313378   4.437   2.382  15.912 -0.0282  1.2021 -0.4316
  910MPD2    C413379   4.310   2.418  15.942  0.2624 -0.3477  1.1975
  910MPD2    C513380   4.280   2.452  16.069 -0.0754  0.5789 -0.2661
  910MPD2     H13381   4.637   2.348  15.994 -0.4688 -1.4797  0.3239
  910MPD2    H113382   4.226   2.417  15.874  0.7500 -3.4714  0.6528
  910MPD2    H213383   4.327   2.482  16.264  1.5055 -0.4872  0.3992
  910MPD2    H313384   4.175   2.474  16.082  0.2240  1.7799  0.0959
  910MPD2     N13385   4.462   2.359  15.773  0.2358 -0.0174 -0.3535
  910MPD2    H513386   4.379   2.371  15.716 -0.0394 -0.3869 -0.0337
  910MPD2    N113387   4.584   2.397  16.252  0.5606 -0.1488  0.0897
  910MPD2    H713388   4.680   2.382  16.222  0.0524 -1.5837 -0.7980
  911MPD2     C13389   2.363   2.714  16.434 -0.5577 -0.1299 -0.1037
  911MPD2    C113390   2.447   2.811  16.472  0.5793 -0.3092  0.4535
  911MPD2    C213391   2.418   2.946  16.447  0.1565  0.1256 -0.8687
  911MPD2    C313392   2.302   2.979  16.381 -0.1338  1.3640  0.2131
  911MPD2    C413393   2.217   2.881  16.345 -1.0391  0.4484  0.0465
  911MPD2    C513394   2.248   2.752  16.367 -0.2593  0.0814  0.4362
  911MPD2     H13395   2.478   3.027  16.487  0.7520 -2.4829  3.5543
  911MPD2    H113396   2.124   2.909  16.296 -0.8218 -1.3531 -1.3946
  911MPD2    H213397   2.376   2.607  16.447  0.1274  0.3206  2.9119
  911MPD2    H313398   2.175   2.672  16.359  1.1361 -0.8645 -2.8694
  911MPD2     N13399   2.261   3.110  16.346  0.0744  0.1919  0.4278
  911MPD2    H513400   2.177   3.117  16.290  0.4195 -0.1861 -0.1324
  911MPD2    N113401   2.570   2.769  16.534  0.3548  0.4057  0.0519
  911MPD2    H713402   2.585   2.669  16.534 -0.5900  0.2653 -0.5946
  912MPD2     C13403   1.868   3.122  15.759 -0.9602  0.4708  1.1064
  912MPD2    C113404   1.907   3.111  15.891  0.5706  0.0965  0.2587
  912MPD2    C213405   1.862   3.001  15.965 -0.2444 -0.2746 -0.1227
  912MPD2    C313406   1.800   2.893  15.904 -0.0226  0.3425 -0.5971
  912MPD2    C413407   1.758   2.905  15.776 -0.3052  0.0654  0.0244
  912MPD2    C513408   1.789   3.026  15.709  0.2039  0.1426  0.0528
  912MPD2     H13409   1.869   2.995  16.073 -1.4019 -0.1064 -0.0367
  912MPD2    H113410   1.697   2.835  15.720 -1.2056 -1.1267  2.4619
  912MPD2    H213411   1.900   3.205  15.696  2.1081 -3.0155 -1.8865
  912MPD2    H313412   1.748   3.045  15.610  1.1711  0.9023 -0.1949
  912MPD2     N13413   1.765   2.789  15.994  0.2623  0.2653 -0.3479
  912MPD2    H513414   1.808   2.793  16.086 -0.2583  0.2422 -0.1067
  912MPD2    N113415   1.967   3.218  15.962 -0.6075 -0.6420  0.3711
  912MPD2    H713416   1.983   3.305  15.912 -0.5960  1.2122  3.6549
  913MPD2     C13417   3.284   3.590  10.102 -0.0332 -0.4129  0.6359
  913MPD2    C113418   3.359   3.682  10.169  0.2198 -0.6312  0.2077
  913MPD2    C213419   3.414   3.781  10.096  0.1786  0.0118  0.8425
  913MPD2    C313420   3.405   3.783   9.959  0.4905 -0.0973  0.6479
  913MPD2    C413421   3.342   3.687   9.893  0.3491  0.4186  0.3664
  913MPD2    C513422   3.276   3.589   9.966  0.1975  0.1374 -0.0235
  913MPD2     H13423   3.476   3.848  10.155  1.5766  0.9530 -1.7020
  913MPD2    H113424   3.332   3.687   9.785  2.7768 -4.4629  0.1504
  913MPD2    H213425   3.220   3.519  10.153 -1.2650  1.0870  1.1597
  913MPD2    H313426   3.206   3.521   9.917  1.6762 -2.9881  2.2451
  913MPD2     N13427   3.474   3.883   9.886 -0.4995 -0.2363 -0.0236
  913MPD2    H513428   3.460   3.887   9.786  0.8049 -0.6001 -0.2133
  913MPD2    N113429   3.365   3.667  10.309  0.0844  0.7572  0.7210
  913MPD2    H713430   3.321   3.581  10.339  0.9277 -0.0363 -0.3437
  914MPD2     C13431   0.479   4.161  12.073  0.0818 -0.1920 -0.6710
  914MPD2    C113432   0.527   4.169  12.203 -0.6029 -0.2026 -0.2104
  914MPD2    C213433   0.575   4.054  12.261  0.4772 -0.0866  0.1694
  914MPD2    C313434   0.554   3.925  12.200 -0.0455 -0.3341  0.5305
  914MPD2    C413435   0.497   3.919  12.079  0.3267 -0.0204 -0.3785
  914MPD2    C513436   0.474   4.036  12.011 -0.2403  0.6462  0.0869
  914MPD2     H13437   0.608   4.054  12.364  0.3538  2.0967  0.2176
  914MPD2    H113438   0.479   3.833  12.017 -0.7176 -1.2195  1.5813
  914MPD2    H213439   0.446   4.251  12.022 -0.9016  0.3556  0.9334
  914MPD2    H313440   0.438   4.026  11.909  2.2591  1.8611 -0.9167
  914MPD2     N13441   0.584   3.803  12.269  0.0469  0.5491 -0.3474
  914MPD2    H513442   0.630   3.819  12.358  1.0519  0.2849 -0.8280
  914MPD2    N113443   0.534   4.297  12.265 -0.2614  0.3974  0.1494
  914MPD2    H713444   0.505   4.365  12.195 -0.2930 -0.7850 -0.9928
  915MPD2     C13445   3.515   4.048  15.482 -0.6541 -0.1150  0.7644
  915MPD2    C113446   3.395   4.036  15.554  0.4249  0.3965 -0.0109
  915MPD2    C213447   3.385   4.110  15.665 -0.0410 -0.7389  0.5100
  915MPD2    C313448   3.494   4.180  15.720  0.2394 -0.8948 -0.3248
  915MPD2    C413449   3.609   4.186  15.647 -0.8735  0.9994  0.4303
  915MPD2    C513450   3.624   4.124  15.527 -0.1486  0.1745 -0.2644
  915MPD2     H13451   3.298   4.115  15.729  0.4330  1.8804  0.9630
  915MPD2    H113452   3.690   4.252  15.676  0.0366  0.2306 -0.3471
  915MPD2    H213453   3.523   4.007  15.382  1.6232 -1.3336  1.4654
  915MPD2    H313454   3.716   4.131  15.469  0.4136 -0.3934  0.5541
  915MPD2     N13455   3.484   4.246  15.847 -0.4959  0.5205  0.3311
  915MPD2    H513456   3.405   4.225  15.907 -1.0765  3.6152  0.6315
  915MPD2    N113457   3.295   3.960  15.497 -0.6312 -0.0197 -0.6264
  915MPD2    H713458   3.311   3.913  15.408 -2.7626  1.2911 -1.7322
  916MPD2     C13459   1.188   2.055  16.233 -0.1729 -0.1815 -0.5485
  916MPD2    C113460   1.218   2.174  16.168  0.0437  0.3355 -0.1672
  916MPD2    C213461   1.252   2.174  16.030 -0.0999 -0.1283  0.3767
  916MPD2    C313462   1.246   2.054  15.963  0.8214 -0.4136  0.4057
  916MPD2    C413463   1.207   1.941  16.028 -0.6857  0.0526  0.3368
  916MPD2    C513464   1.183   1.938  16.158  0.4249 -0.3503  0.5425
  916MPD2     H13465   1.267   2.263  15.972 -1.9506  0.4929  0.8576
  916MPD2    H113466   1.191   1.847  15.976  2.4533  0.0731 -0.6521
  916MPD2    H213467   1.156   2.046  16.336 -0.4462 -0.0816 -0.6258
  916MPD2    H313468   1.155   1.846  16.207  1.1384  0.1048  1.7915
  916MPD2     N13469   1.286   2.054  15.828 -0.5870 -0.3196  0.0145
  916MPD2    H513470   1.307   2.139  15.776  0.2511 -0.3775  0.2585
  916MPD2    N113471   1.217   2.292  16.246  0.4466 -0.3638 -0.1248
  916MPD2    H713472   1.190   2.269  16.341  2.3911 -0.6373  0.3626
  917MPD2     C13473   1.923   4.669  11.168 -1.0409  0.3920 -0.3441
  917MPD2    C113474   1.946   4.681  11.305  0.0204 -0.3703 -0.5433
  917MPD2    C213475   2.071   4.735  11.343  0.1208  0.5382 -0.4727
  917MPD2    C313476   2.153   0.042  11.249  0.2733  0.0824 -0.1704
  917MPD2    C413477   2.125   0.026  11.111 -0.1028  0.7764  0.1090
  917MPD2    C513478   2.006   4.706  11.074 -0.2843 -0.1213 -0.3907
  917MPD2     H13479   2.101   4.736  11.447  1.1861  0.2062 -0.7752
  917MPD2    H113480   2.196   0.065  11.039 -1.9149 -0.6379 -2.4604
  917MPD2    H213481   1.825   4.636  11.136 -0.4166 -0.2543 -1.6030
  917MPD2    H313482   1.980   4.687  10.971  2.5148 -1.3052 -0.8977
  917MPD2     N13483   2.276   0.096  11.280 -0.1506  0.0528 -0.3113
  917MPD2    H513484   2.332   0.152  11.217  0.7901  1.5193  1.8068
  917MPD2    N113485   1.850   4.637  11.396 -0.0721 -0.4959 -0.3289
  917MPD2    H713486   1.757   4.624  11.356 -0.4692  0.3515  0.3171
  918MPD2     C13487   1.726   0.318  12.332 -0.4663  0.3996 -0.5878
  918MPD2    C113488   1.828   0.314  12.238  0.2623 -0.4467 -0.2208
  918MPD2    C213489   1.813   0.270  12.108  0.7633 -0.7453 -0.3114
  918MPD2    C313490   1.693   0.221  12.057 -0.0175 -0.5441  0.7902
  918MPD2    C413491   1.593   0.225  12.152  0.3706  0.6008  0.3095
  918MPD2    C513492   1.606   0.282  12.281  0.0631 -0.1921  0.5218
  918MPD2     H13493   1.896   0.262  12.038  0.6587  0.1047 -0.5266
  918MPD2    H113494   1.492   0.191  12.130  1.1418 -0.0979 -2.1160
  918MPD2    H213495   1.722   0.350  12.436 -0.4844  1.5779 -0.9498
  918MPD2    H313496   1.510   0.292  12.331 -0.3522  0.4536 -0.3982
  918MPD2     N13497   1.689   0.155  11.930 -0.1102 -0.0936  0.3545
  918MPD2    H513498   1.780   0.134  11.892 -1.2411  2.6930 -3.9150
  918MPD2    N113499   1.963   0.343  12.268 -0.3469 -0.2384 -0.0383
  918MPD2    H713500   2.035   0.331  12.196  1.8054 -0.8553  2.2218
  919MPD2     C13501   2.569   3.727  11.340  0.2162  0.2962 -0.0183
  919MPD2    C113502   2.566   3.591  11.333  0.1453 -0.4963 -0.3347
  919MPD2    C213503   2.646   3.536  11.232 -0.7178 -0.1252  0.2433
  919MPD2    C313504   2.740   3.611  11.158  0.6368 -0.0322 -0.3040
  919MPD2    C413505   2.741   3.747  11.177 -0.5217 -0.4926  0.6882
  919MPD2    C513506   2.665   3.795  11.274  0.0475 -0.4603 -0.6701
  919MPD2     H13507   2.644   3.429  11.217  1.4353 -0.1739  0.2441
  919MPD2    H113508   2.817   3.807  11.128 -1.3209  0.1268  0.2264
  919MPD2    H213509   2.501   3.780  11.406  0.9280  0.0260  0.9416
  919MPD2    H313510   2.671   3.903  11.282 -0.5402 -0.4953  0.3152
  919MPD2     N13511   2.812   3.561  11.048 -0.7237 -0.0028 -0.6076
  919MPD2    H513512   2.861   3.624  10.985  1.1522 -0.2601  0.6116
  919MPD2    N113513   2.478   3.514  11.405 -0.3759 -0.1180 -0.4413
  919MPD2    H713514   2.441   3.426  11.369  1.1413 -0.1712 -1.8578
  920MPD2     C13515   2.869   3.785  10.121  0.1581 -0.2645  0.0678
  920MPD2    C113516   2.752   3.727  10.155  0.2292 -0.3786 -0.1307
  920MPD2    C213517   2.749   3.642  10.259 -0.2491 -1.1766  0.4710
  920MPD2    C313518   2.866   3.618  10.332  0.4008 -0.1461 -0.1319
  920MPD2    C413519   2.987   3.663  10.288 -0.0063  0.4780 -0.3120
  920MPD2    C513520   2.992   3.751  10.181  0.4342  0.1105 -0.1428
  920MPD2     H13521   2.651   3.606  10.289  0.3888 -0.8854  2.9710
  920MPD2    H113522   3.078   3.631  10.337  0.0310  0.5123 -0.3593
  920MPD2    H213523   2.873   3.861  10.044  0.4492  1.1498  1.4527
  920MPD2    H313524   3.086   3.788  10.143  0.7065 -0.4499 -0.0071
  920MPD2     N13525   2.849   3.538  10.447  0.1867 -0.2843 -0.0223
  920MPD2    H513526   2.760   3.492  10.460  0.6103 -1.3473 -0.8906
  920MPD2    N113527   2.633   3.752  10.091  0.1485  0.0738  0.2238
  920MPD2    H713528   2.549   3.704  10.121  1.1658  0.2806  3.3970
  921MPD2     C13529   3.506   2.946  16.970  0.7181 -0.2293 -0.4983
  921MPD2    C113530   3.506   2.842  16.879  0.1148  0.5457 -1.2160
  921MPD2    C213531   3.385   2.787  16.837 -0.8851 -0.3605  0.2754
  921MPD2    C313532   3.265   2.831  16.895 -0.3088  1.0045  0.2265
  921MPD2    C413533   3.262   2.935  16.986 -0.4085  0.1186  0.9322
  921MPD2    C513534   3.387   2.984  17.023 -0.1505  0.2038 -0.2512
  921MPD2     H13535   3.386   2.704  16.767 -1.6024  0.1948 -0.3816
  921MPD2    H113536   3.173   2.954  17.045 -1.2669  1.6087 -0.8489
  921MPD2    H213537   3.595   2.996  17.005 -0.0572 -0.0749  1.2869
  921MPD2    H313538   3.387   3.050  17.108 -0.4925 -2.1568  1.5734
  921MPD2     N13539   3.153   2.750  16.849 -0.6510 -0.3824 -0.3801
  921MPD2    H513540   3.176   2.682  16.778  0.5075 -0.4375  0.0336
  921MPD2    N113541   3.624   2.804  16.814 -0.2020 -0.0286 -0.3421
  921MPD2    H713542   3.700   2.870  16.823 -1.1452  1.0239 -0.0169
  922MPD2     C13543   4.249   1.076  17.718 -0.5647 -0.4029 -0.1734
  922MPD2    C113544   4.124   1.097   0.007  0.7031  0.2661  0.4395
  922MPD2    C213545   4.025   1.018  17.718  0.3786  0.1217 -0.2515
  922MPD2    C313546   4.046   0.909  17.632  0.2113 -0.0575 -0.2412
  922MPD2    C413547   4.174   0.890  17.583  0.6314  0.4645  0.3702
  922MPD2    C513548   4.272   0.972  17.630  0.5594 -0.6193  0.6839
  922MPD2     H13549   3.922   1.036  17.745  0.6984  0.9734  0.3598
  922MPD2    H113550   4.203   0.806  17.521  1.0314  0.1980  0.9211
  922MPD2    H213551   4.334   1.135  17.751 -0.5366 -0.1364 -0.7231
  922MPD2    H313552   4.374   0.957  17.598  0.2034 -2.1170  0.2734
  922MPD2     N13553   3.934   0.840  17.586  0.2796  0.0952 -0.1731
  922MPD2    H513554   3.846   0.872  17.625 -0.0823 -1.0145 -0.0940
  922MPD2    N113555   4.088   1.192   0.110 -0.6009 -0.2574  0.6628
  922MPD2    H713556   4.000   1.172   0.156 -2.5957 -0.5740 -3.3289
  923MPD2     C13557   0.593   2.183   9.495 -0.4634  0.1877 -0.0261
  923MPD2    C113558   0.561   2.291   9.578  0.2416 -0.7697 -0.1649
  923MPD2    C213559   0.675   2.363   9.620  0.2747 -1.1155 -0.5223
  923MPD2    C313560   0.808   2.335   9.584  0.1323  0.1756  0.0329
  923MPD2    C413561   0.827   2.219   9.515  0.6355  0.0152 -0.1634
  923MPD2    C513562   0.721   2.141   9.474 -0.2899  0.5505 -0.4120
  923MPD2     H13563   0.659   2.451   9.681 -0.2875 -1.1275 -0.6493
  923MPD2    H113564   0.928   2.193   9.486  0.0216  0.7511 -2.8910
  923MPD2    H213565   0.517   2.111   9.466 -0.2441 -0.7824  1.7607
  923MPD2    H313566   0.749   2.044   9.433 -0.1002  0.9892 -1.3159
  923MPD2     N13567   0.923   2.413   9.620 -0.2005  0.2997  0.0955
  923MPD2    H513568   1.010   2.368   9.596  0.8525  1.8006  1.0791
  923MPD2    N113569   0.431   2.324   9.598  0.1659  0.7068 -0.1209
  923MPD2    H713570   0.360   2.270   9.550  2.3851 -0.8765 -1.6185
  924MPD2     C13571   0.365   0.969  16.910  1.1816 -0.9336 -1.0316
  924MPD2    C113572   0.329   1.100  16.894  0.0678 -0.2445  0.0594
  924MPD2    C213573   0.354   1.165  16.772 -0.4530 -0.5997 -0.6983
  924MPD2    C313574   0.424   1.098  16.671 -0.0084  0.3809  0.1951
  924MPD2    C413575   0.469   0.969  16.688  0.3413 -0.0599  0.1523
  924MPD2    C513576   0.439   0.915  16.813 -0.5118 -0.0067  0.0406
  924MPD2     H13577   0.327   1.270  16.774  0.1991 -0.4682  1.3639
  924MPD2    H113578   0.523   0.913  16.612  0.1078 -0.6136  0.3981
  924MPD2    H213579   0.361   0.908  17.000 -1.5045 -1.2179 -1.3328
  924MPD2    H313580   0.466   0.810  16.823 -1.4157 -0.3336 -0.9162
  924MPD2     N13581   0.466   1.162  16.551  0.2086  0.2890  0.1045
  924MPD2    H513582   0.540   1.120  16.496 -0.5470  1.9714 -2.1922
  924MPD2    N113583   0.284   1.178  17.003 -0.1872 -0.1721  0.1908
  924MPD2    H713584   0.284   1.277  16.984  1.9269 -0.1657  0.2187
  925MPD2     C13585   4.335   3.563  14.746 -0.5281  0.1167 -0.1033
  925MPD2    C113586   4.204   3.594  14.728  0.0940 -0.2954  0.0872
  925MPD2    C213587   4.119   3.601  14.833  0.4315  1.0090 -0.0486
  925MPD2    C313588   4.171   3.590  14.960  0.1756  0.1539  0.1403
  925MPD2    C413589   4.303   3.557  14.981  0.3459  0.6365  0.4305
  925MPD2    C513590   4.382   3.545  14.872 -0.0902  0.8418  0.0728
  925MPD2     H13591   4.014   3.622  14.819 -0.0818  0.0093  2.3709
  925MPD2    H113592   4.340   3.535  15.081  0.4716 -0.6612  0.0902
  925MPD2    H213593   4.406   3.550  14.665  0.8279  0.5524  1.0069
  925MPD2    H313594   4.489   3.532  14.877 -0.2249 -1.8313 -3.8277
  925MPD2     N13595   4.093   3.592  15.074 -0.6585 -0.0309  0.5938
  925MPD2    H513596   4.152   3.607  15.156  0.5994 -1.3150 -0.0734
  925MPD2    N113597   4.156   3.593  14.593  0.4175  0.0889  0.2167
  925MPD2    H713598   4.055   3.590  14.586  0.6274 -1.5566 -2.0449
  926MPD2     C13599   2.733   1.854  13.912  0.4973 -0.0950  0.3966
  926MPD2    C113600   2.638   1.901  13.827  0.8390 -0.5832  0.0312
  926MPD2    C213601   2.672   1.902  13.691 -0.0513  0.8899  0.0946
  926MPD2    C313602   2.807   1.899  13.653 -0.7181  0.1347 -0.3400
  926MPD2    C413603   2.899   1.894  13.757  0.3059 -0.3632  0.0427
  926MPD2    C513604   2.861   1.856  13.884  0.3532  0.9819 -0.7505
  926MPD2     H13605   2.591   1.923  13.622 -1.6791 -0.1086  1.7089
  926MPD2    H113606   3.007   1.900  13.750  0.3823  0.1734  1.5869
  926MPD2    H213607   2.722   1.840  14.019 -0.2147 -1.3961  0.1475
  926MPD2    H313608   2.940   1.832  13.953  1.3547  0.3663 -2.1160
  926MPD2     N13609   2.852   1.940  13.524  0.2345  0.5480  0.3573
  926MPD2    H513610   2.949   1.971  13.520 -0.0320  1.6942  2.6323
  926MPD2    N113611   2.504   1.944  13.861  0.2623  0.2129 -0.5180
  926MPD2    H713612   2.435   1.941  13.787  0.1940 -1.3226 -0.3889
  927MPD2     C13613   3.585   4.040  17.441 -0.2477 -0.6795 -0.2506
  927MPD2    C113614   3.467   3.973  17.422  0.4399 -0.1883  0.1190
  927MPD2    C213615   3.445   3.927  17.293 -0.3007 -0.0235  0.4587
  927MPD2    C313616   3.539   3.939  17.194 -0.9668  0.6871 -0.3772
  927MPD2    C413617   3.658   4.004  17.218  0.1375 -0.0540 -0.8034
  927MPD2    C513618   3.683   4.055  17.342 -0.3041  0.1493 -0.1905
  927MPD2     H13619   3.354   3.873  17.274  0.7797 -1.0508 -1.7614
  927MPD2    H113620   3.722   4.032  17.135  3.3699 -1.1969  1.3251
  927MPD2    H213621   3.607   4.090  17.535 -0.7006 -1.7052  0.3948
  927MPD2    H313622   3.781   4.096  17.361  0.1809 -1.0169 -0.1920
  927MPD2     N13623   3.516   3.874  17.073 -0.3907  0.8168 -0.0512
  927MPD2    H513624   3.421   3.839  17.058 -0.6530  0.9078  1.3952
  927MPD2    N113625   3.380   3.974  17.530 -0.3710  0.3230  0.4612
  927MPD2    H713626   3.415   4.004  17.621  1.1893 -1.5637  0.4761
  928MPD2     C13627   0.616   3.307   0.798  1.1011  0.4783  0.1242
  928MPD2    C113628   0.712   3.352   0.878  0.7941  0.1579  0.3687
  928MPD2    C213629   0.848   3.325   0.862 -0.0374  0.6988  0.4459
  928MPD2    C313630   0.881   3.254   0.749 -0.4348 -0.1344  0.8553
  928MPD2    C413631   0.779   3.200   0.682  0.3071  0.0822  0.0641
  928MPD2    C513632   0.648   3.237   0.690  0.0863  0.2461 -0.2933
  928MPD2     H13633   0.924   3.346   0.936  1.5463  1.0500 -1.2719
  928MPD2    H113634   0.806   3.139   0.596 -1.5799 -0.7917  0.0967
  928MPD2    H213635   0.512   3.308   0.828  1.6641  0.0958  2.0665
  928MPD2    H313636   0.570   3.191   0.630  1.8704 -1.3397 -1.4019
  928MPD2     N13637   1.020   3.220   0.726 -0.0093 -0.1625  0.2378
  928MPD2    H513638   1.031   3.143   0.661  1.2552  0.3460 -0.1407
  928MPD2    N113639   0.669   3.422   0.989  0.0278 -0.3216  0.2229
  928MPD2    H713640   0.571   3.447   0.995 -0.3712 -1.3248 -2.3743
  929MPD2     C13641   1.032   2.728  10.114  0.6453  0.0754  0.1794
  929MPD2    C113642   0.922   2.661  10.075  0.3394  0.5930  0.1762
  929MPD2    C213643   0.808   2.725  10.027 -0.2511 -0.0673  0.2152
  929MPD2    C313644   0.795   2.861  10.041 -0.6338  0.6879 -0.4180
  929MPD2    C413645   0.900   2.931  10.098 -0.0250 -0.6333  0.0334
  929MPD2    C513646   1.014   2.863  10.123  0.8683  0.1848  0.3259
  929MPD2     H13647   0.727   2.661   9.996  1.6279 -1.9797 -0.7747
  929MPD2    H113648   0.892   3.038  10.113  0.5720 -0.3992 -1.2415
  929MPD2    H213649   1.131   2.695  10.145  1.9292  1.5567 -2.3786
  929MPD2    H313650   1.101   2.920  10.155  2.5745 -2.6831  0.8121
  929MPD2     N13651   0.684   2.943  10.000  0.4393  0.2994  0.1785
  929MPD2    H513652   0.698   3.043   9.990 -0.5129  0.5068  0.9219
  929MPD2    N113653   0.933   2.524  10.086  0.5638 -0.0294 -0.2313
  929MPD2    H713654   1.022   2.480  10.108 -0.0050 -0.3738  1.3329
  930MPD2     C13655   2.455   0.203  14.217 -0.1667  0.2350 -0.2185
  930MPD2    C113656   2.578   0.174  14.162  0.0243  0.0187  0.2968
  930MPD2    C213657   2.578   0.085  14.048 -0.4475 -0.2942  0.3045
  930MPD2    C313658   2.456   0.045  13.998 -0.1918 -0.4132  0.1648
  930MPD2    C413659   2.336   0.084  14.053  0.1331 -0.1941 -0.0493
  930MPD2    C513660   2.335   0.157  14.169 -0.4175  0.5408 -0.6210
  930MPD2     H13661   2.673   0.062  14.001 -0.1488 -1.5685  1.5122
  930MPD2    H113662   2.241   0.042  14.022 -0.3372 -1.1624  2.6882
  930MPD2    H213663   2.455   0.262  14.308  1.7225 -1.4070  0.8325
  930MPD2    H313664   2.241   0.175  14.218  0.2601  1.7407  0.2131
  930MPD2     N13665   2.442   4.713  13.877  0.4852 -0.5585 -0.3400
  930MPD2    H513666   2.348   4.692  13.846 -0.7034  1.0711  2.1164
  930MPD2    N113667   2.695   0.225  14.223 -0.5403 -0.7633 -0.5022
  930MPD2    H713668   2.679   0.313  14.271  0.6213 -0.8042 -0.0581
  931MPD2     C13669   3.586   3.949   0.311  0.1110 -0.6255  0.1494
  931MPD2    C113670   3.454   3.970   0.338  0.0826 -0.0741  0.0035
  931MPD2    C213671   3.419   3.967   0.475  0.2311  0.0622  0.1090
  931MPD2    C313672   3.510   3.944   0.582 -0.1194  0.4635 -0.4578
  931MPD2    C413673   3.641   3.926   0.540  0.2601 -0.2751  0.7156
  931MPD2    C513674   3.676   3.930   0.407 -0.2863  0.9068  0.8400
  931MPD2     H13675   3.312   3.978   0.492  0.2809 -1.2764  1.2846
  931MPD2    H113676   3.721   3.903   0.609 -0.2404 -1.2426  0.9722
  931MPD2    H213677   3.626   3.962   0.211  0.4291 -1.4594  0.1674
  931MPD2    H313678   3.779   3.922   0.374  0.0259 -1.3223  2.3885
  931MPD2     N13679   3.473   3.957   0.719  0.1169  0.8724 -0.5025
  931MPD2    H513680   3.550   3.938   0.782 -0.5915  0.2342  0.1582
  931MPD2    N113681   3.366   3.986   0.225  0.5019  0.0242  0.2806
  931MPD2    H713682   3.409   3.994   0.134 -0.6705 -0.6407 -0.3236
  932MPD2     C13683   0.111   2.788  11.580  0.1301  0.3821 -0.1913
  932MPD2    C113684   0.085   2.855  11.706  0.6222 -1.0597  0.0411
  932MPD2    C213685   0.096   2.778  11.820  0.2120  0.5508 -0.2332
  932MPD2    C313686   0.140   2.647  11.816 -0.5937  0.0786  0.8529
  932MPD2    C413687   0.181   2.591  11.689 -0.0409  0.5250  0.3265
  932MPD2    C513688   0.164   2.662  11.572  0.2063 -0.0140  0.2943
  932MPD2     H13689   0.076   2.833  11.911 -0.8421 -1.1575  0.5459
  932MPD2    H113690   0.210   2.487  11.682 -1.4917  0.0059  1.9114
  932MPD2    H213691   0.100   2.834  11.482 -0.6836  1.0742  0.2246
  932MPD2    H313692   0.178   2.611  11.477 -1.7049 -0.2526  0.1386
  932MPD2     N13693   0.157   2.577  11.939  0.1685  0.0148 -0.4764
  932MPD2    H513694   0.116   2.610  12.026  1.2667 -0.5873  0.2742
  932MPD2    N113695   0.048   2.991  11.710  0.6074  0.8183  0.1597
  932MPD2    H713696   0.021   3.022  11.803  1.4291  0.7147  0.4333
  933MPD2     C13697   0.206   3.661   1.662 -0.0315 -0.7615 -0.4500
  933MPD2    C113698   0.212   3.602   1.540  0.3114  0.0819  1.2344
  933MPD2    C213699   0.093   3.557   1.485  0.8318 -0.1106  0.1348
  933MPD2    C313700   4.710   3.585   1.545  0.1688  0.2132  0.4629
  933MPD2    C413701   4.710   3.655   1.665  0.4294  0.1837 -0.0953
  933MPD2    C513702   0.086   3.693   1.715  0.2786  0.8646 -0.3657
  933MPD2     H13703   0.092   3.507   1.388 -0.9934 -0.1392  0.1726
  933MPD2    H113704   4.620   3.679   1.721 -0.4832 -2.0213 -0.6016
  933MPD2    H213705   0.299   3.684   1.711 -0.4567 -0.1051  0.0477
  933MPD2    H313706   0.079   3.750   1.807 -1.5020 -1.1072  0.6993
  933MPD2     N13707   4.588   3.546   1.473 -0.5739  0.1790  1.0241
  933MPD2    H513708   4.594   3.518   1.376 -0.1713  3.1889  0.1956
  933MPD2    N113709   0.333   3.615   1.469  0.1289 -0.2146 -0.1468
  933MPD2    H713710   0.402   3.672   1.518  0.2225 -0.0311 -0.4900
  934MPD2     C13711   2.572   0.413   1.753  0.2317  0.3621  0.8100
  934MPD2    C113712   2.640   0.384   1.631  1.1905  1.0382  0.4054
  934MPD2    C213713   2.560   0.331   1.527 -0.1738 -0.2985  0.3045
  934MPD2    C313714   2.422   0.318   1.537  0.6369 -0.3261  0.0085
  934MPD2    C413715   2.362   0.355   1.656 -0.2379  0.3542 -0.2297
  934MPD2    C513716   2.439   0.395   1.762 -0.2186  0.0885 -0.4304
  934MPD2     H13717   2.615   0.299   1.439  1.1459 -0.7464  1.2928
  934MPD2    H113718   2.255   0.335   1.658 -0.0444 -0.7952 -1.5113
  934MPD2    H213719   2.624   0.440   1.844 -1.2725 -0.6808  1.9941
  934MPD2    H313720   2.393   0.420   1.856  0.0810  1.1815 -0.5716
  934MPD2     N13721   2.335   0.303   1.427  0.4054  0.6101 -0.2186
  934MPD2    H513722   2.235   0.310   1.446  0.5623 -0.4007  0.9961
  934MPD2    N113723   2.780   0.394   1.610 -0.0265 -0.2015  0.1662
  934MPD2    H713724   2.821   0.367   1.521 -1.8988 -2.0989 -0.1267
  935MPD2     C13725   2.409   4.386   0.698  0.1895  0.1217 -0.4093
  935MPD2    C113726   2.269   4.405   0.719 -0.1800 -0.1873  0.5770
  935MPD2    C213727   2.236   4.513   0.794  0.3670 -0.8229  0.0955
  935MPD2    C313728   2.328   4.590   0.853  0.4970 -0.5733  0.0068
  935MPD2    C413729   2.460   4.557   0.847 -0.3168  0.1527  0.1208
  935MPD2    C513730   2.501   4.454   0.766 -0.4546  0.4916  0.0805
  935MPD2     H13731   2.131   4.532   0.811  0.5178  0.8438 -0.8743
  935MPD2    H113732   2.533   4.602   0.913 -0.9381  1.8061 -0.3047
  935MPD2    H213733   2.455   4.305   0.643 -1.8712 -0.1126 -1.7737
  935MPD2    H313734   2.605   4.426   0.751 -0.2336  1.3916 -0.0946
  935MPD2     N13735   2.297   4.699   0.936 -0.3153  1.0514 -0.3307
  935MPD2    H513736   2.373   0.015   0.971 -0.1806  0.4524  0.3660
  935MPD2    N113737   2.164   4.319   0.670  0.5799 -0.3885 -0.0909
  935MPD2    H713738   2.067   4.345   0.688 -0.0359 -1.8536 -1.2619
  936MPD2     C13739   4.471   1.354  12.533 -0.3795  0.3359 -0.2962
  936MPD2    C113740   4.605   1.390  12.546  0.0340 -0.0892 -0.2435
  936MPD2    C213741   4.682   1.407  12.434 -0.0475  0.6099 -0.0990
  936MPD2    C313742   4.624   1.437  12.317  0.0317 -0.1284 -0.5267
  936MPD2    C413743   4.488   1.422  12.309 -0.1355  0.1333  0.6833
  936MPD2    C513744   4.415   1.363  12.413 -0.5715 -0.0295  0.3173
  936MPD2     H13745   0.048   1.422  12.441  0.0127 -0.8822  1.9532
  936MPD2    H113746   4.441   1.458  12.218  2.2426 -1.5088 -1.1837
  936MPD2    H213747   4.400   1.336  12.613 -2.7925  2.9257 -1.8596
  936MPD2    H313748   4.309   1.348  12.394  0.2313 -2.0839 -2.6263
  936MPD2     N13749   4.698   1.478  12.205 -0.1502  0.5951  0.1007
  936MPD2    H513750   4.645   1.511  12.125 -1.4679 -2.9807 -0.5379
  936MPD2    N113751   4.667   1.399  12.674  0.9859 -0.1092  0.1905
  936MPD2    H713752   0.024   1.423  12.675  0.7286  0.9306  0.0844
  937MPD2     C13753   2.234   2.887  11.358 -0.6006  0.0314 -0.5820
  937MPD2    C113754   2.339   2.958  11.420  0.6744 -0.3322  0.4648
  937MPD2    C213755   2.451   2.964  11.347 -0.4552  0.1471 -0.8495
  937MPD2    C313756   2.475   2.888  11.237 -0.6128 -0.2513 -0.4193
  937MPD2    C413757   2.377   2.799  11.194 -0.0111 -0.5256  1.2120
  937MPD2    C513758   2.256   2.800  11.254  0.0687  0.7323 -0.3878
  937MPD2     H13759   2.526   3.034  11.382  0.7919 -1.8069  0.4395
  937MPD2    H113760   2.394   2.728  11.114 -0.7989  0.4193  0.2108
  937MPD2    H213761   2.131   2.888  11.392 -0.4376 -1.3821 -0.0415
  937MPD2    H313762   2.178   2.731  11.223  1.1715 -1.1600  1.0715
  937MPD2     N13763   2.603   2.895  11.177  0.0080  0.4364  0.4226
  937MPD2    H513764   2.668   2.963  11.216 -1.1069  2.1441 -0.6602
  937MPD2    N113765   2.324   3.065  11.508 -0.3966 -0.3857 -0.1808
  937MPD2    H713766   2.403   3.128  11.520 -0.4156 -0.2532 -0.7551
  938MPD2     C13767   0.551   4.303   0.499  0.9654  0.6129  0.1732
  938MPD2    C113768   0.628   4.384   0.574  0.4085  0.4608 -0.3820
  938MPD2    C213769   0.660   4.344   0.704 -0.1840  0.2247 -0.1758
  938MPD2    C313770   0.623   4.219   0.758 -0.2322  0.4231  0.3091
  938MPD2    C413771   0.545   4.137   0.677 -0.0812 -0.0630  0.3512
  938MPD2    C513772   0.522   4.179   0.554  0.1921 -0.4484 -0.4280
  938MPD2     H13773   0.724   4.408   0.764 -0.1992 -2.2783  2.5212
  938MPD2    H113774   0.510   4.040   0.710 -2.6829  0.2645 -1.4878
  938MPD2    H213775   0.537   4.326   0.394 -0.1668  0.2257  0.2372
  938MPD2    H313776   0.474   4.104   0.492 -2.4935  1.7619 -0.9948
  938MPD2     N13777   0.645   4.183   0.893 -0.0204  0.0826  0.2667
  938MPD2    H513778   0.612   4.093   0.926 -1.1185  1.1271  2.0791
  938MPD2    N113779   0.676   4.510   0.535  0.3953  0.0276  0.1410
  938MPD2    H713780   0.718   4.566   0.608  2.0839 -1.0088 -0.0270
  939MPD2     C13781   2.155   0.325   0.716  0.1933 -0.2280 -0.7273
  939MPD2    C113782   2.076   0.411   0.636 -0.0770  0.1104  0.1330
  939MPD2    C213783   2.034   0.369   0.510 -0.3910 -0.2777 -0.1157
  939MPD2    C313784   2.065   0.247   0.461 -0.5608 -1.2872 -0.1106
  939MPD2    C413785   2.145   0.165   0.539 -0.3533  1.1654  0.2547
  939MPD2    C513786   2.191   0.204   0.666 -0.3857 -0.9447  0.2452
  939MPD2     H13787   1.967   0.430   0.451  1.4680  2.9788  1.1731
  939MPD2    H113788   2.173   0.069   0.497 -0.8159  0.4692  1.5358
  939MPD2    H213789   2.197   0.351   0.812  0.8244  2.1109 -1.6350
  939MPD2    H313790   2.256   0.140   0.724  0.3826  0.1058  0.5370
  939MPD2     N13791   2.019   0.217   0.329 -0.0937 -0.2061 -0.8935
  939MPD2    H513792   1.960   0.287   0.286 -2.5697 -1.1245  1.0112
  939MPD2    N113793   2.045   0.541   0.685  0.8744  0.3656 -0.4224
  939MPD2    H713794   2.071   0.571   0.778 -0.9281 -3.1705  1.2217
  940MPD2     C13795   0.538   1.605  13.541  0.0773  0.5953  0.0538
  940MPD2    C113796   0.427   1.650  13.470 -0.0681  0.6925  0.4159
  940MPD2    C213797   0.421   1.665  13.333 -0.2124  0.0384  0.3712
  940MPD2    C313798   0.539   1.629  13.263  0.2364 -0.9035  0.2604
  940MPD2    C413799   0.656   1.594  13.333 -0.1321 -0.7072 -0.3501
  940MPD2    C513800   0.646   1.575  13.465  0.6288  0.2003 -0.0146
  940MPD2     H13801   0.334   1.704  13.281  1.0348  1.3233 -0.7509
  940MPD2    H113802   0.748   1.574  13.279  0.0972  1.5076 -0.7701
  940MPD2    H213803   0.542   1.601  13.650  0.7292 -1.1315 -0.0226
  940MPD2    H313804   0.740   1.550  13.514  0.4788  0.0914  0.2186
  940MPD2     N13805   0.552   1.622  13.121  0.4214 -0.3099 -0.2989
  940MPD2    H513806   0.637   1.586  13.078  0.2932  0.6107 -1.3454
  940MPD2    N113807   0.320   1.705  13.539 -0.1043  0.0474  0.4176
  940MPD2    H713808   0.255   1.752  13.478  1.9049  1.7213 -0.4441
  941MPD2     C13809   0.366   0.096   9.433 -1.3943 -0.0740 -0.0654
  941MPD2    C113810   0.339   0.169   9.552 -0.3409 -0.1063 -0.2321
  941MPD2    C213811   0.236   0.120   9.634 -0.3267  0.2555 -0.6574
  941MPD2    C313812   0.147   0.020   9.595  0.5832 -0.3708 -0.8347
  941MPD2    C413813   0.164   4.703   9.466 -0.3471  0.0102 -0.0267
  941MPD2    C513814   0.276   0.003   9.393 -0.4563 -0.1616 -0.0483
  941MPD2     H13815   0.223   0.180   9.724 -2.1881 -0.2137 -0.6109
  941MPD2    H113816   0.112   4.611   9.440 -0.1540 -0.2424  0.4756
  941MPD2    H213817   0.452   0.114   9.370 -2.1223  2.1353 -0.4520
  941MPD2    H313818   0.303   4.694   9.301 -4.2197 -0.5236 -0.9849
  941MPD2     N13819   0.031   4.723   9.669 -0.1280 -0.3447 -0.4778
  941MPD2    H513820   4.702   4.663   9.627 -1.4772 -0.2441  1.6183
  941MPD2    N113821   0.419   0.276   9.601 -0.3461  0.1916 -0.0912
  941MPD2    H713822   0.395   0.322   9.688 -0.3679  1.8421 -0.9761
  942MPD2     C13823   0.118   1.143   9.203  0.0753  0.3224  0.2749
  942MPD2    C113824   0.179   1.245   9.281 -0.2985 -0.4638 -0.4964
  942MPD2    C213825   0.216   1.362   9.214 -1.1633  0.1060  0.0210
  942MPD2    C313826   0.196   1.381   9.077  0.0465 -0.2693  0.0155
  942MPD2    C413827   0.152   1.274   9.005 -0.0859  0.1066  0.1593
  942MPD2    C513828   0.119   1.155   9.064  0.0121 -0.1348  0.0252
  942MPD2     H13829   0.247   1.443   9.278 -0.1040  0.5354 -1.0405
  942MPD2    H113830   0.141   1.285   8.898  0.7627 -1.2158 -0.0654
  942MPD2    H213831   0.084   1.050   9.247 -2.5166  1.4602  0.6627
  942MPD2    H313832   0.072   1.085   8.995 -0.9233  1.3731 -0.8677
  942MPD2     N13833   0.225   1.499   9.002 -0.0717  0.1864 -0.2907
  942MPD2    H513834   0.218   1.491   8.901 -2.9782  0.5825 -0.1159
  942MPD2    N113835   0.174   1.245   9.424  0.7628 -0.1801 -0.5652
  942MPD2    H713836   0.240   1.305   9.472  1.1183 -0.4138 -0.7603
  943MPD2     C13837   4.083   4.486   8.733  0.4195  0.6259  0.2614
  943MPD2    C113838   4.048   4.395   8.835 -0.3372 -0.4507 -0.5092
  943MPD2    C213839   4.016   4.450   8.955  1.0509  0.4454 -0.1225
  943MPD2    C313840   4.055   4.578   8.988  0.6230  0.3194  0.0512
  943MPD2    C413841   4.112   4.653   8.894  0.2313 -1.0556  0.1902
  943MPD2    C513842   4.120   4.611   8.763 -0.2808 -0.0115 -0.4808
  943MPD2     H13843   3.979   4.380   9.029  0.7062 -0.0242 -0.7279
  943MPD2    H113844   4.148   0.014   8.907  0.2396 -1.1603  1.0195
  943MPD2    H213845   4.103   4.448   8.633  0.2182  3.0794 -0.6959
  943MPD2    H313846   4.161   4.673   8.684  1.8380  2.2082  2.3698
  943MPD2     N13847   4.053   4.629   9.125  0.0039 -1.0977  0.3937
  943MPD2    H513848   4.088   4.721   9.146  1.3474 -1.0444 -2.1528
  943MPD2    N113849   4.044   4.251   8.830  0.5326  0.3985 -0.2475
  943MPD2    H713850   4.022   4.209   8.919  5.0665  1.5921  1.4057
  944MPD2     C13851   3.126   4.365  11.191 -0.0306 -0.0007  1.2458
  944MPD2    C113852   3.227   4.458  11.175  0.6620  0.4432  0.7113
  944MPD2    C213853   3.220   4.573  11.254 -0.2856 -0.1448 -0.6798
  944MPD2    C313854   3.111   4.598  11.343  0.0619  0.7023  0.2662
  944MPD2    C413855   3.009   4.506  11.338 -0.0401 -0.3365  0.4512
  944MPD2    C513856   3.017   4.390  11.264 -0.3621  0.0610 -0.8673
  944MPD2     H13857   3.308   4.637  11.258 -0.2649 -0.1864 -0.4453
  944MPD2    H113858   2.920   4.526  11.397  1.0045 -0.1626  1.9785
  944MPD2    H213859   3.111   4.270  11.141 -2.9766  0.2259  1.7040
  944MPD2    H313860   2.939   4.316  11.271 -1.6863  1.6505  1.1625
  944MPD2     N13861   3.103   4.718  11.420 -0.0879 -0.3354  0.4168
  944MPD2    H513862   3.180   0.043  11.412  3.1425 -4.3750 -1.7737
  944MPD2    N113863   3.339   4.432  11.102 -0.0875  0.5081  0.5355
  944MPD2    H713864   3.415   4.500  11.101  0.1301  0.2764  0.9919
    1TMC1    C113865   0.276   0.868  14.749 -0.2723  0.1297 -0.5203
    1TMC1    C213866   0.251   0.743  14.797  0.3049  0.2221  0.6991
    1TMC1    C313867   0.163   0.668  14.722 -0.5083  0.3941 -0.1082
    1TMC1    C413868   0.232   0.923  14.633  0.0296  0.1430 -0.1815
    1TMC1    C513869   0.148   0.846  14.569 -0.4742  0.9976  0.5275
    1TMC1    C613870   0.105   0.723  14.609  0.0820 -0.5294  0.1415
    1TMC1     C13871   0.364   0.950  14.840  0.1933 -0.5542 -0.1151
    1TMC1     O13872   0.385   0.912  14.954  0.1158  0.3514 -0.2312
    1TMC1     H13873   0.268   0.715  14.900 -1.5050  1.5002  1.3454
    1TMC1    H113874   0.247   1.028  14.609 -0.4915  0.5441  1.2208
    1TMC1    H213875   0.018   0.684  14.557  0.3020 -0.1257 -0.5226
    1TMC1    C713876   0.090   0.890  14.451  0.3450 -0.0462 -0.2715
    1TMC1    C813877   0.090   0.566  14.800 -1.1400 -0.4659  0.1636
    1TMC1    O113878   4.734   0.831  14.398 -0.5889  0.1304 -0.2349
    1TMC1    O213879   0.067   0.585  14.920 -0.6016 -0.0097  0.6857
    1TMC1    O313880   0.188   0.961  14.385 -0.3425  0.0517 -0.0002
    1TMC1    H313881   0.278   0.974  14.424  0.3622 -0.5742 -1.4308
    1TMC1    O513882   4.737   0.518  14.718 -0.3334 -0.5142 -0.4210
    1TMC1    H513883   0.038   0.506  14.630  0.7879  1.0739 -0.0945
    2MPD2     C13884   0.578   1.408  14.940  0.5332 -0.1330  0.1510
    2MPD2    C113885   0.552   1.404  14.810  0.0082 -0.7421  0.1877
    2MPD2    C213886   0.502   1.291  14.751 -0.9344 -0.6627 -0.5314
    2MPD2    C313887   0.471   1.183  14.836  0.1453  0.4104  0.2154
    2MPD2    C413888   0.488   1.200  14.974  0.1336 -0.0676  0.5529
    2MPD2    C513889   0.542   1.314  15.031  0.2069 -0.5330 -0.0366
    2MPD2     H13890   0.473   1.282  14.647 -0.9226 -0.7469 -0.5278
    2MPD2    H113891   0.452   1.126  15.044 -0.2861 -0.7512 -0.3783
    2MPD2    H213892   0.611   1.503  14.980 -0.5339  0.4105 -0.2763
    2MPD2    H313893   0.557   1.323  15.138 -0.3751  1.5742 -0.1420
    2MPD2     N13894   0.415   1.066  14.776 -0.0248 -0.2679  0.5560
    2MPD2    H513895   0.407   1.056  14.676  1.1097  0.4629  0.3962
    2MPD2    N113896   0.578   1.513  14.735  0.5758  0.0592 -0.3240
    2MPD2    H713897   0.640   1.583  14.773  0.1512  0.7874 -0.9675
    3TMC2    C113898   0.583   1.667  14.555 -0.5437 -0.3379  0.6115
    3TMC2    C213899   0.509   1.744  14.481  0.1470 -0.0914  0.2269
    3TMC2    C313900   0.574   1.822  14.386 -0.6232 -0.1869  0.1855
    3TMC2    C413901   0.717   1.659  14.534 -0.5389 -1.0396 -0.0768
    3TMC2    C513902   0.779   1.722  14.426 -0.0764  0.4092 -0.4716
    3TMC2    C613903   0.710   1.813  14.349 -0.3268 -0.3414  0.3368
    3TMC2     C13904   0.523   1.547  14.610 -0.8287 -0.3415 -0.1308
    3TMC2     O13905   0.418   1.503  14.562 -0.4534  0.0995  0.0045
    3TMC2     H13906   0.401   1.757  14.486 -0.1537 -2.5537 -0.0318
    3TMC2    H113907   0.772   1.577  14.577 -1.5340 -1.4304  0.4503
    3TMC2    H213908   0.755   1.889  14.287  0.0121  0.3732  1.4491
    3TMC2    C713909   0.910   1.676  14.388 -0.3694  0.3643  0.6809
    3TMC2    C813910   0.501   1.917  14.299  0.3699  0.1561  0.5761
    3TMC2    O113911   0.972   1.637  14.489 -0.8876 -0.2234 -0.2345
    3TMC2    O213912   0.548   2.023  14.259  0.1012 -0.5090 -0.0775
    3TMC2    O513913   0.413   1.840  14.226 -0.0592  0.1673  0.2722
    3TMC2    H513914   0.406   1.747  14.256 -1.0226  0.0702 -0.2651
    4TMC2    C113915   1.094   1.653  13.395  0.7694  0.5278 -0.6538
    4TMC2    C213916   1.195   1.571  13.350  0.4522  0.1711 -0.0011
    4TMC2    C313917   1.269   1.516  13.452  0.1664  0.7426  0.2258
    4TMC2    C413918   1.077   1.696  13.529  0.4875 -0.7938 -0.3389
    4TMC2    C513919   1.164   1.642  13.620 -0.0627  0.7823  1.1592
    4TMC2    C613920   1.250   1.543  13.583  0.3373  0.3218 -0.7649
    4TMC2     C13921   1.026   1.716  13.288  0.0421  0.1197  0.6336
    4TMC2     O13922   1.077   1.703  13.179 -0.2432 -0.1076 -0.3040
    4TMC2     H13923   1.214   1.548  13.246 -0.0605 -1.3264  0.2362
    4TMC2    H113924   1.009   1.775  13.559 -0.2309 -1.5019 -0.0850
    4TMC2    H213925   1.322   1.504  13.654 -1.9247 -0.9408  0.8423
    4TMC2    C713926   1.104   1.647  13.752 -0.2124 -0.1732  0.0839
    4TMC2    C813927   1.373   1.425  13.415  0.0910  0.3989 -0.4869
    4TMC2    O113928   0.992   1.695  13.762 -0.2571 -0.2472 -0.2730
    4TMC2    O213929   1.477   1.420  13.479 -0.1200 -0.6067  0.6934
    4TMC2    O513930   1.310   1.321  13.365  0.5989 -0.1387 -0.5140
    4TMC2    H513931   1.216   1.336  13.339 -0.1265 -2.9902  0.4511
    5MPD2     C13932   0.627   1.942  13.034 -0.1569  0.6804 -0.3294
    5MPD2    C113933   0.602   1.950  13.168 -0.0477  0.0583 -0.5001
    5MPD2    C213934   0.700   1.909  13.259  0.3311 -0.4075  0.2448
    5MPD2    C313935   0.819   1.854  13.213 -0.0401  1.3621 -0.0087
    5MPD2    C413936   0.848   1.865  13.079  0.3024  0.2285 -0.2964
    5MPD2    C513937   0.751   1.902  12.994 -0.0705 -0.1843 -0.0886
    5MPD2     H13938   0.689   1.898  13.366  0.9733 -1.4353  0.2054
    5MPD2    H113939   0.939   1.825  13.036 -0.0743 -3.0395  1.8845
    5MPD2    H213940   0.548   1.969  12.965 -0.1625 -1.5957 -1.2324
    5MPD2    H313941   0.776   1.886  12.890  0.3477 -1.2116  0.1629
    5MPD2     N13942   0.904   1.785  13.308 -0.1243  0.1373  0.1664
    5MPD2    H513943   0.862   1.775  13.399  0.2081  1.7586  0.5124
    5MPD2    N113944   0.474   1.996  13.195 -0.0925 -0.1817  0.2208
    5MPD2    H713945   0.418   2.019  13.114  0.5730  2.0292  0.3869
    6MPD1     C13946   0.103   3.706  12.710  0.2033  0.3097  0.1561
    6MPD1    C113947   0.128   3.602  12.613  0.7516  0.0129  0.3765
    6MPD1    C213948   0.080   3.478  12.644  0.2725  0.1429  0.4092
    6MPD1    C313949   0.014   3.456  12.768  0.0373 -0.0862 -0.9449
    6MPD1    C413950   0.012   3.552  12.864 -0.2152 -0.0272 -0.2474
    6MPD1    C513951   0.044   3.678  12.825  0.0067 -0.4125 -0.3595
    6MPD1     H13952   0.110   3.397  12.579 -1.1241 -1.2686  1.5189
    6MPD1    H113953   4.730   3.531  12.968  1.0660  1.1348  0.2778
    6MPD1    H213954   0.132   3.803  12.673 -0.6945  0.4432 -0.2128
    6MPD1    H313955   0.022   3.753  12.900  0.3126 -0.2469 -0.4363
    6MPD1     N13956   4.702   3.336  12.806  0.0837  0.1215 -0.0202
    6MPD1    H513957   4.682   3.322  12.904 -0.2725 -2.4457 -0.4560
    6MPD1    N113958   0.202   3.622  12.496 -0.2757  0.0738  0.2865
    6MPD1    H613959   0.225   3.719  12.480 -0.5951  0.1591  0.3495
    6MPD1    H713960   0.154   3.586  12.414  0.7095  0.1941 -0.3360
    7MPD2     C13961   0.067   2.844  13.426 -0.5134  0.2496  0.5509
    7MPD2    C113962   0.027   2.775  13.307 -0.3532 -0.6381  0.4854
    7MPD2    C213963   0.028   2.640  13.314  0.2180  0.4696 -1.2629
    7MPD2    C313964   0.078   2.569  13.427  0.5335  0.3931 -0.1984
    7MPD2    C413965   0.100   2.635  13.543  0.1516  0.0518 -0.5496
    7MPD2    C513966   0.095   2.772  13.536  0.5900 -0.1143  0.2505
    7MPD2     H13967   0.003   2.575  13.231  0.3034  0.2943 -1.1519
    7MPD2    H113968   0.136   2.583  13.631  0.3267 -0.8888 -1.1707
    7MPD2    H213969   0.057   2.951  13.431  0.9722  0.3802  0.7225
    7MPD2    H313970   0.125   2.825  13.626  0.4808 -0.8909  0.7470
    7MPD2     N13971   0.087   2.430  13.408  0.7193 -0.1844  0.3842
    7MPD2    H513972   0.068   2.406  13.311  1.6092 -0.1506  0.1967
    7MPD2    N113973   0.001   2.835  13.185  0.2287 -0.0257  0.7003
    7MPD2    H713974   4.722   2.771  13.109  1.4040  0.0953  0.2844
    8TMC3    C113975   0.125   2.198  13.429  0.1055  0.0301  0.4280
    8TMC3    C213976   0.248   2.140  13.427  0.7561 -0.5254 -0.1820
    8TMC3    C313977   0.286   2.075  13.315  0.5578  0.0198 -0.1993
    8TMC3    C413978   0.036   2.187  13.323 -0.1498 -0.5993 -0.1218
    8TMC3    C513979   0.088   2.142  13.205  0.1956  0.1629  0.1369
    8TMC3    C613980   0.212   2.080  13.198  0.5197  0.2202  0.2704
    8TMC3     C13981   0.111   2.328  13.497 -0.1658  0.4814 -0.4506
    8TMC3     O13982   0.161   2.334  13.609  0.2770  0.3492  0.1323
    8TMC3     H13983   0.305   2.139  13.520 -2.9187 -0.7031  2.0825
    8TMC3    H113984   4.677   2.227  13.334 -0.2476 -1.1220  0.9238
    8TMC3    H213985   0.260   2.038  13.110 -0.9840 -2.1489  0.5790
    8TMC3    C713986   0.065   2.243  13.105 -0.7085  0.3097  0.7238
    8TMC3    C813987   0.423   2.008  13.324  0.0293  0.2606 -0.6467
    8TMC3    O113988   0.017   2.346  13.148 -0.0269  0.1029  1.0113
    8TMC3    O213989   0.475   1.984  13.430  0.4753 -0.1052  0.2743
    9TMC3    C113990   4.710   3.104  12.801 -0.6239  0.4160 -0.7258
    9TMC3    C213991   0.023   3.001  12.729 -0.6175  0.7016 -0.0567
    9TMC3    C313992   0.069   2.891  12.799  0.5866  0.6587  0.1798
    9TMC3    C413993   4.723   3.109  12.941  0.8085  0.0046 -0.1008
    9TMC3    C513994   0.028   2.993  13.007  0.6974 -0.7136  0.4090
    9TMC3    C613995   0.067   2.884  12.937 -0.1283 -0.6276 -0.3654
    9TMC3     C13996   4.700   3.228  12.727 -0.0953 -0.3624 -0.7081
    9TMC3     O13997   4.683   3.216  12.604  0.0070  0.5983 -0.6944
    9TMC3     H13998   0.015   2.991  12.622  2.3782  0.7921 -0.2808
    9TMC3    H113999   4.674   3.190  12.994  4.8151 -0.0116  3.5899
    9TMC3    H214000   0.109   2.791  12.974 -0.9464 -0.6472  0.4847
    9TMC3    C714001   0.020   2.975  13.148 -0.3252  0.1335 -0.1350
    9TMC3    C814002   0.088   2.765  12.726 -0.7659  0.2225  0.1553
    9TMC3    O114003   0.033   3.078  13.213 -0.2697 -0.6459 -0.3109
    9TMC3    O214004   0.134   2.782  12.614 -0.1927 -0.5615 -0.4822
   10MPD2     C14005   0.188   2.257  12.756  0.5756  0.4706 -0.7273
   10MPD2    C114006   0.118   2.296  12.864 -0.4705  0.0593 -0.4592
   10MPD2    C214007   0.078   2.429  12.873 -0.8436 -0.5588 -0.0535
   10MPD2    C314008   0.103   2.522  12.774  0.6202  0.1872 -0.3926
   10MPD2    C414009   0.165   2.477  12.660 -0.1074  0.7505  0.0376
   10MPD2    C514010   0.224   2.352  12.664 -0.7406  0.0731 -0.6236
   10MPD2     H14011   0.031   2.469  12.963  1.2583 -0.4037  0.9783
   10MPD2    H114012   0.178   2.547  12.579 -1.1505 -0.1729 -0.9132
   10MPD2    H214013   0.233   2.158  12.745  2.3787  1.1167  0.8875
   10MPD2    H314014   0.291   2.333  12.581  0.9456  0.7457  0.5927
   10MPD2     N14015   0.063   2.656  12.804  0.6329 -0.2265  0.0662
   10MPD2    H514016   0.008   2.669  12.888 -1.3871  0.3434 -1.3633
   10MPD2    N114017   0.110   2.207  12.976 -0.4358  0.3433  0.7591
   10MPD2    H714018   0.140   2.112  12.957  1.2812  1.2773 -1.2218
   11MPD2     C14019   1.169   1.590  14.265  0.4790 -0.1110  0.2465
   11MPD2    C114020   1.051   1.629  14.196 -0.4738 -0.1640 -0.9446
   11MPD2    C214021   1.054   1.615  14.055 -0.2691  0.1738 -0.1079
   11MPD2    C314022   1.172   1.581  13.988  0.2941  0.2842  0.1521
   11MPD2    C414023   1.277   1.542  14.059  0.3376  0.0063  0.1299
   11MPD2    C514024   1.278   1.541  14.195 -0.2263  0.1115 -0.4743
   11MPD2     H14025   0.966   1.644  13.999  0.5891  0.3636 -1.3804
   11MPD2    H114026   1.366   1.511  14.006  0.0889 -0.4036 -0.0473
   11MPD2    H214027   1.170   1.570  14.371  4.4768  2.1977  0.6556
   11MPD2    H314028   1.352   1.485  14.251  2.3418  3.0867 -0.9085
   11MPD2     N14029   1.195   1.595  13.848  0.3852 -0.2753 -0.0554
   11MPD2    H514030   1.291   1.596  13.816  0.1283 -1.6900 -0.8810
   11MPD2    N114031   0.929   1.671  14.252 -0.6705  0.1309  1.0906
   11MPD2    H714032   0.853   1.697  14.190 -0.5371  0.9212  1.2568
    1MPD1     C14033   3.613   3.150  16.729  0.2818  0.1059 -0.2043
    1MPD1    C114034   3.655   3.094  16.609  0.3425  0.3643  0.8151
    1MPD1    C214035   3.783   3.125  16.560 -0.4993  0.7911  0.0128
    1MPD1    C314036   3.874   3.212  16.625 -0.1902 -0.3210  0.0170
    1MPD1    C414037   3.827   3.274  16.739  1.0218 -0.3220 -0.6782
    1MPD1    C514038   3.699   3.245  16.786  0.2537 -0.3578  0.4536
    1MPD1     H14039   3.809   3.085  16.463 -1.5324  1.0025 -0.3471
    1MPD1    H114040   3.892   3.342  16.793 -0.0524  0.6781 -0.6481
    1MPD1    H214041   3.517   3.141  16.778  1.0359  2.6850  1.7036
    1MPD1    H314042   3.680   3.296  16.880  2.1080  0.2443  0.4977
    1MPD1     N14043   3.998   3.248  16.575 -0.1044  0.5460 -0.1841
    1MPD1    H514044   4.041   3.326  16.624 -1.0254  1.5941 -1.0153
    1MPD1    N114045   3.581   2.995  16.550 -0.5428  0.3979 -0.1265
    1MPD1    H614046   3.593   2.995  16.448  1.4052 -0.7047  0.0915
    1MPD1    H714047   3.483   2.985  16.575 -0.1678  1.0997  1.5701
    2MPD1     C14048   4.730   3.891  16.609  0.1998 -0.1992 -0.2185
    2MPD1    C114049   4.641   3.938  16.517 -0.0942  0.2393 -0.3790
    2MPD1    C214050   4.560   3.841  16.464  0.9433  0.8822 -0.2465
    2MPD1    C314051   4.574   3.704  16.494  0.5209 -0.7849 -0.0254
    2MPD1    C414052   4.660   3.660  16.592 -0.3999 -0.1532  0.4479
    2MPD1    C514053   4.735   3.759  16.649 -0.7422 -0.0312  0.6401
    2MPD1     H14054   4.490   3.879  16.390  0.8955  1.1499 -0.0635
    2MPD1    H114055   4.688   3.565  16.635 -2.1474 -1.4704 -1.3277
    2MPD1    H214056   0.059   3.958  16.657  1.1960 -0.4673 -1.3109
    2MPD1    H314057   0.068   3.735  16.724 -0.6672  0.8373  0.8420
    2MPD1     N14058   4.491   3.608  16.423 -0.0156 -0.1417 -0.4110
    2MPD1    H514059   4.430   3.645  16.350  0.3931  0.1581 -0.6004
    2MPD1    N114060   4.615   4.072  16.512 -0.2545 -0.5982  0.1293
    2MPD1    H614061   4.697   4.131  16.526  0.9629 -2.2929  0.0627
    2MPD1    H714062   4.568   4.103  16.427 -1.9904  0.9802  1.6467
    3TMC3    C114063   4.358   3.421  16.403  0.5640  0.3370  0.2098
    3TMC3    C214064   4.357   3.441  16.260 -0.0191 -0.6947 -0.8029
    3TMC3    C314065   4.248   3.390  16.197 -0.2968  0.1276 -0.5417
    3TMC3    C414066   4.260   3.347  16.462  0.1836  0.2016 -0.3606
    3TMC3    C514067   4.155   3.294  16.391  0.0101 -0.2043 -0.1192
    3TMC3    C614068   4.149   3.314  16.256 -0.1321 -0.2236 -0.4947
    3TMC3     C14069   4.469   3.480  16.473 -0.8468 -0.5101  0.0998
    3TMC3     O14070   4.497   3.432  16.583  0.3399 -0.2456  0.1804
    3TMC3     H14071   4.433   3.504  16.216  0.8912 -1.1171  0.1767
    3TMC3    H114072   4.267   3.314  16.566  0.6589  0.3731 -0.3409
    3TMC3    H214073   4.063   3.280  16.199  0.3038 -0.0813 -1.2407
    3TMC3    C714074   4.054   3.206  16.456 -0.5047 -0.5075 -0.7926
    3TMC3    C814075   4.248   3.410  16.055 -0.6816  0.0444 -0.8212
    3TMC3    O114076   4.026   3.108  16.385  0.5291 -0.3282  0.1028
    3TMC3    O214077   4.142   3.401  15.995 -0.0541 -0.2590 -0.5390
    4MPD1     C14078   4.452   3.562  15.621  0.7293 -1.0199  0.2083
    4MPD1    C114079   4.556   3.524  15.699 -0.6085  0.1897 -0.6338
    4MPD1    C214080   4.521   3.473  15.822 -0.1443  0.5947  0.6925
    4MPD1    C314081   4.398   3.448  15.865  0.4641 -0.3981  0.6106
    4MPD1    C414082   4.297   3.476  15.774 -1.1887 -0.6959  0.3579
    4MPD1    C514083   4.328   3.536  15.657 -0.0799 -0.1964 -0.2814
    4MPD1     H14084   4.600   3.456  15.894  0.2046 -2.1960 -0.3171
    4MPD1    H114085   4.193   3.451  15.790 -1.0256 -0.8822  1.1016
    4MPD1    H214086   4.475   3.613  15.528 -3.3190 -0.0080 -0.2317
    4MPD1    H314087   4.245   3.570  15.596  1.6586  1.7017 -1.6242
    4MPD1     N14088   4.375   3.411  15.994  0.2651 -0.2211  0.4733
    4MPD1    H514089   4.456   3.411  16.055 -0.9117  0.2306  2.0259
    4MPD1    N114090   4.691   3.559  15.667 -0.3705 -0.3083  0.4216
    4MPD1    H614091   0.015   3.491  15.705  0.8321  1.5245  1.6743
    4MPD1    H714092   4.710   3.574  15.568  0.9769  1.0525  0.8827
    1TCq1    O114093   0.543   2.680  11.404  0.1565 -0.9675  0.4094
    1TCq1    C114094   0.545   2.740  11.526 -0.2349  0.2362  0.1427
    1TCq1    O214095   0.556   2.858  11.549 -0.3760  0.1789 -0.5564
    1TCq1    C214096   0.588   2.629  11.613  1.1507 -0.3996 -0.2356
    1TCq1    C314097   0.687   2.543  11.566 -0.3334 -0.1397  0.4840
    1TCq1    C414098   0.745   2.462  11.654 -0.2538  0.1090 -0.3476
    1TCq1    C514099   0.736   2.475  11.787 -0.4542 -0.2994 -0.1383
    1TCq1    C614100   0.641   2.557  11.837 -0.1602  0.0445  0.4795
    1TCq1    C714101   0.568   2.637  11.748 -0.6076 -0.1738 -0.1038
    1TCq1    C814102   0.633   2.561  11.985 -0.4519 -0.4326 -0.4667
    1TCq1    O414103   0.693   2.479  12.054 -0.1733  0.8371  0.8876
    1TCq1    C914104   0.865   2.386  11.619 -0.3930  0.0351 -0.2026
    1TCq1    O514105   0.903   2.297  11.698  0.2414 -0.1094 -0.4889
    1TCq1    O614106   0.933   2.438  11.526  0.3080  0.3456 -0.4298
    1TCq1    H114107   0.523   2.585  11.417 -0.1172 -0.8713  0.6995
    1TCq1    H214108   0.726   2.541  11.465  0.0346  0.6631  0.6113
    1TCq1    H314109   0.790   2.409  11.853 -1.4233 -0.8841  0.0673
    1TCq1    H414110   0.499   2.715  11.780 -0.1342  0.1644  0.0794
    2MPD1     C14111   0.374   2.674  12.410  0.3554 -0.8323  0.6781
    2MPD1    C114112   0.331   2.764  12.312 -0.6889  0.2277  0.7555
    2MPD1    C214113   0.385   2.749  12.185  0.3899 -0.2860  1.0004
    2MPD1    C314114   0.489   2.662  12.162 -0.1784 -0.3202 -0.1308
    2MPD1    C414115   0.542   2.584  12.266 -0.3189 -0.3482 -0.1379
    2MPD1    C514116   0.480   2.590  12.386 -0.0997 -0.3840  0.2185
    2MPD1     H14117   0.344   2.799  12.098  0.5596 -0.7168  0.6659
    2MPD1    H114118   0.626   2.516  12.256 -0.3457  0.0009 -2.9408
    2MPD1    H214119   0.329   2.672  12.509 -1.1468  0.6997  0.0365
    2MPD1    H314120   0.516   2.534  12.472  1.8727 -1.5532 -1.3815
    2MPD1     N14121   0.535   2.651  12.029 -0.0525 -0.0603 -0.0564
    2MPD1    H514122   0.485   2.692  11.950 -3.7556 -1.3476  1.6091
    2MPD1    N114123   0.234   2.859  12.346  0.4733  0.2684 -0.7026
    2MPD1    H614124   0.213   2.839  12.444  1.1739  0.8050 -0.4421
    2MPD1    H714125   0.263   2.956  12.337 -0.0886  0.2721 -2.3508
    1TMC1    C114126   2.954   4.598  17.703 -0.1957 -0.0166  0.2416
    1TMC1    C214127   3.027   4.516   0.025 -0.5654 -0.4755  0.3759
    1TMC1    C314128   3.033   4.556   0.158  0.2772 -0.0464 -0.6306
    1TMC1    C414129   2.872   4.696  17.746  0.1623  0.1647  0.1684
    1TMC1    C514130   2.881   4.730   0.116 -0.1819  0.3864  1.2136
    1TMC1    C614131   2.962   4.664   0.205  0.1600  0.1548 -0.0293
    1TMC1     C14132   2.929   4.575  17.558 -0.4564  0.3947  0.8157
    1TMC1     O14133   2.850   4.650  17.503 -0.5263 -0.3710 -0.0907
    1TMC1     H14134   3.076   4.424  17.758 -0.4869 -0.1409 -0.5565
    1TMC1    H114135   2.831   0.027  17.676  1.2288  0.2039 -0.4220
    1TMC1    H214136   2.954   4.691   0.309  1.4946  0.5927 -0.0427
    1TMC1    C714137   2.790   0.090   0.175 -0.0898 -0.1788  0.2902
    1TMC1    C814138   3.068   4.453   0.251 -0.8249 -0.1740 -1.0430
    1TMC1    O114139   2.750   0.073   0.288 -1.0455  0.2772 -0.2148
    1TMC1    O214140   3.021   4.342   0.248  0.2136  0.0716 -0.0973
    1TMC1    O314141   2.756   0.192   0.092 -0.6363  0.0714 -0.0768
    1TMC1    H314142   2.816   0.202   0.015 -0.3085 -2.2511 -0.1308
    1TMC1    O514143   3.123   4.521   0.358 -0.8036  0.1691 -0.2350
    1TMC1    H514144   3.146   4.616   0.353  0.2830  0.0279  1.7097
    2MPD1     C14145   2.943   4.308  17.120 -0.9385 -0.3024  0.4264
    2MPD1    C114146   3.019   4.232  17.213  0.2007 -0.0796  0.2585
    2MPD1    C214147   3.051   4.292  17.338  0.5012 -0.4963 -0.2811
    2MPD1    C314148   2.972   4.402  17.378 -0.1079  0.2512 -1.0893
    2MPD1    C414149   2.875   4.458  17.289 -0.3213  0.0142 -0.0838
    2MPD1    C514150   2.866   4.416  17.163  0.1943 -0.0797 -0.6870
    2MPD1     H14151   3.124   4.247  17.404 -1.0719 -1.9082  0.4952
    2MPD1    H114152   2.812   4.538  17.325  2.4531  1.5280  1.3563
    2MPD1    H214153   2.939   4.289  17.013 -0.2206 -1.3468  0.5880
    2MPD1    H314154   2.799   4.469  17.095 -0.1201  0.8237  0.3347
    2MPD1     N14155   2.995   4.464  17.505  0.2117  0.3388  0.1418
    2MPD1    H514156   3.061   4.419  17.568 -1.7311  0.9877  2.6614
    2MPD1    N114157   3.097   4.128  17.168  0.5889  0.4600 -0.2574
    2MPD1    H614158   3.039   4.069  17.109 -1.0533  1.9977 -0.1702
    2MPD1    H714159   3.118   4.068  17.248  1.8591  0.7690 -0.3463
    1MPD1     C14160   1.186   3.976  11.078 -0.6496  0.1315 -0.2090
    1MPD1    C114161   1.221   3.928  11.195 -0.4147  0.5054 -1.2761
    1MPD1    C214162   1.355   3.890  11.209  0.0140  0.1230 -0.2707
    1MPD1    C314163   1.452   3.920  11.119 -0.2184  0.3950 -0.3525
    1MPD1    C414164   1.416   3.982  11.003 -0.2124  0.1666 -0.2425
    1MPD1    C514165   1.281   3.992  10.982 -0.8855 -0.9295  0.1252
    1MPD1     H14166   1.380   3.831  11.296 -0.4273  1.0818  0.5123
    1MPD1    H114167   1.479   4.019  10.922 -0.7654  0.6632 -0.4443
    1MPD1    H214168   1.083   4.002  11.059 -0.4111  2.4675  1.6828
    1MPD1    H314169   1.249   4.025  10.884 -0.3008  2.4203  1.0654
    1MPD1     N14170   1.591   3.893  11.159 -0.7612  0.0559 -0.0260
    1MPD1    H514171   1.607   3.850  11.250 -1.2035  0.3711  0.2033
    1MPD1    N114172   1.124   3.873  11.283  0.3983 -0.2720  0.0983
    1MPD1    H614173   1.044   3.934  11.296  0.2246 -0.4177 -0.2833
    1MPD1    H714174   1.159   3.862  11.378 -0.7567 -1.1215  0.4133
    2MPD1     C14175   1.901   3.535   9.750 -0.5838 -0.2728 -0.3385
    2MPD1    C114176   1.998   3.435   9.727  0.5704  0.6419 -0.0724
    2MPD1    C214177   1.965   3.307   9.769  0.0483 -0.3664  0.6190
    2MPD1    C314178   1.844   3.280   9.836  0.7913  0.2907  0.0221
    2MPD1    C414179   1.750   3.379   9.840 -0.7127 -0.1982  0.2255
    2MPD1    C514180   1.777   3.508   9.801 -0.8995  0.0768  0.1527
    2MPD1     H14181   2.039   3.230   9.752  1.0622  0.7389 -0.0554
    2MPD1    H114182   1.653   3.353   9.880 -0.3043  0.1187  1.4425
    2MPD1    H214183   1.924   3.638   9.724  1.9745 -1.0465 -1.1022
    2MPD1    H314184   1.698   3.580   9.818 -2.0374 -1.4027  1.2517
    2MPD1     N14185   1.810   3.150   9.881  0.9632  0.5256 -0.3009
    2MPD1    H514186   1.723   3.138   9.933  2.8726  0.9374  2.9357
    2MPD1    N114187   2.130   3.469   9.679 -0.5689 -0.3233  0.9295
    2MPD1    H614188   2.187   3.393   9.643  1.2697  0.8934  1.2459
    2MPD1    H714189   2.137   3.547   9.614 -0.0613  0.3664  1.8115
    3MPD1     C14190   1.239   2.368  10.191 -0.0610  0.4386 -0.4508
    3MPD1    C114191   1.285   2.405  10.071  0.6969 -1.1777  0.3934
    3MPD1    C214192   1.336   2.531  10.067 -0.5228  0.3304  0.3939
    3MPD1    C314193   1.377   2.594  10.180  0.1987 -0.4053  0.2516
    3MPD1    C414194   1.328   2.550  10.303  0.6569 -0.1396  0.1829
    3MPD1    C514195   1.248   2.441  10.305 -0.2411  0.0553 -0.0647
    3MPD1     H14196   1.354   2.582   9.973 -2.1847  2.3477  1.1702
    3MPD1    H114197   1.359   2.597  10.395 -1.2156 -0.6426  1.0776
    3MPD1    H214198   1.189   2.274  10.211  0.0808  0.4199 -0.1761
    3MPD1    H314199   1.198   2.410  10.396  0.4483 -1.1590 -0.0915
    3MPD1     N14200   1.470   2.706  10.173  0.2840 -0.4106 -0.0848
    3MPD1    H514201   1.493   2.743  10.264  3.2196 -2.7410  0.1360
    3MPD1    N114202   1.238   2.338   9.952 -0.0006  0.3154  0.1336
    3MPD1    H614203   1.239   2.236   9.953  0.9106  0.3467  1.6280
    3MPD1    H714204   1.298   2.365   9.874 -0.3629  1.0367  0.1077
    4MPD2     C14205   2.410   3.902  10.916 -0.4263  0.1828  0.1183
    4MPD2    C114206   2.357   3.822  11.018 -0.0607 -0.6076 -0.0141
    4MPD2    C214207   2.386   3.690  11.027  0.2177 -0.8412  0.4961
    4MPD2    C314208   2.451   3.628  10.925  0.2426  0.6437 -0.4190
    4MPD2    C414209   2.503   3.701  10.821  0.1945  0.3921  0.1844
    4MPD2    C514210   2.484   3.840  10.815 -0.4861  0.6107  0.2399
    4MPD2     H14211   2.341   3.629  11.104 -0.0504  1.4093  2.1094
    4MPD2    H114212   2.562   3.654  10.744  0.4702 -1.2205  1.3690
    4MPD2    H214213   2.415   4.010  10.922  1.2235  0.2862 -2.7024
    4MPD2    H314214   2.531   3.899  10.738 -0.7743 -0.6849 -0.9261
    4MPD2     N14215   2.463   3.489  10.932  0.1007  0.1074 -0.0283
    4MPD2    H514216   2.430   3.454  11.021 -0.0885 -0.3369 -0.2768
    4MPD2    N114217   2.253   3.867  11.108 -0.1639 -0.4831 -0.1888
    4MPD2    H714218   2.218   3.798  11.173 -0.1599 -1.2773 -1.0231
    5TMC3    C114219   2.055   3.971  11.177 -0.1528 -0.2677  1.2682
    5TMC3    C214220   1.937   3.982  11.114 -0.9232 -0.1353 -0.4536
    5TMC3    C314221   1.827   3.913  11.164  0.0903  0.5857  0.3310
    5TMC3    C414222   2.071   3.888  11.283  0.4618 -0.0467 -0.6240
    5TMC3    C514223   1.964   3.806  11.325 -0.0330 -0.4955 -0.5922
    5TMC3    C614224   1.847   3.813  11.259 -0.4590 -0.0494  0.2456
    5TMC3     C14225   2.166   3.973  11.083  0.4968  0.1744 -0.1566
    5TMC3     O14226   2.160   4.059  10.994  0.2862  0.2732 -0.0631
    5TMC3     H14227   1.931   4.041  11.024 -3.5728  0.5300  0.1610
    5TMC3    H114228   2.168   3.880  11.332  1.2410 -0.2424 -2.1976
    5TMC3    H214229   1.775   3.738  11.292 -0.1059 -0.0375  1.0379
    5TMC3    C714230   2.020   3.674  11.336 -0.2258  0.3317 -0.0586
    5TMC3    C814231   1.700   3.941  11.092 -0.0786 -0.1660 -0.4427
    5TMC3    O114232   2.127   3.660  11.277  0.8385 -0.3467  0.6452
    5TMC3    O214233   1.700   4.007  10.992 -0.2831 -0.5403  0.8133
    6TMC3    C114234   1.843   2.943   9.979 -0.0961  0.3011 -0.2846
    6TMC3    C214235   1.707   2.904   9.978 -0.0945  0.1841 -0.7384
    6TMC3    C314236   1.653   2.843  10.091 -0.3152 -0.9854  0.1088
    6TMC3    C414237   1.923   2.915  10.089 -0.3010  0.1624  0.8031
    6TMC3    C514238   1.872   2.840  10.192  0.9266 -0.8209  0.3168
    6TMC3    C614239   1.736   2.816  10.199 -0.1428  0.7413 -0.5558
    6TMC3     C14240   1.900   3.052   9.906  0.0726  0.0171 -0.6856
    6TMC3     O14241   2.016   3.039   9.873 -0.1521 -0.3434 -1.0145
    6TMC3     H14242   1.644   2.917   9.891  0.8222 -0.2200 -1.4562
    6TMC3    H114243   2.025   2.951  10.084 -0.2060 -0.0567  1.1861
    6TMC3    H214244   1.694   2.767  10.286 -0.4510  2.1898  0.1003
    6TMC3    C714245   1.941   2.855  10.315 -0.2626 -0.9418 -0.3400
    6TMC3    C814246   1.535   2.754  10.064  0.8750  0.0959  0.1520
    6TMC3    O114247   2.011   2.956  10.324 -0.5018  0.3636 -0.5235
    6TMC3    O214248   1.512   2.745   9.944 -0.1694 -0.5000  0.5428
    7MPD2     C14249   1.952   3.167  11.301  0.3039  0.3824 -0.0542
    7MPD2    C114250   2.060   3.246  11.264 -0.9280 -0.1452  0.3895
    7MPD2    C214251   2.056   3.382  11.284 -0.0652  0.2535 -0.2453
    7MPD2    C314252   1.950   3.439  11.353  0.2857 -0.7214 -1.1155
    7MPD2    C414253   1.843   3.362  11.390 -0.4492 -0.4276 -0.1549
    7MPD2    C514254   1.848   3.226  11.365 -0.7392 -0.8162  0.0675
    7MPD2     H14255   2.126   3.444  11.229 -1.1321  1.0237 -0.7487
    7MPD2    H114256   1.760   3.401  11.447  0.5776  0.8087  0.4812
    7MPD2    H214257   1.954   3.062  11.274 -0.7160  0.3266  0.1083
    7MPD2    H314258   1.770   3.161  11.404 -2.3750  0.7615 -0.5484
    7MPD2     N14259   1.937   3.578  11.378  0.5187  0.0271  0.2778
    7MPD2    H514260   1.852   3.613  11.422 -0.3613 -1.6297 -0.0873
    7MPD2    N114261   2.152   3.177  11.183  0.1000 -0.4712  0.5520
    7MPD2    H714262   2.116   3.091  11.143 -0.7197  1.2333 -2.3788
    8TMC3    C114263   2.349   3.165  11.048 -0.4269  0.6973 -0.6335
    8TMC3    C214264   2.280   3.075  10.976  0.9739  0.2114  0.0709
    8TMC3    C314265   2.296   3.092  10.839 -0.6418  0.0786  0.8302
    8TMC3    C414266   2.453   3.237  11.007  0.2662 -0.2379  0.5239
    8TMC3    C514267   2.467   3.250  10.874  1.4391 -0.1156  0.4323
    8TMC3    C614268   2.381   3.183  10.785  0.4308  0.4263 -0.0299
    8TMC3     C14269   2.283   3.215  11.166 -0.1290  0.6606  0.5868
    8TMC3     O14270   2.333   3.312  11.222 -0.0599 -0.6533 -0.2108
    8TMC3     H14271   2.204   3.011  11.020  0.2954 -0.3577 -1.9007
    8TMC3    H114272   2.509   3.296  11.078 -0.9582 -0.0245  1.3036
    8TMC3    H214273   2.387   3.190  10.677  1.3968  1.0504  0.0590
    8TMC3    C714274   2.491   3.399  10.832  0.9634  0.2613  0.3558
    8TMC3    C814275   2.218   3.010  10.749 -0.3120  0.2212 -0.4126
    8TMC3    O114276   2.503   3.418  10.709 -0.0800  0.0402 -0.7262
    8TMC3    O214277   2.189   3.070  10.645 -0.2979  0.0407  0.4119
    9MPD2     C14278   2.067   2.687  10.783  0.4460 -0.4316 -0.0129
    9MPD2    C114279   2.110   2.801  10.720 -0.0660  0.9762 -0.5884
    9MPD2    C214280   2.057   2.824  10.588  1.0565 -0.1798  0.0983
    9MPD2    C314281   1.976   2.726  10.523 -0.4876 -0.3715  0.2197
    9MPD2    C414282   1.943   2.609  10.591  0.2825  0.7004  0.3423
    9MPD2    C514283   1.996   2.588  10.718 -0.7574 -0.3047 -0.1434
    9MPD2     H14284   2.076   2.920  10.542 -0.1510 -0.1050 -0.2503
    9MPD2    H114285   1.917   2.518  10.538 -0.9084  1.5739 -0.5746
    9MPD2    H214286   2.111   2.670  10.880 -1.2676  1.4096  1.0971
    9MPD2    H314287   1.958   2.504  10.776  1.2932  0.2877  2.0297
    9MPD2     N14288   1.926   2.744  10.391 -0.1314  0.6347 -0.0838
    9MPD2    H514289   1.870   2.672  10.348  0.7692  0.7180 -1.3951
    9MPD2    N114290   2.180   2.889  10.799  0.3871 -0.5739  0.7344
    9MPD2    H714291   2.193   2.863  10.896  3.5267 -1.0329  0.1844
    1MPD1     C14292   2.230   2.472  16.659  0.2161 -0.0969 -0.3026
    1MPD1    C114293   2.160   2.394  16.576  0.4334  0.2611 -0.0770
    1MPD1    C214294   2.025   2.377  16.596 -1.2345 -0.3943 -0.2173
    1MPD1    C314295   1.953   2.454  16.693  0.8200  0.3761  0.1202
    1MPD1    C414296   2.025   2.558  16.753  0.1755 -0.2940  0.2161
    1MPD1    C514297   2.165   2.558  16.739 -0.0812 -0.4626 -0.6291
    1MPD1     H14298   1.978   2.295  16.543 -1.8496 -0.3000  0.1823
    1MPD1    H114299   1.986   2.629  16.824  0.3192  1.6466 -1.6516
    1MPD1    H214300   2.337   2.481  16.647  0.3785  0.8977  1.9089
    1MPD1    H314301   2.230   2.628  16.791 -0.6588 -1.3887  1.3448
    1MPD1     N14302   1.814   2.431  16.718  0.6454  0.9976  0.5357
    1MPD1    H514303   1.772   2.474  16.800 -4.2510 -3.8578  0.5434
    1MPD1    N114304   2.230   2.310  16.484  0.3658 -0.0662  0.5054
    1MPD1    H614305   2.177   2.282  16.402  0.4124  0.4765  0.2936
    1MPD1    H714306   2.325   2.338  16.460 -0.5196 -0.2920 -3.2747
    2TMC2    C114307   1.391   2.239  16.701 -0.0977 -0.0945  0.2289
    2TMC2    C214308   1.369   2.267  16.828  0.3539 -0.4238 -0.7909
    2TMC2    C314309   1.473   2.322  16.901  0.4722  0.6458 -0.3694
    2TMC2    C414310   1.508   2.268  16.638  0.6196  0.0415  0.6966
    2TMC2    C514311   1.613   2.318  16.719  0.2349  0.2985 -0.2365
    2TMC2    C614312   1.595   2.336  16.854  0.0971 -0.3886 -1.0056
    2TMC2     C14313   1.294   2.164  16.629  0.0264  0.3404  0.4556
    2TMC2     O14314   1.250   2.216  16.526  0.6306  0.0132 -0.0289
    2TMC2     H14315   1.277   2.247  16.882 -0.1769  1.9919 -0.8033
    2TMC2    H114316   1.527   2.231  16.538  0.6767  0.5118  0.5366
    2TMC2    H214317   1.671   2.370  16.923 -0.1533  0.1965 -1.0194
    2TMC2    C714318   1.738   2.346  16.645  0.1080  0.3826  0.1097
    2TMC2    C814319   1.455   2.355  17.041  1.6890  0.8032 -0.2646
    2TMC2    O114320   1.757   2.321  16.525  0.4817  0.2307  0.2575
    2TMC2    O214321   1.368   2.305  17.112  0.7188  0.0407  0.1750
    2TMC2    O514322   1.493   2.487  17.055  0.2076 -0.0815  0.1018
    2TMC2    H514323   1.556   2.523  16.989 -1.2506  1.3168 -0.5323
    3MPD1     C14324   0.961   1.784  16.640  0.1343  0.3046  0.1867
    3MPD1    C114325   1.053   1.749  16.736  0.2043  0.4767  0.1052
    3MPD1    C214326   1.148   1.849  16.754  0.0185  0.4061 -0.1242
    3MPD1    C314327   1.156   1.961  16.668 -0.0100  0.4682  0.1432
    3MPD1    C414328   1.063   1.989  16.572  0.0218  0.2231 -0.3467
    3MPD1    C514329   0.966   1.892  16.558  0.2238  0.0301  0.3345
    3MPD1     H14330   1.207   1.857  16.844 -0.4302  0.4959  0.1639
    3MPD1    H114331   1.066   2.073  16.503 -0.0912  0.6589  0.1801
    3MPD1    H214332   0.877   1.717  16.636 -0.1249  0.6362  0.0304
    3MPD1    H314333   0.879   1.904  16.494 -0.1927 -0.8354  0.7404
    3MPD1     N14334   1.263   2.049  16.701  0.4199 -0.0392  0.0718
    3MPD1    H514335   1.325   2.025  16.778 -0.0146 -0.5763  0.2530
    3MPD1    N114336   1.028   1.644  16.832 -0.2936 -0.3755 -0.3127
    3MPD1    H614337   1.121   1.623  16.866 -0.6837 -2.4219 -0.5354
    3MPD1    H714338   0.994   1.563  16.781  0.0834 -1.1242  0.6282
    1TMC1    C114339   4.667   1.005  13.511  0.1361 -0.9333 -0.3067
    1TMC1    C214340   4.564   0.974  13.598  0.4166  0.6384  0.2230
    1TMC1    C314341   4.445   1.040  13.577  0.3989  0.4456 -0.2391
    1TMC1    C414342   4.649   1.090  13.411  0.3487 -0.5599  0.2723
    1TMC1    C514343   4.526   1.152  13.389  0.2717 -0.2446  0.1451
    1TMC1    C614344   4.432   1.134  13.479  0.1455  0.0530 -0.0835
    1TMC1     C14345   0.055   0.938  13.516  0.2868 -0.2077  0.6242
    1TMC1     O14346   0.154   0.991  13.463 -0.2242 -1.2193  0.0978
    1TMC1     H14347   4.581   0.907  13.682  0.8543  2.5425  1.6449
    1TMC1    H114348   4.740   1.112  13.356  0.2773 -0.8934  0.0193
    1TMC1    H214349   4.344   1.196  13.466 -0.7619 -1.5935 -1.9120
    1TMC1    C714350   4.520   1.254  13.289 -0.4318 -0.1170 -0.1775
    1TMC1    C814351   4.318   1.008  13.637  0.0936 -0.3584 -0.4023
    1TMC1    O114352   4.438   1.347  13.281 -0.2313 -0.3119  0.2439
    1TMC1    O214353   4.209   1.032  13.593 -0.2408  0.1040  0.1737
    1TMC1    O314354   4.581   1.199  13.186 -0.2349  0.2148  0.6880
    1TMC1    H314355   4.606   1.106  13.202 -1.4079  0.1011  1.8896
    1TMC1    O514356   4.341   0.931  13.747  0.2318  0.2332 -0.5019
    1TMC1    H514357   4.430   0.904  13.774 -0.0219 -1.3507 -1.2685
    2MPD2     C14358   0.294   0.772  13.601 -0.2343 -1.0532 -0.6783
    2MPD2    C114359   0.158   0.733  13.602  1.0160  0.1726  0.1173
    2MPD2    C214360   0.133   0.599  13.636 -0.3205 -0.0052 -0.6932
    2MPD2    C314361   0.236   0.510  13.660  0.1337 -0.0917  0.2887
    2MPD2    C414362   0.364   0.545  13.637  0.6176  0.5544  1.0400
    2MPD2    C514363   0.392   0.676  13.608  0.2297  0.5903  0.7034
    2MPD2     H14364   0.029   0.569  13.635  0.2058 -1.7833 -2.4096
    2MPD2    H114365   0.441   0.472  13.660 -0.0460 -0.7112 -0.8505
    2MPD2    H214366   0.325   0.873  13.582  1.4425 -0.9710  2.4771
    2MPD2    H314367   0.497   0.700  13.619  0.5202  0.5952 -2.0192
    2MPD2     N14368   0.206   0.374  13.695  0.4265 -0.2869  0.1068
    2MPD2    H514369   0.110   0.365  13.727  0.4361 -0.3741  0.1111
    2MPD2    N114370   0.047   0.816  13.572  0.3588 -0.4204 -0.6093
    2MPD2    H714371   4.697   0.782  13.601  0.1396 -0.6317 -1.5540
    3TCq1    O114372   0.268   4.417  13.781 -0.1834 -0.2332  0.2409
    3TCq1    C114373   0.334   4.536  13.795  0.9021  0.5789 -0.8884
    3TCq1    O214374   0.455   4.557  13.820 -0.2148  0.6921  0.5797
    3TCq1    C214375   0.241   4.641  13.748  0.1398 -0.2367 -0.2842
    3TCq1    C314376   0.106   4.635  13.743 -0.4214 -0.6583  0.6591
    3TCq1    C414377   0.027   0.009  13.722  0.7735 -0.3862 -0.0266
    3TCq1    C514378   0.082   0.133  13.714  0.5398  0.5206  0.0952
    3TCq1    C614379   0.218   0.137  13.711 -0.3349 -0.0128 -0.5344
    3TCq1    C714380   0.293   0.023  13.734 -0.3153  0.7601 -0.1922
    3TCq1    C814381   0.288   0.262  13.679 -0.8327  0.0853 -0.1320
    3TCq1    O414382   0.409   0.251  13.646  0.2658  0.4752  0.0430
    3TCq1    C914383   4.623   4.737  13.713  0.3132 -0.2804 -0.3929
    3TCq1    O514384   4.555   0.103  13.700 -0.2897  0.6383 -0.1349
    3TCq1    O614385   4.580   4.622  13.731 -0.9304 -0.4293 -0.0738
    3TCq1    H114386   0.177   4.436  13.750  0.1355 -0.4067 -0.7762
    3TCq1    H214387   0.061   4.539  13.762  0.4343 -1.0795  0.5472
    3TCq1    H314388   0.023   0.218  13.681 -0.5566 -0.1143  0.4195
    3TCq1    H414389   0.399   0.043  13.724 -0.1791  0.6435  1.0542
    1MPD2     C14390   4.284   2.226  14.964  0.1187 -0.8948  0.2038
    1MPD2    C114391   4.150   2.242  14.938  0.2774  0.3049  0.6742
    1MPD2    C214392   4.070   2.132  14.929  0.1448  0.0517 -0.0604
    1MPD2    C314393   4.117   2.005  14.935  1.2173 -0.3025 -0.0525
    1MPD2    C414394   4.250   1.985  14.967  0.1429  1.0038 -0.6862
    1MPD2    C514395   4.330   2.097  14.979 -0.6077  0.3816 -0.0010
    1MPD2     H14396   3.965   2.145  14.906  0.0356 -0.0094  0.4202
    1MPD2    H114397   4.295   1.886  14.971  1.3819  1.4529 -3.4532
    1MPD2    H214398   4.343   2.312  14.993 -0.6390  0.8580 -3.4444
    1MPD2    H314399   4.434   2.081  15.004 -0.9615 -0.4485  0.9204
    1MPD2     N14400   4.032   1.894  14.910  0.1306 -0.0575 -0.1915
    1MPD2    H514401   4.075   1.802  14.904 -0.2436 -0.2780  0.3981
    1MPD2    N114402   4.096   2.372  14.917 -0.2598  0.0617 -0.1428
    1MPD2    H714403   4.155   2.455  14.916  1.0773 -0.8346  2.7242
    2TMC3    C114404   3.931   2.542  14.909  0.2699 -0.1165 -0.1003
    2TMC3    C214405   3.813   2.572  14.964  0.8920  0.5460  0.1261
    2TMC3    C314406   3.722   2.649  14.891  0.4409  0.4570 -0.3937
    2TMC3    C414407   3.981   2.600  14.795 -0.2638  0.1825 -0.5069
    2TMC3    C514408   3.896   2.691  14.745 -0.7528 -0.7533  0.0590
    2TMC3    C614409   3.765   2.717  14.776 -0.2131 -1.2093  1.1960
    2TMC3     C14410   3.967   2.405  14.943 -0.0622  0.2093 -0.3639
    2TMC3     O14411   3.867   2.336  14.968 -0.3039  0.5670  0.3230
    2TMC3     H14412   3.786   2.536  15.062 -2.4596  0.6482 -0.7291
    2TMC3    H114413   4.084   2.586  14.764 -0.1579  0.6093 -0.3555
    2TMC3    H214414   3.693   2.778  14.723 -0.3695 -0.1677  2.5979
    2TMC3    C714415   3.968   2.785  14.660 -0.0956  0.0050  0.2925
    2TMC3    C814416   3.600   2.582  14.860 -0.6228 -0.3273  0.3774
    2TMC3    O114417   4.088   2.773  14.637 -0.6674  0.0576  0.1832
    2TMC3    O214418   3.511   2.646  14.805  0.2610 -0.6632 -0.6475
    3TCq1    O114419   3.394   3.927  14.601  0.0450  0.1136  0.0271
    3TCq1    C114420   3.523   3.881  14.578 -0.1739  0.2536 -0.4566
    3TCq1    O214421   3.614   3.958  14.592  0.1474 -0.3386 -0.0469
    3TCq1    C214422   3.533   3.745  14.627  0.6492  0.4063 -0.9686
    3TCq1    C314423   3.447   3.705  14.726 -0.4052 -0.0596  0.1325
    3TCq1    C414424   3.462   3.584  14.780  0.1124 -0.0028  0.4210
    3TCq1    C514425   3.578   3.508  14.752 -1.0469  0.2711  0.4025
    3TCq1    C614426   3.671   3.566  14.673  0.3331 -0.1363 -0.3982
    3TCq1    C714427   3.654   3.691  14.615  0.0489  0.0896 -0.6588
    3TCq1    C814428   3.794   3.498  14.631  0.1188  0.0389  0.2785
    3TCq1    O414429   3.890   3.560  14.595  0.0539 -0.4418  0.2636
    3TCq1    C914430   3.368   3.528  14.873 -0.3496 -0.2646 -0.0814
    3TCq1    O514431   3.405   3.426  14.936 -0.4376 -0.1564  1.4016
    3TCq1    O614432   3.259   3.588  14.898 -0.3154  0.1062  0.5013
    3TCq1    H114433   3.335   3.859  14.562 -0.5999 -0.9418  2.7827
    3TCq1    H214434   3.361   3.763  14.756 -0.2196  1.2013 -1.8003
    3TCq1    H314435   3.594   3.415  14.804 -0.6949 -0.2014 -0.5422
    3TCq1    H414436   3.730   3.737  14.554 -0.2295  1.9508  0.3917
    4MPD2     C14437   3.999   3.286  14.548  0.1608 -0.6026  0.7071
    4MPD2    C114438   3.875   3.254  14.608 -0.3612  0.2201  0.2396
    4MPD2    C214439   3.845   3.121  14.620  0.3080  0.0075  0.0498
    4MPD2    C314440   3.934   3.020  14.602  0.0973 -0.0096  0.2055
    4MPD2    C414441   4.063   3.046  14.555 -0.2054 -0.0181 -0.2926
    4MPD2    C514442   4.087   3.177  14.520  0.2193  0.3921  0.5962
    4MPD2     H14443   3.749   3.098  14.665  0.7750 -0.1416  0.9707
    4MPD2    H114444   4.134   2.966  14.537  0.2257  0.0998  0.8887
    4MPD2    H214445   4.028   3.388  14.524  2.8121 -1.1006  1.7471
    4MPD2    H314446   4.183   3.190  14.471 -0.5647 -0.2435 -1.0744
    4MPD2     N14447   3.890   2.894  14.648  0.5575 -0.5852  1.0252
    4MPD2    H514448   3.795   2.887  14.682  1.4666 -0.4103  3.5775
    4MPD2    N114449   3.780   3.356  14.644  0.1607  0.0492  0.2559
    4MPD2    H714450   3.692   3.323  14.683  0.2868  0.4652  0.8799
    5TMC2    C114451   3.617   1.746  14.786 -0.8397  0.2364 -0.0134
    5TMC2    C214452   3.660   1.671  14.680 -0.3180 -0.5016  0.7985
    5TMC2    C314453   3.792   1.648  14.669  0.2382 -0.3290  0.6340
    5TMC2    C414454   3.694   1.786  14.887 -0.1980 -0.1648 -0.3716
    5TMC2    C514455   3.830   1.774  14.864  0.6058 -0.1100  0.3344
    5TMC2    C614456   3.881   1.705  14.754 -0.4049  0.1105 -0.9591
    5TMC2     C14457   3.515   1.852  14.741  0.2682 -1.0972  0.2914
    5TMC2     O14458   3.410   1.812  14.686 -0.5251 -0.4556  0.5861
    5TMC2     H14459   3.588   1.645  14.603  0.2088  1.7264 -0.4611
    5TMC2    H114460   3.655   1.845  14.968 -0.7003  0.1153 -0.8142
    5TMC2    H214461   3.987   1.678  14.754 -0.5187 -0.3793  1.7821
    5TMC2    C714462   3.897   1.898  14.911  0.0714 -0.0731 -0.7091
    5TMC2    C814463   3.847   1.560  14.561  0.3203 -1.2110 -0.5542
    5TMC2    O114464   3.822   1.982  14.958 -0.1002  0.1693 -0.1465
    5TMC2    O214465   3.966   1.553  14.545  0.4351  0.2934  0.0094
    5TMC2    O514466   3.748   1.498  14.490 -0.0103 -0.1940  0.4030
    5TMC2    H514467   3.666   1.482  14.540 -1.3104  2.2171 -0.9169
    6MPD2     C14468   3.428   2.363  14.740 -0.5706 -0.8059 -0.0886
    6MPD2    C114469   3.541   2.340  14.808  0.0721  0.3545  1.3287
    6MPD2    C214470   3.581   2.207  14.822  0.3681 -0.0975  0.1616
    6MPD2    C314471   3.510   2.101  14.770 -0.3500  0.4260  0.4055
    6MPD2    C414472   3.382   2.124  14.720 -0.5643  0.0054 -0.1938
    6MPD2    C514473   3.346   2.258  14.700 -0.2952  0.5329  0.5116
    6MPD2     H14474   3.673   2.190  14.878  0.8149  4.5836  0.8285
    6MPD2    H114475   3.319   2.048  14.675  0.4124  0.5483 -2.4555
    6MPD2    H214476   3.392   2.463  14.717 -1.6714 -1.5594 -1.7014
    6MPD2    H314477   3.252   2.282  14.654  0.6544  0.9800 -1.1716
    6MPD2     N14478   3.566   1.972  14.787 -0.2146 -0.4808 -0.9217
    6MPD2    H514479   3.653   1.979  14.838 -0.5766 -2.7631  0.0001
    6MPD2    N114480   3.624   2.445  14.852  0.5438 -0.7064  0.2112
    6MPD2    H714481   3.719   2.425  14.882  1.9678  2.8967 -1.9232
  945NH3     N114482   3.682   0.879  16.884  0.1563 -0.3113  0.2844
  945NH3     H214483   3.584   0.853  16.875 -0.4745  2.7564 -1.9236
  945NH3     H314484   3.671   0.977  16.862  1.4033 -0.1807  0.2504
  945NH3     H414485   3.690   0.898  16.983  2.7726  1.3751 -0.2691
  946SOD     NA14486   4.339   1.682   8.464 -0.5145  0.1256 -0.4343
  947SOD     NA14487   1.152   2.055  12.300 -0.1183  0.1248 -0.4898
  948SOD     NA14488   4.419   1.372   1.833 -0.1844 -0.1358 -0.5479
  949SOD     NA14489   1.094   0.258   8.151  0.5943 -0.5899  0.1460
  950SOD     NA14490   2.771   0.553   2.649  0.2731 -0.2073 -0.1745
  951SOD     NA14491   0.521   4.311  17.362  0.4667  0.1283  0.3731
  952SOD     NA14492   3.652   4.604  15.670 -0.2271  0.3860  0.0241
  953SOD     NA14493   0.379   3.360  15.569 -0.1802  0.1358 -0.0590
  954SOL     OW14494   2.450   1.286  11.549  0.8797  0.1030  0.0628
  954SOL    HW114495   2.473   1.379  11.555  0.7115  0.1160  0.4884
  954SOL    HW214496   2.355   1.292  11.560  1.1426  0.6702  2.0173
  955SOL     OW14497   2.065   0.073   7.377  0.1535  0.3579 -0.2809
  955SOL    HW114498   2.106   0.134   7.315  2.1375 -1.2224 -0.5311
  955SOL    HW214499   2.123   0.083   7.452  0.6458  1.0465 -0.7396
  956SOL     OW14500   3.527   0.259  13.381  0.8028 -0.1659 -0.1777
  956SOL    HW114501   3.492   0.273  13.469  0.5503  2.9944 -0.7530
  956SOL    HW214502   3.463   0.316  13.337 -0.1867 -0.8812  0.3381
  957SOL     OW14503   4.025   2.096   0.693 -0.5995 -0.1902 -0.1526
  957SOL    HW114504   3.994   2.016   0.650  0.3174 -0.1533 -0.8974
  957SOL    HW214505   3.961   2.158   0.660  0.2069  0.6059 -0.2203
  958SOL     OW14506   0.779   0.748   3.822  0.2905 -0.5744 -0.1380
  958SOL    HW114507   0.843   0.813   3.852  0.2737 -1.1090  1.0409
  958SOL    HW214508   0.825   0.665   3.828  1.8396  0.3762  1.3772
  959SOL     OW14509   0.330   2.163   1.247  0.6530  0.1837 -0.5917
  959SOL    HW114510   0.388   2.236   1.269 -3.2297  2.7551  1.1122
  959SOL    HW214511   0.272   2.168   1.323  0.2511  0.0828 -0.8908
  960SOL     OW14512   2.853   1.027   4.460  0.4153 -0.1189 -0.1076
  960SOL    HW114513   2.783   0.980   4.506 -0.0393 -0.6017 -1.2789
  960SOL    HW214514   2.891   1.084   4.527 -0.5322 -1.4501  1.5553
  961SOL     OW14515   4.015   0.231   3.779  0.1955  0.5938 -0.2337
  961SOL    HW114516   4.074   0.303   3.758 -1.4423  1.2614 -2.5624
  961SOL    HW214517   3.967   0.278   3.847  1.2291 -0.1833  1.0305
  962SOL     OW14518   0.409   2.479   2.295  0.2687 -0.0248 -0.2649
  962SOL    HW114519   0.400   2.384   2.292 -0.6680  0.0933 -0.9273
  962SOL    HW214520   0.385   2.488   2.387 -0.4069  2.0043 -0.6377
  963SOL     OW14521   2.250   2.140  10.216 -0.7238 -0.2377 -0.4232
  963SOL    HW114522   2.231   2.059  10.264 -0.6983 -0.1184 -0.2091
  963SOL    HW214523   2.241   2.199  10.291 -2.0565 -0.0817 -0.6974
  964SOL     OW14524   1.999   2.615   5.368  0.3899  0.2012 -0.0217
  964SOL    HW114525   1.960   2.702   5.362 -1.5906 -0.6223  1.1078
  964SOL    HW214526   1.971   2.598   5.458  1.8135  0.5125  0.4939
  965SOL     OW14527   2.181   1.586   1.886 -0.1190 -0.2051  0.4862
  965SOL    HW114528   2.190   1.504   1.839  2.0058  0.8955 -1.0226
  965SOL    HW214529   2.089   1.591   1.912 -0.9167 -1.8537 -2.0739
  966SOL     OW14530   0.084   0.762   1.922 -0.1637 -0.0927  0.2648
  966SOL    HW114531   0.145   0.837   1.926 -0.8335  0.6547 -3.3243
  966SOL    HW214532   0.096   0.743   2.015  0.3768 -2.6993 -0.3498
  967SOL     OW14533   0.913   1.605   7.214 -0.5439 -0.2935 -0.5734
  967SOL    HW114534   0.967   1.552   7.272  0.4733  1.9682  0.5657
  967SOL    HW214535   0.914   1.694   7.250 -2.8176 -0.7179  0.5493
  968SOL     OW14536   4.728   3.767   2.952 -0.0500  0.2720  0.3427
  968SOL    HW114537   4.669   3.838   2.929 -1.3758 -0.9325  0.0130
  968SOL    HW214538   4.680   3.719   3.020 -0.8670 -1.8016 -1.7217
  969SOL     OW14539   4.276   2.513   4.524 -0.3190 -0.3459  0.6092
  969SOL    HW114540   4.230   2.594   4.501 -0.3474 -0.0784  1.5829
  969SOL    HW214541   4.218   2.483   4.594 -1.6126  0.5978 -0.0575
  970SOL     OW14542   3.888   0.781   1.747 -0.3380  0.1183 -0.2441
  970SOL    HW114543   3.897   0.863   1.794 -1.4099 -0.7413  1.4451
  970SOL    HW214544   3.978   0.747   1.749 -0.6985 -0.8163  0.3617
  971SOL     OW14545   3.938   4.229   2.324 -0.2617  0.1885  0.2204
  971SOL    HW114546   3.914   4.286   2.251  0.6549 -0.2069 -0.3711
  971SOL    HW214547   4.013   4.272   2.366  0.4677 -0.3832 -0.5123
  972SOL     OW14548   3.292   0.270   5.808  0.0538 -0.2484 -0.4339
  972SOL    HW114549   3.245   0.272   5.891  1.0789  1.3406  0.1223
  972SOL    HW214550   3.289   0.183   5.768 -1.1929  0.1554 -1.2191
  973SOL     OW14551   1.197   3.898   1.502 -0.4624 -0.1613 -0.1959
  973SOL    HW114552   1.167   3.832   1.440 -0.3624 -1.6914  1.3911
  973SOL    HW214553   1.258   3.947   1.446 -0.1908 -1.5292 -1.1057
  974SOL     OW14554   0.700   0.709   1.467  0.5527 -0.7476 -0.3075
  974SOL    HW114555   0.653   0.791   1.479  0.8109 -0.3235 -2.1955
  974SOL    HW214556   0.694   0.663   1.550  1.0515  0.1856  0.2427
  975SOL     OW14557   0.441   0.038  17.299 -0.0517 -0.3848 -0.5773
  975SOL    HW114558   0.384   0.046  17.376 -1.1220 -0.5991 -1.3478
  975SOL    HW214559   0.381   0.064  17.229  1.2942  1.6606 -0.9655
  976SOL     OW14560   3.443   2.102   8.270 -0.1364  0.3018  0.1298
  976SOL    HW114561   3.503   2.174   8.250  0.5984 -0.6340 -1.0625
  976SOL    HW214562   3.410   2.123   8.357 -0.2546 -2.2126  0.6712
  977SOL     OW14563   3.435   1.496   2.637 -0.1685 -0.6899  1.0854
  977SOL    HW114564   3.521   1.517   2.672 -0.6601 -2.5228  3.4211
  977SOL    HW214565   3.395   1.463   2.718 -2.6189 -3.1224 -1.1005
  978SOL     OW14566   4.699   0.678   4.286  0.4235 -0.1893 -0.1355
  978SOL    HW114567   4.636   0.651   4.219 -2.8179  3.0070  1.5616
  978SOL    HW214568   0.005   0.752   4.249  1.3858  0.2455  1.9354
  979SOL     OW14569   2.638   3.368   5.956  0.5915  0.2706 -0.6283
  979SOL    HW114570   2.634   3.359   6.051 -0.0654 -0.2945 -0.7126
  979SOL    HW214571   2.726   3.330   5.948 -0.2670 -2.0320  1.0148
  980SOL     OW14572   1.642   1.084   5.883 -0.5413  0.0920 -0.3254
  980SOL    HW114573   1.737   1.088   5.871 -0.4714 -0.8615 -0.0593
  980SOL    HW214574   1.627   0.995   5.914 -0.4900  0.9335  2.1083
  981SOL     OW14575   1.005   4.619   2.135  0.2525  0.3638 -0.0156
  981SOL    HW114576   1.012   4.590   2.226  0.3172  1.0960  0.2167
  981SOL    HW214577   0.917   4.592   2.107  1.2614 -3.2620  0.4265
  982SOL     OW14578   4.280   0.245   4.096  0.3018 -0.0618 -0.3638
  982SOL    HW114579   4.332   0.169   4.070 -0.5634 -0.8634  0.2514
  982SOL    HW214580   4.249   0.212   4.180 -0.8296 -0.7590 -1.0591
  983SOL     OW14581   4.400   2.482   5.557  0.2598 -0.3657  0.0055
  983SOL    HW114582   4.346   2.557   5.584  1.2124 -0.4795  2.2800
  983SOL    HW214583   4.448   2.520   5.484  1.5784 -0.1971  0.9651
  984SOL     OW14584   0.515   4.704  15.041  0.3675  0.4409 -0.7941
  984SOL    HW114585   0.500   4.663  14.956  0.2166  2.5656 -1.7857
  984SOL    HW214586   0.508   4.628  15.100 -1.1150  1.2077  0.0121
  985SOL     OW14587   1.951   2.996  14.879  1.1984  0.1269 -0.2928
  985SOL    HW114588   1.860   2.980  14.854  1.5367 -2.2485  0.0129
  985SOL    HW214589   1.946   3.089  14.902 -0.9646  0.2880 -1.4396
  986SOL     OW14590   2.434   3.378   8.477  0.0166  0.7412  0.1257
  986SOL    HW114591   2.529   3.382   8.474  0.0014  0.3680 -0.8689
  986SOL    HW214592   2.411   3.299   8.526  2.3679 -0.2114 -0.3225
  987SOL     OW14593   1.553   4.123  10.579 -0.1744 -0.2416 -0.0985
  987SOL    HW114594   1.486   4.054  10.589  1.0105 -1.4950 -0.7582
  987SOL    HW214595   1.575   4.150  10.668 -0.8133  1.3806 -0.4513
  988SOL     OW14596   3.123   4.362   3.971  0.4200  0.4774  0.3414
  988SOL    HW114597   3.178   4.303   4.023 -0.8231 -3.7783 -3.1797
  988SOL    HW214598   3.096   4.432   4.030  0.2236  1.2118 -0.6314
  989SOL     OW14599   1.529   4.224   4.783 -0.1133  0.0927  0.3090
  989SOL    HW114600   1.525   4.168   4.860 -1.5626  0.5881  0.5841
  989SOL    HW214601   1.502   4.312   4.811  1.4886  0.5302  0.5415
  990SOL     OW14602   2.582   1.383  17.371 -0.4888  0.4112 -0.4601
  990SOL    HW114603   2.634   1.306  17.393 -1.6047  0.0766  0.9624
  990SOL    HW214604   2.647   1.426  17.315  0.3627 -0.2862 -0.0023
  991SOL     OW14605   2.408   1.885   5.280 -0.6197 -0.7382 -0.5557
  991SOL    HW114606   2.496   1.906   5.310 -0.1938 -0.0389 -2.2917
  991SOL    HW214607   2.413   1.866   5.186 -0.6027  0.5164 -0.8023
  992SOL     OW14608   1.213   0.490   5.551 -0.1288  0.1108 -0.0519
  992SOL    HW114609   1.263   0.510   5.471  2.1273 -0.7968  1.1139
  992SOL    HW214610   1.164   0.571   5.564 -0.0107  0.2176 -0.2662
  993SOL     OW14611   3.576   0.232   5.958  0.4801 -0.4518  0.1415
  993SOL    HW114612   3.667   0.236   5.928  0.9311 -1.1798  1.3862
  993SOL    HW214613   3.525   0.280   5.894 -0.5238 -2.5282 -0.6143
  994SOL     OW14614   2.034   3.185   8.539  0.5674  0.0897  0.0417
  994SOL    HW114615   1.970   3.121   8.507  2.1233 -1.3218 -0.2082
  994SOL    HW214616   2.002   3.269   8.505  1.5293  1.2228  1.9707
  995SOL     OW14617   2.972   1.124   6.803 -0.2010 -0.5023 -0.8570
  995SOL    HW114618   2.964   1.219   6.795  3.0944 -0.1134  0.1987
  995SOL    HW214619   3.015   1.104   6.720 -0.4520  1.1296 -1.3885
  996SOL     OW14620   1.861   2.105   2.952  0.0370 -0.3373 -0.3483
  996SOL    HW114621   1.891   2.156   3.027 -3.3673  2.1748 -0.6679
  996SOL    HW214622   1.784   2.148   2.914  0.2455 -0.1350 -0.5381
  997SOL     OW14623   1.545   2.311   8.442  0.0923 -0.4937 -0.1188
  997SOL    HW114624   1.509   2.380   8.387 -1.0491 -1.5889 -0.7497
  997SOL    HW214625   1.468   2.266   8.478 -1.4715  2.0149 -0.3286
  998SOL     OW14626   0.095   0.205   2.624  0.1812 -0.4287  0.4865
  998SOL    HW114627   0.071   0.292   2.594  1.2206 -0.8579 -1.5656
  998SOL    HW214628   0.187   0.219   2.647 -0.0867  2.4511 -0.2069
  999SOL     OW14629   4.087   1.014  11.742  0.1426 -0.5311  0.5149
  999SOL    HW114630   4.022   0.964  11.792  1.4232 -0.5867  2.1374
  999SOL    HW214631   4.091   0.977  11.654 -0.0519 -1.3253  0.8327
 1000SOL     OW14632   3.830   3.908  15.062 -0.0825 -0.0865 -0.3192
 1000SOL    HW114633   3.847   3.831  15.008 -1.7750  0.4831 -1.6497
 1000SOL    HW214634   3.793   3.964  14.995 -0.8683 -0.0963  0.1051
 1001SOL     OW14635   2.388   4.415   3.694  1.0912  0.8493  0.2475
 1001SOL    HW114636   2.299   4.379   3.686  0.8603  1.1555  1.3759
 1001SOL    HW214637   2.436   4.352   3.748  1.6167  1.6458  0.7045
 1002SOL     OW14638   1.225   2.245   8.970 -0.1374 -0.4229  0.0286
 1002SOL    HW114639   1.280   2.220   9.044  0.7464 -0.6584 -0.7101
 1002SOL    HW214640   1.238   2.338   8.983 -1.4704  0.0647 -2.0610
 1003SOL     OW14641   1.750   4.181  14.217 -0.3799 -0.2523 -0.6320
 1003SOL    HW114642   1.728   4.090  14.236 -1.8828  0.8132  2.7274
 1003SOL    HW214643   1.737   4.178  14.122 -0.5463 -0.4035 -0.6036
 1004SOL     OW14644   4.035   2.135   8.861  0.0497 -0.0167  0.8083
 1004SOL    HW114645   4.100   2.139   8.791 -0.7400  0.8819  0.1264
 1004SOL    HW214646   3.986   2.213   8.836 -2.4891 -1.6771  0.5678
 1005SOL     OW14647   2.217   3.616   7.125  0.5412  0.4340 -0.1355
 1005SOL    HW114648   2.208   3.620   7.030  1.9469  0.0254 -0.2911
 1005SOL    HW214649   2.278   3.687   7.145  0.0505  0.6150  0.7162
 1006SOL     OW14650   3.093   3.946   8.622  0.2390 -0.1789  0.0305
 1006SOL    HW114651   3.031   3.952   8.549  0.6889 -1.8853 -0.4980
 1006SOL    HW214652   3.147   3.878   8.583 -0.6198 -1.0537  0.3565
 1007SOL     OW14653   2.723   4.694   3.802 -0.2336 -0.4026 -0.2481
 1007SOL    HW114654   2.734   4.604   3.831 -1.5118 -0.8207 -1.0757
 1007SOL    HW214655   2.628   4.707   3.810 -0.0320  0.6647  0.3686
 1008SOL     OW14656   2.814   2.680   4.842 -0.4127  0.0921 -0.8877
 1008SOL    HW114657   2.905   2.693   4.867 -0.8535 -2.3464  2.0334
 1008SOL    HW214658   2.764   2.695   4.922 -0.8270  0.5915 -1.2430
 1009SOL     OW14659   0.514   0.715   3.867  0.4641 -0.4923  0.4379
 1009SOL    HW114660   0.610   0.716   3.867  0.4687 -0.9851 -0.9182
 1009SOL    HW214661   0.503   0.666   3.786 -1.2268 -1.9390  1.5444
 1010SOL     OW14662   0.326   1.964   2.322 -0.1546 -0.5395  0.5635
 1010SOL    HW114663   0.317   1.985   2.415 -1.9654 -1.2780  0.5519
 1010SOL    HW214664   0.420   1.981   2.317 -0.2755  0.7593  2.5929
 1011SOL     OW14665   0.298   4.093   3.258 -0.7383 -0.3770 -0.1667
 1011SOL    HW114666   0.270   4.105   3.349  0.9264 -3.7092  0.7691
 1011SOL    HW214667   0.277   4.182   3.231 -0.1695 -0.7717 -1.8671
 1012SOL     OW14668   4.703   2.310   5.193  0.0909  0.0956  0.0619
 1012SOL    HW114669   4.632   2.268   5.144  0.4062  1.3191 -1.4511
 1012SOL    HW214670   0.043   2.292   5.146  1.4247  0.8276  2.1078
 1013SOL     OW14671   1.654   4.026   5.249 -0.0075 -0.3351 -0.1019
 1013SOL    HW114672   1.658   4.100   5.309  1.8024  1.6201 -2.6266
 1013SOL    HW214673   1.616   3.953   5.297 -1.7697  1.0109  0.5324
 1014SOL     OW14674   2.887   4.711   8.729  0.4666 -0.3952  0.3206
 1014SOL    HW114675   2.958   4.729   8.667 -2.2888  1.8999 -2.1901
 1014SOL    HW214676   2.877   0.058   8.764  0.1555  0.3068 -1.5335
 1015SOL     OW14677   4.211   0.888   8.016 -0.5980  0.0739 -0.4042
 1015SOL    HW114678   4.282   0.894   7.952 -0.7787  1.1150 -0.5058
 1015SOL    HW214679   4.181   0.977   8.034  0.5156  0.8661 -2.4107
 1016SOL     OW14680   2.601   2.579   4.018  0.6442 -0.0173  0.3988
 1016SOL    HW114681   2.670   2.535   4.067  1.2390 -0.9555 -1.2941
 1016SOL    HW214682   2.635   2.625   3.941  2.4776 -0.6114  0.8715
 1017SOL     OW14683   2.491   3.589   2.990  0.0279  0.0514 -0.2940
 1017SOL    HW114684   2.402   3.554   2.983  1.0166 -2.5545  0.1099
 1017SOL    HW214685   2.542   3.533   3.049  1.9323  2.1000 -0.0365
 1018SOL     OW14686   0.340   2.203  15.002 -0.0761 -0.2339  0.0674
 1018SOL    HW114687   0.323   2.292  15.033  1.9141 -0.5782  2.1566
 1018SOL    HW214688   0.377   2.222  14.916  0.2278 -1.3836 -0.0540
 1019SOL     OW14689   2.601   2.293   3.782 -0.2914  0.3328  0.4030
 1019SOL    HW114690   2.541   2.304   3.708  0.2198 -1.0825 -0.2271
 1019SOL    HW214691   2.653   2.370   3.761  0.7678 -0.4019  0.2883
 1020SOL     OW14692   3.533   4.333   2.322 -0.0326  0.9381  0.1191
 1020SOL    HW114693   3.550   4.286   2.240  1.5120  0.5066  0.7017
 1020SOL    HW214694   3.437   4.338   2.319 -0.1984 -1.9346  0.8160
 1021SOL     OW14695   1.734   3.010  11.046 -0.4629  0.0756 -0.2955
 1021SOL    HW114696   1.699   2.929  11.007 -0.4457  1.0044 -2.2441
 1021SOL    HW214697   1.695   3.007  11.133  0.6407 -1.1886  0.1537
 1022SOL     OW14698   2.303   3.339   2.132  0.3183  0.2504 -0.5386
 1022SOL    HW114699   2.284   3.246   2.143  1.5029 -0.2827 -3.0426
 1022SOL    HW214700   2.395   3.342   2.104  0.1624 -1.8508 -1.2434
 1023SOL     OW14701   0.260   3.226  12.796 -0.4123 -0.5401  0.4997
 1023SOL    HW114702   0.336   3.267  12.837  0.6159 -1.6606 -0.2792
 1023SOL    HW214703   0.272   3.265  12.709 -2.4784  0.5498  0.7025
 1024SOL     OW14704   2.424   3.158   7.725 -0.7349  0.6924  0.3572
 1024SOL    HW114705   2.404   3.248   7.700 -2.2283 -0.0861 -1.1909
 1024SOL    HW214706   2.351   3.110   7.686  1.4803 -1.5520 -0.9878
 1025SOL     OW14707   3.784   2.009   1.083 -0.2084 -0.3631  0.3619
 1025SOL    HW114708   3.749   2.078   1.139 -0.5889 -0.6436  0.4709
 1025SOL    HW214709   3.767   2.044   0.995 -1.4344 -1.2901  0.2425
 1026SOL     OW14710   3.387   1.087  12.307 -0.2596  0.3887  0.4690
 1026SOL    HW114711   3.442   1.154  12.266  2.2076 -2.0028 -0.0852
 1026SOL    HW214712   3.440   1.013  12.279 -1.2624 -0.4514  0.7895
 1027SOL     OW14713   1.523   0.759   6.553 -0.2332  0.4540 -0.2867
 1027SOL    HW114714   1.522   0.698   6.479 -1.3740 -0.4812  0.4873
 1027SOL    HW214715   1.430   0.749   6.575 -0.5514  0.5020 -1.6179
 1028SOL     OW14716   4.500   0.198   2.901  0.2638 -0.5386  0.1374
 1028SOL    HW114717   4.475   0.195   2.809 -1.7425 -1.6054  0.7263
 1028SOL    HW214718   4.430   0.144   2.937 -1.3464  0.8877 -0.8905
 1029SOL     OW14719   1.747   1.074   4.311  0.0502  0.0763 -0.0565
 1029SOL    HW114720   1.689   1.002   4.338  3.0983 -2.8753 -1.3159
 1029SOL    HW214721   1.701   1.145   4.355  2.4197 -0.0324  2.6666
 1030SOL     OW14722   4.021   2.982   6.776 -0.5314 -0.2535 -0.0908
 1030SOL    HW114723   4.086   2.921   6.742 -0.9409 -0.2460 -0.8834
 1030SOL    HW214724   4.019   3.047   6.705  0.2484  1.5579  1.5371
 1031SOL     OW14725   0.663   0.793   1.913  0.5108 -0.3841 -0.0006
 1031SOL    HW114726   0.677   0.879   1.953  1.6346  0.7298 -2.8053
 1031SOL    HW214727   0.665   0.739   1.992  0.1207  3.6323  2.7403
 1032SOL     OW14728   4.688   2.834   3.030  0.5775  0.4680  0.3213
 1032SOL    HW114729   4.740   2.895   2.978 -0.0966  2.0595  1.4930
 1032SOL    HW214730   0.021   2.787   3.067 -0.0711 -0.3919  0.5415
 1033SOL     OW14731   4.731   2.672   7.470 -0.1193 -0.2892 -0.5453
 1033SOL    HW114732   4.657   2.714   7.425  1.0067  1.2770 -0.9128
 1033SOL    HW214733   0.047   2.747   7.486  0.4547 -1.2934  2.0734
 1034SOL     OW14734   1.313   3.582  13.882  0.8266 -0.1539  0.2448
 1034SOL    HW114735   1.290   3.599  13.973 -0.2456 -1.5393  0.2414
 1034SOL    HW214736   1.237   3.611  13.832 -0.0068 -1.4929  0.7441
 1035SOL     OW14737   4.406   1.208   7.541 -0.5854 -0.2094  0.1519
 1035SOL    HW114738   4.338   1.275   7.547 -1.0186 -0.5252 -1.3819
 1035SOL    HW214739   4.478   1.245   7.592  0.2569 -2.0880  0.3184
 1036SOL     OW14740   4.023   1.567  11.711  0.1440 -0.3189 -0.2358
 1036SOL    HW114741   4.044   1.474  11.717 -3.5906 -1.1340 -0.4194
 1036SOL    HW214742   4.082   1.571  11.636  0.3611 -3.1874 -0.2129
 1037SOL     OW14743   3.823   2.929  17.067  0.7727  0.4074  0.7775
 1037SOL    HW114744   3.756   2.861  17.076 -0.5100  1.6828  0.8170
 1037SOL    HW214745   3.786   2.997  17.124 -0.5812  1.2629 -1.1380
 1038SOL     OW14746   1.734   4.068   9.604  0.2177  0.1746 -0.5496
 1038SOL    HW114747   1.767   4.019   9.680  1.2782  0.7068 -0.6705
 1038SOL    HW214748   1.643   4.037   9.600  0.7543 -1.5263  0.2010
 1039SOL     OW14749   0.559   0.892  12.039 -0.1276  0.0143 -0.0866
 1039SOL    HW114750   0.511   0.922  11.962  0.6683  3.6330  0.8228
 1039SOL    HW214751   0.572   0.799  12.020 -2.3668 -0.6354  1.5940
 1040SOL     OW14752   1.416   1.768   4.705 -0.7076 -0.3149 -0.2007
 1040SOL    HW114753   1.418   1.729   4.618 -0.5055 -1.1388  0.1715
 1040SOL    HW214754   1.399   1.860   4.686  0.8858  0.0168 -0.0179
 1041SOL     OW14755   1.514   3.108   9.802  0.5056 -0.1072 -0.3330
 1041SOL    HW114756   1.439   3.048   9.807  0.1871  0.3924  0.8734
 1041SOL    HW214757   1.511   3.142   9.891  0.4864 -0.8631 -0.0433
 1042SOL     OW14758   4.284   2.860   3.310 -0.3098  0.1680 -0.3483
 1042SOL    HW114759   4.354   2.827   3.366 -0.3131  0.4859 -0.1597
 1042SOL    HW214760   4.339   2.920   3.260  0.0771 -2.0203 -2.5593
 1043SOL     OW14761   3.211   3.199  10.008  0.2568  0.3406 -0.4259
 1043SOL    HW114762   3.263   3.189  10.088  0.6590 -1.8737 -0.9616
 1043SOL    HW214763   3.139   3.142  10.035  2.1506 -2.6254 -1.5530
 1044SOL     OW14764   0.945   2.955  13.193  0.1039  1.2945 -0.0070
 1044SOL    HW114765   0.913   3.026  13.137  0.2135 -0.6255 -2.4940
 1044SOL    HW214766   0.930   2.974  13.286  0.7866 -1.6954  0.7173
 1045SOL     OW14767   3.824   3.363   6.221 -0.3470 -0.2994  0.4841
 1045SOL    HW114768   3.803   3.415   6.143 -0.2166  0.9360  1.2744
 1045SOL    HW214769   3.793   3.276   6.197  0.7663 -0.7356  0.6482
 1046SOL     OW14770   4.584   0.646   3.892 -0.1922 -0.0981 -0.1598
 1046SOL    HW114771   4.520   0.688   3.835 -1.4445 -1.5073  0.2031
 1046SOL    HW214772   4.530   0.585   3.943 -0.9723  0.6632 -0.0741
 1047SOL     OW14773   1.404   3.227  11.404  0.6202 -0.0707  0.8724
 1047SOL    HW114774   1.385   3.143  11.445  2.8891 -1.0136 -0.0077
 1047SOL    HW214775   1.319   3.233  11.361  1.0692  1.4640  0.1954
 1048SOL     OW14776   3.792   3.681   3.435  0.0954 -0.3131 -0.5808
 1048SOL    HW114777   3.813   3.717   3.521 -1.1791 -1.3917  0.1807
 1048SOL    HW214778   3.823   3.750   3.376  1.7094  0.5085  1.2478
 1049SOL     OW14779   1.891   0.897   7.213  0.7551  0.2058  0.3061
 1049SOL    HW114780   1.975   0.926   7.248  2.2785 -2.4839 -1.1432
 1049SOL    HW214781   1.917   0.805   7.206 -0.0143  0.1270 -1.5596
 1050SOL     OW14782   4.444   3.353   4.939 -0.2811  0.5438 -0.8971
 1050SOL    HW114783   4.527   3.357   4.987 -0.7486  0.6327 -0.1089
 1050SOL    HW214784   4.401   3.276   4.975 -0.5745  1.4451  0.6945
 1051SOL     OW14785   0.342   3.193   1.568 -0.0425 -0.4129  0.0886
 1051SOL    HW114786   0.285   3.231   1.635 -0.4798  0.2878 -0.6927
 1051SOL    HW214787   0.290   3.222   1.494 -2.0781 -0.1363  1.6432
 1052SOL     OW14788   3.047   4.199  16.789 -0.2624 -0.3751  0.4690
 1052SOL    HW114789   3.053   4.294  16.797  0.7687 -0.4895  1.0769
 1052SOL    HW214790   3.017   4.193  16.698 -1.7147 -4.7824  1.2451
 1053SOL     OW14791   3.918   0.179   3.084 -0.8229 -0.2752 -0.6671
 1053SOL    HW114792   3.860   0.103   3.084  0.6684 -1.4129 -0.9205
 1053SOL    HW214793   3.874   0.243   3.029 -0.1093  1.3015  0.6041
 1054SOL     OW14794   0.038   3.252   0.887 -0.0726 -0.1224 -0.8566
 1054SOL    HW114795   0.046   3.174   0.832  0.6556 -0.6666  0.0198
 1054SOL    HW214796   4.689   3.241   0.919  0.5377  0.3991  1.0327
 1055SOL     OW14797   4.402   0.551   8.651 -0.0018 -0.1726  0.0758
 1055SOL    HW114798   4.330   0.558   8.589 -0.6206  0.1923  0.8404
 1055SOL    HW214799   4.375   0.614   8.718  0.0036 -0.2842  0.1829
 1056SOL     OW14800   1.371   0.254  13.263 -0.0803  0.1720 -0.3018
 1056SOL    HW114801   1.334   0.284  13.346 -2.0162 -1.5457 -0.5247
 1056SOL    HW214802   1.428   0.327  13.239 -0.4058  0.2028 -1.0184
 1057SOL     OW14803   0.646   4.730   2.966 -0.0471 -0.3611 -0.1536
 1057SOL    HW114804   0.628   4.681   2.886 -1.0937 -1.8054  0.9458
 1057SOL    HW214805   0.576   0.053   2.977 -2.1511 -2.6023 -0.3672
 1058SOL     OW14806   0.521   2.391   9.964 -0.1193 -0.3703 -0.3846
 1058SOL    HW114807   0.554   2.437   9.886 -0.3556 -0.7625 -0.7154
 1058SOL    HW214808   0.578   2.427  10.032  2.1963 -2.1440 -1.3825
 1059SOL     OW14809   1.137   2.796   3.692 -0.7838  0.1212  0.3442
 1059SOL    HW114810   1.197   2.738   3.645 -2.4213 -1.7081  0.5066
 1059SOL    HW214811   1.141   2.772   3.784 -2.0486  1.0982  0.6528
 1060SOL     OW14812   1.377   0.562  10.816 -0.2697  0.4510  0.2650
 1060SOL    HW114813   1.362   0.514  10.735  1.0468 -0.1272  0.3658
 1060SOL    HW214814   1.342   0.496  10.876 -0.0467  1.0259  1.0276
 1061SOL     OW14815   0.104   3.670   7.272 -0.2349 -0.1965 -0.0836
 1061SOL    HW114816   0.099   3.712   7.186  1.4965  0.5413  0.1709
 1061SOL    HW214817   0.013   3.667   7.300  0.1987 -0.5554  1.3130
 1062SOL     OW14818   2.960   1.582   1.136 -0.4999 -0.1175 -0.4623
 1062SOL    HW114819   2.966   1.658   1.193  3.9932  0.9768 -2.3968
 1062SOL    HW214820   2.867   1.566   1.119 -0.7311  0.6081  0.1255
 1063SOL     OW14821   3.767   3.526   2.031  0.1106  0.5132 -0.3627
 1063SOL    HW114822   3.800   3.601   1.982  2.1684  0.0750  0.3447
 1063SOL    HW214823   3.807   3.527   2.117 -0.9835 -1.5060  0.1865
 1064SOL     OW14824   4.436   1.813   4.271  0.2431 -0.8933  0.4174
 1064SOL    HW114825   4.434   1.779   4.361  2.9586  1.8032  1.5068
 1064SOL    HW214826   4.468   1.903   4.277 -1.2765 -0.2903 -0.5655
 1065SOL     OW14827   1.623   4.414   5.276  0.4634  0.2542  0.2362
 1065SOL    HW114828   1.691   4.445   5.216 -1.2087 -1.3415 -2.4622
 1065SOL    HW214829   1.648   4.464   5.354  2.0814 -0.6828  0.3243
 1066SOL     OW14830   0.161   2.861   1.049 -0.0565  0.3960 -0.1458
 1066SOL    HW114831   0.250   2.889   1.028 -0.0337 -1.3245 -2.2402
 1066SOL    HW214832   0.117   2.936   1.008  1.4978  0.5467 -1.4980
 1067SOL     OW14833   1.721   3.539  13.399  0.4071 -0.4390 -0.3910
 1067SOL    HW114834   1.627   3.522  13.386  0.0408 -0.1880  1.9079
 1067SOL    HW214835   1.718   3.579  13.486  1.4974  0.5488 -0.8188
 1068SOL     OW14836   2.742   2.826  10.288  0.3773 -0.7748 -0.1990
 1068SOL    HW114837   2.717   2.883  10.215 -0.0123  1.8329  1.9278
 1068SOL    HW214838   2.780   2.889  10.350  2.6954 -0.9595 -1.4516
 1069SOL     OW14839   3.547   0.683   9.441  0.4332  0.6011 -0.0362
 1069SOL    HW114840   3.529   0.745   9.512  0.8390  0.5579  0.1015
 1069SOL    HW214841   3.604   0.625   9.491  0.0762  1.5256  1.4664
 1070SOL     OW14842   2.301   2.815  12.268  0.3683 -0.1296  0.7160
 1070SOL    HW114843   2.242   2.883  12.301  0.8028  0.1702  0.8636
 1070SOL    HW214844   2.351   2.863  12.202 -2.5056  1.5986 -0.1866
 1071SOL     OW14845   2.678   1.890   6.987 -0.0097  0.0095 -0.3373
 1071SOL    HW114846   2.591   1.853   7.003 -0.1300  0.7431  0.7243
 1071SOL    HW214847   2.718   1.817   6.940 -0.7209 -0.5455 -0.0785
 1072SOL     OW14848   2.882   2.928   0.572  0.7668 -0.1194  0.0419
 1072SOL    HW114849   2.911   2.843   0.538 -0.6814 -0.1108 -1.1961
 1072SOL    HW214850   2.871   2.898   0.663  0.1123 -0.9367 -0.3052
 1073SOL     OW14851   0.521   2.986   2.556 -0.1122  0.2282  0.2120
 1073SOL    HW114852   0.534   2.961   2.465  1.8116 -2.2140  1.1342
 1073SOL    HW214853   0.441   2.934   2.566 -1.6481  2.6511  0.5413
 1074SOL     OW14854   0.701   3.128  16.875 -0.1934 -0.7839  0.4276
 1074SOL    HW114855   0.635   3.081  16.825 -1.7251  0.8736  0.8775
 1074SOL    HW214856   0.698   3.217  16.840  0.3955 -0.7342  0.5153
 1075SOL     OW14857   1.986   3.300  10.403 -0.1464 -0.6401  0.0788
 1075SOL    HW114858   2.045   3.308  10.328 -0.1748 -1.1918 -0.0082
 1075SOL    HW214859   1.990   3.390  10.435  1.0771  0.2347 -2.5493
 1076SOL     OW14860   3.671   2.309   9.350 -0.1220 -0.6154  0.4710
 1076SOL    HW114861   3.681   2.279   9.440 -1.3196 -1.5737  0.2997
 1076SOL    HW214862   3.636   2.398   9.351 -0.4228 -0.7025 -2.6385
 1077SOL     OW14863   2.059   4.566   6.910  0.5232  0.0146 -0.5335
 1077SOL    HW114864   2.054   4.647   6.860  3.2382  0.4839 -0.0890
 1077SOL    HW214865   1.973   4.528   6.892  0.2215  0.2240  0.4448
 1078SOL     OW14866   2.821   4.284   2.524 -0.1412 -0.4748  0.4092
 1078SOL    HW114867   2.744   4.306   2.471  1.4864  0.8917 -1.3868
 1078SOL    HW214868   2.795   4.229   2.597  1.9170 -0.8373  0.8742
 1079SOL     OW14869   4.733   2.769   6.701 -0.5354  0.3604  0.5242
 1079SOL    HW114870   0.064   2.765   6.639  0.8374  1.2850  2.0353
 1079SOL    HW214871   4.718   2.677   6.724  0.5121 -0.0973 -0.6219
 1080SOL     OW14872   3.118   2.606   1.973  0.1979  0.6057  0.3291
 1080SOL    HW114873   3.153   2.690   1.942  0.2469  0.7975  0.9175
 1080SOL    HW214874   3.099   2.635   2.062 -0.1693  0.2349  0.3686
 1081SOL     OW14875   4.491   1.122   4.503 -0.5478  0.2193 -0.1927
 1081SOL    HW114876   4.496   1.129   4.408 -0.9414 -0.3238 -0.2536
 1081SOL    HW214877   4.584   1.137   4.518  0.2885 -2.6387 -2.5965
 1082SOL     OW14878   1.417   3.229   2.212  0.4280  0.6192  0.1324
 1082SOL    HW114879   1.511   3.242   2.195  0.3992  0.8684  0.1554
 1082SOL    HW214880   1.411   3.298   2.279 -0.7329  0.7437 -0.1032
 1083SOL     OW14881   3.191   3.713  15.114  0.2486 -0.4097 -0.4138
 1083SOL    HW114882   3.210   3.661  15.036  1.2746  0.9241 -1.0556
 1083SOL    HW214883   3.167   3.642  15.173 -1.0762  0.0365 -0.4168
 1084SOL     OW14884   2.181   1.849   4.897  0.7372 -0.3674 -0.0122
 1084SOL    HW114885   2.174   1.755   4.917 -1.1172 -0.5228 -1.4541
 1084SOL    HW214886   2.276   1.846   4.910  0.9600 -0.8962 -1.7669
 1085SOL     OW14887   0.717   1.154   7.220  0.3296  0.1126 -0.3034
 1085SOL    HW114888   0.683   1.082   7.272  0.9369 -1.3154 -1.9162
 1085SOL    HW214889   0.696   1.229   7.277 -1.7233 -1.7069  1.3167
 1086SOL     OW14890   0.844   3.930   8.411 -0.6662 -0.3641  0.0560
 1086SOL    HW114891   0.814   4.015   8.444 -0.1584 -0.2121  0.1287
 1086SOL    HW214892   0.836   3.877   8.490 -0.9671  0.3205  0.4960
 1087SOL     OW14893   3.753   1.506   6.727  0.7046  0.2547 -0.6075
 1087SOL    HW114894   3.846   1.499   6.709  1.1345  0.0366  1.6964
 1087SOL    HW214895   3.743   1.426   6.780  2.6874  0.8842  0.6880
 1088SOL     OW14896   4.205   1.255   4.170  0.1761  0.6127 -0.0690
 1088SOL    HW114897   4.254   1.218   4.244 -0.4092 -2.8080 -1.3801
 1088SOL    HW214898   4.251   1.338   4.158  1.5274 -0.1305 -0.1388
 1089SOL     OW14899   3.640   3.189   2.291  0.4341 -1.3549 -0.0243
 1089SOL    HW114900   3.641   3.139   2.373 -1.6278  1.0005  1.4453
 1089SOL    HW214901   3.655   3.276   2.327  4.0814 -1.5954 -0.9861
 1090SOL     OW14902   1.256   0.242   8.929  0.1594  0.2263  0.5790
 1090SOL    HW114903   1.348   0.266   8.930 -0.5728  3.1794 -0.6277
 1090SOL    HW214904   1.261   0.165   8.985  0.7228 -0.7804 -0.8559
 1091SOL     OW14905   2.469   0.527   4.922 -0.1011 -0.0925  0.6010
 1091SOL    HW114906   2.489   0.472   4.997  0.0269 -0.3014  0.4146
 1091SOL    HW214907   2.483   0.613   4.963 -0.9480 -0.8185  2.3716
 1092SOL     OW14908   1.489   0.422   4.808  0.4274 -0.1856  0.2787
 1092SOL    HW114909   1.520   0.338   4.841  0.9293 -0.3407 -0.6026
 1092SOL    HW214910   1.472   0.475   4.886 -1.3590  0.9940 -0.9009
 1093SOL     OW14911   0.060   1.697   9.830  0.6088 -0.1654  0.3734
 1093SOL    HW114912   0.106   1.664   9.753 -0.1957 -0.8570  0.1943
 1093SOL    HW214913   4.715   1.703   9.787  0.5794  0.2768  0.4880
 1094SOL     OW14914   3.671   2.142  10.579  0.2056  0.3904 -0.5150
 1094SOL    HW114915   3.600   2.204  10.597  0.8143  0.7019  0.8344
 1094SOL    HW214916   3.740   2.205  10.560  0.2823  0.9404  1.5956
 1095SOL     OW14917   2.561   0.179  14.518 -0.0291  0.1677  0.1027
 1095SOL    HW114918   2.468   0.161  14.501  0.5139 -2.6049  0.0214
 1095SOL    HW214919   2.601   0.093  14.509  3.6468  1.8837  0.3136
 1096SOL     OW14920   1.762   2.156   8.399 -0.5213 -0.2742  0.3395
 1096SOL    HW114921   1.833   2.179   8.459 -1.8389 -0.7437  2.1076
 1096SOL    HW214922   1.694   2.223   8.412  0.0090  0.5937 -1.4190
 1097SOL     OW14923   0.671   0.308   2.071 -0.3027  0.4444  0.2052
 1097SOL    HW114924   0.586   0.282   2.036 -0.2610  1.9105 -0.9870
 1097SOL    HW214925   0.729   0.291   1.997  1.4942 -1.8635  2.1674
 1098SOL     OW14926   4.191   2.051   6.309  0.2086  0.0613 -0.3022
 1098SOL    HW114927   4.115   2.011   6.266 -0.8642 -0.8095  2.4327
 1098SOL    HW214928   4.269   1.997   6.296 -0.6130 -1.7193  2.1919
 1099SOL     OW14929   0.454   1.880   6.102  0.2223  0.7914  0.4196
 1099SOL    HW114930   0.491   1.807   6.153  1.3877  1.6584  0.8060
 1099SOL    HW214931   0.363   1.858   6.079  0.8058 -2.1947  0.9505
 1100SOL     OW14932   0.994   2.026   4.740 -0.3566 -0.6153 -0.2763
 1100SOL    HW114933   0.921   2.003   4.682 -0.5701  1.7608 -0.9728
 1100SOL    HW214934   0.970   1.961   4.805 -1.6297 -1.0878 -1.2272
 1101SOL     OW14935   3.639   2.022   9.272  0.1348  0.0771 -0.2414
 1101SOL    HW114936   3.654   1.998   9.364 -0.8786 -1.1515 -0.3987
 1101SOL    HW214937   3.632   2.117   9.273  0.8658  0.1266  0.1134
 1102SOL     OW14938   2.948   1.191  16.686  0.7181  0.3351 -0.6778
 1102SOL    HW114939   3.006   1.177  16.612  2.5256  0.1653  0.7559
 1102SOL    HW214940   2.903   1.107  16.688  1.5883 -0.1179  0.3260
 1103SOL     OW14941   1.075   1.280  12.622  0.1232 -0.1409 -0.4294
 1103SOL    HW114942   1.069   1.233  12.538 -0.1608  1.0657 -1.0770
 1103SOL    HW214943   0.996   1.333  12.617 -1.5826 -2.3698  2.8058
 1104SOL     OW14944   0.715   2.241   6.247 -0.3848 -0.1755 -0.1626
 1104SOL    HW114945   0.745   2.199   6.327  3.3037  2.1258 -0.3372
 1104SOL    HW214946   0.694   2.331   6.275  3.1738  0.7219 -0.4228
 1105SOL     OW14947   2.670   3.931   7.982  1.0626  0.5809 -0.2399
 1105SOL    HW114948   2.707   3.897   7.900  0.1185  1.5942 -1.0791
 1105SOL    HW214949   2.637   3.848   8.017  0.7890  0.8063  0.0345
 1106SOL     OW14950   0.109   1.354   7.093  0.3351 -0.2274  0.8607
 1106SOL    HW114951   0.102   1.264   7.127  0.5558 -0.2784  0.7734
 1106SOL    HW214952   0.179   1.384   7.151  0.0999  1.6138  0.1761
 1107SOL     OW14953   2.238   1.250   4.909  0.0896 -0.2557 -0.4793
 1107SOL    HW114954   2.153   1.286   4.886 -0.4909 -1.1784  0.2297
 1107SOL    HW214955   2.287   1.271   4.829 -0.9349  0.7677 -0.8303
 1108SOL     OW14956   2.859   1.457  16.723 -0.2751 -0.0416  0.8481
 1108SOL    HW114957   2.954   1.465  16.733 -0.0721  2.0028 -2.6995
 1108SOL    HW214958   2.843   1.365  16.705 -0.5915  0.4858 -1.5166
 1109SOL     OW14959   1.205   3.971   7.306 -0.0851  0.4180 -0.1933
 1109SOL    HW114960   1.127   3.995   7.257 -0.5012  1.8571  1.1821
 1109SOL    HW214961   1.220   4.041   7.370  0.5479  0.2231 -0.1292
 1110SOL     OW14962   0.960   3.913   2.147 -0.6586  0.0463  0.0367
 1110SOL    HW114963   0.901   3.983   2.121 -1.2629 -0.8794 -1.1063
 1110SOL    HW214964   0.904   3.858   2.201 -0.7386  1.1285  1.0481
 1111SOL     OW14965   0.055   0.973  12.186  0.0543 -0.7269 -0.3093
 1111SOL    HW114966   0.106   0.898  12.216  1.2831  0.0033 -0.5552
 1111SOL    HW214967   0.110   1.051  12.200  2.5172 -2.2235 -1.6995
 1112SOL     OW14968   3.937   3.204  12.049  0.0214  0.5820  0.1385
 1112SOL    HW114969   4.033   3.212  12.049 -0.0250  1.1295 -0.4883
 1112SOL    HW214970   3.905   3.275  11.994 -0.4704  0.9558  0.8942
 1113SOL     OW14971   1.798   2.094   9.275  0.3945  0.5805  0.0792
 1113SOL    HW114972   1.862   2.124   9.341  1.0548  1.0212 -0.7650
 1113SOL    HW214973   1.839   2.015   9.240 -1.6279 -0.4219 -0.0318
 1114SOL     OW14974   1.482   1.370   0.305 -0.4497  0.1573  0.0388
 1114SOL    HW114975   1.441   1.294   0.265 -0.1508 -0.4045  0.7930
 1114SOL    HW214976   1.496   1.331   0.391  2.2701 -0.7303 -0.8159
 1115SOL     OW14977   2.515   2.905   6.989  0.1296 -0.4542  0.3902
 1115SOL    HW114978   2.508   2.929   6.897 -0.4160  1.3832  0.9264
 1115SOL    HW214979   2.445   2.951   7.035 -0.0723  1.2694 -1.6366
 1116SOL     OW14980   3.204   4.037  13.561  0.3591  0.0945  0.0952
 1116SOL    HW114981   3.150   4.047  13.482  0.9040  1.1368 -0.1570
 1116SOL    HW214982   3.142   4.053  13.632 -0.2970  2.1711 -0.9140
 1117SOL     OW14983   0.398   1.400   9.515  0.1158  0.1423  0.4271
 1117SOL    HW114984   0.396   1.492   9.540  0.5673  0.3514 -0.3043
 1117SOL    HW214985   0.480   1.369   9.554 -0.7687 -1.3111  1.1455
 1118SOL     OW14986   4.150   4.422   7.469 -0.2602 -0.3340 -0.3768
 1118SOL    HW114987   4.146   4.504   7.519 -0.1407  0.6414 -1.9885
 1118SOL    HW214988   4.155   4.444   7.376  0.0474  0.6867 -0.1219
 1119SOL     OW14989   3.901   1.407   8.025 -0.8185 -0.6465 -0.0320
 1119SOL    HW114990   3.854   1.485   7.995  0.3802  0.3151  0.5674
 1119SOL    HW214991   3.977   1.433   8.077 -2.8777  3.0455  1.1695
 1120SOL     OW14992   1.908   1.717   3.493 -0.5550  0.0190 -0.1401
 1120SOL    HW114993   1.972   1.681   3.555 -0.3963 -0.0585 -0.3462
 1120SOL    HW214994   1.838   1.652   3.497  0.0182 -0.5692  0.4016
 1121SOL     OW14995   1.873   1.307  15.927  0.1287  0.4585  0.2824
 1121SOL    HW114996   1.830   1.313  15.842  0.8160 -0.3536 -0.1291
 1121SOL    HW214997   1.966   1.328  15.912  0.7264 -2.4801  0.0244
 1122SOL     OW14998   1.279   2.051  10.014 -0.5853 -0.6223  0.1331
 1122SOL    HW114999   1.371   2.069  10.033 -1.0155 -0.1290  1.7869
 1122SOL    HW215000   1.284   1.984   9.946 -0.0879  1.3370 -1.7688
 1123SOL     OW15001   4.337   1.971   5.190 -0.5216  0.2409  0.3658
 1123SOL    HW115002   4.269   1.953   5.126  1.5375  1.0223 -2.0228
 1123SOL    HW215003   4.285   1.988   5.269  0.3502  1.5509  0.6488
 1124SOL     OW15004   2.766   3.180   6.427  0.7155  0.1169  0.1407
 1124SOL    HW115005   2.840   3.164   6.369  0.9229  0.5955  0.2695
 1124SOL    HW215006   2.770   3.097   6.473  1.5964  0.5627  0.8716
 1125SOL     OW15007   1.454   3.202   9.158 -0.1376 -0.1553 -0.1289
 1125SOL    HW115008   1.410   3.238   9.235  1.9684 -2.4830  2.1472
 1125SOL    HW215009   1.472   3.284   9.111 -0.0701 -0.0342  0.1055
 1126SOL     OW15010   1.681   4.431   8.865 -0.5303  0.4588 -0.4011
 1126SOL    HW115011   1.732   4.450   8.786  1.5875 -2.4665  0.2616
 1126SOL    HW215012   1.595   4.468   8.844 -1.1608 -0.5610  0.3879
 1127SOL     OW15013   1.979   4.683  10.076  0.5316 -1.1382  0.3655
 1127SOL    HW115014   1.957   4.694  10.169 -1.9593 -0.1621 -0.3563
 1127SOL    HW215015   2.069   4.655  10.094  0.7120 -0.2983  0.7846
 1128SOL     OW15016   3.764   1.401   2.989  0.1808 -0.3136  0.0123
 1128SOL    HW115017   3.763   1.306   3.004  0.6977 -0.1901  0.7833
 1128SOL    HW215018   3.698   1.425   3.053  0.4553  2.5064 -0.7777
 1129SOL     OW15019   2.384   2.698   6.170 -0.1181 -0.2299  0.0745
 1129SOL    HW115020   2.391   2.654   6.086 -1.1648 -1.7375  0.7694
 1129SOL    HW215021   2.299   2.742   6.161 -1.6128 -3.1900 -0.3678
 1130SOL     OW15022   2.465   1.831   2.345  0.9541  0.1890 -0.7384
 1130SOL    HW115023   2.443   1.792   2.430 -2.2240  0.4438 -1.4262
 1130SOL    HW215024   2.559   1.844   2.353  0.4306  2.0922  2.2380
 1131SOL     OW15025   3.875   3.419   7.597  0.2081  0.0016  0.2385
 1131SOL    HW115026   3.786   3.429   7.563  0.0696 -0.6128  0.4045
 1131SOL    HW215027   3.878   3.505   7.638  1.4845 -0.4748  1.1336
 1132SOL     OW15028   0.184   1.517   1.586 -0.1544  0.2948 -0.4444
 1132SOL    HW115029   0.111   1.568   1.552  0.6357  1.3924 -0.5120
 1132SOL    HW215030   0.251   1.586   1.578 -0.1212  0.1196 -1.7135
 1133SOL     OW15031   3.969   3.718   0.481 -0.0811  0.4708  0.3500
 1133SOL    HW115032   4.001   3.791   0.428 -0.0791 -0.5916 -1.1195
 1133SOL    HW215033   3.965   3.647   0.417  0.9892  2.4063 -1.9037
 1134SOL     OW15034   1.981   1.996   7.480  0.3293 -0.1703  0.4777
 1134SOL    HW115035   1.897   2.042   7.475  1.2450  1.3811 -0.4672
 1134SOL    HW215036   1.954   1.907   7.457  0.9975  0.0937 -1.3025
 1135SOL     OW15037   0.299   0.813   2.811 -0.0466 -0.3111 -0.2139
 1135SOL    HW115038   0.240   0.801   2.737 -1.5964 -0.0442  0.9819
 1135SOL    HW215039   0.320   0.905   2.793 -0.8010  0.1022  1.0433
 1136SOL     OW15040   2.207   1.348  13.942 -0.1837 -0.1096  0.0463
 1136SOL    HW115041   2.116   1.364  13.917  0.3680  0.9509 -1.3130
 1136SOL    HW215042   2.183   1.322  14.031  0.9468  0.7237  0.6019
 1137SOL     OW15043   0.769   1.095   5.646 -0.4475  1.0010 -0.3883
 1137SOL    HW115044   0.780   1.189   5.655  2.8933  0.7916 -2.2666
 1137SOL    HW215045   0.697   1.090   5.584  1.6621  2.3813 -2.9436
 1138SOL     OW15046   4.391   2.138   4.527 -0.2354 -0.7200  0.3632
 1138SOL    HW115047   4.335   2.161   4.452  0.1090  2.3876  1.0345
 1138SOL    HW215048   4.458   2.086   4.484  1.4820  1.4140  0.4653
 1139SOL     OW15049   4.293   0.566  10.136  0.2836  0.4808 -0.8168
 1139SOL    HW115050   4.213   0.546  10.184  1.8186 -0.8056  1.2184
 1139SOL    HW215051   4.302   0.660  10.150  1.1053  0.1181  1.1109
 1140SOL     OW15052   0.154   2.921   5.196 -0.0584  0.4336 -0.0848
 1140SOL    HW115053   0.129   2.884   5.111  0.8207 -2.3956  0.8882
 1140SOL    HW215054   0.239   2.877   5.200  0.0244  0.5453 -0.6148
 1141SOL     OW15055   0.089   4.527  16.838 -0.2035 -0.2002 -0.0468
 1141SOL    HW115056   0.156   4.564  16.897  0.0700  0.9987 -1.1130
 1141SOL    HW215057   0.033   4.486  16.904 -0.9626  0.5100 -0.2563
 1142SOL     OW15058   0.138   0.302   6.926 -0.0140 -0.3690 -0.2269
 1142SOL    HW115059   0.125   0.304   6.831  2.4927  0.8423 -0.5578
 1142SOL    HW215060   0.220   0.252   6.931  0.8751  1.0251 -0.6684
 1143SOL     OW15061   4.148   1.829   4.341  0.1813  0.3513  0.1314
 1143SOL    HW115062   4.232   1.847   4.298  0.9630 -0.8998  1.1643
 1143SOL    HW215063   4.164   1.736   4.358 -0.9114 -0.5316 -3.5072
 1144SOL     OW15064   4.563   3.428   7.617  0.5498  0.2754 -0.1117
 1144SOL    HW115065   4.499   3.464   7.555  1.2077  1.0679 -0.3143
 1144SOL    HW215066   4.546   3.469   7.702  1.4474  0.1569  0.1296
 1145SOL     OW15067   0.563   2.561  16.301  0.7826  0.1770  0.6186
 1145SOL    HW115068   0.623   2.622  16.258 -1.9816  2.0590 -0.5170
 1145SOL    HW215069   0.479   2.576  16.258  1.3983  1.2570 -0.2141
 1146SOL     OW15070   0.836   2.308   1.257  0.0968 -0.4303  0.1112
 1146SOL    HW115071   0.832   2.399   1.287  3.2239 -0.3972  0.4212
 1146SOL    HW215072   0.925   2.300   1.223  0.2398 -0.6867  0.5423
 1147SOL     OW15073   2.148   2.258   2.103  0.3670 -0.4942 -0.1877
 1147SOL    HW115074   2.213   2.219   2.045  2.0008  1.3698  0.3950
 1147SOL    HW215075   2.174   2.221   2.187 -1.1996 -0.4144  0.3363
 1148SOL     OW15076   3.322   2.583   0.963 -0.0003 -0.1928 -0.7561
 1148SOL    HW115077   3.277   2.519   0.908 -0.6435  1.2521 -1.9226
 1148SOL    HW215078   3.301   2.544   1.048  0.3529  1.3135  0.0202
 1149SOL     OW15079   1.926   4.507   3.408 -0.0168 -0.1625  0.0687
 1149SOL    HW115080   1.899   4.562   3.334 -1.8458 -3.0221 -1.3695
 1149SOL    HW215081   1.908   4.565   3.481 -1.3889  0.9348 -1.1363
 1150SOL     OW15082   3.516   0.204   4.769 -0.0835 -0.3220 -0.2762
 1150SOL    HW115083   3.478   0.127   4.811 -0.6606 -0.6780 -1.4366
 1150SOL    HW215084   3.472   0.208   4.683 -1.4373  1.8980  0.5108
 1151SOL     OW15085   3.870   0.542   3.794  0.2711  0.1962  0.0517
 1151SOL    HW115086   3.796   0.579   3.842  1.1855  0.4578  1.2403
 1151SOL    HW215087   3.942   0.561   3.854 -0.5959 -0.2882  1.2594
 1152SOL     OW15088   3.134   4.201   6.905 -0.1578 -0.1448  0.0325
 1152SOL    HW115089   3.058   4.260   6.908  0.9286  1.3699 -1.5357
 1152SOL    HW215090   3.101   4.139   6.840 -0.5825  1.2479 -1.0883
 1153SOL     OW15091   3.775   1.281   8.726  0.7031 -0.0644  0.2165
 1153SOL    HW115092   3.745   1.372   8.723  1.7176  0.3190  1.7330
 1153SOL    HW215093   3.698   1.233   8.695  1.1391 -0.4315 -0.2944
 1154SOL     OW15094   1.191   1.271   4.830 -0.0866 -0.0223  0.3747
 1154SOL    HW115095   1.185   1.178   4.808 -1.3332 -0.1384  1.2113
 1154SOL    HW215096   1.237   1.304   4.752 -0.3078 -2.3582 -0.7509
 1155SOL     OW15097   3.962   2.486  15.489  0.3781 -0.2779  0.2267
 1155SOL    HW115098   4.005   2.523  15.412 -1.0414 -0.4219 -0.6435
 1155SOL    HW215099   3.871   2.476  15.462  0.2908 -0.3810  0.5575
 1156SOL     OW15100   1.820   4.343  10.830 -0.5618 -0.0134 -0.1004
 1156SOL    HW115101   1.878   4.352  10.906 -2.8462  0.8800  1.5437
 1156SOL    HW215102   1.884   4.334  10.759 -2.1540 -1.6548 -1.3446
 1157SOL     OW15103   1.537   3.281   0.420  0.1195  0.5637  0.0180
 1157SOL    HW115104   1.610   3.279   0.483  1.5243  2.3239 -1.5204
 1157SOL    HW215105   1.587   3.280   0.338  0.5055  0.2808  0.2552
 1158SOL     OW15106   0.519   2.752   4.457  0.4995 -0.1259  0.1209
 1158SOL    HW115107   0.554   2.742   4.546  1.9461 -2.0834 -0.6878
 1158SOL    HW215108   0.586   2.812   4.424  0.8741 -0.3213  0.5262
 1159SOL     OW15109   0.713   2.913  14.470  0.0217 -0.1090  0.1690
 1159SOL    HW115110   0.646   2.846  14.456 -1.3977  1.1954  0.7142
 1159SOL    HW215111   0.787   2.871  14.514  0.8519  2.9646  1.6704
 1160SOL     OW15112   1.517   3.521  13.683 -0.3715 -0.0023  0.6138
 1160SOL    HW115113   1.445   3.546  13.741 -0.4461  0.3041  0.3912
 1160SOL    HW215114   1.512   3.426  13.670  1.2938 -0.0935  0.5687
 1161SOL     OW15115   0.086   4.415   8.539 -0.7273 -0.0696 -0.0990
 1161SOL    HW115116   0.168   4.367   8.544  2.1518  4.5821 -3.0541
 1161SOL    HW215117   0.043   4.357   8.602  0.9800 -1.0997  0.0980
 1162SOL     OW15118   1.091   3.522  10.529  0.3400  0.2171 -0.5489
 1162SOL    HW115119   1.027   3.477  10.583 -0.2493  0.3122 -1.1621
 1162SOL    HW215120   1.145   3.576  10.587  1.3683  0.4524 -1.7093
 1163SOL     OW15121   0.922   4.740   4.316  0.3428 -0.5225 -0.9601
 1163SOL    HW115122   0.998   0.046   4.281  0.0708  2.0498  1.9117
 1163SOL    HW215123   0.893   4.699   4.235  1.4386 -1.0088 -1.1161
 1164SOL     OW15124   0.663   2.850   0.777 -0.5782 -0.2038  0.2170
 1164SOL    HW115125   0.663   2.925   0.718 -0.6810  0.5279  1.1473
 1164SOL    HW215126   0.750   2.813   0.759 -0.4839 -0.8202  1.8464
 1165SOL     OW15127   1.627   1.618  13.610  0.1511  0.3969  0.1047
 1165SOL    HW115128   1.570   1.550  13.573  1.6735  0.2665 -1.9694
 1165SOL    HW215129   1.661   1.659  13.531  0.3612 -0.1987 -0.1154
 1166SOL     OW15130   4.392   0.639   5.466 -0.4635 -0.3515 -0.4440
 1166SOL    HW115131   4.374   0.686   5.547 -0.2542 -0.2758 -0.4424
 1166SOL    HW215132   4.360   0.703   5.403 -2.3678 -1.1320 -0.2739
 1167SOL     OW15133   3.006   3.293   7.059 -0.3279  0.1202 -0.1716
 1167SOL    HW115134   2.984   3.201   7.049 -1.4827  0.1471  2.1544
 1167SOL    HW215135   3.029   3.288   7.152 -0.3108  0.0091 -0.1826
 1168SOL     OW15136   2.266   0.590   9.093 -0.4831  0.1346 -0.0133
 1168SOL    HW115137   2.211   0.534   9.038  0.1168 -0.7161  0.2382
 1168SOL    HW215138   2.301   0.537   9.166  2.0532 -0.2380 -1.4907
 1169SOL     OW15139   2.561   2.472  16.559  0.4616 -0.3775 -0.3359
 1169SOL    HW115140   2.532   2.404  16.620 -3.0199  0.5474 -1.0174
 1169SOL    HW215141   2.556   2.426  16.475  2.1046  3.0267 -2.2657
 1170SOL     OW15142   3.781   4.637   4.653 -0.4153 -0.1204  0.1510
 1170SOL    HW115143   3.752   4.701   4.587 -0.3299 -0.1455  0.0902
 1170SOL    HW215144   3.716   4.568   4.639 -0.6395  0.2235 -0.5458
 1171SOL     OW15145   1.549   3.424   8.449 -0.2274  0.2248  0.1886
 1171SOL    HW115146   1.602   3.380   8.515 -0.0556 -0.4479 -0.3957
 1171SOL    HW215147   1.467   3.375   8.462 -0.2013  0.1881  0.2152
 1172SOL     OW15148   1.327   2.105  12.440 -0.5709  0.1242 -0.7951
 1172SOL    HW115149   1.419   2.130  12.433 -0.4995  0.0033 -0.2276
 1172SOL    HW215150   1.337   2.077  12.531  0.6635  1.1178 -0.6237
 1173SOL     OW15151   4.010   3.659   2.697  0.2637  0.8542  0.7187
 1173SOL    HW115152   3.994   3.602   2.773 -0.4869  0.0817 -0.0203
 1173SOL    HW215153   4.104   3.663   2.683 -0.2438 -0.8247 -3.3185
 1174SOL     OW15154   2.905   1.715   6.397  0.2270  0.6433  0.3285
 1174SOL    HW115155   2.829   1.717   6.455  0.5988 -1.1081  0.8812
 1174SOL    HW215156   2.948   1.797   6.420  1.7254  0.4744 -1.8622
 1175SOL     OW15157   2.617   3.422   4.768 -0.0920  0.3224  0.0949
 1175SOL    HW115158   2.525   3.428   4.793 -0.4516 -1.0477 -0.8879
 1175SOL    HW215159   2.660   3.490   4.820 -2.5317  1.9787 -0.0729
 1176SOL     OW15160   1.344   3.169   7.615  0.2637 -0.1420  0.4554
 1176SOL    HW115161   1.328   3.245   7.671  0.3779  1.5324 -1.8139
 1176SOL    HW215162   1.334   3.097   7.678  0.0076 -0.3244  0.2049
 1177SOL     OW15163   3.264   0.216   4.105  0.1358  0.1905  0.3275
 1177SOL    HW115164   3.278   0.149   4.038 -1.7807 -1.1665  1.2441
 1177SOL    HW215165   3.194   0.182   4.162 -0.0564  1.2496  0.7266
 1178SOL     OW15166   4.736   4.662   9.010 -0.0822 -0.7738  0.5786
 1178SOL    HW115167   4.648   4.636   9.038 -0.5714 -0.5928 -0.7753
 1178SOL    HW215168   4.736   0.013   9.037 -0.4913 -0.2539 -1.1875
 1179SOL     OW15169   0.861   1.734   5.316  0.0120  0.0456 -0.1702
 1179SOL    HW115170   0.835   1.724   5.225  1.6320  1.0772 -0.7437
 1179SOL    HW215171   0.775   1.741   5.359  0.8006  0.0892  1.3895
 1180SOL     OW15172   3.996   0.360   4.720  0.8077  0.2827 -0.0268
 1180SOL    HW115173   3.906   0.343   4.692  0.9566 -1.2910  0.4227
 1180SOL    HW215174   4.043   0.322   4.646 -1.0188 -0.8812 -0.6053
 1181SOL     OW15175   4.533   4.663   2.622  0.0563 -0.6988 -0.1805
 1181SOL    HW115176   4.496   0.001   2.660  1.0413 -0.1124 -0.4437
 1181SOL    HW215177   4.593   4.700   2.557  1.2793 -2.1491  0.1163
 1182SOL     OW15178   4.144   2.018   2.410  0.0095  0.1629  0.0407
 1182SOL    HW115179   4.151   1.956   2.338  0.6937 -2.1352  2.0660
 1182SOL    HW215180   4.204   2.082   2.371 -0.9459  1.0258 -0.0251
 1183SOL     OW15181   3.422   2.722   9.267  0.2505  0.2285 -0.0958
 1183SOL    HW115182   3.333   2.743   9.296  0.9178 -0.2026  2.3045
 1183SOL    HW215183   3.440   2.636   9.305  0.0549 -0.3214 -1.2543
 1184SOL     OW15184   2.780   0.248   6.561 -0.4224 -0.2056  0.2485
 1184SOL    HW115185   2.713   0.317   6.570 -0.5056 -0.1641 -0.6724
 1184SOL    HW215186   2.849   0.311   6.539 -1.9430  1.3730 -0.0628
 1185SOL     OW15187   0.869   1.811   8.078  0.4350  0.3088  0.3200
 1185SOL    HW115188   0.943   1.754   8.098  2.2461  2.6539  0.2754
 1185SOL    HW215189   0.905   1.894   8.109 -1.4940  2.0430 -2.1049
 1186SOL     OW15190   0.747   4.735   5.437 -0.0681 -0.4001  0.2402
 1186SOL    HW115191   0.743   4.642   5.461 -1.4859 -0.3736  0.1321
 1186SOL    HW215192   0.669   0.010   5.384  0.1803 -1.9912 -0.6241
 1187SOL     OW15193   2.821   1.908   5.902  0.5868 -0.1671  0.2612
 1187SOL    HW115194   2.839   1.815   5.891  1.3410 -0.0697  0.6437
 1187SOL    HW215195   2.801   1.900   5.995  0.2304 -2.4059 -0.0264
 1188SOL     OW15196   1.326   0.773   4.854 -0.4911  0.7213 -0.3641
 1188SOL    HW115197   1.408   0.786   4.901  1.1483 -2.7327 -2.2755
 1188SOL    HW215198   1.275   0.725   4.919  0.5898  0.7075  0.4725
 1189SOL     OW15199   4.690   2.001   4.577 -0.3369 -0.4255 -0.4018
 1189SOL    HW115200   4.646   1.923   4.609  0.5273 -1.3531 -1.4423
 1189SOL    HW215201   0.024   1.962   4.531 -0.9002 -0.2124 -1.4976
 1190SOL     OW15202   3.941   1.294   4.334  0.0012  0.6399  0.5986
 1190SOL    HW115203   3.901   1.232   4.395 -1.6232  1.4588  0.3718
 1190SOL    HW215204   4.034   1.280   4.354 -0.1464 -2.8086 -1.1205
 1191SOL     OW15205   3.564   4.144  12.480  0.3907  0.7786  0.0931
 1191SOL    HW115206   3.587   4.081  12.548 -0.1121  0.7829  0.2627
 1191SOL    HW215207   3.486   4.183  12.518 -0.2280  0.7317 -1.1287
 1192SOL     OW15208   3.377   0.073   5.018 -0.0774  0.0605  0.3802
 1192SOL    HW115209   3.328   0.028   5.087 -1.0858  0.7811  0.1345
 1192SOL    HW215210   3.331   0.033   4.944 -0.7370 -1.2734  1.5048
 1193SOL     OW15211   2.240   4.443   2.161 -0.6985  0.2931  0.2630
 1193SOL    HW115212   2.324   4.467   2.123 -0.2301  0.6384  1.5219
 1193SOL    HW215213   2.184   4.487   2.097  0.2670  1.3776  0.1790
 1194SOL     OW15214   3.926   2.077   8.323 -0.1692 -0.0530 -0.4877
 1194SOL    HW115215   3.920   2.114   8.234  0.2653  1.7662  0.2285
 1194SOL    HW215216   3.917   1.983   8.306  2.4051 -0.4195  0.2068
 1195SOL     OW15217   4.221   1.875   2.184 -0.0035  0.2296 -0.3352
 1195SOL    HW115218   4.151   1.812   2.169  0.3757 -0.1968 -0.3073
 1195SOL    HW215219   4.238   1.898   2.092 -0.6319  1.4993 -0.1459
 1196SOL     OW15220   0.181   3.533   4.952 -0.1835 -0.1180 -0.3611
 1196SOL    HW115221   0.254   3.582   4.914 -0.3504  0.3339 -0.1024
 1196SOL    HW215222   0.107   3.560   4.897 -1.2428 -1.2715  0.5219
 1197SOL     OW15223   3.846   0.532  16.019  0.4361  0.6355  0.0541
 1197SOL    HW115224   3.774   0.592  16.037 -0.1404 -0.0942  0.1486
 1197SOL    HW215225   3.851   0.544  15.924 -1.9845  1.3026  0.0224
 1198SOL     OW15226   3.307   3.291   0.770 -0.7153 -0.1722 -0.2099
 1198SOL    HW115227   3.322   3.367   0.825 -2.6648 -0.5503  0.8294
 1198SOL    HW215228   3.352   3.310   0.688 -0.6078 -0.3564 -0.1949
 1199SOL     OW15229   3.370   3.441   2.418  0.2521  0.1667 -0.3029
 1199SOL    HW115230   3.442   3.504   2.426  0.1590 -0.0626  2.1764
 1199SOL    HW215231   3.393   3.401   2.334 -0.7389 -0.3520 -0.3262
 1200SOL     OW15232   2.095   3.383   5.434  0.1232  0.0810  0.2637
 1200SOL    HW115233   2.043   3.416   5.508  0.0711 -1.6133  0.9803
 1200SOL    HW215234   2.121   3.471   5.406 -0.3493  0.6494  1.5724
 1201SOL     OW15235   0.602   2.951   4.076 -0.2796  0.2084 -0.4091
 1201SOL    HW115236   0.698   2.949   4.080 -0.2973  0.9798  0.4337
 1201SOL    HW215237   0.576   3.023   4.133 -1.3735 -0.4215 -0.1105
 1202SOL     OW15238   3.725   2.602   6.433  0.1063  0.0797 -0.1056
 1202SOL    HW115239   3.775   2.528   6.467 -2.4291 -2.1218 -1.0782
 1202SOL    HW215240   3.740   2.583   6.340 -0.5889  1.9815 -0.6164
 1203SOL     OW15241   0.872   1.190  10.730  0.3963 -0.0935 -1.0475
 1203SOL    HW115242   0.967   1.187  10.723  0.5108 -0.6291  0.7007
 1203SOL    HW215243   0.860   1.209  10.823 -0.7857  1.8864 -1.5938
 1204SOL     OW15244   4.515   2.194   2.409 -0.1131 -0.2975  0.7532
 1204SOL    HW115245   4.518   2.101   2.389 -1.6555 -0.6551  2.2683
 1204SOL    HW215246   4.421   2.209   2.400  0.5162  2.7831 -0.6951
 1205SOL     OW15247   0.316   1.826  15.633 -0.2705  0.0283  0.5310
 1205SOL    HW115248   0.352   1.909  15.604 -1.2886  0.8024  1.4838
 1205SOL    HW215249   0.349   1.768  15.565 -0.4559 -1.3486  1.6053
 1206SOL     OW15250   0.711   4.714  12.019  0.0377  0.3038  0.1655
 1206SOL    HW115251   0.642   4.692  11.956  0.1068  1.0749 -0.1773
 1206SOL    HW215252   0.734   4.621  12.031  0.5533  0.1503 -2.0225
 1207SOL     OW15253   1.234   2.647  13.789  0.0669 -0.0755 -0.2432
 1207SOL    HW115254   1.187   2.721  13.752  0.8070  1.1707  1.2955
 1207SOL    HW215255   1.314   2.693  13.816  0.3144 -0.0327 -1.0695
 1208SOL     OW15256   3.525   4.230   4.605 -0.1586  0.3080 -1.1232
 1208SOL    HW115257   3.455   4.255   4.545 -0.6924  2.4539  0.3997
 1208SOL    HW215258   3.497   4.262   4.690  1.0508 -2.3144  0.2870
 1209SOL     OW15259   0.416   2.128  11.939 -0.8742 -0.7033 -0.3806
 1209SOL    HW115260   0.321   2.118  11.932 -0.6672 -1.8594 -1.5557
 1209SOL    HW215261   0.449   2.114  11.850  1.0235  0.3981  0.1472
 1210SOL     OW15262   3.921   2.662   4.592  0.8552 -0.2267 -0.0592
 1210SOL    HW115263   3.876   2.704   4.518  0.1668 -0.5846  0.1623
 1210SOL    HW215264   4.003   2.707   4.570  1.4059 -1.6284 -0.8802
 1211SOL     OW15265   4.564   3.648   0.609  0.0488  1.0328  0.0571
 1211SOL    HW115266   4.559   3.579   0.543 -0.3470  0.5698  0.5748
 1211SOL    HW215267   4.604   3.606   0.685 -0.1411  0.0571 -0.3891
 1212SOL     OW15268   4.458   3.056   3.235  0.1810  0.6677 -0.7000
 1212SOL    HW115269   4.430   3.140   3.272  1.2172  0.7051  0.0064
 1212SOL    HW215270   4.435   3.070   3.143  2.3642 -0.3900 -1.4161
 1213SOL     OW15271   0.212   4.560   8.888 -0.3769  0.6407  0.3121
 1213SOL    HW115272   0.136   4.601   8.929  0.8759  0.0254  3.2831
 1213SOL    HW215273   0.262   4.641   8.902  0.6608 -0.2786  1.9099
 1214SOL     OW15274   1.201   2.295   2.570  0.1960  0.4672 -1.0122
 1214SOL    HW115275   1.187   2.237   2.495  1.6194 -1.4943  0.2515
 1214SOL    HW215276   1.207   2.381   2.527 -0.2864 -0.0599 -2.1490
 1215SOL     OW15277   4.186   1.391  17.561 -0.4877 -0.0297  0.0847
 1215SOL    HW115278   4.153   1.411  17.474 -2.6363  2.4047  1.4359
 1215SOL    HW215279   4.134   1.316  17.588 -2.3863  0.6767 -1.6300
 1216SOL     OW15280   1.200   1.048   8.365  0.1796  0.1720  0.8448
 1216SOL    HW115281   1.295   1.061   8.373 -0.0679  1.1644  2.3431
 1216SOL    HW215282   1.207   0.966   8.316 -1.1381 -0.3421  1.5202
 1217SOL     OW15283   1.997   3.203   8.829 -0.1347  0.4200 -0.0675
 1217SOL    HW115284   1.946   3.273   8.789  0.7605  0.2299 -1.5355
 1217SOL    HW215285   1.955   3.132   8.782  0.3247 -1.8212  2.8811
 1218SOL     OW15286   2.147   4.169   2.720 -0.6264  0.5650 -0.1924
 1218SOL    HW115287   2.105   4.083   2.722  1.4107 -0.4342  0.0280
 1218SOL    HW215288   2.066   4.220   2.719 -1.6821 -1.1188 -1.4256
 1219SOL     OW15289   4.405   1.001   2.148  0.4680  0.8897 -0.5587
 1219SOL    HW115290   4.436   0.992   2.238  0.6967  0.8302 -0.6435
 1219SOL    HW215291   4.372   1.090   2.145 -1.6807  0.1814  2.9979
 1220SOL     OW15292   2.955   3.331   4.497  0.4825 -0.4671  0.0372
 1220SOL    HW115293   3.021   3.270   4.464  1.6168  0.2462  0.9871
 1220SOL    HW215294   2.887   3.316   4.432 -0.5025 -0.6845  1.1132
 1221SOL     OW15295   3.389   0.903   5.109 -0.2822 -0.0607 -0.4502
 1221SOL    HW115296   3.432   0.958   5.175  0.9973 -1.0728 -0.4381
 1221SOL    HW215297   3.421   0.816   5.134 -0.4181  0.3530  1.1778
 1222SOL     OW15298   1.794   2.957   6.296  0.4288 -0.1931 -0.3453
 1222SOL    HW115299   1.713   2.934   6.250 -0.0626  3.2188 -1.1373
 1222SOL    HW215300   1.765   3.004   6.374  0.6686 -0.5457 -0.0387
 1223SOL     OW15301   2.351   1.513   3.670 -0.5306  0.6516  0.3642
 1223SOL    HW115302   2.425   1.452   3.668 -1.2369 -0.2332  1.4564
 1223SOL    HW215303   2.290   1.469   3.729 -3.9007  0.9051 -2.9255
 1224SOL     OW15304   1.496   1.423   1.137  0.1168  0.0613  0.0077
 1224SOL    HW115305   1.492   1.358   1.207 -0.8646 -2.1137 -2.0576
 1224SOL    HW215306   1.582   1.399   1.103  0.3597  1.9012 -0.6699
 1225SOL     OW15307   1.598   4.445   2.077  0.5404  0.0495 -0.2019
 1225SOL    HW115308   1.557   4.492   2.150  0.5369 -0.6256  0.2339
 1225SOL    HW215309   1.590   4.508   2.005  0.9441  1.1362  0.7052
 1226SOL     OW15310   4.180   0.457   3.908 -0.3279  0.1830  0.4920
 1226SOL    HW115311   4.229   0.430   3.830  2.4330 -0.0361  2.3105
 1226SOL    HW215312   4.209   0.398   3.977 -1.6973 -0.8352  0.1891
 1227SOL     OW15313   1.709   3.190   1.940  0.8708  0.0916 -0.0823
 1227SOL    HW115314   1.626   3.146   1.960  0.0883  0.3487 -2.7729
 1227SOL    HW215315   1.738   3.203   2.030  1.7607  0.3311 -0.4052
 1228SOL     OW15316   0.202   3.472   2.393  0.7656 -0.3013 -0.0749
 1228SOL    HW115317   0.281   3.528   2.396 -0.0881  1.0213 -1.9838
 1228SOL    HW215318   0.232   3.397   2.444 -0.2365  0.2573  1.3218
 1229SOL     OW15319   4.058   3.931  11.319 -0.1899  0.3217  0.1371
 1229SOL    HW115320   3.972   3.962  11.290 -0.3086 -1.1197 -1.0592
 1229SOL    HW215321   4.030   3.840  11.320  0.4494  0.1090 -1.5433
 1230SOL     OW15322   3.040   0.932   5.622  0.0403 -0.4032 -0.6117
 1230SOL    HW115323   3.093   1.009   5.600  1.3902 -0.7871  1.3720
 1230SOL    HW215324   2.955   0.974   5.630  1.2761  2.2023 -1.0024
 1231SOL     OW15325   3.356   4.028   1.816  0.2827 -0.0088 -0.0006
 1231SOL    HW115326   3.285   4.088   1.840  1.1248  0.1550  2.0570
 1231SOL    HW215327   3.349   3.950   1.871  1.9884  0.4533  0.8588
 1232SOL     OW15328   2.600   4.191   9.343 -0.3749 -0.3021 -0.6926
 1232SOL    HW115329   2.668   4.248   9.308  0.3957 -1.5783 -1.2516
 1232SOL    HW215330   2.528   4.226   9.291  1.0567  0.1885 -2.3125
 1233SOL     OW15331   0.787   3.411  15.439 -0.0613  0.0732 -0.5327
 1233SOL    HW115332   0.812   3.503  15.444 -1.6122  0.4269  1.2953
 1233SOL    HW215333   0.763   3.403  15.347 -0.1790  0.8196 -0.5737
 1234SOL     OW15334   3.078   0.575   8.939 -0.5115 -0.4183  0.1977
 1234SOL    HW115335   3.026   0.500   8.965 -0.7992  0.2175  1.4576
 1234SOL    HW215336   3.169   0.554   8.963 -0.0764 -0.6013 -1.6161
 1235SOL     OW15337   4.625   0.878   8.996  0.2968 -0.4903  0.0082
 1235SOL    HW115338   4.560   0.911   8.933 -0.7994  0.0135  1.4202
 1235SOL    HW215339   4.588   0.912   9.077 -0.6488 -1.0662 -0.1728
 1236SOL     OW15340   4.288   2.006   0.722 -0.0568  0.2236  0.2550
 1236SOL    HW115341   4.302   1.936   0.658  2.2972  0.8699  0.0549
 1236SOL    HW215342   4.221   2.060   0.682 -0.4663 -0.1452  0.4451
 1237SOL     OW15343   0.411   4.266   4.164 -0.3762  0.2095 -0.2626
 1237SOL    HW115344   0.447   4.230   4.245  1.0138  2.2901  0.0547
 1237SOL    HW215345   0.390   4.358   4.179 -0.6902  0.0370  0.3481
 1238SOL     OW15346   2.782   3.859   5.013  0.2051 -0.4049  0.2349
 1238SOL    HW115347   2.765   3.813   5.095  1.4612 -0.3848  0.5112
 1238SOL    HW215348   2.770   3.789   4.949  0.0078  1.3353 -1.6322
 1239SOL     OW15349   4.384   1.049   7.326  0.3600 -0.3062  0.1376
 1239SOL    HW115350   4.345   0.988   7.388 -0.7002  1.1420  0.9088
 1239SOL    HW215351   4.377   1.133   7.373  0.8579 -0.4826  0.5231
 1240SOL     OW15352   0.206   1.374   4.117  0.5623 -0.0204  0.0393
 1240SOL    HW115353   0.271   1.393   4.048  0.7935  0.4893  0.3934
 1240SOL    HW215354   0.247   1.356   4.202  1.5294  0.5449 -0.3099
 1241SOL     OW15355   2.177   2.413   5.654 -0.0282  0.4026  0.3213
 1241SOL    HW115356   2.259   2.364   5.647  0.5240  1.2944  0.5694
 1241SOL    HW215357   2.109   2.346   5.661  0.0592  0.1504 -1.2331
 1242SOL     OW15358   1.721   1.139   0.199 -0.3922 -0.4618  0.1811
 1242SOL    HW115359   1.707   1.065   0.140  0.9550 -0.6184  0.0496
 1242SOL    HW215360   1.712   1.107   0.288  0.7374  0.8038  0.7489
 1243SOL     OW15361   2.543   3.569   3.819 -0.4464  0.7047 -0.0066
 1243SOL    HW115362   2.464   3.519   3.840  0.0678 -0.0253  0.1904
 1243SOL    HW215363   2.597   3.501   3.779 -0.6429  0.2740  0.4610
 1244SOL     OW15364   2.132   0.990   2.251  0.2383 -0.0985 -0.2198
 1244SOL    HW115365   2.134   1.080   2.283 -1.5699 -0.0837 -0.1482
 1244SOL    HW215366   2.145   1.002   2.157 -2.3044  0.3281 -0.5291
 1245SOL     OW15367   3.705   4.203   7.508  0.0479  0.1302 -0.2180
 1245SOL    HW115368   3.679   4.260   7.436  2.0027  0.6095 -0.5440
 1245SOL    HW215369   3.618   4.172   7.533  0.4976 -1.3645 -0.5564
 1246SOL     OW15370   2.326   4.517   5.651 -0.2074 -0.9100 -0.2831
 1246SOL    HW115371   2.413   4.479   5.663  0.7367  1.2567 -0.3037
 1246SOL    HW215372   2.319   4.524   5.556  0.5652 -0.9543 -0.3427
 1247SOL     OW15373   1.957   2.175   5.987  0.0660 -0.6719  0.0216
 1247SOL    HW115374   1.879   2.168   6.042 -1.0707  1.7845 -1.2828
 1247SOL    HW215375   2.013   2.109   6.028  0.6201 -1.4365 -2.0079
 1248SOL     OW15376   4.408   2.798   3.825  0.2010 -0.6809 -0.3431
 1248SOL    HW115377   4.377   2.869   3.881 -1.9950 -1.8587 -0.0844
 1248SOL    HW215378   4.502   2.787   3.838  0.3959  2.8027  1.2256
 1249SOL     OW15379   3.253   4.006  11.250 -0.0255  0.4219 -0.3467
 1249SOL    HW115380   3.290   4.060  11.180 -1.4938  2.9224  0.8264
 1249SOL    HW215381   3.194   4.065  11.298 -1.1733  1.5015 -3.1311
 1250SOL     OW15382   0.832   0.361  13.037 -0.2121  0.0089  0.7472
 1250SOL    HW115383   0.887   0.357  13.115  1.0317 -1.3864 -0.2015
 1250SOL    HW215384   0.870   0.428  12.980  0.2341 -0.4302  0.5274
 1251SOL     OW15385   3.534   1.420  10.937  0.4529  0.0420 -0.5536
 1251SOL    HW115386   3.489   1.360  10.997 -0.3055  0.0003 -1.1723
 1251SOL    HW215387   3.621   1.410  10.975  0.2126 -0.8929 -0.2516
 1252SOL     OW15388   4.117   1.416  15.676 -0.4209  0.2596  0.2732
 1252SOL    HW115389   4.051   1.466  15.629  0.2553  0.8129 -0.0830
 1252SOL    HW215390   4.178   1.410  15.603 -0.2933  0.7637  0.3424
 1253SOL     OW15391   1.094   1.058   0.137  0.2320 -0.2853 -0.3076
 1253SOL    HW115392   1.108   0.964   0.151  1.5022 -0.0049  0.2872
 1253SOL    HW215393   1.105   1.063   0.042 -0.6015 -0.4179 -0.4099
 1254SOL     OW15394   1.953   2.697  11.080 -0.6722 -0.1574  0.1073
 1254SOL    HW115395   1.893   2.637  11.036 -0.7938  0.4659 -0.5767
 1254SOL    HW215396   1.932   2.690  11.173 -1.0532  0.0599  0.0371
 1255SOL     OW15397   0.726   4.734   7.759  0.3729 -0.3845 -0.7948
 1255SOL    HW115398   0.648   4.685   7.787  0.2548 -0.1966 -0.7985
 1255SOL    HW215399   0.809   4.692   7.781 -0.4495 -1.5870  0.0196
 1256SOL     OW15400   0.900   4.435   0.196 -0.6718 -0.6091  0.1219
 1256SOL    HW115401   0.962   4.363   0.196  1.1549  0.9691  3.4419
 1256SOL    HW215402   0.863   4.425   0.284  0.5811 -0.2387  0.6958
 1257SOL     OW15403   4.129   4.155   9.687 -0.1386  0.0084 -0.5190
 1257SOL    HW115404   4.058   4.218   9.674  1.1684  0.9059 -3.3253
 1257SOL    HW215405   4.209   4.207   9.678  0.1104 -0.3956 -0.6343
 1258SOL     OW15406   3.730   3.705   2.738 -0.6908 -0.9734 -0.3161
 1258SOL    HW115407   3.745   3.646   2.811 -0.7078 -1.3206 -0.5925
 1258SOL    HW215408   3.814   3.683   2.697  0.3792  0.6315  1.0084
 1259SOL     OW15409   3.050   1.973   4.987  0.3963  0.1588 -0.0424
 1259SOL    HW115410   3.134   1.957   5.029  1.3554 -2.7743 -3.0981
 1259SOL    HW215411   3.052   2.069   4.983 -0.1610  0.1338 -1.0788
 1260SOL     OW15412   3.990   2.113   8.577 -0.0149 -0.6832 -0.3122
 1260SOL    HW115413   3.968   2.099   8.484 -0.4967 -1.8120 -0.0341
 1260SOL    HW215414   3.955   2.199   8.598  3.3345  0.8036 -0.8083
 1261SOL     OW15415   2.309   3.644  15.963 -0.1571  0.2342  0.3286
 1261SOL    HW115416   2.371   3.670  15.895  0.4824  2.7109  1.8598
 1261SOL    HW215417   2.365   3.658  16.040 -2.1847 -0.7253  1.9806
 1262SOL     OW15418   4.508   4.402  11.147  0.8094  0.3294  0.2746
 1262SOL    HW115419   4.430   4.452  11.123 -0.1038 -0.7239  1.0470
 1262SOL    HW215420   4.565   4.414  11.071  1.0358  0.1998  0.4218
 1263SOL     OW15421   2.307   1.078   2.896  0.1873 -0.0602 -0.3576
 1263SOL    HW115422   2.276   1.051   2.809  1.8751  0.5839 -1.1619
 1263SOL    HW215423   2.383   1.131   2.874 -1.6894  2.4129 -0.8749
 1264SOL     OW15424   4.432   2.484   3.331 -0.1938 -0.2297  0.4387
 1264SOL    HW115425   4.416   2.549   3.262 -0.0513 -1.8995 -1.1631
 1264SOL    HW215426   4.519   2.452   3.308 -1.0165 -1.7809 -0.5601
 1265SOL     OW15427   0.564   3.348   7.478 -0.0830  1.0037  0.1798
 1265SOL    HW115428   0.637   3.301   7.518 -0.2904  0.0799 -0.5431
 1265SOL    HW215429   0.559   3.433   7.521  1.2200  1.7448 -1.1699
 1266SOL     OW15430   3.776   3.066   4.813  0.3424  0.0972  0.0767
 1266SOL    HW115431   3.762   3.054   4.907  1.0397  0.2463  0.2034
 1266SOL    HW215432   3.742   3.152   4.789  1.2599 -0.3177 -2.7062
 1267SOL     OW15433   3.018   0.343   3.451 -0.8694 -0.2167  0.2129
 1267SOL    HW115434   3.078   0.283   3.495 -0.9952  0.7032  1.6472
 1267SOL    HW215435   3.015   0.307   3.363  1.0907  0.1161  0.0135
 1268SOL     OW15436   1.664   1.473  13.214 -0.4849  0.2346  0.2899
 1268SOL    HW115437   1.636   1.388  13.247 -0.7951 -1.2929 -3.8464
 1268SOL    HW215438   1.758   1.458  13.227 -0.5808  0.1950  0.9182
 1269SOL     OW15439   0.648   4.141   3.100 -0.6865  0.4137  0.0113
 1269SOL    HW115440   0.598   4.095   3.032 -1.6873  1.1361  0.2582
 1269SOL    HW215441   0.608   4.228   3.109 -0.4618  0.2516  2.5299
 1270SOL     OW15442   0.190   0.425   4.427 -0.0128  0.2842  0.7801
 1270SOL    HW115443   0.253   0.413   4.498  1.1792 -2.0365 -0.6673
 1270SOL    HW215444   0.210   0.342   4.384  1.9634  1.5526 -0.7284
 1271SOL     OW15445   0.761   1.595   2.915  0.3053 -0.0831  0.1235
 1271SOL    HW115446   0.715   1.678   2.907  0.4918  0.0682  0.6870
 1271SOL    HW215447   0.711   1.542   2.853 -1.2561 -0.2385  1.5191
 1272SOL     OW15448   4.247   0.574  15.784 -0.2010 -0.3891 -0.6156
 1272SOL    HW115449   4.261   0.625  15.863 -0.5585  1.1653 -1.5474
 1272SOL    HW215450   4.337   0.558  15.756  0.2637 -1.1310  1.3407
 1273SOL     OW15451   2.954   1.709  14.607 -0.1029  0.7714 -0.5027
 1273SOL    HW115452   3.014   1.714  14.682 -0.0977 -0.5419 -0.4067
 1273SOL    HW215453   2.994   1.767  14.542  0.1957  2.5154  1.2636
 1274SOL     OW15454   2.601   2.931   7.477  0.6131 -0.4522 -0.2640
 1274SOL    HW115455   2.589   2.856   7.535  0.2810 -0.4193 -0.2893
 1274SOL    HW215456   2.516   2.930   7.433  0.5869  4.3728 -0.4051
 1275SOL     OW15457   3.155   0.505   6.209 -0.0050  0.3653  0.1651
 1275SOL    HW115458   3.228   0.476   6.154  0.2379  0.7341  0.2940
 1275SOL    HW215459   3.080   0.484   6.153 -1.0026  0.9441  1.2832
 1276SOL     OW15460   3.529   0.059  15.272 -0.8449  0.0414  0.3671
 1276SOL    HW115461   3.597   0.076  15.207 -0.3515  1.5386  1.2702
 1276SOL    HW215462   3.456   0.057  15.209 -0.1682  0.1462 -0.4227
 1277SOL     OW15463   4.423   2.401   0.809  0.3210 -0.0493  0.4168
 1277SOL    HW115464   4.337   2.443   0.807  0.1855 -0.3154  0.7500
 1277SOL    HW215465   4.470   2.483   0.795  0.0689 -0.4001 -2.5976
 1278SOL     OW15466   0.193   4.494   7.213 -1.1797  0.5074 -0.3158
 1278SOL    HW115467   0.119   4.527   7.264 -2.7340  0.8124 -2.7570
 1278SOL    HW215468   0.148   4.486   7.129  1.7339 -0.9595 -1.7634
 1279SOL     OW15469   0.270   4.184   7.752  0.2334 -0.2153  0.3651
 1279SOL    HW115470   0.286   4.127   7.676  3.2648 -0.5149  1.2277
 1279SOL    HW215471   0.224   4.257   7.710 -0.1847 -0.5515  0.2325
 1280SOL     OW15472   1.320   1.426   6.706 -0.3818  0.7130  0.0140
 1280SOL    HW115473   1.348   1.468   6.788  0.0910  0.3630  0.0304
 1280SOL    HW215474   1.384   1.358   6.687 -0.5517  0.8025 -0.9052
 1281SOL     OW15475   1.543   2.763  11.582 -0.0707 -0.2054 -0.1112
 1281SOL    HW115476   1.506   2.684  11.542  1.7431  0.4024 -2.9461
 1281SOL    HW215477   1.633   2.734  11.600  0.4631  1.6364  0.1797
 1282SOL     OW15478   1.731   1.579   6.868 -0.6701 -0.0158  0.4738
 1282SOL    HW115479   1.730   1.484   6.880 -0.9685 -0.1072 -0.2751
 1282SOL    HW215480   1.703   1.588   6.777  0.2115 -2.2960 -0.0195
 1283SOL     OW15481   2.685   4.059  16.763 -0.2964 -0.5058 -0.2677
 1283SOL    HW115482   2.755   4.013  16.809 -0.4100 -0.9428 -0.5332
 1283SOL    HW215483   2.606   4.012  16.791 -0.8822  1.1223  0.8490
 1284SOL     OW15484   4.069   3.318  10.837  0.2371  0.0262 -0.5268
 1284SOL    HW115485   3.990   3.367  10.859 -1.0950 -0.5679 -3.9640
 1284SOL    HW215486   4.133   3.385  10.860  1.4052 -1.2333 -0.0614
 1285SOL     OW15487   0.636   0.205   3.659 -0.2082 -0.1365  0.4740
 1285SOL    HW115488   0.587   0.141   3.608 -0.4932 -0.3732  1.0427
 1285SOL    HW215489   0.586   0.202   3.741 -2.5327 -1.2765 -1.0114
 1286SOL     OW15490   4.533   4.702   4.344 -0.2866  0.2784  0.4736
 1286SOL    HW115491   4.501   0.048   4.366 -0.3041  0.5900 -0.7564
 1286SOL    HW215492   4.504   4.693   4.253  1.1345  1.9656 -0.1650
 1287SOL     OW15493   3.683   1.486   8.396  0.3079  0.5037  0.0581
 1287SOL    HW115494   3.644   1.573   8.388 -0.4873  0.2195  0.7726
 1287SOL    HW215495   3.669   1.471   8.490 -0.4398 -0.9771 -0.2874
 1288SOL     OW15496   1.863   4.637  15.659 -0.3147 -0.1518  0.0029
 1288SOL    HW115497   1.883   4.586  15.738 -0.0236 -1.0955 -0.6849
 1288SOL    HW215498   1.869   4.726  15.695  0.1247  0.0972 -0.6825
 1289SOL     OW15499   4.278   2.207  17.539 -0.0179  0.1348  0.1225
 1289SOL    HW115500   4.309   2.204  17.629  1.9850 -1.0623 -0.6173
 1289SOL    HW215501   4.341   2.272  17.508 -2.3552  1.8895 -1.0113
 1290SOL     OW15502   1.369   0.806  11.865 -0.6649 -0.2502 -0.0554
 1290SOL    HW115503   1.310   0.734  11.840 -2.7202  1.3755  0.0722
 1290SOL    HW215504   1.408   0.830  11.781  3.0908 -0.9836  1.5058
 1291SOL     OW15505   3.032   0.201   6.018 -0.6214  0.7836  0.0893
 1291SOL    HW115506   3.005   0.287   5.984  1.2411  0.6133 -1.8521
 1291SOL    HW215507   2.958   0.165   6.065  0.6206 -0.9269  0.7281
 1292SOL     OW15508   3.169   3.356   6.855 -0.1558 -0.0462  0.4133
 1292SOL    HW115509   3.108   3.341   6.927 -0.4302 -0.8694  0.0093
 1292SOL    HW215510   3.097   3.374   6.795  1.7954  1.7941 -1.3396
 1293SOL     OW15511   3.891   2.214  10.264 -0.8080 -0.7691 -0.6973
 1293SOL    HW115512   3.826   2.249  10.324  0.3319  1.6635 -0.9031
 1293SOL    HW215513   3.973   2.216  10.314 -1.4519  0.6002  0.2866
 1294SOL     OW15514   2.808   3.416   6.929  0.4955  0.2111  0.5910
 1294SOL    HW115515   2.735   3.355   6.940 -0.7718  1.5230 -0.5734
 1294SOL    HW215516   2.874   3.372   6.982  1.4370 -0.5906 -1.2373
 1295SOL     OW15517   3.222   3.439   7.283  0.0697  0.1356  0.4672
 1295SOL    HW115518   3.264   3.525   7.281 -0.2543  0.2620 -1.0897
 1295SOL    HW215519   3.290   3.389   7.237  1.7944  0.4337  2.7126
 1296SOL     OW15520   4.441   4.617   5.951  0.0968 -1.0516  0.2901
 1296SOL    HW115521   4.382   4.623   6.027  1.1690  0.5754  0.9989
 1296SOL    HW215522   4.505   4.552   5.979 -1.0179 -2.3234 -0.1501
 1297SOL     OW15523   1.394   1.107  15.400 -0.0558 -0.6873  0.0768
 1297SOL    HW115524   1.391   1.151  15.485 -2.1874 -0.5080 -0.1067
 1297SOL    HW215525   1.356   1.022  15.420 -0.2781 -0.4474  0.6776
 1298SOL     OW15526   4.378   0.913   1.395 -0.0977 -0.0988 -0.2673
 1298SOL    HW115527   4.411   0.979   1.335 -2.9941  0.4724 -1.2417
 1298SOL    HW215528   4.443   0.931   1.462  2.3992 -0.6108 -2.5641
 1299SOL     OW15529   0.739   3.135   2.076  0.2902  0.1773  0.0014
 1299SOL    HW115530   0.666   3.162   2.132  0.7826  2.0796 -0.2915
 1299SOL    HW215531   0.743   3.039   2.080 -0.2992  0.0939 -1.5509
 1300SOL     OW15532   4.477   1.810   3.577  0.1080  0.0820  0.5340
 1300SOL    HW115533   4.382   1.822   3.573  0.2612  1.5554  1.5613
 1300SOL    HW215534   4.482   1.751   3.501  1.8028 -2.6116  2.7095
 1301SOL     OW15535   3.386   1.346   4.805  0.5672 -0.3039 -0.1223
 1301SOL    HW115536   3.481   1.329   4.807  0.4539 -0.6060  3.7492
 1301SOL    HW215537   3.355   1.299   4.882  0.8306 -1.6354 -0.8363
 1302SOL     OW15538   0.783   2.420   4.738 -0.1227  1.0583  0.1537
 1302SOL    HW115539   0.862   2.374   4.708 -0.8221 -0.9795  1.4101
 1302SOL    HW215540   0.826   2.505   4.754 -0.3546  1.4513 -1.3019
 1303SOL     OW15541   3.361   3.131   2.168  0.1494 -0.1076  0.2024
 1303SOL    HW115542   3.450   3.151   2.197 -0.1361  1.2673  0.1172
 1303SOL    HW215543   3.337   3.056   2.222  1.8284 -1.4370 -0.9036
 1304SOL     OW15544   2.582   4.035   0.957  0.1181 -0.2724  0.1014
 1304SOL    HW115545   2.550   4.044   0.867  0.0893 -4.0043 -0.2615
 1304SOL    HW215546   2.640   3.960   0.946 -1.0370 -0.9925 -1.1652
 1305SOL     OW15547   3.333   0.475   4.869 -0.0863  0.3442 -0.4211
 1305SOL    HW115548   3.261   0.537   4.853 -0.5214  0.2046  1.0146
 1305SOL    HW215549   3.370   0.456   4.783 -0.0073 -1.4694  0.0149
 1306SOL     OW15550   0.489   1.552  15.598 -0.2196 -0.0673  0.4208
 1306SOL    HW115551   0.444   1.501  15.531  0.5902 -0.0281 -0.1534
 1306SOL    HW215552   0.562   1.580  15.543 -0.5035  1.7429  0.9505
 1307SOL     OW15553   0.810   0.993   1.518 -0.7725 -0.0788  0.4606
 1307SOL    HW115554   0.826   0.919   1.459  0.6087  1.8802 -1.6347
 1307SOL    HW215555   0.722   0.975   1.549 -0.5624 -1.6431  0.1233
 1308SOL     OW15556   1.840   2.316   0.006  0.0165 -0.0501 -0.7473
 1308SOL    HW115557   1.874   2.244   0.058  0.8113  2.2978  1.9606
 1308SOL    HW215558   1.752   2.330   0.040  0.4619  2.3690 -0.5609
 1309SOL     OW15559   1.966   4.558   9.603  0.3603  0.1472  0.7744
 1309SOL    HW115560   1.949   4.595   9.690  1.5487 -1.1715  1.5629
 1309SOL    HW215561   1.927   4.471   9.609  1.6392 -0.5438 -1.0811
 1310SOL     OW15562   3.485   4.093   7.677 -0.1702  0.2814 -0.2140
 1310SOL    HW115563   3.455   4.015   7.630  1.3739  0.6165 -1.7712
 1310SOL    HW215564   3.549   4.058   7.740 -0.9570 -0.9157 -0.0774
 1311SOL     OW15565   1.976   2.553  12.133 -0.2344  0.0644 -0.4458
 1311SOL    HW115566   1.883   2.561  12.157  0.1193  0.3618  0.8172
 1311SOL    HW215567   2.021   2.560  12.217 -0.7994  1.8273 -0.2932
 1312SOL     OW15568   2.627   2.639   1.897 -0.2352 -0.3327 -0.4938
 1312SOL    HW115569   2.558   2.676   1.842 -0.8355  0.7025  0.9576
 1312SOL    HW215570   2.707   2.681   1.865  1.2522 -1.9777  1.1134
 1313SOL     OW15571   4.690   0.425   7.080 -0.1644  0.1942 -0.5318
 1313SOL    HW115572   4.699   0.408   7.173 -0.2875 -0.0825 -0.5708
 1313SOL    HW215573   0.033   0.395   7.043  1.1500 -0.3762  2.9484
 1314SOL     OW15574   4.479   1.537   7.716 -0.4204  0.1521  0.1484
 1314SOL    HW115575   4.439   1.624   7.717 -2.2103 -0.6693  0.2444
 1314SOL    HW215576   4.464   1.511   7.807 -0.3164 -0.6830 -0.0716
 1315SOL     OW15577   0.404   0.951   5.045  0.2149 -0.8284  1.3117
 1315SOL    HW115578   0.384   0.862   5.017  0.8307 -0.5675  0.0022
 1315SOL    HW215579   0.419   0.988   4.957 -0.4627 -0.2731  1.4280
 1316SOL     OW15580   0.693   3.128   3.779 -0.1832 -0.1223 -0.1684
 1316SOL    HW115581   0.611   3.078   3.787  0.1944 -0.6538  0.4072
 1316SOL    HW215582   0.709   3.151   3.871  1.2909  1.4126 -0.8210
 1317SOL     OW15583   0.780   3.218   5.608 -0.2928  0.8356 -0.5672
 1317SOL    HW115584   0.864   3.192   5.570  1.5252  1.1198  3.2747
 1317SOL    HW215585   0.750   3.255   5.525 -0.7406  1.3760 -0.1587
 1318SOL     OW15586   0.937   4.015   4.210  0.0292 -0.5138 -0.0015
 1318SOL    HW115587   0.993   4.025   4.133  0.7096 -0.6202  0.4847
 1318SOL    HW215588   0.850   4.043   4.181  0.3440  0.2946 -0.1689
 1319SOL     OW15589   2.506   2.885   3.449  0.1772  0.1523 -0.5594
 1319SOL    HW115590   2.600   2.899   3.458 -0.1321  2.4835 -0.9595
 1319SOL    HW215591   2.490   2.814   3.511  1.3978  1.4878  1.2722
 1320SOL     OW15592   1.372   3.514   4.380  0.6323  0.1710 -0.3882
 1320SOL    HW115593   1.389   3.604   4.406 -0.6032  0.3842 -0.3188
 1320SOL    HW215594   1.297   3.532   4.323  0.1697 -1.0177 -0.1572
 1321SOL     OW15595   2.977   3.085   0.359 -0.3696 -0.7344 -0.3823
 1321SOL    HW115596   2.935   3.048   0.437 -1.0534 -0.0237 -0.4153
 1321SOL    HW215597   3.036   3.155   0.387  0.0779 -0.0788 -2.9964
 1322SOL     OW15598   2.656   2.103   7.179 -0.1251  0.0626  0.0345
 1322SOL    HW115599   2.675   2.024   7.127 -0.4805 -0.5057  0.7582
 1322SOL    HW215600   2.643   2.178   7.122 -0.9200  0.6869  1.0427
 1323SOL     OW15601   1.807   1.117   2.198  0.3661  0.7672  0.0736
 1323SOL    HW115602   1.879   1.129   2.260  1.6494  1.5146 -1.5459
 1323SOL    HW215603   1.821   1.179   2.126 -0.9772 -0.7139 -1.4823
 1324SOL     OW15604   3.083   2.591   8.432  0.1966  0.2202  0.0079
 1324SOL    HW115605   2.995   2.601   8.394  0.1662 -1.2192 -0.2839
 1324SOL    HW215606   3.100   2.684   8.448 -1.7238  0.2317  2.0040
 1325SOL     OW15607   1.096   1.403   7.370 -0.4497  0.6482 -0.7159
 1325SOL    HW115608   1.174   1.350   7.379 -1.9359 -1.2513  0.8189
 1325SOL    HW215609   1.099   1.462   7.446 -0.9712  0.4959 -0.5767
 1326SOL     OW15610   3.707   0.185  14.274 -0.2595 -0.0359 -0.6730
 1326SOL    HW115611   3.754   0.209  14.194 -0.3633 -1.2546 -1.1013
 1326SOL    HW215612   3.704   0.090  14.267 -0.2324 -0.1812  1.2983
 1327SOL     OW15613   4.549   4.708   6.750 -0.7932  0.0962  0.0871
 1327SOL    HW115614   4.528   4.671   6.665  1.0162 -0.4018 -0.1513
 1327SOL    HW215615   4.576   0.055   6.724 -0.8002  0.4815  1.3533
 1328SOL     OW15616   1.773   3.586  10.651 -0.3203 -0.3174 -0.4015
 1328SOL    HW115617   1.842   3.587  10.717 -1.8979 -0.9793  1.2509
 1328SOL    HW215618   1.826   3.606  10.573 -1.2285 -0.7182 -1.1250
 1329SOL     OW15619   3.564   0.770   8.231  0.0025 -0.1140 -0.6999
 1329SOL    HW115620   3.563   0.861   8.201 -2.7374 -0.2986 -1.1571
 1329SOL    HW215621   3.478   0.752   8.270  0.9354 -0.5874  1.1345
 1330SOL     OW15622   4.325   4.131   3.646 -0.5500  0.5402 -0.5168
 1330SOL    HW115623   4.316   4.193   3.574 -2.1290  0.4347 -0.3957
 1330SOL    HW215624   4.270   4.157   3.720 -0.0548  0.1342  0.0038
 1331SOL     OW15625   4.620   0.225   6.654  0.5931  0.1784 -0.1213
 1331SOL    HW115626   4.715   0.236   6.646  0.7640  0.9278  3.2256
 1331SOL    HW215627   4.600   0.278   6.731  1.3991 -0.0776  0.2688
 1332SOL     OW15628   0.008   0.016   1.670 -0.0934 -0.3236 -0.5175
 1332SOL    HW115629   0.002   0.020   1.766  3.8905  0.0776 -0.2581
 1332SOL    HW215630   4.733   0.107   1.644  0.6892  0.0712  0.3481
 1333SOL     OW15631   2.295   0.154   5.776  0.4671 -0.2409 -0.0713
 1333SOL    HW115632   2.317   0.182   5.687  2.0515 -1.1309  0.0552
 1333SOL    HW215633   2.376   0.180   5.820  0.6274 -1.5470  0.4054
 1334SOL     OW15634   2.708   3.322   8.460  0.0447 -0.1281  0.3222
 1334SOL    HW115635   2.769   3.393   8.439  0.4068  0.2070  2.4695
 1334SOL    HW215636   2.700   3.278   8.376  0.5582  1.5483 -0.6164
 1335SOL     OW15637   2.449   0.726   8.699 -0.0805 -0.5575 -0.0280
 1335SOL    HW115638   2.445   0.705   8.792 -2.7278 -1.4435 -0.3636
 1335SOL    HW215639   2.359   0.741   8.673 -0.0884 -1.9794 -0.8313
 1336SOL     OW15640   2.067   2.300   8.168  0.0633 -0.5024 -0.3743
 1336SOL    HW115641   2.133   2.368   8.173 -0.8310  0.3875 -0.7807
 1336SOL    HW215642   2.102   2.244   8.099  1.7855 -0.5789  0.5596
 1337SOL     OW15643   1.704   1.398   7.828  0.1498  1.0262 -0.3426
 1337SOL    HW115644   1.708   1.332   7.759 -1.4117 -1.2688  1.7593
 1337SOL    HW215645   1.752   1.468   7.783 -0.0507  0.5785 -1.2600
 1338SOL     OW15646   4.568   4.482  10.842 -0.0846 -0.4873 -0.5547
 1338SOL    HW115647   4.521   4.480  10.759 -2.4290  1.1367  0.7167
 1338SOL    HW215648   4.653   4.453  10.811  0.9966  1.0338  0.9843
 1339SOL     OW15649   3.510   2.623   4.567 -0.2329  0.0258  0.5981
 1339SOL    HW115650   3.593   2.662   4.539 -1.7587  3.0410  0.2540
 1339SOL    HW215651   3.525   2.606   4.660 -0.3070 -1.7068  0.3041
 1340SOL     OW15652   0.153   3.019  16.628  0.6574  0.1472  0.4980
 1340SOL    HW115653   0.134   2.968  16.707  2.2318  0.9384  1.3858
 1340SOL    HW215654   0.168   2.948  16.566 -1.1799 -1.9676  2.4539
 1341SOL     OW15655   1.874   0.046  14.382 -0.3655 -0.5952 -0.3772
 1341SOL    HW115656   1.940   4.725  14.414 -0.0118 -0.2360 -0.4162
 1341SOL    HW215657   1.925   0.105  14.327  2.2427 -1.0922  1.5045
 1342SOL     OW15658   3.027   0.752   3.365 -0.1588  0.2158  0.3010
 1342SOL    HW115659   2.950   0.779   3.315  0.8216 -0.6275 -1.6764
 1342SOL    HW215660   3.042   0.835   3.410  0.5154  0.8831 -1.1853
 1343SOL     OW15661   2.031   3.664   5.675  0.0121  0.0328  0.2051
 1343SOL    HW115662   1.964   3.723   5.640 -1.6055 -3.0673 -1.9120
 1343SOL    HW215663   2.104   3.724   5.657  0.9709 -1.7360 -1.8581
 1344SOL     OW15664   1.295   2.696   7.712  0.1724 -0.1639  0.2798
 1344SOL    HW115665   1.206   2.668   7.689  0.6903  0.3182 -2.2940
 1344SOL    HW215666   1.317   2.642   7.787  0.1689 -0.2506  0.2178
 1345SOL     OW15667   0.875   0.127   9.464  0.1191 -0.5183 -0.2567
 1345SOL    HW115668   0.823   0.072   9.523  1.0955 -0.0930  0.9850
 1345SOL    HW215669   0.810   0.165   9.405 -1.6624 -2.5112  0.4265
 1346SOL     OW15670   3.876   3.992   2.414  0.7179  0.0126 -0.1339
 1346SOL    HW115671   3.863   4.077   2.373  0.6669 -0.3711 -0.9155
 1346SOL    HW215672   3.970   3.980   2.400  0.4608  0.6728 -2.4664
 1347SOL     OW15673   3.124   2.856   7.787 -0.4526  0.2095 -0.0390
 1347SOL    HW115674   3.043   2.821   7.749 -1.1731 -0.4074  2.0808
 1347SOL    HW215675   3.199   2.807   7.756 -0.5244 -0.2365  0.4947
 1348SOL     OW15676   2.168   3.800   8.390  0.5255  0.0311 -0.5502
 1348SOL    HW115677   2.261   3.811   8.373  1.3416 -1.1972  2.9530
 1348SOL    HW215678   2.133   3.774   8.305  0.3349  0.5087 -0.6205
 1349SOL     OW15679   4.542   3.153   1.587  0.3351 -0.1258 -0.1207
 1349SOL    HW115680   4.604   3.100   1.636 -0.2024 -1.4801 -0.9013
 1349SOL    HW215681   4.540   3.229   1.645  1.8130 -0.6634  0.6146
 1350SOL     OW15682   2.834   0.826   7.097 -0.4408 -0.4220  0.2126
 1350SOL    HW115683   2.764   0.888   7.077 -0.7986 -0.4802  1.2480
 1350SOL    HW215684   2.909   0.884   7.086 -2.4527  2.1458 -0.0229
 1351SOL     OW15685   0.784   3.933  12.916  0.2315  0.4194  0.3040
 1351SOL    HW115686   0.756   3.988  12.843 -0.3062 -0.8139 -0.4298
 1351SOL    HW215687   0.873   3.963  12.934 -0.1519  0.8459  1.4345
 1352SOL     OW15688   4.644   0.998  11.019 -0.4904  0.2608 -0.3695
 1352SOL    HW115689   4.663   0.998  11.113 -1.4699  0.7590 -0.1679
 1352SOL    HW215690   4.728   1.004  10.973  0.7343 -0.4647  1.7627
 1353SOL     OW15691   2.308   1.316  17.477 -0.0091 -0.1385  0.2842
 1353SOL    HW115692   2.389   1.327  17.427 -0.9174  0.8403 -0.9660
 1353SOL    HW215693   2.271   1.401  17.451  2.2326  0.3810 -1.2686
 1354SOL     OW15694   3.599   2.214  12.360  0.5402 -0.0735 -0.3491
 1354SOL    HW115695   3.654   2.167  12.296  0.9334 -0.4987  0.3036
 1354SOL    HW215696   3.668   2.209  12.426 -1.6546 -1.4405  1.8112
 1355SOL     OW15697   1.460   0.319   1.989 -0.6415  0.4279  0.0089
 1355SOL    HW115698   1.522   0.247   1.999 -1.4303 -0.0024  1.7911
 1355SOL    HW215699   1.413   0.311   2.072  2.2140 -0.6733  1.4882
 1356SOL     OW15700   0.294   0.656   4.852  0.2854  0.4029  0.2172
 1356SOL    HW115701   0.228   0.680   4.788 -0.6179  1.1941  1.4373
 1356SOL    HW215702   0.373   0.662   4.798 -1.5521 -0.0677 -2.4686
 1357SOL     OW15703   0.808   3.305   8.227  0.2551 -0.1377  0.1707
 1357SOL    HW115704   0.864   3.230   8.244  0.4222 -0.0782 -0.1273
 1357SOL    HW215705   0.747   3.272   8.161  0.9884 -0.4592 -0.3424
 1358SOL     OW15706   3.002   0.861  11.174  0.6805 -0.7299  0.4929
 1358SOL    HW115707   2.970   0.949  11.158 -1.1740 -1.8438 -1.9122
 1358SOL    HW215708   3.041   0.831  11.092 -2.2458 -1.2140 -0.7297
 1359SOL     OW15709   3.493   2.066   5.384  0.1829 -0.4553 -0.4169
 1359SOL    HW115710   3.416   2.011   5.369 -0.3629 -0.9604  4.2559
 1359SOL    HW215711   3.554   2.002   5.345  0.5489 -0.1328 -0.3794
 1360SOL     OW15712   3.368   0.167  12.994  0.1578 -0.3972 -0.4162
 1360SOL    HW115713   3.338   0.257  12.985  1.2473  0.0699  0.4825
 1360SOL    HW215714   3.360   0.134  12.905  2.2933 -0.0414 -0.7567
 1361SOL     OW15715   3.557   3.027   4.588 -0.3754  0.7038 -0.3412
 1361SOL    HW115716   3.465   3.054   4.587 -0.5064  0.2758  0.0220
 1361SOL    HW215717   3.574   3.030   4.682 -1.4804 -0.6810 -0.1018
 1362SOL     OW15718   2.718   4.559   7.517 -0.2995  0.9335  0.2861
 1362SOL    HW115719   2.808   4.569   7.486  0.6819 -0.9555  2.4560
 1362SOL    HW215720   2.719   4.546   7.612  2.5016 -1.2555 -0.0199
 1363SOL     OW15721   4.195   1.973   9.215 -0.6078 -0.6560  0.2089
 1363SOL    HW115722   4.195   1.951   9.308 -2.0276 -0.7496  0.1836
 1363SOL    HW215723   4.245   1.902   9.176  1.2331  0.7834 -0.0197
 1364SOL     OW15724   2.788   0.988   0.809  0.2100 -0.1232  0.1649
 1364SOL    HW115725   2.720   0.957   0.869 -0.6022  1.4072  0.0535
 1364SOL    HW215726   2.753   1.074   0.784 -2.4735 -1.1488  0.3207
 1365SOL     OW15727   2.719   0.111   3.291 -0.3874  0.0067 -0.1958
 1365SOL    HW115728   2.678   0.148   3.369 -1.5082 -2.1538  0.2391
 1365SOL    HW215729   2.766   0.032   3.320  0.2408  0.2048 -0.6884
 1366SOL     OW15730   0.345   3.879   8.493 -0.0589  0.5377 -0.4853
 1366SOL    HW115731   0.298   3.875   8.577  0.8156 -1.9065 -0.1204
 1366SOL    HW215732   0.333   3.971   8.472 -0.9145  0.8095  1.1154
 1367SOL     OW15733   2.351   1.397   0.860  0.2059  0.4584 -0.5402
 1367SOL    HW115734   2.403   1.476   0.842 -0.6853  0.6619 -2.1298
 1367SOL    HW215735   2.295   1.421   0.934  2.1141 -0.1020  1.1029
 1368SOL     OW15736   3.732   2.169  15.132 -0.3212  0.0601  0.0030
 1368SOL    HW115737   3.767   2.251  15.096 -2.0768  1.2337  0.9362
 1368SOL    HW215738   3.776   2.094  15.094 -0.3423 -0.4915  1.0851
 1369SOL     OW15739   0.741   3.620  16.941  0.3516 -0.0420  0.2015
 1369SOL    HW115740   0.724   3.574  17.023 -1.0279  0.5134  0.2377
 1369SOL    HW215741   0.655   3.650  16.910  0.4602  2.4832  2.3702
 1370SOL     OW15742   2.512   2.543   2.587  0.2610  0.1661 -0.7361
 1370SOL    HW115743   2.459   2.619   2.610  0.3020  0.0019 -0.1067
 1370SOL    HW215744   2.517   2.489   2.666  0.1564 -1.7563 -2.0388
 1371SOL     OW15745   2.614   2.092   5.865 -0.0166  0.4165 -0.2966
 1371SOL    HW115746   2.544   2.042   5.823 -0.8264  1.7052 -0.4712
 1371SOL    HW215747   2.686   2.031   5.884  0.9086  1.6344  0.0945
 1372SOL     OW15748   0.316   2.621   5.365  0.4470 -1.1882 -0.4732
 1372SOL    HW115749   0.336   2.593   5.454  0.9823 -2.3380 -0.9584
 1372SOL    HW215750   0.242   2.562   5.352 -2.9109  2.4840  1.6489
 1373SOL     OW15751   0.457   3.158  14.590  0.2439 -0.5307 -0.3024
 1373SOL    HW115752   0.410   3.084  14.552 -2.1310  2.4542 -3.2132
 1373SOL    HW215753   0.525   3.170  14.524  1.3706  0.8230  1.0961
 1374SOL     OW15754   1.597   1.813  15.958  0.1664 -0.6964 -0.3854
 1374SOL    HW115755   1.659   1.858  16.016  1.5466 -3.5676  0.3412
 1374SOL    HW215756   1.519   1.869  15.958  2.2433  2.2008 -0.5591
 1375SOL     OW15757   4.026   1.938  10.798  0.2870 -0.3494  0.4704
 1375SOL    HW115758   3.950   1.880  10.789 -0.8423  1.3331 -0.8354
 1375SOL    HW215759   4.007   2.001  10.728  0.4596 -1.6968 -0.7814
 1376SOL     OW15760   0.908   0.252   6.508  0.1250 -0.4934  0.5339
 1376SOL    HW115761   0.942   0.207   6.585  0.8625 -0.1209  0.4303
 1376SOL    HW215762   0.836   0.192   6.487 -0.1011  0.9365 -2.8287
 1377SOL     OW15763   3.647   1.320   0.976 -0.4691  0.4620 -0.0464
 1377SOL    HW115764   3.713   1.390   0.976 -0.8067  0.7774 -1.0447
 1377SOL    HW215765   3.589   1.358   0.910 -0.7726 -1.9018 -1.1182
 1378SOL     OW15766   0.939   2.949  13.534 -0.0527 -0.4951 -0.1891
 1378SOL    HW115767   0.970   2.909  13.615  1.8290  1.7758  0.2035
 1378SOL    HW215768   1.000   3.021  13.538  0.6365 -1.1375  0.7771
 1379SOL     OW15769   0.651   3.156  14.375 -0.0077 -0.0362  0.0508
 1379SOL    HW115770   0.659   3.065  14.404  1.0868  0.6900  2.0366
 1379SOL    HW215771   0.724   3.176  14.317 -0.2915 -0.8398 -0.5767
 1380SOL     OW15772   3.295   1.753   6.430  0.0486  0.4340 -0.3928
 1380SOL    HW115773   3.344   1.739   6.348  0.0330 -1.2343 -0.1266
 1380SOL    HW215774   3.368   1.723   6.484 -0.6161  1.5449  1.1182
 1381SOL     OW15775   2.932   3.281   3.192 -0.0271 -0.1847 -0.2603
 1381SOL    HW115776   3.011   3.250   3.147  1.2103  1.7020  0.6234
 1381SOL    HW215777   2.894   3.343   3.131  1.0860  0.7791  0.0226
 1382SOL     OW15778   3.719   2.011   3.170  0.1214 -0.0406  0.2512
 1382SOL    HW115779   3.700   2.102   3.189 -2.2684 -0.8054  1.5597
 1382SOL    HW215780   3.811   2.017   3.146  0.2774  0.9192  1.0756
 1383SOL     OW15781   1.731   1.419   5.981  0.2261  0.4893  0.3252
 1383SOL    HW115782   1.646   1.380   5.962  0.5888  0.7687 -1.7960
 1383SOL    HW215783   1.696   1.484   6.043  1.1052  2.7732 -1.5916
 1384SOL     OW15784   2.966   2.735   0.041 -0.3008  0.2490  0.0359
 1384SOL    HW115785   2.895   2.791   0.009 -0.7644  0.2190  1.0127
 1384SOL    HW215786   3.038   2.784   0.003 -0.5657  0.7789  0.2190
 1385SOL     OW15787   1.393   0.841   2.178 -0.5396  0.2402 -0.4137
 1385SOL    HW115788   1.375   0.870   2.089  2.0387  0.1483 -0.9754
 1385SOL    HW215789   1.488   0.826   2.173 -0.6653 -0.9775  0.7906
 1386SOL     OW15790   2.997   0.607   2.645 -0.0149  0.3553 -0.9213
 1386SOL    HW115791   3.032   0.669   2.709 -1.3704 -0.9769  1.1093
 1386SOL    HW215792   3.023   0.519   2.673 -1.3104  0.3902  0.4267
 1387SOL     OW15793   2.552   2.141   1.497 -0.4439  0.7174 -0.0640
 1387SOL    HW115794   2.567   2.196   1.421 -0.4109  1.6079  0.5895
 1387SOL    HW215795   2.526   2.054   1.465 -0.7882  0.3452  1.1844
 1388SOL     OW15796   2.969   3.901   4.160  0.1882  0.0663 -0.2804
 1388SOL    HW115797   2.958   3.827   4.220 -0.6359 -1.1504 -1.9429
 1388SOL    HW215798   3.036   3.874   4.097  2.7660  0.4697  2.2711
 1389SOL     OW15799   0.745   1.171   8.160 -0.3230 -0.1946  0.1696
 1389SOL    HW115800   0.812   1.105   8.147 -1.0100 -1.2594  2.0191
 1389SOL    HW215801   0.786   1.252   8.129  2.2082 -1.3528  0.5158
 1390SOL     OW15802   0.461   1.606  12.344 -0.1672  0.2700  0.0085
 1390SOL    HW115803   0.382   1.648  12.380 -1.6954 -3.9072  1.6062
 1390SOL    HW215804   0.522   1.680  12.344 -0.7158  0.7000 -1.8761
 1391SOL     OW15805   4.740   3.184  14.084 -0.2711 -0.3469 -0.2659
 1391SOL    HW115806   4.704   3.102  14.119 -2.0345  1.2653  1.6197
 1391SOL    HW215807   4.659   3.225  14.054  0.1447 -0.0238 -0.9548
 1392SOL     OW15808   0.711   3.221   1.350 -0.2727 -0.0693 -0.4855
 1392SOL    HW115809   0.799   3.195   1.321 -0.7315 -0.9278 -1.1078
 1392SOL    HW215810   0.737   3.307   1.382  0.3857 -0.4201 -0.0914
 1393SOL     OW15811   3.232   0.721   5.314 -0.2929  0.3721 -0.1184
 1393SOL    HW115812   3.251   0.646   5.258  2.3736  1.1082 -0.1747
 1393SOL    HW215813   3.200   0.686   5.397 -1.2112  0.4315 -0.4413
 1394SOL     OW15814   3.624   0.142  12.786 -0.0075 -0.5874 -0.0899
 1394SOL    HW115815   3.612   0.235  12.808  2.1091 -0.0481 -1.1531
 1394SOL    HW215816   3.537   0.125  12.750 -0.2532  1.2318 -0.3469
 1395SOL     OW15817   4.500   3.549   2.112 -0.0634  0.0256 -0.2954
 1395SOL    HW115818   4.411   3.583   2.101  0.7521  1.8533 -1.1692
 1395SOL    HW215819   4.495   3.488   2.186 -0.9538  0.4624  0.0074
 1396SOL     OW15820   3.939   2.160   7.734  0.0635 -0.2978  0.0075
 1396SOL    HW115821   3.925   2.099   7.807  1.4143  0.9318  1.3056
 1396SOL    HW215822   4.030   2.186   7.750 -0.6118  2.3238 -0.4075
 1397SOL     OW15823   2.415   2.274   5.417  0.3521  0.3313  0.3022
 1397SOL    HW115824   2.321   2.272   5.397 -0.1801  1.4841  2.6316
 1397SOL    HW215825   2.442   2.345   5.359 -0.0192 -2.2074 -2.9535
 1398SOL     OW15826   4.018   2.614   5.935 -0.0884  0.2217  1.2551
 1398SOL    HW115827   4.082   2.685   5.934  1.1648 -0.9443 -1.8960
 1398SOL    HW215828   4.044   2.584   6.022 -0.3660  0.0859  1.2926
 1399SOL     OW15829   4.032   1.119   5.046 -0.1223  0.2055  0.4137
 1399SOL    HW115830   3.947   1.086   5.076  0.4658 -2.0274 -0.3771
 1399SOL    HW215831   4.010   1.211   5.033 -1.1032 -0.1326 -0.3388
 1400SOL     OW15832   0.637   3.169  10.626  0.3357  0.2224 -0.2677
 1400SOL    HW115833   0.550   3.209  10.619  0.3899  0.4437  0.3689
 1400SOL    HW215834   0.611   3.084  10.662 -0.7420  0.3769 -0.6574
 1401SOL     OW15835   4.006   1.552   2.912  0.2022  0.1242 -0.0657
 1401SOL    HW115836   3.938   1.528   2.975  0.9312  0.8897  0.9971
 1401SOL    HW215837   4.086   1.511   2.944 -0.6562 -1.3863  0.1624
 1402SOL     OW15838   3.281   4.737  13.203  0.3118  0.3288  0.0673
 1402SOL    HW115839   3.323   0.050  13.136  0.1982  0.0147 -0.2542
 1402SOL    HW215840   3.319   4.654  13.175  1.7688  0.6977  0.9514
 1403SOL     OW15841   1.595   1.963   4.937  0.1366 -0.5657 -0.4588
 1403SOL    HW115842   1.503   1.990   4.928  0.5940  1.2500  0.4074
 1403SOL    HW215843   1.593   1.919   5.023  1.1720  1.9817  0.8563
 1404SOL     OW15844   2.363   4.560   8.782 -0.1483  0.0550  0.1415
 1404SOL    HW115845   2.297   4.596   8.722 -1.7128 -0.0192  1.8166
 1404SOL    HW215846   2.432   4.536   8.720 -0.1673 -0.8139  0.4604
 1405SOL     OW15847   1.720   2.502  11.048 -0.1291  0.4363  0.0690
 1405SOL    HW115848   1.740   2.415  11.012  0.1622 -0.4641  2.4373
 1405SOL    HW215849   1.703   2.481  11.140 -0.2900  0.8513  0.1343
 1406SOL     OW15850   3.694   4.030   8.566 -0.5687 -0.0972 -0.2011
 1406SOL    HW115851   3.608   4.056   8.534 -0.1466  0.4365 -0.9148
 1406SOL    HW215852   3.687   4.025   8.661  1.3153 -2.5938 -0.2053
 1407SOL     OW15853   2.123   0.068   1.441 -0.1406 -0.3706 -0.0180
 1407SOL    HW115854   2.100   0.083   1.533 -3.4122  0.8248 -1.0289
 1407SOL    HW215855   2.034   0.082   1.408 -0.4110  1.6178  1.5474
 1408SOL     OW15856   4.602   3.750   6.892 -0.0342  0.1983  0.5577
 1408SOL    HW115857   4.607   3.749   6.796 -1.6658  2.4483  0.4517
 1408SOL    HW215858   4.508   3.741   6.906  0.2852 -1.4848  1.6388
 1409SOL     OW15859   1.126   3.135   5.950  0.0488  0.3382  0.1091
 1409SOL    HW115860   1.109   3.152   5.857 -0.7595 -3.0476 -0.3438
 1409SOL    HW215861   1.169   3.050   5.952 -1.1059 -0.2474  0.0462
 1410SOL     OW15862   1.953   3.470   6.048 -0.8467  0.5438 -0.6996
 1410SOL    HW115863   2.016   3.401   6.071 -0.7395  0.4739 -1.1898
 1410SOL    HW215864   1.896   3.459   6.124 -1.9120 -0.8880 -1.7073
 1411SOL     OW15865   4.211   2.130   1.664 -0.5112  0.7509 -0.1068
 1411SOL    HW115866   4.195   2.085   1.581  0.6235 -1.1178  0.6995
 1411SOL    HW215867   4.237   2.213   1.624 -1.4275  1.7569  1.3918
 1412SOL     OW15868   0.587   0.329   0.655 -0.2360  0.2413  0.6270
 1412SOL    HW115869   0.647   0.400   0.678  0.7033 -0.8894  1.6109
 1412SOL    HW215870   0.600   0.263   0.723  1.0836  0.0117  0.1543
 1413SOL     OW15871   4.450   2.848  14.974  0.5484 -0.0942  0.0568
 1413SOL    HW115872   4.420   2.837  14.883 -0.8010 -1.2936  0.6589
 1413SOL    HW215873   4.461   2.755  14.995 -1.1610  0.2113  2.2406
 1414SOL     OW15874   3.457   0.373   8.488  0.1947 -0.5346 -0.1658
 1414SOL    HW115875   3.395   0.361   8.416  0.1330  0.4382 -0.2694
 1414SOL    HW215876   3.508   0.449   8.461 -0.7855  0.4100  0.6772
 1415SOL     OW15877   2.743   1.029   1.893  0.3357 -0.1443  0.6815
 1415SOL    HW115878   2.827   0.987   1.911 -0.3952 -2.6528 -1.8086
 1415SOL    HW215879   2.778   1.118   1.894  0.7664 -0.3046  0.0756
 1416SOL     OW15880   1.075   3.148   0.439 -0.1398  0.3197 -0.5354
 1416SOL    HW115881   1.007   3.188   0.384  0.4592  2.4847  0.2890
 1416SOL    HW215882   1.153   3.193   0.405  0.5289  0.4269  1.1658
 1417SOL     OW15883   1.333   1.283  13.782  0.5693 -0.5993 -0.4749
 1417SOL    HW115884   1.305   1.297  13.692  1.1319 -0.3654 -0.6143
 1417SOL    HW215885   1.255   1.301  13.835  0.0596 -2.6730 -0.5277
 1418SOL     OW15886   1.502   1.475  14.827  0.3539  0.4984  0.1309
 1418SOL    HW115887   1.574   1.415  14.807 -0.4870  0.1323 -1.8175
 1418SOL    HW215888   1.438   1.441  14.764 -1.4931 -1.4559  3.0532
 1419SOL     OW15889   3.218   4.239   9.089 -0.3405 -0.0928 -0.1450
 1419SOL    HW115890   3.172   4.175   9.036 -0.1988 -0.1037 -0.2573
 1419SOL    HW215891   3.283   4.180   9.128 -1.5727 -0.5036  1.2627
 1420SOL     OW15892   4.343   1.612   2.544 -0.0816  0.5839  0.6834
 1420SOL    HW115893   4.307   1.523   2.552 -1.2424  1.0574  0.7467
 1420SOL    HW215894   4.429   1.593   2.507 -0.3005  0.0814  0.4313
 1421SOL     OW15895   3.168   2.834   4.878  0.0605 -0.4909  0.1149
 1421SOL    HW115896   3.151   2.830   4.784 -0.0538  0.0212  0.1147
 1421SOL    HW215897   3.249   2.882   4.892 -0.1613 -0.2479  0.5562
 1422SOL     OW15898   1.317   1.957  12.668  0.2378 -0.4389  0.5571
 1422SOL    HW115899   1.353   1.965  12.756 -0.1630  0.0879  0.6801
 1422SOL    HW215900   1.225   1.935  12.687 -0.3180 -0.4775 -2.1344
 1423SOL     OW15901   4.480   1.234  10.372 -0.4336 -0.1113  0.2172
 1423SOL    HW115902   4.401   1.283  10.393 -0.3432  0.1231  0.0169
 1423SOL    HW215903   4.556   1.284  10.401  0.0510 -1.0935  0.6235
 1424SOL     OW15904   3.282   1.199   3.615 -0.3217 -0.4577  0.3700
 1424SOL    HW115905   3.273   1.112   3.577 -3.3766 -0.1552  0.4155
 1424SOL    HW215906   3.247   1.253   3.544  0.4024 -1.8833 -1.0677
 1425SOL     OW15907   0.045   4.377   5.138 -0.0043 -0.1141 -0.8250
 1425SOL    HW115908   4.734   4.456   5.120 -2.7715 -1.8345 -0.2453
 1425SOL    HW215909   0.018   4.356   5.227  0.2355  1.5515 -0.3438
 1426SOL     OW15910   2.274   3.543   9.175 -0.6004  0.0290  0.0868
 1426SOL    HW115911   2.299   3.628   9.139 -0.6043 -0.6103 -1.4112
 1426SOL    HW215912   2.180   3.537   9.161 -0.2954 -0.9468 -1.5519
 1427SOL     OW15913   3.081   3.853   9.876 -0.1358  0.4780 -0.6622
 1427SOL    HW115914   3.072   3.929   9.819 -0.6700 -1.2695 -2.9212
 1427SOL    HW215915   3.120   3.900   9.950 -1.9002 -2.0011  1.9049
 1428SOL     OW15916   0.072   2.874   2.373  0.7374  0.1681  0.5855
 1428SOL    HW115917   0.139   2.812   2.343 -0.0788 -0.3941 -0.1092
 1428SOL    HW215918   0.002   2.849   2.311  0.4824  1.1676  0.4793
 1429SOL     OW15919   4.433   1.000   8.841  0.2656  0.7210 -0.2816
 1429SOL    HW115920   4.430   0.988   8.746  2.0298  0.5335 -0.3070
 1429SOL    HW215921   4.343   0.971   8.858  0.0392 -0.0019 -2.6326
 1430SOL     OW15922   1.931   4.474   8.717  0.7827 -0.1206 -0.4091
 1430SOL    HW115923   1.939   4.392   8.668 -1.6277 -0.2440 -0.5543
 1430SOL    HW215924   1.987   4.463   8.795  0.8572 -0.1422 -0.4660
 1431SOL     OW15925   0.077   4.458   3.988 -0.5515  0.4379 -0.7894
 1431SOL    HW115926   0.135   4.492   3.920  1.0819 -1.2484 -0.2512
 1431SOL    HW215927   0.086   4.365   3.967  0.1703  0.6224 -1.3095
 1432SOL     OW15928   4.227   2.662  13.910 -0.0946 -0.1808  0.9232
 1432SOL    HW115929   4.147   2.696  13.870  0.1737 -1.1375 -0.4211
 1432SOL    HW215930   4.295   2.687  13.848  1.0613 -1.5895  1.6248
 1433SOL     OW15931   0.949   1.156   3.517 -0.1318 -0.2274 -0.3084
 1433SOL    HW115932   0.918   1.223   3.457  1.3513 -1.1375 -2.0639
 1433SOL    HW215933   1.043   1.170   3.525  0.2261 -3.7409  1.8799
 1434SOL     OW15934   3.206   1.828   6.904  0.4627  0.2603  0.0373
 1434SOL    HW115935   3.134   1.889   6.921 -1.6424 -1.7873 -1.4778
 1434SOL    HW215936   3.277   1.872   6.951 -0.1201 -0.6553  1.7845
 1435SOL     OW15937   2.836   4.310   7.161  0.0802  0.6123 -0.2322
 1435SOL    HW115938   2.762   4.370   7.163  0.0793  0.6026 -0.0142
 1435SOL    HW215939   2.873   4.345   7.080 -0.9989  0.4938 -0.7725
 1436SOL     OW15940   3.999   2.350  16.869  0.1209 -0.5144 -0.5032
 1436SOL    HW115941   3.977   2.340  16.776 -2.0851  1.6148 -0.2179
 1436SOL    HW215942   3.936   2.418  16.894  1.0701  0.7410 -1.5621
 1437SOL     OW15943   1.613   4.016   7.831 -0.3923  0.4129  0.1942
 1437SOL    HW115944   1.524   4.019   7.797  0.4926 -0.4187 -2.1433
 1437SOL    HW215945   1.606   4.071   7.910 -0.6904  0.8764 -0.1566
 1438SOL     OW15946   3.156   1.134   6.286  0.0573  0.5127  0.2720
 1438SOL    HW115947   3.222   1.200   6.266 -0.1168  1.3892  2.5374
 1438SOL    HW215948   3.111   1.115   6.204  0.2294  1.1209  0.0378
 1439SOL     OW15949   2.080   0.120   9.543  0.7563 -0.0031 -0.1436
 1439SOL    HW115950   2.057   0.028   9.555  0.9934  0.4230  3.4342
 1439SOL    HW215951   2.173   0.107   9.528  0.9017 -0.3267  1.1140
 1440SOL     OW15952   2.506   1.257   9.439  0.1833 -0.1160  0.4402
 1440SOL    HW115953   2.580   1.233   9.383 -1.3210  0.7612 -1.8720
 1440SOL    HW215954   2.540   1.330   9.492 -2.5678  0.2213  1.7341
 1441SOL     OW15955   4.088   0.756   5.489 -0.1151 -0.1040 -0.2924
 1441SOL    HW115956   3.999   0.791   5.497  0.9520  2.5708  0.0404
 1441SOL    HW215957   4.132   0.819   5.546  1.3092  0.6937 -2.2872
 1442SOL     OW15958   3.576   1.921  10.444 -0.6036 -0.2043  0.1846
 1442SOL    HW115959   3.500   1.956  10.398  1.1354 -0.0035 -2.5645
 1442SOL    HW215960   3.614   2.001  10.480  2.7975 -0.7202 -2.2741
 1443SOL     OW15961   3.662   2.345  17.121  0.1773  0.5727 -0.1193
 1443SOL    HW115962   3.739   2.292  17.100 -0.4682  0.3326 -1.8566
 1443SOL    HW215963   3.594   2.313  17.061 -0.2254 -0.6969  1.0237
 1444SOL     OW15964   2.352   2.217   6.864  0.0116 -0.2060  0.0691
 1444SOL    HW115965   2.345   2.132   6.821 -2.8068  0.1062 -0.0488
 1444SOL    HW215966   2.319   2.199   6.952 -1.3676  0.8573 -0.2278
 1445SOL     OW15967   1.962   4.553  15.349  0.4368 -0.6199 -0.0042
 1445SOL    HW115968   2.004   4.468  15.346  0.8314 -0.5871  4.7256
 1445SOL    HW215969   2.011   4.607  15.411 -1.2497 -1.3972  1.9879
 1446SOL     OW15970   2.541   4.128   5.591 -0.0695 -0.1094  0.3942
 1446SOL    HW115971   2.599   4.085   5.654  0.9240 -1.1760 -1.2331
 1446SOL    HW215972   2.510   4.051   5.543  0.3906  0.7205 -1.2215
 1447SOL     OW15973   3.039   4.247  15.720 -0.1690 -0.0289  0.1648
 1447SOL    HW115974   3.099   4.173  15.726 -1.7949 -1.3948 -0.2591
 1447SOL    HW215975   3.012   4.232  15.629 -0.7692  0.9276  0.1877
 1448SOL     OW15976   1.649   0.633   5.122 -0.4316  0.3071  0.0865
 1448SOL    HW115977   1.680   0.606   5.208 -0.3533 -2.5941 -0.8254
 1448SOL    HW215978   1.555   0.615   5.131 -0.3375  0.7260  1.8271
 1449SOL     OW15979   1.343   4.039   6.790 -0.3296 -0.1783 -0.3774
 1449SOL    HW115980   1.316   4.060   6.879 -0.0852 -3.3386  0.4392
 1449SOL    HW215981   1.419   4.096   6.779 -0.3056 -0.1694 -0.1607
 1450SOL     OW15982   0.812   4.202  12.820  0.0888 -0.2809  0.4242
 1450SOL    HW115983   0.750   4.242  12.879 -0.6014 -0.9216  0.1311
 1450SOL    HW215984   0.883   4.191  12.883  0.5622  0.0887 -0.0384
 1451SOL     OW15985   0.526   4.153   4.363  0.0758  0.5373 -0.3325
 1451SOL    HW115986   0.502   4.074   4.410 -1.1553 -0.2328 -2.2414
 1451SOL    HW215987   0.576   4.200   4.430  0.2767  2.1251 -1.5828
 1452SOL     OW15988   4.319   3.333   7.787  0.4784  0.4907 -0.6486
 1452SOL    HW115989   4.273   3.415   7.770 -1.2094 -0.0981  1.1655
 1452SOL    HW215990   4.401   3.352   7.741  0.9434  0.4377  0.1587
 1453SOL     OW15991   2.245   2.950   8.867  0.2165 -0.0134  0.3384
 1453SOL    HW115992   2.170   2.938   8.809 -1.5501  1.0813  2.4184
 1453SOL    HW215993   2.222   2.891   8.938 -0.5916  1.0770  0.9870
 1454SOL     OW15994   3.570   0.571  15.634 -0.1295  0.3539  0.0051
 1454SOL    HW115995   3.523   0.648  15.603 -0.0627  0.2202 -0.4287
 1454SOL    HW215996   3.649   0.608  15.674  0.8525 -2.7204  0.8867
 1455SOL     OW15997   0.913   2.046   8.234  0.7040 -0.7017 -0.2077
 1455SOL    HW115998   0.827   2.081   8.256  1.4760  0.2050  1.3364
 1455SOL    HW215999   0.961   2.069   8.314  0.1486 -0.1303 -0.0476
 1456SOL     OW16000   0.497   0.194   2.398 -0.3614 -0.4690 -0.2744
 1456SOL    HW116001   0.442   0.145   2.336 -0.0949  0.3793 -1.1832
 1456SOL    HW216002   0.579   0.146   2.389 -0.4047 -1.1213  2.6697
 1457SOL     OW16003   4.473   0.441   2.090  0.2305 -0.5718 -0.3751
 1457SOL    HW116004   4.545   0.472   2.036  0.0462  1.6982  0.6974
 1457SOL    HW216005   4.402   0.492   2.051 -0.3530 -0.9102  0.2440
 1458SOL     OW16006   1.164   1.392   5.724  0.5499  0.2808  0.5090
 1458SOL    HW116007   1.224   1.357   5.659 -1.0994  1.2170 -1.5027
 1458SOL    HW216008   1.177   1.319   5.784  1.1732 -0.0256  0.0020
 1459SOL     OW16009   2.685   0.783   5.254  0.0657 -0.1001  0.1481
 1459SOL    HW116010   2.731   0.864   5.276  2.3245 -1.4192  0.3169
 1459SOL    HW216011   2.630   0.777   5.331 -1.0234 -2.1221 -0.7965
 1460SOL     OW16012   2.766   0.806   7.915 -0.3324 -0.4360 -0.1222
 1460SOL    HW116013   2.747   0.759   7.834  3.4606  0.2010 -1.3929
 1460SOL    HW216014   2.781   0.737   7.979  0.9994  1.4988  1.6627
 1461SOL     OW16015   0.083   2.970   2.056  0.0750  0.0424 -0.2614
 1461SOL    HW116016   0.081   2.879   2.028 -0.9495 -0.6654  2.0197
 1461SOL    HW216017   0.035   3.015   1.987 -2.2227 -0.8421  0.7158
 1462SOL     OW16018   3.574   2.903   9.553 -0.4019 -0.2953 -0.2591
 1462SOL    HW116019   3.539   2.834   9.610 -1.3418 -1.1168 -1.8055
 1462SOL    HW216020   3.494   2.920   9.503  0.8688 -1.2856 -2.6122
 1463SOL     OW16021   1.401   2.521  13.358  0.2428 -0.0222 -0.2516
 1463SOL    HW116022   1.380   2.487  13.271 -1.2988 -0.2462  0.2085
 1463SOL    HW216023   1.417   2.437  13.401 -1.0436 -0.4049 -0.5248
 1464SOL     OW16024   0.482   0.026   1.726  0.0092 -0.1646  0.2460
 1464SOL    HW116025   0.573   0.055   1.718  0.2495 -0.8402  0.5336
 1464SOL    HW216026   0.486   4.675   1.754  0.8325 -0.5653 -1.2167
 1465SOL     OW16027   1.648   3.545   4.701 -0.6580 -0.0038 -0.0462
 1465SOL    HW116028   1.580   3.486   4.734  0.2126 -0.1463  1.4788
 1465SOL    HW216029   1.717   3.509   4.756 -0.5444 -1.1889 -0.9646
 1466SOL     OW16030   3.009   2.433   7.580  0.3993 -0.0185 -0.4155
 1466SOL    HW116031   2.943   2.502   7.568  0.4957  0.8105  4.0685
 1466SOL    HW216032   3.091   2.482   7.588  0.4694  0.2627 -2.6420
 1467SOL     OW16033   3.268   0.583   9.491  0.2165 -0.0354 -0.0606
 1467SOL    HW116034   3.288   0.497   9.454  0.6082  0.2980 -0.6328
 1467SOL    HW216035   3.334   0.631   9.441  0.0390  0.7986  0.5061
 1468SOL     OW16036   4.114   0.589  11.627 -0.1710 -0.9209 -0.1728
 1468SOL    HW116037   4.038   0.613  11.573  0.0407  2.2110  0.9498
 1468SOL    HW216038   4.097   0.496  11.644  0.1494 -0.7659  1.0053
 1469SOL     OW16039   4.448   3.343   2.286 -1.1277  0.4070 -0.5506
 1469SOL    HW116040   4.433   3.265   2.339  1.7505  1.7983  2.3390
 1469SOL    HW216041   4.530   3.373   2.327 -0.3287 -2.6351  0.0551
 1470SOL     OW16042   0.999   2.519   9.022  0.1207  0.7061  0.2619
 1470SOL    HW116043   0.976   2.521   9.115  1.5267 -1.7684  0.6747
 1470SOL    HW216044   1.093   2.536   9.023  0.2993 -0.2683 -0.5500
 1471SOL     OW16045   3.240   4.169   9.802 -0.2916  0.8171 -0.3621
 1471SOL    HW116046   3.228   4.138   9.892  0.5192 -0.4760 -0.6894
 1471SOL    HW216047   3.159   4.212   9.775 -0.8124  0.8160  1.2004
 1472SOL     OW16048   2.808   1.698   5.225 -0.1345  0.0357  0.5815
 1472SOL    HW116049   2.843   1.753   5.155 -0.9785 -0.2854 -0.0860
 1472SOL    HW216050   2.802   1.611   5.186 -0.9585 -0.4923  1.8621
 1473SOL     OW16051   1.164   4.474   3.707 -0.3338 -0.0572 -0.6834
 1473SOL    HW116052   1.185   4.520   3.788 -1.1845 -0.9953  0.0709
 1473SOL    HW216053   1.130   4.544   3.651  0.3105 -0.7010 -1.8801
 1474SOL     OW16054   4.244   2.634   8.378 -0.0327  0.5446 -0.2883
 1474SOL    HW116055   4.262   2.590   8.295  0.2196 -0.0387  0.0731
 1474SOL    HW216056   4.278   2.573   8.444  1.8817 -1.4593 -3.1374
 1475SOL     OW16057   0.213   1.481  17.704  0.3707  0.4185 -0.3595
 1475SOL    HW116058   0.158   1.403  17.690 -1.1690  1.2119  1.1609
 1475SOL    HW216059   0.167   1.555  17.665 -1.9600 -0.6500  0.3226
 1476SOL     OW16060   0.985   2.587   3.373 -0.4168  0.0804 -0.3378
 1476SOL    HW116061   0.956   2.659   3.428 -0.8503  0.8154 -1.5404
 1476SOL    HW216062   1.032   2.626   3.300 -0.3312 -0.8455 -0.7779
 1477SOL     OW16063   3.344   0.799   6.171 -0.4928  0.0456  0.4662
 1477SOL    HW116064   3.410   0.771   6.106 -1.4252 -1.6991  0.2693
 1477SOL    HW216065   3.267   0.751   6.140 -1.2992  1.5009  0.2087
 1478SOL     OW16066   0.510   3.702   4.446  0.5826 -0.0168  0.3741
 1478SOL    HW116067   0.472   3.700   4.358 -0.1273  0.4317  0.6696
 1478SOL    HW216068   0.599   3.670   4.437  0.0505 -1.5692  0.6782
 1479SOL     OW16069   2.779   3.726   8.336 -0.2237 -0.0669  0.4847
 1479SOL    HW116070   2.690   3.742   8.368 -0.3268 -1.7321  1.0644
 1479SOL    HW216071   2.762   3.694   8.248  3.5206  2.1390 -1.0081
 1480SOL     OW16072   2.882   0.006   2.334 -0.1954 -0.0530  0.2764
 1480SOL    HW116073   2.913   4.667   2.376  1.1798  1.1297  1.5291
 1480SOL    HW216074   2.801   4.711   2.298 -0.0654  0.2679 -0.3331
 1481SOL     OW16075   1.853   4.303   2.995  0.5792  0.1096 -0.0076
 1481SOL    HW116076   1.861   4.250   2.916  1.8880  1.3957 -0.7299
 1481SOL    HW216077   1.867   4.229   3.054 -2.8548  0.7092  1.5295
 1482SOL     OW16078   1.239   0.229   2.191 -0.2131 -0.6173  0.2783
 1482SOL    HW116079   1.190   0.194   2.266 -0.6478 -1.7526 -0.5480
 1482SOL    HW216080   1.319   0.250   2.240  0.4115 -0.2008 -0.9364
 1483SOL     OW16081   0.677   2.731   2.717  0.0138  0.6078 -0.1007
 1483SOL    HW116082   0.753   2.713   2.772  0.2996 -0.4468 -0.8340
 1483SOL    HW216083   0.708   2.812   2.677 -1.8545  0.3271 -2.1031
 1484SOL     OW16084   3.039   3.746  17.332  0.0165 -0.0167  0.2476
 1484SOL    HW116085   2.966   3.720  17.388 -1.2640  0.2299 -1.2948
 1484SOL    HW216086   3.060   3.837  17.352  2.6371 -0.7624  0.8714
 1485SOL     OW16087   2.721   0.415   8.671 -0.2317 -0.1962  0.1294
 1485SOL    HW116088   2.783   0.487   8.685  1.2462 -1.4967  0.2728
 1485SOL    HW216089   2.771   0.369   8.603 -0.9748 -0.8857  0.0569
 1486SOL     OW16090   4.438   4.089   6.140  0.1410 -0.1332 -0.3920
 1486SOL    HW116091   4.436   4.140   6.059 -0.4598  1.4351  0.6302
 1486SOL    HW216092   4.428   3.998   6.111  1.6830 -0.1243 -0.9541
 1487SOL     OW16093   0.290   3.105   8.932 -0.2181  0.5967  0.0715
 1487SOL    HW116094   0.384   3.121   8.935  0.0489 -0.5500 -2.1688
 1487SOL    HW216095   0.251   3.181   8.974  1.5655  0.8912  1.1854
 1488SOL     OW16096   3.865   0.558   4.843 -0.5291 -0.4874  0.6214
 1488SOL    HW116097   3.788   0.514   4.878 -1.1737 -0.5283 -0.8564
 1488SOL    HW216098   3.908   0.489   4.792  0.2230  2.2608 -2.4637
 1489SOL     OW16099   1.484   3.274   9.595 -0.1647 -0.3779 -0.4533
 1489SOL    HW116100   1.467   3.343   9.660  0.8695 -0.7942  0.2554
 1489SOL    HW216101   1.497   3.198   9.652 -2.3014 -0.1201  0.3870
 1490SOL     OW16102   2.808   3.035   5.293  0.0840 -0.2020  0.2332
 1490SOL    HW116103   2.741   3.089   5.251 -1.3872 -2.2617 -0.1168
 1490SOL    HW216104   2.873   3.021   5.225 -1.9259  1.3657 -2.0219
 1491SOL     OW16105   3.204   3.235   1.970 -0.3378 -0.1537  0.2544
 1491SOL    HW116106   3.239   3.188   2.045 -0.2541 -0.0107  0.3046
 1491SOL    HW216107   3.225   3.327   1.986 -1.5209  0.5736 -2.2715
 1492SOL     OW16108   2.869   3.679   3.415 -0.3645 -0.6202  0.4221
 1492SOL    HW116109   2.897   3.593   3.445 -2.5177 -0.9527  1.4781
 1492SOL    HW216110   2.780   3.691   3.448  0.2274 -0.4146  1.9751
 1493SOL     OW16111   1.652   1.674  15.753 -0.3585 -0.8118  0.0885
 1493SOL    HW116112   1.746   1.693  15.747 -0.4507 -0.3246  0.1665
 1493SOL    HW216113   1.636   1.726  15.832 -0.7251 -1.4716  0.4415
 1494SOL     OW16114   1.861   3.996   5.914 -0.1997  0.1947  0.1013
 1494SOL    HW116115   1.786   4.032   5.962 -1.0665 -1.3390 -0.0842
 1494SOL    HW216116   1.906   3.940   5.977 -1.7654 -1.0788  0.0949
 1495SOL     OW16117   4.011   2.523  10.590 -0.7336 -0.5289  0.0959
 1495SOL    HW116118   3.990   2.551  10.679  0.8412 -0.9331  0.5992
 1495SOL    HW216119   4.107   2.522  10.584 -0.6657  0.2199  1.2116
 1496SOL     OW16120   1.127   4.510   9.191  0.2009  0.3627  0.0751
 1496SOL    HW116121   1.085   4.596   9.195 -1.4411 -0.4552  0.5216
 1496SOL    HW216122   1.066   4.458   9.137  1.0486  0.3543 -0.8695
 1497SOL     OW16123   2.551   0.658   6.449  0.1725 -0.7720 -0.2481
 1497SOL    HW116124   2.524   0.715   6.377  1.2538 -1.2160 -1.0067
 1497SOL    HW216125   2.646   0.657   6.437  0.5066  1.5002  2.2238
 1498SOL     OW16126   4.527   4.372   4.353  0.2517 -0.7336  0.2866
 1498SOL    HW116127   4.612   4.330   4.370  0.1706 -2.1531 -2.6965
 1498SOL    HW216128   4.549   4.411   4.268 -2.0588 -0.8788 -0.3760
 1499SOL     OW16129   2.952   1.503   4.655 -0.1559 -0.4938 -0.2779
 1499SOL    HW116130   2.896   1.579   4.669  0.4554  0.0413 -0.7072
 1499SOL    HW216131   2.882   1.444   4.628  0.4020 -1.7384  0.9961
 1500SOL     OW16132   1.384   4.555  13.183  0.0663  0.4651 -0.1263
 1500SOL    HW116133   1.476   4.527  13.179  0.5706  1.8631  1.6110
 1500SOL    HW216134   1.364   4.518  13.269 -2.5498  2.3207  0.0682
 1501SOL     OW16135   2.793   0.696   1.980  0.1071 -0.1805  0.1197
 1501SOL    HW116136   2.841   0.652   2.050  3.2927  0.0047 -1.9668
 1501SOL    HW216137   2.804   0.629   1.913  0.9548 -1.7424  1.8192
 1502SOL     OW16138   4.456   4.192   4.732  0.3605  0.3257 -0.0444
 1502SOL    HW116139   4.519   4.124   4.755  1.6171  1.1166 -1.1782
 1502SOL    HW216140   4.497   4.266   4.776  0.4144  0.3130 -0.0739
 1503SOL     OW16141   2.619   0.268   8.989  0.4867  0.3616 -0.3307
 1503SOL    HW116142   2.617   0.203   8.919  1.3091  0.3063 -0.3032
 1503SOL    HW216143   2.559   0.331   8.949 -1.8601 -0.6567  1.6065
 1504SOL     OW16144   2.507   2.347   3.130 -0.1832 -0.2022  0.1634
 1504SOL    HW116145   2.573   2.289   3.167 -1.5861 -2.0601 -0.2359
 1504SOL    HW216146   2.526   2.436   3.157  0.1560 -0.1321 -0.2891
 1505SOL     OW16147   3.860   3.796   3.665  0.3555 -0.1672 -0.0210
 1505SOL    HW116148   3.934   3.827   3.613  0.3036  2.4000  1.4459
 1505SOL    HW216149   3.878   3.840   3.748  1.7157  0.9131 -0.9054
 1506SOL     OW16150   1.155   0.765  17.452  0.1250 -0.1856 -0.6233
 1506SOL    HW116151   1.097   0.689  17.451 -0.9410  0.6056 -0.1393
 1506SOL    HW216152   1.095   0.839  17.441 -0.7963 -0.9084 -0.4515
 1507SOL     OW16153   0.819   1.693  10.059 -0.9030  0.4111  0.1513
 1507SOL    HW116154   0.877   1.645  10.117 -1.2511 -2.0061 -1.4837
 1507SOL    HW216155   0.772   1.630  10.004 -2.5347  0.8482  1.0372
 1508SOL     OW16156   4.627   4.363   7.112  0.5920  0.4430  0.1519
 1508SOL    HW116157   4.601   4.440   7.061 -0.6188 -1.4971 -2.1664
 1508SOL    HW216158   4.562   4.300   7.082 -0.2411  2.4923 -2.3346
 1509SOL     OW16159   2.135   4.337   3.406 -0.1732 -0.2022 -0.1811
 1509SOL    HW116160   2.119   4.317   3.499  0.4928 -0.0064 -0.0249
 1509SOL    HW216161   2.058   4.393   3.395  1.2154  1.3178 -2.0462
 1510SOL     OW16162   1.373   0.543   5.090  0.3716 -0.9604  0.3443
 1510SOL    HW116163   1.361   0.516   5.181 -0.9754 -0.3865  0.3372
 1510SOL    HW216164   1.281   0.533   5.064 -0.1025  3.9302  0.1825
 1511SOL     OW16165   1.040   3.647   8.578  0.1233 -0.5277  0.1229
 1511SOL    HW116166   1.000   3.566   8.609 -0.6505  0.0866  0.7142
 1511SOL    HW216167   0.968   3.706   8.556 -0.4437 -0.3575  2.4993
 1512SOL     OW16168   4.268   0.942  11.335 -0.5150  0.0877 -0.4141
 1512SOL    HW116169   4.334   0.922  11.401 -0.9757 -0.5495 -0.1459
 1512SOL    HW216170   4.192   0.956  11.391 -0.5145 -1.3431 -0.0535
 1513SOL     OW16171   0.750   3.255   4.047  0.0692 -0.1745  0.3892
 1513SOL    HW116172   0.679   3.292   4.100  0.1037  0.4404  0.0061
 1513SOL    HW216173   0.820   3.313   4.075  0.3002  0.3654 -1.3554
 1514SOL     OW16174   3.736   1.118   0.804  0.2316  0.3607  0.2348
 1514SOL    HW116175   3.825   1.149   0.786 -0.9913  3.6518 -0.1739
 1514SOL    HW216176   3.713   1.180   0.873 -0.9429  0.1788  0.0114
 1515SOL     OW16177   3.704   2.405  10.823  0.2301 -0.1660  0.3993
 1515SOL    HW116178   3.655   2.351  10.885  0.1370 -0.1818  0.3122
 1515SOL    HW216179   3.794   2.390  10.850  0.3268 -0.4520 -0.0914
 1516SOL     OW16180   0.698   0.141   6.007  0.5079 -0.0869 -0.1578
 1516SOL    HW116181   0.692   0.097   5.922 -2.1952 -2.4072  1.2259
 1516SOL    HW216182   0.671   0.073   6.068 -0.1556  1.0915  0.8623
 1517SOL     OW16183   4.276   3.358   8.440  0.0013 -0.0957  0.1789
 1517SOL    HW116184   4.370   3.342   8.433 -0.1696 -1.2955  0.6704
 1517SOL    HW216185   4.252   3.330   8.529  2.4667  0.9422  1.1799
 1518SOL     OW16186   1.913   1.048   7.592 -0.2212 -0.1503  0.7204
 1518SOL    HW116187   1.935   1.085   7.677 -1.0596 -1.3565  1.4556
 1518SOL    HW216188   1.961   0.965   7.599 -0.4480 -0.4438 -1.2454
 1519SOL     OW16189   0.903   2.680   4.614  0.3653 -0.0092 -0.4330
 1519SOL    HW116190   0.848   2.757   4.599  1.6621  1.1337  0.6014
 1519SOL    HW216191   0.886   2.635   4.531 -0.9624  0.7887 -0.6042
 1520SOL     OW16192   1.277   0.098   8.181  0.6633  0.2637  0.6379
 1520SOL    HW116193   1.340   0.076   8.114  0.4068  1.2865  0.0684
 1520SOL    HW216194   1.288   0.027   8.245 -2.0770 -0.5758  0.1819
 1521SOL     OW16195   1.475   2.656  16.767 -0.1897 -0.2305 -0.6459
 1521SOL    HW116196   1.526   2.660  16.686  0.7713 -1.0186 -0.0928
 1521SOL    HW216197   1.393   2.626  16.728  0.1953 -0.2679 -1.4297
 1522SOL     OW16198   3.238   3.126   3.064 -0.0322 -0.0318  0.7150
 1522SOL    HW116199   3.239   3.222   3.066 -1.9827 -0.0035 -0.0797
 1522SOL    HW216200   3.333   3.111   3.070  0.0532  0.8504  1.5218
 1523SOL     OW16201   4.455   1.242  13.845 -0.0672 -0.0128  0.0900
 1523SOL    HW116202   4.441   1.225  13.938  0.8672  0.2590  0.2751
 1523SOL    HW216203   4.524   1.305  13.866  0.0225  0.6047 -2.0366
 1524SOL     OW16204   0.590   1.918   5.121  0.0596  0.4161  0.0940
 1524SOL    HW116205   0.571   1.858   5.193  2.6926 -0.6991 -0.1415
 1524SOL    HW216206   0.660   1.869   5.078  2.1397  0.4368  3.4560
 1525SOL     OW16207   1.939   0.634   7.243 -0.0554 -0.3584  0.0485
 1525SOL    HW116208   1.853   0.600   7.219 -0.4272  0.4074  0.3283
 1525SOL    HW216209   1.961   0.593   7.327  1.8111 -0.3782 -0.4404
 1526SOL     OW16210   2.459   4.602   3.240  0.1830 -0.6479 -0.4803
 1526SOL    HW116211   2.464   4.512   3.274 -1.7136 -0.2174  0.9021
 1526SOL    HW216212   2.369   4.630   3.254 -0.0686 -2.1298  0.8629
 1527SOL     OW16213   2.630   2.923   1.316  0.4761 -0.4434 -0.2485
 1527SOL    HW116214   2.717   2.952   1.343  0.6499  0.7653 -2.1004
 1527SOL    HW216215   2.625   2.842   1.367 -0.4352 -0.9227 -1.1035
 1528SOL     OW16216   3.655   0.785   2.602  0.0503 -0.0143  0.7608
 1528SOL    HW116217   3.619   0.730   2.533  1.4656 -1.6701  1.3533
 1528SOL    HW216218   3.696   0.719   2.658 -1.2210 -1.0522  0.4574
 1529SOL     OW16219   1.098   1.529   1.042  0.6677  0.5369  0.2713
 1529SOL    HW116220   1.056   1.541   0.957  3.5818 -0.0052 -1.2770
 1529SOL    HW216221   1.119   1.436   1.041 -0.1617  0.3511  0.8002
 1530SOL     OW16222   2.246   0.657  14.332  0.3040 -0.5031 -0.4253
 1530SOL    HW116223   2.200   0.740  14.346  3.1228  0.6948  1.7790
 1530SOL    HW216224   2.201   0.601  14.394 -2.1313 -0.2621 -1.9984
 1531SOL     OW16225   3.220   1.259   7.269  0.2143 -0.1997 -0.4813
 1531SOL    HW116226   3.290   1.297   7.323 -1.2751  0.5504  0.9008
 1531SOL    HW216227   3.240   1.296   7.183  2.8098  1.2302  0.7118
 1532SOL     OW16228   4.614   1.714   5.181  0.2672  0.2610 -0.2966
 1532SOL    HW116229   4.641   1.758   5.100  0.9891  0.9346  0.3156
 1532SOL    HW216230   4.624   1.782   5.248 -0.3240  1.4717 -1.4328
 1533SOL     OW16231   2.751   3.811   0.895 -0.1003  0.4470  0.4809
 1533SOL    HW116232   2.788   3.733   0.937 -0.4051 -0.6612 -1.3127
 1533SOL    HW216233   2.700   3.771   0.824  1.9169 -1.0095 -0.1438
 1534SOL     OW16234   2.719   0.650   9.207 -0.0025 -0.5996  0.0705
 1534SOL    HW116235   2.751   0.561   9.190  3.0805  1.1978 -3.4844
 1534SOL    HW216236   2.797   0.697   9.235 -1.6144  2.2428 -0.1794
 1535SOL     OW16237   4.075   1.438   8.837  0.2062 -0.1899  0.2759
 1535SOL    HW116238   3.982   1.451   8.852  0.5876  3.6812 -0.6622
 1535SOL    HW216239   4.110   1.426   8.926 -2.5492 -0.3834  1.3322
 1536SOL     OW16240   1.948   0.484  12.745 -0.0467  0.1020  0.3194
 1536SOL    HW116241   1.986   0.407  12.787 -0.5056  0.3743  1.2276
 1536SOL    HW216242   1.917   0.449  12.661  0.3795  1.5574 -0.4387
 1537SOL     OW16243   0.464   0.977   6.290 -0.0649  0.0553 -0.3341
 1537SOL    HW116244   0.448   1.070   6.279 -1.1542 -0.0539  0.3318
 1537SOL    HW216245   0.497   0.960   6.379  1.3264 -2.0113 -1.2322
 1538SOL     OW16246   4.324   3.829   5.790  0.1359  1.1981 -0.6916
 1538SOL    HW116247   4.288   3.897   5.734 -2.3704 -0.1305 -0.7083
 1538SOL    HW216248   4.392   3.790   5.736  0.7252 -2.2194  2.4767
 1539SOL     OW16249   1.021   3.854   2.940 -0.1208  0.6188  0.4020
 1539SOL    HW116250   0.971   3.772   2.937 -0.3684  0.7039  2.2054
 1539SOL    HW216251   1.041   3.864   3.033 -0.3812 -0.1320  0.5398
 1540SOL     OW16252   3.770   3.221   3.600  0.8918 -0.3820  0.0002
 1540SOL    HW116253   3.772   3.133   3.638 -0.3097 -0.7108 -0.7016
 1540SOL    HW216254   3.859   3.225   3.565  0.3173 -1.6011 -1.6170
 1541SOL     OW16255   1.731   0.872  13.544  0.4742  0.9503  1.1675
 1541SOL    HW116256   1.718   0.950  13.491 -2.1770  1.0091  1.9284
 1541SOL    HW216257   1.682   0.809  13.491 -1.1351  2.1092  1.2894
 1542SOL     OW16258   1.512   0.765   2.476 -0.5486  0.5139 -0.6134
 1542SOL    HW116259   1.536   0.733   2.390  2.0209 -2.1275  1.1202
 1542SOL    HW216260   1.591   0.807   2.508 -1.8211  1.8392  0.8392
 1543SOL     OW16261   4.598   4.182   2.556 -0.2650  0.6627 -0.0531
 1543SOL    HW116262   4.545   4.152   2.631 -0.9535  0.3559 -0.6667
 1543SOL    HW216263   4.596   4.277   2.566  1.6093  0.6554  0.4331
 1544SOL     OW16264   4.354   0.908  14.567 -0.3445 -0.6789  0.1994
 1544SOL    HW116265   4.263   0.882  14.551 -0.0741 -1.2619 -0.3881
 1544SOL    HW216266   4.404   0.828  14.552  0.5125 -0.1361  0.1843
 1545SOL     OW16267   0.848   2.043   6.097 -0.4114 -1.1234  0.0065
 1545SOL    HW116268   0.790   2.093   6.154 -1.9323 -1.1209 -1.5455
 1545SOL    HW216269   0.803   2.033   6.013  1.7046 -0.0399 -1.2560
 1546SOL     OW16270   1.092   3.206  17.502  0.3795 -0.5003 -0.0039
 1546SOL    HW116271   0.997   3.195  17.510  0.0326  1.8390 -0.8740
 1546SOL    HW216272   1.111   3.121  17.463 -1.0556 -0.6090 -0.4917
 1547SOL     OW16273   0.688   3.156   2.685  0.2673  0.5597 -0.1419
 1547SOL    HW116274   0.748   3.104   2.739 -0.8997 -0.2988  0.3193
 1547SOL    HW216275   0.640   3.087   2.639 -2.0467  2.8545 -1.1503
 1548SOL     OW16276   3.145   4.208   1.829  0.5268  0.0747  0.1964
 1548SOL    HW116277   3.059   4.165   1.826  0.2304  0.7492 -1.0728
 1548SOL    HW216278   3.139   4.272   1.758  1.0803 -3.7766 -3.3454
 1549SOL     OW16279   2.194   0.318  10.432 -0.4413  0.0510 -0.6226
 1549SOL    HW116280   2.213   0.345  10.342 -3.7758  0.0470 -1.3263
 1549SOL    HW216281   2.099   0.312  10.427 -0.3944 -0.9446 -0.3822
 1550SOL     OW16282   0.472   0.623   9.264  0.0090 -0.0795  0.5028
 1550SOL    HW116283   0.422   0.699   9.235  0.7101  0.1550 -0.0909
 1550SOL    HW216284   0.401   0.559   9.273  0.9667 -1.0059  1.5641
 1551SOL     OW16285   4.383   1.817  14.080  0.4319  0.0186  0.3789
 1551SOL    HW116286   4.452   1.758  14.050 -1.5622 -2.0223 -0.2346
 1551SOL    HW216287   4.321   1.826  14.007 -1.1212  1.4920  1.8889
 1552SOL     OW16288   0.248   3.272   1.107  0.2191 -0.2296  0.1819
 1552SOL    HW116289   0.272   3.355   1.149 -0.8268  0.0109  0.2944
 1552SOL    HW216290   0.164   3.291   1.066 -0.4661 -1.4953  0.9737
 1553SOL     OW16291   2.558   3.954   7.439 -0.5636  0.4507 -0.2944
 1553SOL    HW116292   2.633   3.917   7.393  0.0506  1.4260 -0.0898
 1553SOL    HW216293   2.588   4.045   7.436 -0.6760  0.4779 -0.6551
 1554SOL     OW16294   3.437   0.736   2.896  0.4771  0.1440  0.3808
 1554SOL    HW116295   3.499   0.665   2.877  0.0519 -0.1608  0.1240
 1554SOL    HW216296   3.503   0.801   2.920  0.3032  1.0692 -1.6773
 1555SOL     OW16297   0.342   4.202  17.400 -0.2550  0.2588  0.4197
 1555SOL    HW116298   0.266   4.254  17.426 -1.2786 -0.7113 -0.6729
 1555SOL    HW216299   0.302   4.135  17.344  0.8654 -0.0713  0.0173
 1556SOL     OW16300   1.075   1.255   7.099  0.3341  0.5907 -0.6254
 1556SOL    HW116301   1.016   1.262   7.174  0.9912  0.9951 -0.1449
 1556SOL    HW216302   1.045   1.173   7.060 -0.7289  0.4203  0.5461
 1557SOL     OW16303   2.516   3.234   2.587  0.4388 -0.2826  0.2114
 1557SOL    HW116304   2.447   3.300   2.592 -1.0486 -1.9492  1.5948
 1557SOL    HW216305   2.510   3.193   2.673 -2.5554 -0.4982 -0.0831
 1558SOL     OW16306   3.178   4.509   1.900  0.0942  0.1443 -0.5877
 1558SOL    HW116307   3.116   4.437   1.887 -0.4319 -0.1719  3.5226
 1558SOL    HW216308   3.196   4.530   1.809 -1.9870  1.0018 -0.7886
 1559SOL     OW16309   0.602   3.991   8.743  0.8090  0.7219  0.9660
 1559SOL    HW116310   0.594   4.081   8.714 -4.1640 -1.1217 -3.4017
 1559SOL    HW216311   0.537   3.981   8.813 -1.1596  0.8206 -0.8558
 1560SOL     OW16312   3.639   0.946  14.116 -0.2968 -0.2893  0.2737
 1560SOL    HW116313   3.676   0.867  14.155  0.6431  0.3101  0.5837
 1560SOL    HW216314   3.659   0.913  14.028 -0.2172 -0.3324  0.3081
 1561SOL     OW16315   0.153   3.489   8.580 -0.6195  0.6485 -0.0012
 1561SOL    HW116316   0.092   3.551   8.539 -0.9901  0.0974 -0.2907
 1561SOL    HW216317   0.094   3.426   8.622 -0.8232 -0.0157 -1.2902
 1562SOL     OW16318   4.066   2.437   4.716  0.3667 -0.2450 -0.4036
 1562SOL    HW116319   4.017   2.517   4.696  3.3267  1.4808 -0.7719
 1562SOL    HW216320   4.042   2.369   4.653 -0.7428 -1.1817  1.0321
 1563SOL     OW16321   3.373   2.963   2.722 -0.6870 -0.0141  0.4667
 1563SOL    HW116322   3.283   2.936   2.737 -0.5889 -1.0172 -0.6728
 1563SOL    HW216323   3.362   3.027   2.652 -0.0686  0.8269  1.1372
 1564SOL     OW16324   0.332   1.902   0.736  0.9751  0.4016  0.3533
 1564SOL    HW116325   0.330   1.956   0.657  0.0487 -1.4507 -0.8899
 1564SOL    HW216326   0.425   1.881   0.742  0.6921 -0.7190  0.6534
 1565SOL     OW16327   1.688   0.119  10.423 -0.1487 -0.2125 -0.2167
 1565SOL    HW116328   1.735   0.036  10.419  1.1116  0.4705  0.4648
 1565SOL    HW216329   1.598   0.087  10.432 -0.4473  0.8428  0.4902
 1566SOL     OW16330   3.839   3.764   1.923 -0.5950 -0.2433  0.1998
 1566SOL    HW116331   3.852   3.778   1.829  0.0483 -1.8101  0.0566
 1566SOL    HW216332   3.783   3.838   1.945 -0.1863 -0.2224  1.1365
 1567SOL     OW16333   1.559   0.872   7.571 -1.0155 -0.0982  0.4392
 1567SOL    HW116334   1.588   0.893   7.660 -1.2794  0.9398  0.2819
 1567SOL    HW216335   1.612   0.923   7.511 -0.2174  1.7553  2.7164
 1568SOL     OW16336   3.620   2.243   3.273  0.4418 -0.2439 -0.5249
 1568SOL    HW116337   3.541   2.294   3.258  1.0089  0.7174 -0.2539
 1568SOL    HW216338   3.676   2.308   3.317  0.5008 -1.1687  0.7525
 1569SOL     OW16339   2.928   0.449  12.782 -0.2166 -0.7049 -0.3552
 1569SOL    HW116340   2.848   0.397  12.773 -0.7365 -0.5186  2.9546
 1569SOL    HW216341   2.963   0.419  12.866 -1.3944 -2.1856 -0.3884
 1570SOL     OW16342   3.889   2.381   6.553 -0.1246 -0.2481 -0.0104
 1570SOL    HW116343   3.936   2.426   6.624  0.0039 -1.5143  0.7026
 1570SOL    HW216344   3.847   2.312   6.604 -3.4378  1.3834 -0.5676
 1571SOL     OW16345   0.921   2.347   8.583 -0.8570  0.2156 -0.6853
 1571SOL    HW116346   0.995   2.297   8.619 -2.1366 -2.0351 -1.2006
 1571SOL    HW216347   0.900   2.388   8.667 -1.2807 -1.1569 -0.1144
 1572SOL     OW16348   4.545   4.168  11.771 -0.1809 -0.4961 -0.3825
 1572SOL    HW116349   4.636   4.136  11.778  0.6049  2.1079  1.3178
 1572SOL    HW216350   4.541   4.244  11.828 -3.0707 -0.5544 -0.5338
 1573SOL     OW16351   4.518   0.790   3.465  0.5383  0.2871 -0.1987
 1573SOL    HW116352   4.525   0.711   3.411 -1.0373  0.1864 -0.2523
 1573SOL    HW216353   4.488   0.753   3.548  1.6714 -2.0267 -0.8079
 1574SOL     OW16354   0.931   2.044   1.853 -0.6876  0.3342  0.7633
 1574SOL    HW116355   0.924   1.993   1.772 -0.7966  0.9066  0.4188
 1574SOL    HW216356   0.928   2.126   1.804  2.3530  0.3875  0.6730
 1575SOL     OW16357   2.034   3.031   3.768  1.1012 -0.1760 -0.0070
 1575SOL    HW116358   1.946   3.009   3.799  1.5054  1.1006  2.0485
 1575SOL    HW216359   2.079   2.965   3.820  1.4527  1.7351  2.1193
 1576SOL     OW16360   3.851   3.730  10.556  0.1957 -0.3913  0.8437
 1576SOL    HW116361   3.934   3.681  10.563  0.0835 -0.6769  0.2114
 1576SOL    HW216362   3.863   3.795  10.487  2.9870 -0.9378  0.7891
 1577SOL     OW16363   2.910   3.658   4.286 -0.0770  0.0145 -0.2551
 1577SOL    HW116364   2.924   3.707   4.367  4.3171 -1.4082 -0.1421
 1577SOL    HW216365   2.841   3.595   4.310 -1.6584  1.9886  0.3673
 1578SOL     OW16366   2.479   3.911  17.706 -0.2276  0.4776  0.3854
 1578SOL    HW116367   2.447   4.000  17.719 -0.6340  0.0514  2.2983
 1578SOL    HW216368   2.508   3.876   0.028  0.3580 -0.8472 -0.3683
 1579SOL     OW16369   3.656   1.545   3.237  0.2012 -0.2429 -0.2147
 1579SOL    HW116370   3.615   1.515   3.319 -0.5523  1.4802  0.0343
 1579SOL    HW216371   3.745   1.543   3.272  0.5481  1.4596 -1.0285
 1580SOL     OW16372   0.174   4.399   7.562 -0.6906 -0.3879  0.0597
 1580SOL    HW116373   0.236   4.465   7.531  0.5512 -1.2074  0.8297
 1580SOL    HW216374   0.155   4.343   7.487  1.6065 -1.6305  0.4238
 1581SOL     OW16375   0.005   0.796   2.987 -0.5008  0.2460  0.2466
 1581SOL    HW116376   4.722   0.704   2.996  0.0050  0.0556 -0.3708
 1581SOL    HW216377   4.738   0.808   3.082 -0.2706 -3.9585  0.7915
 1582SOL     OW16378   3.858   1.109   0.232  0.7969 -0.2577 -0.1230
 1582SOL    HW116379   3.815   1.169   0.293  0.6489  0.1991 -0.6776
 1582SOL    HW216380   3.874   1.037   0.294 -1.9112  0.9773  2.0131
 1583SOL     OW16381   3.378   1.990   6.674 -0.2764  0.2706  0.1330
 1583SOL    HW116382   3.436   2.061   6.700  0.5675 -0.1089 -0.7176
 1583SOL    HW216383   3.291   2.030   6.665 -0.0552  0.4239 -1.3169
 1584SOL     OW16384   4.532   1.399   5.183 -0.1201 -0.2373  0.6939
 1584SOL    HW116385   4.577   1.476   5.218 -0.3526  0.4333 -0.4545
 1584SOL    HW216386   4.548   1.342   5.258  1.4112  0.0272  0.5700
 1585SOL     OW16387   4.463   4.499   7.463 -0.1091  0.6846  0.2206
 1585SOL    HW116388   4.371   4.525   7.463  0.5610  3.0045  0.4858
 1585SOL    HW216389   4.472   4.450   7.545  1.1036 -0.5177 -0.6071
 1586SOL     OW16390   0.692   3.945   6.661  0.5619 -0.6080 -0.2942
 1586SOL    HW116391   0.685   3.936   6.756  0.7994  0.5902 -0.1742
 1586SOL    HW216392   0.637   3.869   6.639 -1.2636 -0.2839  3.1760
 1587SOL     OW16393   1.932   4.076   3.351 -0.1699  0.5391 -0.1521
 1587SOL    HW116394   2.019   4.052   3.318  0.9714  2.4709  1.4912
 1587SOL    HW216395   1.872   4.061   3.278  0.1990 -0.0627 -0.3404
 1588SOL     OW16396   3.613   3.981   2.732 -0.2633  0.5265 -0.2443
 1588SOL    HW116397   3.665   3.903   2.713 -0.8623 -0.2663  1.3257
 1588SOL    HW216398   3.569   3.936   2.805 -0.8209  1.2045 -0.1661
 1589SOL     OW16399   3.719   1.645  12.863  0.1653  0.1289 -0.5028
 1589SOL    HW116400   3.648   1.708  12.867 -1.1640 -1.2608 -2.1870
 1589SOL    HW216401   3.685   1.573  12.916 -1.1294  0.6406 -0.6364
 1590SOL     OW16402   1.631   3.260   2.926  0.0721 -0.2677 -0.0565
 1590SOL    HW116403   1.626   3.165   2.937  0.9987 -0.4596 -1.3147
 1590SOL    HW216404   1.725   3.271   2.944  0.1789 -1.2116 -0.0154
 1591SOL     OW16405   0.833   3.578  16.620 -0.0213 -0.4930 -0.4074
 1591SOL    HW116406   0.882   3.546  16.545  1.1946 -0.7626  0.5025
 1591SOL    HW216407   0.908   3.602  16.675  0.3770  0.4935 -1.3692
 1592SOL     OW16408   3.323   4.072   7.069  0.3351 -0.3600 -0.3465
 1592SOL    HW116409   3.253   4.135   7.056 -1.9897 -3.1627 -1.3425
 1592SOL    HW216410   3.305   4.025   6.987  1.5999 -1.6266  0.0948
 1593SOL     OW16411   4.086   2.982   3.441  0.1337 -0.2568  0.0935
 1593SOL    HW116412   4.122   3.058   3.396 -1.3589  0.7795  0.6761
 1593SOL    HW216413   4.133   2.910   3.398 -2.6556 -0.1474 -3.2012
 1594SOL     OW16414   4.568   2.078  11.613 -0.2544  0.3099 -0.2673
 1594SOL    HW116415   4.476   2.078  11.586  0.0050  1.0612 -1.1346
 1594SOL    HW216416   4.586   1.986  11.632  0.1395  0.4625  0.0982
 1595SOL     OW16417   3.532   2.270   3.723 -0.0924 -0.0254  0.4375
 1595SOL    HW116418   3.627   2.273   3.728 -0.0967  0.1809  0.4039
 1595SOL    HW216419   3.514   2.179   3.747  1.9278 -0.4489  0.2976
 1596SOL     OW16420   3.201   4.051  10.045  0.4036 -0.0015  0.3795
 1596SOL    HW116421   3.286   4.032  10.085  0.8104 -0.3439 -0.6280
 1596SOL    HW216422   3.168   4.104  10.117  2.2234 -0.8555  1.8396
 1597SOL     OW16423   1.551   0.909   4.129 -0.4201  0.5905 -0.7507
 1597SOL    HW116424   1.584   0.985   4.176  0.8675 -0.0082 -0.6951
 1597SOL    HW216425   1.457   0.930   4.126 -0.0368  2.0350 -2.7225
 1598SOL     OW16426   0.373   1.694   1.596 -0.5500  0.5543 -0.5970
 1598SOL    HW116427   0.313   1.766   1.615 -2.0978 -1.2711  1.4867
 1598SOL    HW216428   0.402   1.702   1.506 -0.9467  0.8610 -0.6978
 1599SOL     OW16429   1.309   4.196   1.100  0.2539  0.2179 -0.3791
 1599SOL    HW116430   1.395   4.239   1.101  0.3210  0.1266 -1.9981
 1599SOL    HW216431   1.315   4.143   1.179  3.0888  1.6236  0.3590
 1600SOL     OW16432   3.720   0.747   5.523 -0.1537 -0.2000 -0.3090
 1600SOL    HW116433   3.651   0.802   5.561  0.3517 -1.1410  1.9538
 1600SOL    HW216434   3.781   0.809   5.483  0.1383 -0.6208 -0.5142
 1601SOL     OW16435   2.467   0.421   8.774 -0.1652 -0.3899  0.1228
 1601SOL    HW116436   2.550   0.417   8.725 -0.5681  2.0051 -0.7573
 1601SOL    HW216437   2.478   0.497   8.831 -0.1854  0.7320 -1.3711
 1602SOL     OW16438   2.391   4.689   4.991 -0.5396  0.4434 -0.3093
 1602SOL    HW116439   2.304   4.666   5.026 -0.0526  2.2227  2.0611
 1602SOL    HW216440   2.360   0.015   4.931 -2.6503  0.9540  1.3396
 1603SOL     OW16441   0.061   0.367   5.796 -0.0587 -0.4386 -0.1904
 1603SOL    HW116442   0.077   0.368   5.890 -0.4962 -0.5059 -0.1169
 1603SOL    HW216443   0.113   0.292   5.767  3.0331  1.8384 -0.5971
 1604SOL     OW16444   3.756   1.049   2.175 -0.3367  0.3253 -0.0257
 1604SOL    HW116445   3.819   1.019   2.240 -2.2008 -0.8181  1.2713
 1604SOL    HW216446   3.776   1.142   2.174  0.3201  0.1928  0.8535
 1605SOL     OW16447   4.195   3.653   6.111  0.2199 -0.5955  0.3358
 1605SOL    HW116448   4.200   3.558   6.098  2.4656 -0.4882  0.4105
 1605SOL    HW216449   4.145   3.666   6.191 -0.5980  3.0183 -0.7583
 1606SOL     OW16450   3.341   1.648   8.299 -0.5744 -0.1178  0.2116
 1606SOL    HW116451   3.309   1.737   8.312 -1.7176 -0.4166 -0.5846
 1606SOL    HW216452   3.437   1.655   8.298 -0.6985  1.5877  0.3062
 1607SOL     OW16453   2.104   0.772  11.426  0.7833 -0.0439  0.1095
 1607SOL    HW116454   2.175   0.734  11.373  0.6509 -2.5217  1.6982
 1607SOL    HW216455   2.024   0.729  11.397  1.7085 -1.0041 -1.0220
 1608SOL     OW16456   3.965   3.569   5.603  0.0462  0.4609  0.0348
 1608SOL    HW116457   3.944   3.661   5.614 -0.3502  0.4420 -0.5728
 1608SOL    HW216458   4.023   3.544   5.675  1.7254  1.0879 -1.1266
 1609SOL     OW16459   3.565   1.621  13.865 -0.1526  0.1505 -0.5032
 1609SOL    HW116460   3.527   1.540  13.899 -0.2492  0.7878  0.9449
 1609SOL    HW216461   3.525   1.636  13.780  2.1385  0.6993 -1.4910
 1610SOL     OW16462   1.889   1.250   1.636 -0.3485 -0.2757  0.3463
 1610SOL    HW116463   1.851   1.279   1.553  2.0609 -0.4584 -0.8267
 1610SOL    HW216464   1.962   1.312   1.633 -0.3275 -0.4608 -2.3898
 1611SOL     OW16465   3.251   0.493   4.104  0.7222 -0.0821  0.0612
 1611SOL    HW116466   3.158   0.507   4.118  0.6242  0.2499 -0.8769
 1611SOL    HW216467   3.236   0.399   4.097  0.3466 -0.0957  1.1172
 1612SOL     OW16468   3.058   1.170   4.266 -0.1129 -0.2847 -0.2589
 1612SOL    HW116469   2.984   1.213   4.309  0.8626 -0.3628  1.4973
 1612SOL    HW216470   3.077   1.227   4.191  0.3497 -0.4528 -0.2700
 1613SOL     OW16471   1.935   2.700  16.191 -0.0594  0.0592 -0.0713
 1613SOL    HW116472   1.954   2.611  16.223 -1.0001 -0.6306 -1.4639
 1613SOL    HW216473   1.998   2.707  16.119 -2.0139 -0.1318 -1.7758
 1614SOL     OW16474   3.174   2.728   6.897 -0.3348 -0.1801  0.0543
 1614SOL    HW116475   3.140   2.687   6.817 -1.7512  1.7414 -0.3377
 1614SOL    HW216476   3.187   2.647   6.946  1.5863 -0.2507 -0.5501
 1615SOL     OW16477   4.657   0.110   1.900 -0.1372 -0.5931  0.2547
 1615SOL    HW116478   4.583   0.063   1.939  0.1099 -1.2703 -0.0870
 1615SOL    HW216479   4.618   0.167   1.834  1.2828  0.3329  0.2254
 1616SOL     OW16480   1.736   0.644   8.428  0.3662  0.0781  0.8066
 1616SOL    HW116481   1.762   0.695   8.505  0.3824 -0.4353  1.1343
 1616SOL    HW216482   1.675   0.578   8.462 -1.4211  1.2710 -0.0461
 1617SOL     OW16483   0.396   2.312   0.200 -0.1255 -0.1792 -0.3156
 1617SOL    HW116484   0.468   2.369   0.172 -0.2521  0.0867 -0.0916
 1617SOL    HW216485   0.330   2.340   0.137 -0.2895  4.4187  1.9091
 1618SOL     OW16486   2.136   2.987   2.532 -0.3242  0.1932  0.2889
 1618SOL    HW116487   2.204   3.001   2.465  0.2785  2.2678  1.3144
 1618SOL    HW216488   2.123   3.074   2.570  0.8041  0.3450  0.3386
 1619SOL     OW16489   4.645   1.115   6.935 -0.3344 -0.6121 -0.0096
 1619SOL    HW116490   4.707   1.126   7.008  0.4490 -2.7813 -0.3390
 1619SOL    HW216491   4.671   1.171   6.862 -2.3110  0.0995 -0.1817
 1620SOL     OW16492   2.128   1.364   8.556  0.3231 -0.2268 -0.4844
 1620SOL    HW116493   2.097   1.390   8.642  1.9213 -1.2349  0.4047
 1620SOL    HW216494   2.061   1.404   8.500  0.1171  1.0585  0.6925
 1621SOL     OW16495   2.938   1.209  10.134  0.0069 -0.0299 -0.4764
 1621SOL    HW116496   2.880   1.282  10.114 -0.5516 -0.4106 -0.2531
 1621SOL    HW216497   2.981   1.194  10.050  1.0733  0.1649  0.0331
 1622SOL     OW16498   2.626   2.707   9.955 -0.4020  0.6626  0.0094
 1622SOL    HW116499   2.721   2.694   9.950 -0.5179 -0.2277  0.0829
 1622SOL    HW216500   2.618   2.764  10.031  0.2557  0.3779  0.2974
 1623SOL     OW16501   1.053   1.974  17.639  0.2945 -0.5336  0.3324
 1623SOL    HW116502   1.084   2.063  17.623  1.3056 -0.9639 -0.1223
 1623SOL    HW216503   1.115   1.949  17.708  0.9767  1.2799  0.3652
 1624SOL     OW16504   2.156   1.533  11.658  0.1906  0.5555  0.5548
 1624SOL    HW116505   2.092   1.504  11.723  0.1925 -2.8272 -0.9089
 1624SOL    HW216506   2.222   1.464  11.670  1.4845  2.3316  3.4692
 1625SOL     OW16507   3.720   2.070   2.646 -0.0702 -0.2294  0.4611
 1625SOL    HW116508   3.721   2.130   2.721  0.1782 -1.2946  1.3215
 1625SOL    HW216509   3.805   2.094   2.611 -0.4619 -2.5635 -2.1037
 1626SOL     OW16510   1.813   4.326  15.158  0.6725 -0.7547  0.0182
 1626SOL    HW116511   1.757   4.252  15.134  0.5521 -1.0297  1.1589
 1626SOL    HW216512   1.777   4.347  15.244 -0.1383  1.4134 -0.8338
 1627SOL     OW16513   1.014   2.809   1.896 -0.2471 -0.5837  0.1486
 1627SOL    HW116514   1.013   2.841   1.806 -3.8218 -2.4221 -0.4739
 1627SOL    HW216515   1.106   2.821   1.920 -0.9493  2.6480  1.2577
 1628SOL     OW16516   4.411   3.132   8.204 -0.1405  0.1985 -0.1790
 1628SOL    HW116517   4.424   3.052   8.153 -1.4042 -0.2011  0.1277
 1628SOL    HW216518   4.484   3.182   8.167  1.5114 -1.4641  0.8055
 1629SOL     OW16519   0.525   4.473   5.777 -0.6103  0.3994  0.5028
 1629SOL    HW116520   0.435   4.458   5.749 -1.3131  0.6633  2.6334
 1629SOL    HW216521   0.522   4.507   5.866 -1.5359  2.2878 -0.2393
 1630SOL     OW16522   1.264   3.692   5.817 -0.6039 -0.1122  0.2452
 1630SOL    HW116523   1.205   3.745   5.871  1.7635  1.6578  1.0755
 1630SOL    HW216524   1.242   3.611   5.863  0.7491  0.7443  2.4150
 1631SOL     OW16525   2.232   1.975   7.325  0.5038 -0.7043  0.4797
 1631SOL    HW116526   2.313   1.991   7.374 -0.5852  1.5350  1.5479
 1631SOL    HW216527   2.166   2.013   7.383  1.3462 -1.0307  1.6538
 1632SOL     OW16528   1.977   1.159   7.853  0.1914 -0.6000 -0.5200
 1632SOL    HW116529   1.961   1.223   7.923 -1.0440 -0.5905 -0.8132
 1632SOL    HW216530   2.055   1.120   7.892 -0.9675 -0.7578  1.6022
 1633SOL     OW16531   2.161   4.638  13.834 -0.3313 -0.4987  0.2813
 1633SOL    HW116532   2.081   4.688  13.815 -1.1112 -1.2436  1.6514
 1633SOL    HW216533   2.134   4.551  13.862 -0.2882 -0.7308 -0.3936
 1634SOL     OW16534   1.713   2.616  16.940 -0.2614  0.3043 -0.0873
 1634SOL    HW116535   1.761   2.676  16.997  1.8576 -1.5131  0.0617
 1634SOL    HW216536   1.667   2.676  16.882 -2.1367  0.1561  1.2061
 1635SOL     OW16537   4.289   2.584  14.920  0.0037  0.1687  0.8003
 1635SOL    HW116538   4.384   2.580  14.928 -0.0739 -0.6529  1.1995
 1635SOL    HW216539   4.278   2.653  14.854 -1.0618 -1.7140 -0.9626
 1636SOL     OW16540   0.565   1.027   6.560 -0.4239  0.5601  0.3428
 1636SOL    HW116541   0.657   1.036   6.532  0.2488 -0.4982  2.2245
 1636SOL    HW216542   0.574   0.968   6.635 -1.1749 -1.9951 -1.5810
 1637SOL     OW16543   0.118   2.220   7.582 -0.4992 -0.4538  0.3890
 1637SOL    HW116544   0.121   2.290   7.649  0.1610 -0.1820  0.0803
 1637SOL    HW216545   0.066   2.157   7.631 -0.2506 -1.5904 -0.8314
 1638SOL     OW16546   0.076   1.287   0.656  0.6714  0.5455 -0.0056
 1638SOL    HW116547   0.100   1.284   0.564 -0.6382  1.2132 -0.3806
 1638SOL    HW216548   0.017   1.362   0.643 -0.8685 -0.7170 -0.3921
 1639SOL     OW16549   3.321   2.172   3.912 -0.3211 -0.1567  0.1738
 1639SOL    HW116550   3.357   2.109   3.976  0.1929 -0.3727 -0.3304
 1639SOL    HW216551   3.257   2.117   3.867 -0.7426  1.7337 -1.5264
 1640SOL     OW16552   4.450   1.468   7.990 -0.1708 -0.0908  0.3513
 1640SOL    HW116553   4.513   1.538   8.008 -0.1952  0.2630 -0.9241
 1640SOL    HW216554   4.459   1.415   8.069 -0.0887  1.8413  1.6342
 1641SOL     OW16555   2.595   0.902   8.558  0.0184 -0.3166 -0.1352
 1641SOL    HW116556   2.543   0.838   8.606  1.6397 -0.6549  1.1967
 1641SOL    HW216557   2.590   0.975   8.619 -0.3442  0.5705 -1.2264
 1642SOL     OW16558   1.842   0.540   3.523 -0.4330 -0.2373 -0.2607
 1642SOL    HW116559   1.884   0.509   3.443 -0.2474 -1.6036  0.3542
 1642SOL    HW216560   1.920   0.532   3.578 -0.3684 -0.7066 -0.4233
 1643SOL     OW16561   3.999   1.168   4.024  0.2912  0.5525  0.9749
 1643SOL    HW116562   3.984   1.103   4.093  1.2960  0.1033  0.7712
 1643SOL    HW216563   4.079   1.207   4.060  0.7349  0.2168  0.3388
 1644SOL     OW16564   4.330   4.178  15.623 -0.2161 -0.6806  0.3980
 1644SOL    HW116565   4.347   4.132  15.706 -1.3777 -1.7096  0.0615
 1644SOL    HW216566   4.263   4.244  15.640  0.1626  0.1416 -1.2571
 1645SOL     OW16567   4.384   2.340   3.553  0.0202 -0.4696 -0.4001
 1645SOL    HW116568   4.388   2.395   3.475 -0.8367 -1.4481 -1.1392
 1645SOL    HW216569   4.437   2.266   3.521 -0.5760 -1.4767  0.9753
 1646SOL     OW16570   3.684   2.290  11.081 -0.7011 -0.6533  0.3815
 1646SOL    HW116571   3.691   2.310  11.174  0.9163  2.8371 -0.5166
 1646SOL    HW216572   3.735   2.209  11.074 -0.2881 -0.5512  2.3432
 1647SOL     OW16573   1.933   4.354  12.228 -0.2112  0.0654  0.5058
 1647SOL    HW116574   2.025   4.369  12.249 -0.4187 -0.1773  1.5639
 1647SOL    HW216575   1.931   4.436  12.177  0.0570 -0.4050 -0.2567
 1648SOL     OW16576   0.016   2.061  11.413  0.1303 -0.0638 -0.5062
 1648SOL    HW116577   4.695   2.068  11.485  0.0221  1.0345 -0.7082
 1648SOL    HW216578   0.092   2.093  11.463 -0.3729 -0.6140  0.6253
 1649SOL     OW16579   2.132   4.205   2.297  0.8088 -0.2435 -0.1084
 1649SOL    HW116580   2.190   4.187   2.223  1.0488  1.0942 -0.2430
 1649SOL    HW216581   2.097   4.291   2.275 -0.2271  0.9212  6.1006
 1650SOL     OW16582   1.823   3.321   4.537  0.4045  0.0885 -0.2912
 1650SOL    HW116583   1.731   3.327   4.514  0.2677  0.0404  0.2513
 1650SOL    HW216584   1.837   3.400   4.590 -1.6756 -1.5169  2.6076
 1651SOL     OW16585   1.234   0.584  15.394  0.1025 -0.2843  0.5994
 1651SOL    HW116586   1.150   0.540  15.406 -0.4620  0.5574 -0.2899
 1651SOL    HW216587   1.265   0.565  15.305  0.3738 -3.5429  1.3897
 1652SOL     OW16588   1.593   4.136  16.533 -0.1753  0.3153  0.3866
 1652SOL    HW116589   1.638   4.107  16.613 -1.5532 -2.0229  0.3233
 1652SOL    HW216590   1.666   4.153  16.474  0.1049 -0.7935  0.4131
 1653SOL     OW16591   2.264   0.882   8.138 -0.1123  0.1010 -0.4099
 1653SOL    HW116592   2.328   0.842   8.078  0.3995 -1.5684  1.2473
 1653SOL    HW216593   2.328   0.916   8.200  0.1834 -0.5621 -0.3554
 1654SOL     OW16594   3.934   3.971   5.846 -0.5169  0.4148 -0.1885
 1654SOL    HW116595   4.006   4.034   5.843 -0.7549  0.7994  1.9452
 1654SOL    HW216596   3.966   3.890   5.886  0.8324 -0.0126 -2.1395
 1655SOL     OW16597   4.327   0.514   3.448  0.1331  0.1253 -0.6016
 1655SOL    HW116598   4.272   0.590   3.428  0.9816  0.5369 -1.3837
 1655SOL    HW216599   4.365   0.489   3.363  0.7300 -0.5980 -0.1203
 1656SOL     OW16600   0.448   2.198  12.958  0.1917  0.7051 -0.1119
 1656SOL    HW116601   0.413   2.287  12.954 -0.5782  0.3940 -0.2299
 1656SOL    HW216602   0.478   2.198  12.867 -3.3603  3.0525 -1.2763
 1657SOL     OW16603   3.334   0.995   2.652  0.0697  0.1195  0.3551
 1657SOL    HW116604   3.303   0.962   2.736 -1.7710 -1.9748 -1.1178
 1657SOL    HW216605   3.249   1.007   2.611  0.5914 -1.6169 -1.2592
 1658SOL     OW16606   0.765   2.303   5.271  0.3630 -0.3063  0.0245
 1658SOL    HW116607   0.785   2.253   5.192  1.7594 -0.2433  0.3378
 1658SOL    HW216608   0.852   2.302   5.309  0.7316  0.7656 -0.7707
 1659SOL     OW16609   0.730   0.773   5.670  1.1151  0.3504  0.1466
 1659SOL    HW116610   0.641   0.762   5.704  0.8927  0.3376 -0.4334
 1659SOL    HW216611   0.737   0.865   5.644 -0.4120  0.3359 -0.3524
 1660SOL     OW16612   0.827   0.229   4.777 -0.2873  0.0538 -0.1977
 1660SOL    HW116613   0.745   0.233   4.827  0.6275 -3.4397  1.5972
 1660SOL    HW216614   0.892   0.240   4.847 -0.9344 -0.2514  0.4563
 1661SOL     OW16615   3.552   3.965  11.595  0.1669  0.4037 -0.4606
 1661SOL    HW116616   3.589   3.935  11.512  1.2652  1.4045 -0.3235
 1661SOL    HW216617   3.474   4.014  11.567  0.9144  2.4768  1.0664
 1662SOL     OW16618   2.514   0.339   5.147  0.6467  0.5701  0.1050
 1662SOL    HW116619   2.560   0.289   5.214  1.0932 -0.7272 -1.1704
 1662SOL    HW216620   2.459   0.395   5.202  1.1136 -1.3885  2.6010
 1663SOL     OW16621   3.977   2.675  13.466 -0.1411 -0.2738 -0.0087
 1663SOL    HW116622   4.058   2.635  13.498  0.2747 -0.0566 -0.7845
 1663SOL    HW216623   4.017   2.750  13.421  0.6494 -0.3982  0.4968
 1664SOL     OW16624   2.469   3.927  16.006  0.1625  0.5975  0.1098
 1664SOL    HW116625   2.551   3.884  15.983 -1.4307 -1.5373 -1.5201
 1664SOL    HW216626   2.467   3.895  16.096  0.5827 -3.2565 -1.2698
 1665SOL     OW16627   3.429   4.383   8.365  0.1134  0.3776 -0.1276
 1665SOL    HW116628   3.377   4.453   8.404  0.8661  1.2458 -0.6867
 1665SOL    HW216629   3.522   4.404   8.365  0.1210  0.3764  1.4657
 1666SOL     OW16630   2.193   1.742   6.820  0.0433  0.1202  0.6604
 1666SOL    HW116631   2.235   1.818   6.780 -0.8884  0.3924  0.1865
 1666SOL    HW216632   2.170   1.780   6.905 -1.3186  0.8381 -0.0152
 1667SOL     OW16633   3.689   0.811   6.917  0.0357 -0.1056 -0.2116
 1667SOL    HW116634   3.611   0.767   6.882 -0.8728  1.7499 -0.5166
 1667SOL    HW216635   3.675   0.773   7.004 -1.5890 -1.1533 -0.9262
 1668SOL     OW16636   2.494   2.571  14.203 -0.1052  0.2488 -1.1214
 1668SOL    HW116637   2.407   2.611  14.202 -0.9225 -1.5199 -0.5384
 1668SOL    HW216638   2.483   2.496  14.145 -0.1216  1.3887 -2.5899
 1669SOL     OW16639   3.764   3.459  13.200 -0.1785  0.1465  0.5761
 1669SOL    HW116640   3.742   3.462  13.293  0.4913 -2.5092  0.8060
 1669SOL    HW216641   3.679   3.459  13.156  0.3340  1.9638 -0.4194
 1670SOL     OW16642   1.208   2.556   2.444 -0.0750 -0.0453  0.3630
 1670SOL    HW116643   1.282   2.617   2.454  0.3361  0.2996 -4.8876
 1670SOL    HW216644   1.178   2.581   2.357  1.7872  1.7925  0.2396
 1671SOL     OW16645   3.628   1.441   5.944  0.4077 -0.4258 -0.4090
 1671SOL    HW116646   3.638   1.357   5.990 -0.7369 -0.9513 -1.1203
 1671SOL    HW216647   3.653   1.506   6.009 -2.0141  0.0448  0.0384
 1672SOL     OW16648   1.407   4.349   4.323 -0.1945  0.0778  0.1141
 1672SOL    HW116649   1.372   4.431   4.356 -0.8318 -0.7990  1.6531
 1672SOL    HW216650   1.487   4.341   4.374  0.8049 -0.2293 -1.5015
 1673SOL     OW16651   1.548   2.365   6.728  0.5492  0.4940  0.4375
 1673SOL    HW116652   1.459   2.361   6.693  1.0769  2.4525 -1.1157
 1673SOL    HW216653   1.586   2.439   6.680  1.0997 -0.7427 -1.0364
 1674SOL     OW16654   2.917   0.437  10.089  0.3836 -0.6312  0.7204
 1674SOL    HW116655   3.012   0.441  10.103  0.3093  3.4236  0.1837
 1674SOL    HW216656   2.907   0.532  10.100  1.6816 -0.3419 -0.4784
 1675SOL     OW16657   0.155   2.670   5.728  0.5867 -0.0270 -0.1646
 1675SOL    HW116658   0.076   2.634   5.688  1.7970 -2.3419 -0.4568
 1675SOL    HW216659   0.219   2.613   5.686  0.9640  0.2191  0.0706
 1676SOL     OW16660   0.318   4.204   6.993 -0.0493 -0.5045  0.3383
 1676SOL    HW116661   0.342   4.171   7.079  1.6005 -0.7348 -0.2194
 1676SOL    HW216662   0.394   4.259   6.973 -0.7924 -0.0953 -1.3574
 1677SOL     OW16663   2.599   2.654   7.599 -0.4407 -0.4807 -0.0221
 1677SOL    HW116664   2.574   2.608   7.519  1.2622  0.1683 -0.9312
 1677SOL    HW216665   2.523   2.632   7.653 -0.7245 -0.3680 -0.3718
 1678SOL     OW16666   2.336   2.747   5.472 -0.4799 -0.0705 -0.0406
 1678SOL    HW116667   2.316   2.839   5.453  2.2533  1.0877  2.6263
 1678SOL    HW216668   2.377   2.733   5.387 -0.2711 -2.5759  0.4655
 1679SOL     OW16669   3.785   4.160   8.352  0.3727  0.2028  0.0887
 1679SOL    HW116670   3.768   4.255   8.349 -0.2008  0.1712  2.4267
 1679SOL    HW216671   3.735   4.133   8.429 -1.7835  0.5262 -1.2158
 1680SOL     OW16672   2.934   0.776  11.662  0.4579  0.2759 -0.4043
 1680SOL    HW116673   2.867   0.797  11.727 -1.1708 -1.0923 -1.6497
 1680SOL    HW216674   2.915   0.828  11.583 -0.9206 -1.2581 -1.0870
 1681SOL     OW16675   4.607   2.255   9.040  0.1319  0.4135 -0.2524
 1681SOL    HW116676   4.517   2.224   9.051 -0.0378  1.4304  1.2609
 1681SOL    HW216677   4.643   2.180   8.993 -2.4546 -1.1355  0.2135
 1682SOL     OW16678   2.496   4.359  14.814 -0.5178  0.0652  0.1941
 1682SOL    HW116679   2.410   4.370  14.853 -0.7283 -0.5604 -0.1059
 1682SOL    HW216680   2.514   4.267  14.830 -1.1985  0.3973  2.8436
 1683SOL     OW16681   2.899   0.926  11.441 -0.5359 -0.1356 -0.2240
 1683SOL    HW116682   2.899   1.022  11.439 -1.7661 -0.1996 -4.1168
 1683SOL    HW216683   2.898   0.911  11.346  1.9380  0.3923 -0.3332
 1684SOL     OW16684   0.090   2.884  11.012 -0.1067 -0.0419 -0.2956
 1684SOL    HW116685   0.136   2.805  11.038 -0.1096 -0.0554 -0.3314
 1684SOL    HW216686   0.036   2.902  11.090 -1.5302 -0.5340 -1.1646
 1685SOL     OW16687   3.743   2.268   2.843  0.2051  0.4133  0.3080
 1685SOL    HW116688   3.685   2.327   2.796  0.9434 -1.6232 -3.1306
 1685SOL    HW216689   3.818   2.324   2.861 -0.8502  2.6480 -2.3928
 1686SOL     OW16690   1.225   2.780   4.539  0.1158 -0.5197  0.1129
 1686SOL    HW116691   1.273   2.832   4.604 -0.6833  1.7883 -1.1769
 1686SOL    HW216692   1.225   2.693   4.581  0.5748 -1.0293 -0.9573
 1687SOL     OW16693   3.837   0.453   6.362 -0.4870 -0.5153 -0.5330
 1687SOL    HW116694   3.775   0.382   6.348 -0.8989 -0.0897 -0.8597
 1687SOL    HW216695   3.852   0.482   6.272  1.0742  1.0256  0.2182
 1688SOL     OW16696   4.733   1.423  16.304  0.2110 -0.3068 -0.4102
 1688SOL    HW116697   4.674   1.459  16.371  2.8019 -0.0030  1.7138
 1688SOL    HW216698   4.686   1.439  16.222  2.4687  2.8649 -1.1045
 1689SOL     OW16699   0.633   2.804  15.580  0.2391  0.1504 -0.2549
 1689SOL    HW116700   0.704   2.825  15.640  0.9738 -1.2448 -0.6244
 1689SOL    HW216701   0.595   2.882  15.540  0.9440 -0.1019 -1.4400
 1690SOL     OW16702   4.132   2.618   6.176  0.2492  0.0453 -0.2455
 1690SOL    HW116703   4.098   2.600   6.263  0.4411  0.2732 -0.1243
 1690SOL    HW216704   4.223   2.625   6.204  0.2855 -1.8683  0.0533
 1691SOL     OW16705   0.933   1.973   8.620 -0.1481 -0.2025  0.0181
 1691SOL    HW116706   0.994   1.930   8.680 -1.5567 -1.4316  0.5948
 1691SOL    HW216707   0.877   2.015   8.686 -1.2364 -1.8816  0.1658
 1692SOL     OW16708   0.498   2.081   4.328  0.7091  0.2237 -0.6864
 1692SOL    HW116709   0.531   1.992   4.313 -1.0550 -0.3446 -1.1448
 1692SOL    HW216710   0.582   2.119   4.353  0.3594  0.5318  0.0248
 1693SOL     OW16711   3.251   3.102   6.357  0.4839 -0.2989  0.2665
 1693SOL    HW116712   3.219   3.012   6.356  0.7342 -0.3737 -0.6141
 1693SOL    HW216713   3.248   3.122   6.451  1.1421 -0.9528  0.4298
 1694SOL     OW16714   0.468   3.279  15.380 -0.2798  0.8320 -0.5262
 1694SOL    HW116715   0.496   3.254  15.293  0.2794 -1.1403  0.2165
 1694SOL    HW216716   0.516   3.212  15.428 -0.7069  0.3878 -0.7289
 1695SOL     OW16717   1.391   4.589   9.263  0.3030  0.1204  0.7385
 1695SOL    HW116718   1.328   4.517   9.260 -0.5608  0.8574  1.1247
 1695SOL    HW216719   1.391   4.617   9.354  0.7107 -0.5375  0.9378
 1696SOL     OW16720   1.034   2.220   6.772  0.6212  0.2459  0.0297
 1696SOL    HW116721   0.988   2.174   6.702 -0.6746 -0.2805  1.2270
 1696SOL    HW216722   1.001   2.163   6.841 -1.0370  2.3332  0.9703
 1697SOL     OW16723   2.784   4.370   9.251 -0.0389  0.0758 -0.7200
 1697SOL    HW116724   2.848   4.357   9.181  3.0102 -2.4400  2.6016
 1697SOL    HW216725   2.730   4.435   9.206 -1.6367  0.5302  1.8491
 1698SOL     OW16726   3.925   0.040   7.972  0.2009  0.1109 -0.0525
 1698SOL    HW116727   4.010   4.738   7.967 -0.6602 -1.7367  1.1052
 1698SOL    HW216728   3.942   0.134   7.971 -0.0855  0.1356 -2.3382
 1699SOL     OW16729   3.422   3.716   6.709  0.3600 -0.4376  0.2156
 1699SOL    HW116730   3.454   3.633   6.744  0.1800 -1.1803 -1.3652
 1699SOL    HW216731   3.340   3.681   6.675 -0.1214  0.2389  0.7017
 1700SOL     OW16732   3.584   4.201  12.878 -0.1089  0.5005 -0.3745
 1700SOL    HW116733   3.515   4.207  12.812 -0.9971  1.5580  0.6553
 1700SOL    HW216734   3.658   4.162  12.832  1.7784  2.0705  1.3386
 1701SOL     OW16735   0.041   1.415   5.307 -0.0202 -0.3772 -0.7541
 1701SOL    HW116736   0.066   1.328   5.338 -0.8731  0.1512  1.3628
 1701SOL    HW216737   0.026   1.457   5.391 -1.7470  0.1717 -1.3504
 1702SOL     OW16738   1.900   1.040   5.783  0.1992  0.1363 -0.0773
 1702SOL    HW116739   1.988   1.016   5.813  1.1546  1.6648 -1.7133
 1702SOL    HW216740   1.874   0.957   5.743 -2.8403 -0.6493  3.5510
 1703SOL     OW16741   3.994   2.241   4.543 -0.2743 -0.3714  0.4327
 1703SOL    HW116742   3.990   2.208   4.453 -2.1784  3.2258 -0.8319
 1703SOL    HW216743   4.036   2.172   4.593 -0.3490 -0.9742 -0.3290
 1704SOL     OW16744   2.720   2.541   3.231 -0.0579 -0.1472 -0.3496
 1704SOL    HW116745   2.749   2.460   3.187  0.4398 -0.8922  1.3598
 1704SOL    HW216746   2.782   2.608   3.203 -2.0605  2.1918  0.8337
 1705SOL     OW16747   3.957   1.790   8.275  0.3636  0.5174  0.0055
 1705SOL    HW116748   4.010   1.774   8.197 -0.7249 -5.1031  0.3646
 1705SOL    HW216749   3.956   1.702   8.313  1.6351  0.6480  0.3314
 1706SOL     OW16750   3.451   4.687  11.066 -0.5147 -0.6420 -0.0659
 1706SOL    HW116751   3.423   0.027  11.109 -1.9812 -0.3061 -1.6604
 1706SOL    HW216752   3.544   4.676  11.084 -0.4461  1.8950  1.1600
 1707SOL     OW16753   1.460   1.027   1.658 -0.5156 -0.5352 -0.3095
 1707SOL    HW116754   1.369   1.025   1.628 -0.2438 -1.3561 -1.0706
 1707SOL    HW216755   1.520   1.022   1.584  0.1612 -1.0947  0.2699
 1708SOL     OW16756   1.082   1.591   5.360 -0.3640 -0.4860 -0.3117
 1708SOL    HW116757   0.993   1.622   5.346 -0.7122 -0.9800  0.8517
 1708SOL    HW216758   1.075   1.567   5.452  3.0920  0.6522  0.2474
 1709SOL     OW16759   3.773   1.889   6.400  0.4742 -0.2284  0.4524
 1709SOL    HW116760   3.689   1.934   6.402  0.7746  0.4098 -1.4072
 1709SOL    HW216761   3.757   1.801   6.434  1.4242 -0.5258  0.1273
 1710SOL     OW16762   2.908   4.301   8.966  0.3999 -0.2981  0.3157
 1710SOL    HW116763   2.820   4.285   8.932  0.8842 -0.5381 -0.8007
 1710SOL    HW216764   2.966   4.262   8.902  1.8377 -1.0494  2.0946
 1711SOL     OW16765   2.153   4.365  13.933 -0.9982  0.6756 -0.4763
 1711SOL    HW116766   2.215   4.293  13.931 -3.1646 -1.2240  0.9291
 1711SOL    HW216767   2.087   4.340  13.868 -1.3719 -1.7646  0.8485
 1712SOL     OW16768   1.041   1.603   5.624  0.4097 -0.4375  0.0410
 1712SOL    HW116769   0.993   1.649   5.694  0.2572  1.5572 -1.3630
 1712SOL    HW216770   1.096   1.536   5.663  1.4671 -0.8867 -2.2266
 1713SOL     OW16771   4.732   2.277   6.620 -0.3312 -0.3719  0.0787
 1713SOL    HW116772   4.641   2.250   6.610 -0.4033  0.1158 -0.5850
 1713SOL    HW216773   0.016   2.293   6.529 -3.2440  0.3387 -0.5789
 1714SOL     OW16774   3.792   0.587  12.717  0.3398  0.3368 -0.0339
 1714SOL    HW116775   3.698   0.590  12.736  0.0944 -0.0688 -1.1541
 1714SOL    HW216776   3.801   0.503  12.673  0.9046  0.0636  0.6058
 1715SOL     OW16777   0.988   2.394  17.331  0.4591 -0.2477 -0.1052
 1715SOL    HW116778   1.054   2.413  17.265  1.8306  0.3796  1.4471
 1715SOL    HW216779   0.951   2.309  17.308  1.5958 -0.8984  0.4969
 1716SOL     OW16780   2.418   2.286   0.957 -0.5857 -0.3398 -0.2132
 1716SOL    HW116781   2.421   2.220   0.888 -0.0413  1.1397 -1.6055
 1716SOL    HW216782   2.394   2.363   0.906 -1.0177 -0.9519 -0.9288
 1717SOL     OW16783   2.347   0.716  17.490  0.1654 -0.2854 -0.0556
 1717SOL    HW116784   2.369   0.802  17.526 -0.5026  0.9017 -2.4753
 1717SOL    HW216785   2.269   0.731  17.437 -0.4345  1.8507  1.4286
 1718SOL     OW16786   3.861   1.148   5.663 -0.2433 -0.1713 -0.3399
 1718SOL    HW116787   3.871   1.114   5.752  0.2201 -2.4045 -1.2487
 1718SOL    HW216788   3.885   1.239   5.680  3.2063 -1.0189 -0.6536
 1719SOL     OW16789   1.167   1.666  12.011  0.0548  0.7206  0.0013
 1719SOL    HW116790   1.101   1.606  12.046  1.8497 -1.0515  0.3368
 1719SOL    HW216791   1.225   1.605  11.964  0.1751  0.8175  0.0254
 1720SOL     OW16792   1.352   2.051   6.703 -0.2576 -0.1549  0.0460
 1720SOL    HW116793   1.358   2.087   6.615 -1.0211  0.3846  0.2150
 1720SOL    HW216794   1.322   2.125   6.756 -1.6028 -1.3762  0.9688
 1721SOL     OW16795   3.880   4.032   2.703  0.1414  0.1735 -0.0323
 1721SOL    HW116796   3.791   4.068   2.699 -1.2016 -2.8411  3.3173
 1721SOL    HW216797   3.891   3.973   2.629  0.4705 -0.4918  0.5537
 1722SOL     OW16798   4.574   2.079   5.517  0.1909 -0.0259  0.7799
 1722SOL    HW116799   4.545   2.043   5.434 -1.2078  1.9153  0.4294
 1722SOL    HW216800   4.618   2.159   5.490 -1.0112  0.5388  0.4834
 1723SOL     OW16801   4.116   2.842   2.376  0.1618  0.2219 -0.1244
 1723SOL    HW116802   4.203   2.805   2.362 -1.1683 -1.6879 -3.1799
 1723SOL    HW216803   4.064   2.791   2.315  2.5675  0.0874 -2.0558
 1724SOL     OW16804   0.022   3.617   3.587 -0.2546 -0.4723 -0.1783
 1724SOL    HW116805   0.024   3.638   3.494 -0.3605 -0.8589 -0.2662
 1724SOL    HW216806   0.112   3.601   3.617 -0.2109  2.2344  1.1854
 1725SOL     OW16807   3.311   1.462   7.890 -0.5040 -0.1557 -0.0332
 1725SOL    HW116808   3.283   1.427   7.805 -2.8060 -0.3521  0.7954
 1725SOL    HW216809   3.399   1.427   7.903 -0.8797 -2.0142 -2.4303
 1726SOL     OW16810   3.738   3.160   7.156 -0.3518 -0.0463 -0.8400
 1726SOL    HW116811   3.668   3.159   7.221  0.6680  0.8052  0.2834
 1726SOL    HW216812   3.747   3.073   7.118  0.1182 -1.3636  2.3521
 1727SOL     OW16813   2.042   1.113   7.345 -0.1855 -0.1047 -0.4569
 1727SOL    HW116814   1.997   1.098   7.428  1.4201  1.9855  0.7657
 1727SOL    HW216815   2.065   1.205   7.355 -1.6724  0.3020 -0.6821
 1728SOL     OW16816   2.383   1.028   2.378  0.1449  0.4716  0.2488
 1728SOL    HW116817   2.425   1.076   2.307 -0.8770  2.9266  1.3236
 1728SOL    HW216818   2.341   0.956   2.330  1.7373  0.1822 -0.6803
 1729SOL     OW16819   3.233   3.318   5.792  0.1728 -0.2173  0.3712
 1729SOL    HW116820   3.171   3.249   5.769  0.9777 -0.8736  0.2069
 1729SOL    HW216821   3.270   3.333   5.706 -2.3283  1.7042 -0.3931
 1730SOL     OW16822   3.040   3.150   4.104  0.5861  0.0695  1.0849
 1730SOL    HW116823   3.069   3.133   4.014  1.6741 -0.1398  1.4831
 1730SOL    HW216824   3.089   3.227   4.130  2.9591 -0.4134 -1.9375
 1731SOL     OW16825   4.358   3.093   5.856 -0.4367 -0.2798  0.1525
 1731SOL    HW116826   4.278   3.077   5.807  0.0225  0.5059 -0.8586
 1731SOL    HW216827   4.333   3.162   5.917 -0.0546 -0.1310  0.1440
 1732SOL     OW16828   3.268   0.382   0.390 -0.0120 -0.5841 -0.4432
 1732SOL    HW116829   3.193   0.348   0.439  0.0335  0.4293  0.3410
 1732SOL    HW216830   3.340   0.333   0.429  0.0868  0.2515  0.4264
 1733SOL     OW16831   1.490   2.429   7.720  0.3584 -0.0534  0.0581
 1733SOL    HW116832   1.536   2.498   7.767 -0.5895  0.4260  0.2575
 1733SOL    HW216833   1.401   2.425   7.756 -0.1146  0.0327 -1.1132
 1734SOL     OW16834   3.412   2.155   5.643  0.3854 -0.2552 -0.2841
 1734SOL    HW116835   3.472   2.089   5.677 -0.9158 -2.2622 -1.9342
 1734SOL    HW216836   3.418   2.159   5.548 -0.0161  0.5613 -0.2804
 1735SOL     OW16837   2.930   2.449  14.144 -0.0355 -0.1121  0.1710
 1735SOL    HW116838   2.970   2.528  14.181 -3.0217  1.0193  0.9540
 1735SOL    HW216839   2.857   2.488  14.095 -0.8537 -1.8815 -0.0139
 1736SOL     OW16840   3.332   3.641   8.920  0.3519  0.3360 -0.5479
 1736SOL    HW116841   3.361   3.608   9.006 -0.7672 -0.2997 -0.4085
 1736SOL    HW216842   3.340   3.560   8.870  2.0299  0.7989 -1.0127
 1737SOL     OW16843   3.447   4.736  13.494 -0.3878  0.5242 -0.5287
 1737SOL    HW116844   3.469   4.671  13.426  1.6548  0.1403  0.5052
 1737SOL    HW216845   3.490   0.072  13.455  0.3155 -1.6926 -4.1226
 1738SOL     OW16846   2.220   0.415   3.145  0.5114 -0.1896  0.6551
 1738SOL    HW116847   2.218   0.323   3.117  1.1780  0.4872 -1.5638
 1738SOL    HW216848   2.226   0.458   3.060  2.2904  0.2180  0.9717
 1739SOL     OW16849   1.989   2.328   2.602  0.5179  0.3395 -0.0080
 1739SOL    HW116850   1.931   2.252   2.591 -0.5871  1.3070 -0.8490
 1739SOL    HW216851   2.075   2.286   2.591  0.5785  0.7963 -1.3053
 1740SOL     OW16852   2.830   1.645  16.284  0.2236  0.2564 -0.1777
 1740SOL    HW116853   2.804   1.569  16.337  1.9093  0.0997  0.4346
 1740SOL    HW216854   2.907   1.605  16.244 -1.9609 -3.2331 -0.9710
 1741SOL     OW16855   0.525   2.090  11.696  0.2604  0.2095 -0.5247
 1741SOL    HW116856   0.534   2.000  11.666  0.1757 -0.0428  0.2096
 1741SOL    HW216857   0.609   2.091  11.743 -0.7708 -0.1121  1.3093
 1742SOL     OW16858   3.700   3.345  17.416 -0.0912  0.0138  0.1212
 1742SOL    HW116859   3.783   3.368  17.457  0.3195 -1.6191  0.2150
 1742SOL    HW216860   3.659   3.431  17.422  1.8030  0.9152  0.0988
 1743SOL     OW16861   2.995   3.974  16.939  0.1643  0.2909  0.9315
 1743SOL    HW116862   2.967   3.931  16.858  0.3534 -0.1044  1.0788
 1743SOL    HW216863   3.023   4.061  16.909 -2.5376  0.8289 -0.0809
 1744SOL     OW16864   2.528   3.419   1.840  0.2427  0.7277  0.0791
 1744SOL    HW116865   2.620   3.444   1.845  0.1283  1.5506 -1.7701
 1744SOL    HW216866   2.486   3.475   1.906  0.1425  1.5136 -0.6420
 1745SOL     OW16867   0.749   2.130   1.056  0.0887 -0.1111  0.1034
 1745SOL    HW116868   0.764   2.192   1.127  0.1202  2.2354 -1.9519
 1745SOL    HW216869   0.793   2.055   1.095  0.9303  0.1478 -0.3258
 1746SOL     OW16870   2.820   1.732   0.667 -0.1372  0.2825  0.6127
 1746SOL    HW116871   2.910   1.758   0.690 -0.6045  2.4983 -0.0624
 1746SOL    HW216872   2.825   1.648   0.712 -2.0068  1.0300  2.1859
 1747SOL     OW16873   1.335   2.624   3.590 -0.1249  0.2499  0.3458
 1747SOL    HW116874   1.427   2.645   3.573 -0.2490  2.9779  3.0529
 1747SOL    HW216875   1.351   2.533   3.614 -1.5811 -0.6969 -2.2981
 1748SOL     OW16876   4.382   3.354   5.351 -0.0704  0.3957 -0.0578
 1748SOL    HW116877   4.441   3.305   5.409 -0.4308 -1.0965 -0.9541
 1748SOL    HW216878   4.440   3.380   5.279  0.7194  0.9150  0.7539
 1749SOL     OW16879   3.117   0.258   4.857 -0.0027  0.2556  0.0285
 1749SOL    HW116880   3.097   0.273   4.949  1.3753 -0.9146  0.5083
 1749SOL    HW216881   3.198   0.309   4.849  0.0018  0.2699  0.1585
 1750SOL     OW16882   2.915   3.611   5.567  0.3811  0.2820 -0.2046
 1750SOL    HW116883   2.871   3.549   5.625 -2.1163  1.4129 -0.8873
 1750SOL    HW216884   2.899   3.691   5.619  0.8048 -1.3121  2.3931
 1751SOL     OW16885   0.299   3.052   7.242 -0.3544 -0.0197 -0.5119
 1751SOL    HW116886   0.292   3.148   7.233  0.6565 -0.1127 -2.2490
 1751SOL    HW216887   0.236   3.029   7.310 -1.4104 -1.4166 -1.9663
 1752SOL     OW16888   3.038   0.733   8.509  0.5668  0.1530 -0.2642
 1752SOL    HW116889   3.110   0.713   8.569  0.2493  0.8607  0.3464
 1752SOL    HW216890   3.038   0.659   8.447 -0.4746  0.1459 -0.2535
 1753SOL     OW16891   3.986   3.686   4.077 -0.6315 -0.8364 -0.1501
 1753SOL    HW116892   3.925   3.613   4.067 -1.7424 -0.1024  1.2621
 1753SOL    HW216893   4.066   3.652   4.117  0.9950  2.9284 -0.1888
 1754SOL     OW16894   1.881   2.922   2.794 -0.5455  0.0053  0.1380
 1754SOL    HW116895   1.894   2.827   2.796 -1.2604 -0.0924  0.0594
 1754SOL    HW216896   1.966   2.955   2.823  0.3736 -1.9812 -0.2837
 1755SOL     OW16897   4.371   1.652   3.908  0.4159 -0.4881 -0.1822
 1755SOL    HW116898   4.304   1.719   3.895  1.1808  0.3140 -0.0349
 1755SOL    HW216899   4.435   1.720   3.929  0.6236 -0.5735 -0.5457
 1756SOL     OW16900   4.068   3.685   5.847  0.2863  0.3857  0.1607
 1756SOL    HW116901   4.095   3.654   5.933  0.9210  0.0512 -0.1566
 1756SOL    HW216902   4.147   3.712   5.800  1.1121 -1.9663  0.2178
 1757SOL     OW16903   2.240   0.749  11.197 -0.2113  0.3044  0.9087
 1757SOL    HW116904   2.176   0.775  11.131 -0.6835 -2.9305  0.0870
 1757SOL    HW216905   2.256   0.830  11.245 -0.6533  0.3593  0.9629
 1758SOL     OW16906   4.317   0.610  10.443 -0.3509  0.4064 -0.0319
 1758SOL    HW116907   4.292   0.579  10.530  1.1058  0.3549  0.3743
 1758SOL    HW216908   4.274   0.696  10.449 -1.1637 -0.0919  1.1142
 1759SOL     OW16909   4.210   1.531  14.639  0.2438  0.6726 -0.2751
 1759SOL    HW116910   4.121   1.549  14.607 -0.3440 -2.8969 -0.5652
 1759SOL    HW216911   4.218   1.586  14.717 -1.3123  1.1707 -0.4631
 1760SOL     OW16912   2.880   2.471   2.264 -0.6915  0.0527  0.0626
 1760SOL    HW116913   2.823   2.441   2.193 -1.3189 -1.8625  1.3649
 1760SOL    HW216914   2.824   2.523   2.321  0.5817  0.4986  0.9034
 1761SOL     OW16915   1.496   0.298   9.275  0.3865  0.1323  0.4479
 1761SOL    HW116916   1.554   0.222   9.279 -0.4805 -0.5867 -0.9335
 1761SOL    HW216917   1.526   0.356   9.346 -0.1390  2.5904 -1.3205
 1762SOL     OW16918   2.440   0.038  10.121 -0.4545  0.6370 -0.0790
 1762SOL    HW116919   2.509   0.065  10.060  2.0661 -1.6260  1.7784
 1762SOL    HW216920   2.487   4.719  10.179 -0.4769 -1.0930 -1.8789
 1763SOL     OW16921   1.656   0.096   8.975  0.0475  0.0543  0.0125
 1763SOL    HW116922   1.672   0.033   9.045  0.4818  0.8456  0.6286
 1763SOL    HW216923   1.741   0.139   8.967  1.6351 -3.2528 -0.8102
 1764SOL     OW16924   0.647   0.406   4.980  0.6685  0.1943  0.6576
 1764SOL    HW116925   0.665   0.479   4.921 -2.0751 -1.3130 -2.0625
 1764SOL    HW216926   0.557   0.417   5.013 -0.8315 -0.8641 -3.0958
 1765SOL     OW16927   0.938   2.450   0.944  0.5458  1.0510  0.0043
 1765SOL    HW116928   0.914   2.539   0.971 -0.5750  0.2690  1.5503
 1765SOL    HW216929   0.953   2.409   1.029  1.4526 -2.5817 -1.9100
 1766SOL     OW16930   2.931   2.311  16.182 -0.1357  0.7449  0.1492
 1766SOL    HW116931   2.870   2.237  16.188  0.4397  0.2196 -0.6372
 1766SOL    HW216932   2.930   2.335  16.275  3.6607 -2.6011  1.0339
 1767SOL     OW16933   1.849   0.030  16.688  0.1493  0.6197 -0.0248
 1767SOL    HW116934   1.820   0.119  16.710 -0.1335  0.9633 -1.7803
 1767SOL    HW216935   1.768   0.001  16.646 -0.6811 -0.3775  2.2222
 1768SOL     OW16936   1.604   0.114   4.606 -0.2298 -0.6776  0.2093
 1768SOL    HW116937   1.627   0.206   4.593  0.8093 -0.6213  2.5150
 1768SOL    HW216938   1.672   0.087   4.667  0.0676  1.6564  0.9202
 1769SOL     OW16939   0.838   4.735   7.104  0.8248  0.4160  0.1872
 1769SOL    HW116940   0.748   4.705   7.115  0.9974 -0.7883 -1.8493
 1769SOL    HW216941   0.849   0.066   7.167  0.6577  0.3487  0.2927
 1770SOL     OW16942   0.741   2.794  13.052  0.2302  0.2279 -0.3163
 1770SOL    HW116943   0.773   2.884  13.059  1.2606 -0.2433  0.9192
 1770SOL    HW216944   0.654   2.801  13.012  0.3903 -1.1317 -0.9271
 1771SOL     OW16945   0.663   0.883  11.334  0.1213  0.0630  0.1210
 1771SOL    HW116946   0.640   0.793  11.310 -0.4993  0.6125 -1.3868
 1771SOL    HW216947   0.634   0.884  11.425  0.3418  1.0789  0.1837
 1772SOL     OW16948   0.210   1.781   6.995 -0.1822  0.3143 -0.0171
 1772SOL    HW116949   0.288   1.762   7.048 -1.7715  0.7002  2.4541
 1772SOL    HW216950   0.244   1.776   6.905  1.0232  1.2444  0.3886
 1773SOL     OW16951   1.571   1.765   5.764  0.1177  0.5495 -0.5395
 1773SOL    HW116952   1.492   1.716   5.785 -0.1004  1.4190  0.6181
 1773SOL    HW216953   1.618   1.701   5.710 -0.5345 -1.0732  0.8128
 1774SOL     OW16954   2.506   2.266  11.568  0.3413 -0.2465 -0.4360
 1774SOL    HW116955   2.591   2.307  11.551  0.1415  1.4403  2.5309
 1774SOL    HW216956   2.493   2.304  11.655  1.8377 -0.8580  0.0578
 1775SOL     OW16957   3.759   1.616   7.930  0.2345 -0.1783 -0.5298
 1775SOL    HW116958   3.741   1.593   7.838  1.0413 -0.3167 -0.6550
 1775SOL    HW216959   3.682   1.671   7.943 -0.3811 -2.0886  3.9129
 1776SOL     OW16960   3.067   4.397   7.297  0.2149  0.2964  0.0340
 1776SOL    HW116961   2.988   4.352   7.266  0.1265 -1.6142  3.0733
 1776SOL    HW216962   3.080   4.347   7.378  1.4099  0.1872 -0.2264
 1777SOL     OW16963   3.911   1.926  13.350 -0.0627 -0.1047 -0.0605
 1777SOL    HW116964   3.947   1.853  13.299 -0.2167 -0.0029 -0.3153
 1777SOL    HW216965   3.960   1.927  13.432 -1.2617  0.1714  0.6413
 1778SOL     OW16966   2.404   3.845   7.232  0.0618 -0.6725 -0.1557
 1778SOL    HW116967   2.420   3.880   7.320 -1.6975  0.1771 -0.1690
 1778SOL    HW216968   2.366   3.922   7.190 -0.7272 -1.4438 -0.8625
 1779SOL     OW16969   4.438   4.556  16.241  0.2914 -0.2198  0.2174
 1779SOL    HW116970   4.512   4.530  16.295 -0.0167  1.3937  1.4254
 1779SOL    HW216971   4.371   4.533  16.306  2.8534 -2.4324  2.0419
 1780SOL     OW16972   1.171   4.663   9.719  0.3921  0.3280 -0.4008
 1780SOL    HW116973   1.162   0.013   9.688 -0.9830 -0.1141 -1.2984
 1780SOL    HW216974   1.248   4.635   9.669  1.6590  1.8818  0.6638
 1781SOL     OW16975   1.442   3.614   3.466 -0.3879 -0.5829 -0.0836
 1781SOL    HW116976   1.375   3.679   3.486 -0.1188 -1.0922  2.5238
 1781SOL    HW216977   1.388   3.538   3.446 -0.4031 -0.0647 -2.0105
 1782SOL     OW16978   4.690   3.041  12.255  0.2965 -0.6684 -0.4672
 1782SOL    HW116979   4.617   3.021  12.313 -0.3851  1.8107 -0.4791
 1782SOL    HW216980   4.740   3.078  12.328 -0.7762 -0.8478  0.3669
 1783SOL     OW16981   4.304   2.197   9.056  0.1506 -0.5221 -0.0798
 1783SOL    HW116982   4.260   2.267   9.104 -1.8713 -1.1867 -0.9917
 1783SOL    HW216983   4.256   2.123   9.094  1.5762  0.5307  3.8271
 1784SOL     OW16984   2.455   3.354   4.429  0.0702  0.4929 -0.0220
 1784SOL    HW116985   2.477   3.345   4.336  0.9721  0.1131  0.2269
 1784SOL    HW216986   2.361   3.336   4.427  0.4658 -1.4734 -1.5470
 1785SOL     OW16987   2.876   0.702  10.156 -0.4423  0.1476 -0.2260
 1785SOL    HW116988   2.862   0.797  10.160 -1.0475  0.0168  1.0444
 1785SOL    HW216989   2.790   0.664  10.140 -0.6279  0.6254 -0.3779
 1786SOL     OW16990   1.438   1.425   3.213 -0.1039  0.1357 -0.4676
 1786SOL    HW116991   1.516   1.468   3.246  0.6589 -3.5792  2.5794
 1786SOL    HW216992   1.483   1.343   3.194  0.8480  1.0109 -1.9629
 1787SOL     OW16993   2.267   3.917   4.765 -0.1174 -1.0931 -0.4239
 1787SOL    HW116994   2.256   3.832   4.723  0.5633 -1.0009 -0.7888
 1787SOL    HW216995   2.177   3.948   4.782 -0.5021 -1.6840 -1.3764
 1788SOL     OW16996   1.995   1.901  12.403 -0.7325 -0.3943 -0.0741
 1788SOL    HW116997   2.037   1.975  12.446 -1.0353 -0.9206  1.1281
 1788SOL    HW216998   1.955   1.850  12.474 -2.3266 -1.4800 -1.7476
 1789SOL     OW16999   0.730   3.284  10.131 -0.3444 -0.8065 -0.4972
 1789SOL    HW117000   0.691   3.329  10.206 -0.1354  0.8845 -1.3983
 1789SOL    HW217001   0.821   3.311  10.135 -0.0395 -1.6284 -1.7540
 1790SOL     OW17002   4.611   4.180   8.262  0.0845 -0.8158 -0.8347
 1790SOL    HW117003   4.583   4.114   8.199 -1.5488 -1.3690  0.4604
 1790SOL    HW217004   4.707   4.177   8.260  0.2399  2.4085  0.4848
 1791SOL     OW17005   2.381   2.875   9.298 -0.2006 -0.2826  0.3788
 1791SOL    HW117006   2.331   2.939   9.248  0.2239 -1.0931 -1.0668
 1791SOL    HW217007   2.464   2.916   9.322  0.2588 -1.8930  1.5164
 1792SOL     OW17008   2.065   3.693   7.478 -0.0194  0.2504 -0.0460
 1792SOL    HW117009   2.118   3.694   7.557 -4.0946  0.2874  2.7032
 1792SOL    HW217010   1.995   3.739   7.524 -2.0297 -1.4603 -1.3986
 1793SOL     OW17011   4.056   4.704   4.637 -0.3706  0.5285  0.1053
 1793SOL    HW117012   4.059   4.620   4.590  0.9749 -0.6706  2.3230
 1793SOL    HW217013   3.961   4.699   4.645 -0.4179 -1.7040 -1.8635
 1794SOL     OW17014   2.680   4.605  11.618 -0.6095 -0.3725  0.6301
 1794SOL    HW117015   2.775   4.616  11.622 -0.8051  1.5483 -0.1658
 1794SOL    HW217016   2.668   4.631  11.526  3.0111  0.9011  0.5442
 1795SOL     OW17017   4.043   4.539   5.145  0.6003  0.5606  0.7914
 1795SOL    HW117018   4.036   4.599   5.070 -0.9153 -0.5932  0.0106
 1795SOL    HW217019   4.083   4.470   5.091  0.2804  0.7082  0.3616
 1796SOL     OW17020   0.168   3.166   3.207  0.8389 -0.1885 -0.1415
 1796SOL    HW117021   0.187   3.075   3.232  2.8859  0.0866 -0.7032
 1796SOL    HW217022   0.257   3.201   3.214  0.3251  0.9856  0.5702
 1797SOL     OW17023   3.086   1.286   2.748  0.2315 -0.1338  0.4660
 1797SOL    HW117024   3.174   1.324   2.745 -0.0140  0.3403 -0.8128
 1797SOL    HW217025   3.060   1.276   2.657 -2.1346 -0.0397  1.1497
 1798SOL     OW17026   1.378   0.025   2.725 -0.1105  0.4004  0.1295
 1798SOL    HW117027   1.421   4.699   2.776  0.2940  0.8303  0.3546
 1798SOL    HW217028   1.379   0.101   2.783 -0.3789  2.1891 -2.1918
 1799SOL     OW17029   0.221   2.427   6.623 -0.4893  0.0198 -0.6095
 1799SOL    HW117030   0.275   2.470   6.689 -1.2507  0.9344 -0.5835
 1799SOL    HW217031   0.164   2.365   6.668  0.5211 -0.1385  0.4418
 1800SOL     OW17032   0.992   1.981   5.462 -0.1137  0.2323 -0.1655
 1800SOL    HW117033   1.000   1.887   5.445 -1.0678  0.2718 -0.8480
 1800SOL    HW217034   0.899   1.986   5.485 -0.0568 -1.1609  0.3420
 1801SOL     OW17035   1.256   3.853   2.756  0.3519  0.4888  0.4086
 1801SOL    HW117036   1.168   3.850   2.794  0.6182 -1.8277  0.8862
 1801SOL    HW217037   1.310   3.898   2.820  0.5027  0.9917 -0.0781
 1802SOL     OW17038   1.235   2.202   1.362 -0.0807 -0.1029 -0.1769
 1802SOL    HW117039   1.307   2.163   1.314 -0.0665  1.1248 -1.1683
 1802SOL    HW217040   1.226   2.138   1.432  1.0687  1.4086  1.3794
 1803SOL     OW17041   3.815   4.497   2.681 -0.1695 -0.1049  0.2812
 1803SOL    HW117042   3.787   4.406   2.672  1.1992 -0.6894  1.8368
 1803SOL    HW217043   3.807   4.532   2.592 -1.2001  2.5222  1.3963
 1804SOL     OW17044   1.953   3.420   4.044 -0.3985  0.4423  0.2199
 1804SOL    HW117045   2.020   3.422   3.975  1.1696 -2.0391  1.6854
 1804SOL    HW217046   1.933   3.514   4.042 -2.0805  0.0900  0.4165
 1805SOL     OW17047   3.261   3.455   8.592  0.0468  0.7168  0.5827
 1805SOL    HW117048   3.295   3.419   8.509 -1.1566 -0.2485  0.5186
 1805SOL    HW217049   3.318   3.415   8.658  2.5324  1.8632 -0.8592
 1806SOL     OW17050   2.590   4.376   2.406  0.6971  0.1246  0.5395
 1806SOL    HW117051   2.547   4.291   2.402  0.6152  0.0492  2.7138
 1806SOL    HW217052   2.597   4.388   2.312  0.4361 -1.1837  0.3508
 1807SOL     OW17053   1.254   3.828  11.790  0.4528 -0.7372 -0.1244
 1807SOL    HW117054   1.178   3.780  11.822 -0.0805  0.1810 -0.0207
 1807SOL    HW217055   1.254   3.801  11.698  0.6669 -3.4073  0.6599
 1808SOL     OW17056   2.558   2.552  12.028  0.6750 -0.2186 -0.0364
 1808SOL    HW117057   2.505   2.475  12.047  0.9400 -0.4475 -0.2311
 1808SOL    HW217058   2.647   2.526  12.052 -0.3317 -3.0697  0.5162
 1809SOL     OW17059   1.364   1.171   6.243  0.7750 -0.2761  0.4460
 1809SOL    HW117060   1.383   1.077   6.241 -0.2402 -0.4382 -1.3378
 1809SOL    HW217061   1.286   1.174   6.298 -1.5541 -0.7809 -2.8239
 1810SOL     OW17062   2.450   1.104  10.214  0.1472 -0.1516  0.1354
 1810SOL    HW117063   2.432   1.072  10.302 -2.8339  1.1251 -0.0176
 1810SOL    HW217064   2.365   1.126  10.177 -0.6855 -0.8814  1.6336
 1811SOL     OW17065   3.466   3.504   0.927 -0.1653  0.0715 -0.1222
 1811SOL    HW117066   3.475   3.535   0.837  0.9653  1.0037  0.3067
 1811SOL    HW217067   3.557   3.514   0.956 -0.6465  0.8890  1.1103
 1812SOL     OW17068   2.464   0.079   8.536  0.6481 -0.9008 -0.1681
 1812SOL    HW117069   2.470   0.107   8.628  1.6103 -0.1655 -0.4620
 1812SOL    HW217070   2.383   0.030   8.548  0.3637 -0.8573 -1.9275
 1813SOL     OW17071   3.843   3.541   4.595  0.0513 -0.6844 -0.3136
 1813SOL    HW117072   3.795   3.612   4.637  0.2352 -0.8759  0.2106
 1813SOL    HW217073   3.766   3.494   4.562  0.1494  0.2215 -1.8679
 1814SOL     OW17074   1.707   1.535  13.849  0.3545  0.2318  0.3104
 1814SOL    HW117075   1.640   1.467  13.853 -0.7506  1.3223  0.3427
 1814SOL    HW217076   1.691   1.556  13.757 -1.3543 -0.7033  0.3917
 1815SOL     OW17077   2.358   1.864  12.270 -0.2709 -0.4920  0.3055
 1815SOL    HW117078   2.397   1.917  12.339  1.0063 -2.1913  0.8873
 1815SOL    HW217079   2.345   1.782  12.317  0.6420 -0.8372 -0.0526
 1816SOL     OW17080   0.485   3.745   7.578  0.3131 -0.3606 -0.1176
 1816SOL    HW117081   0.567   3.707   7.546  1.2222  2.5581 -1.2384
 1816SOL    HW217082   0.425   3.743   7.503  1.2174  2.7138 -0.9577
 1817SOL     OW17083   1.424   2.704  13.548 -0.1057 -0.0212  0.4842
 1817SOL    HW117084   1.384   2.636  13.495  0.3545  0.7121 -0.7883
 1817SOL    HW217085   1.380   2.781  13.512 -0.3638  0.3290  1.5407
 1818SOL     OW17086   4.582   0.908  10.503 -0.4944  0.6543  0.0225
 1818SOL    HW117087   4.549   0.965  10.433 -0.4997  0.5984 -0.0208
 1818SOL    HW217088   4.497   0.869  10.525 -0.8948  0.8144 -1.2430
 1819SOL     OW17089   3.445   0.669   7.954  0.1252 -0.8500 -0.1762
 1819SOL    HW117090   3.370   0.716   7.993 -1.3118 -2.7002 -0.7122
 1819SOL    HW217091   3.484   0.622   8.028  3.3131  1.5152 -0.3710
 1820SOL     OW17092   2.010   3.240   2.157 -0.0403  0.0069 -0.0642
 1820SOL    HW117093   2.082   3.191   2.116 -1.3864 -2.2328  0.2335
 1820SOL    HW217094   1.946   3.172   2.180 -0.1244  0.6236  1.5165
 1821SOL     OW17095   2.330   0.775   2.799  0.0300 -0.3845  0.0812
 1821SOL    HW117096   2.363   0.804   2.713  0.3944  1.3696  0.8178
 1821SOL    HW217097   2.241   0.806   2.787  0.3614 -0.4719 -2.7499
 1822SOL     OW17098   1.665   3.640  10.998  0.1750  0.0775 -0.0257
 1822SOL    HW117099   1.594   3.704  11.007 -1.0356 -0.9649 -1.9346
 1822SOL    HW217100   1.630   3.571  10.941  1.8452 -1.1505  0.4392
 1823SOL     OW17101   1.774   0.083   3.808 -0.1520 -0.0356 -0.3210
 1823SOL    HW117102   1.744   0.167   3.774  1.3411  0.7089  0.1909
 1823SOL    HW217103   1.785   0.107   3.900 -1.8004 -0.0837 -0.1168
 1824SOL     OW17104   4.085   4.129   4.879  0.0333  0.1759  0.1949
 1824SOL    HW117105   4.019   4.080   4.830  1.1001 -1.6362  0.5957
 1824SOL    HW217106   4.113   4.057   4.935 -0.4391 -0.7236 -0.7436
 1825SOL     OW17107   3.070   1.006   2.597 -0.2355 -0.4763 -0.3278
 1825SOL    HW117108   3.014   0.986   2.672  1.6891 -1.8374  0.7643
 1825SOL    HW217109   3.035   1.085   2.556  1.6175  0.4277 -0.1619
 1826SOL     OW17110   2.225   4.679  10.429 -0.5392 -0.1144  0.3776
 1826SOL    HW117111   2.204   4.644  10.516 -0.3691 -0.8270  0.1372
 1826SOL    HW217112   2.285   0.008  10.455 -2.7133  1.6678  0.6113
 1827SOL     OW17113   2.291   1.902  16.559  0.3248  0.3456 -0.1178
 1827SOL    HW117114   2.324   1.828  16.610 -1.0802 -0.8991 -1.0178
 1827SOL    HW217115   2.279   1.965  16.631  1.5672  0.0936  0.3103
 1828SOL     OW17116   2.512   1.400  14.293  0.0491 -0.3386  0.2605
 1828SOL    HW117117   2.595   1.379  14.249 -0.4429  0.4446 -1.0411
 1828SOL    HW217118   2.504   1.484  14.248 -1.3003 -2.0904 -2.8052
 1829SOL     OW17119   0.662   1.453   6.832  0.6418 -0.0251 -0.2376
 1829SOL    HW117120   0.639   1.361   6.837  0.6204 -0.0404 -0.6265
 1829SOL    HW217121   0.710   1.464   6.915 -0.5315  0.8300  0.3285
 1830SOL     OW17122   1.554   2.337   2.631 -0.0868  0.1774 -0.1421
 1830SOL    HW117123   1.586   2.410   2.578 -0.4071 -1.0012 -1.9857
 1830SOL    HW217124   1.567   2.272   2.561  0.9259 -0.5027  0.6766
 1831SOL     OW17125   3.126   0.318   8.470 -0.2261  0.2664 -0.3141
 1831SOL    HW117126   3.189   0.293   8.402 -1.3528 -1.3643 -0.7707
 1831SOL    HW217127   3.098   0.403   8.436 -0.4818  0.5135  0.5351
 1832SOL     OW17128   1.461   1.661   1.620 -0.1870 -0.4199  0.0603
 1832SOL    HW117129   1.407   1.584   1.604 -0.1689 -0.2403 -0.9024
 1832SOL    HW217130   1.394   1.728   1.628  0.2575  0.1465 -0.8527
 1833SOL     OW17131   0.532   0.554  15.760 -0.5959  0.0884  0.3093
 1833SOL    HW117132   0.500   0.577  15.847 -0.1417  2.3840 -0.1441
 1833SOL    HW217133   0.569   0.641  15.750 -1.8606  0.3316 -2.2932
 1834SOL     OW17134   3.249   0.473  17.326 -0.3816  0.3682 -0.0329
 1834SOL    HW117135   3.314   0.465  17.397  1.2934 -0.2535 -1.6361
 1834SOL    HW217136   3.166   0.447  17.365  0.8139 -1.5439  1.2259
 1835SOL     OW17137   1.653   4.588   4.053 -0.3222  0.2929  0.4882
 1835SOL    HW117138   1.631   4.624   4.138  0.9907 -0.8119  1.3094
 1835SOL    HW217139   1.746   4.611   4.055 -0.2829  0.0467  1.5473
 1836SOL     OW17140   3.199   2.828   6.342  0.3921 -0.7275 -0.0643
 1836SOL    HW117141   3.110   2.793   6.350 -0.2940  1.4296  1.9670
 1836SOL    HW217142   3.261   2.762   6.372 -0.5475 -1.1222  1.0160
 1837SOL     OW17143   1.976   2.901  12.164 -0.4550  0.6323  0.1121
 1837SOL    HW117144   1.996   2.812  12.135 -0.6897  0.3323  0.8540
 1837SOL    HW217145   2.034   2.912  12.240  1.1177 -0.1349 -0.9681
 1838SOL     OW17146   1.505   1.023   5.636  0.4418 -0.1929  0.2974
 1838SOL    HW117147   1.442   0.961   5.671 -1.2380  1.9452  1.0275
 1838SOL    HW217148   1.573   1.030   5.703  1.0670  1.7763 -0.5504
 1839SOL     OW17149   2.338   4.389   6.658 -0.5844  0.5108  0.5749
 1839SOL    HW117150   2.321   4.483   6.650 -1.3511  0.5091  2.3386
 1839SOL    HW217151   2.424   4.384   6.615 -0.7714 -1.2218  0.3964
 1840SOL     OW17152   2.501   0.911   8.292  0.6685  0.3147  0.3618
 1840SOL    HW117153   2.520   0.918   8.386  0.6624 -0.8033  0.4553
 1840SOL    HW217154   2.556   0.833   8.283 -1.1019 -0.8050 -0.6975
 1841SOL     OW17155   0.645   0.995   2.427 -0.3359 -0.2426  0.4822
 1841SOL    HW117156   0.563   0.946   2.418 -1.6136  1.7237  1.2675
 1841SOL    HW217157   0.712   0.927   2.420  1.2340  1.4460 -0.9429
 1842SOL     OW17158   0.986   1.821   6.068 -0.1853  0.3554 -0.1052
 1842SOL    HW117159   0.933   1.894   6.101  0.0989  0.1926  0.6940
 1842SOL    HW217160   1.026   1.779   6.144  0.4738 -3.2035 -2.4569
 1843SOL     OW17161   4.334   4.152   1.781  0.2157 -0.1644 -0.7346
 1843SOL    HW117162   4.343   4.061   1.808  1.7702  0.3992  0.6102
 1843SOL    HW217163   4.239   4.155   1.798 -0.0284  0.0781 -2.1156
 1844SOL     OW17164   1.944   2.639   6.146 -0.3687 -0.5663 -0.2425
 1844SOL    HW117165   1.980   2.567   6.093  0.5338 -1.0486  1.0389
 1844SOL    HW217166   1.878   2.589   6.194 -0.3280 -0.7061 -0.3304
 1845SOL     OW17167   2.552   2.931   7.852  0.0242  0.1143 -0.3808
 1845SOL    HW117168   2.478   2.873   7.836  0.2784 -0.2680 -0.1656
 1845SOL    HW217169   2.512   3.017   7.836 -0.1654  0.0484 -0.2535
 1846SOL     OW17170   3.108   0.323   2.992  0.3774 -0.1254 -0.2863
 1846SOL    HW117171   3.114   0.419   2.994  0.1624 -0.1248  0.2014
 1846SOL    HW217172   3.030   0.300   3.043  1.1645  1.5464  1.6707
 1847SOL     OW17173   4.448   3.444   3.915  0.2657 -0.3580 -0.7282
 1847SOL    HW117174   4.472   3.534   3.939  1.6277 -1.4628  2.0572
 1847SOL    HW217175   4.510   3.387   3.961 -0.3052 -0.5113 -0.1508
 1848SOL     OW17176   0.417   0.663   5.288  0.1218  0.3141  0.2740
 1848SOL    HW117177   0.350   0.707   5.340  0.2006 -2.0260  2.3871
 1848SOL    HW217178   0.475   0.738   5.273 -1.7097  1.5937 -0.4395
 1849SOL     OW17179   3.815   1.914   4.544  0.2905 -0.1450 -0.2803
 1849SOL    HW117180   3.764   1.926   4.465  1.9946 -0.5378 -1.4379
 1849SOL    HW217181   3.901   1.910   4.502  0.3781 -0.6156 -0.0549
 1850SOL     OW17182   0.360   3.150   5.300 -0.0583 -0.5169  0.2444
 1850SOL    HW117183   0.338   3.222   5.240 -0.4978  0.1865  1.2393
 1850SOL    HW217184   0.337   3.072   5.251  1.9448 -0.4855 -0.7599
 1851SOL     OW17185   3.810   0.906   0.621  0.3842  0.1875 -0.1179
 1851SOL    HW117186   3.739   0.966   0.642  1.2353  0.9109  0.6872
 1851SOL    HW217187   3.884   0.962   0.644  0.0422  0.4391  0.3607
 1852SOL     OW17188   0.597   2.626   6.676  0.2844  0.0742 -0.0808
 1852SOL    HW117189   0.544   2.628   6.596  1.9309  1.1975 -1.1548
 1852SOL    HW217190   0.556   2.695   6.728 -1.1998 -1.9269  1.3949
 1853SOL     OW17191   4.735   4.513   1.754  0.4286 -0.4920  0.0539
 1853SOL    HW117192   4.725   4.604   1.728  0.4184 -0.4325  0.2626
 1853SOL    HW217193   4.694   4.465   1.683  0.4468  2.0813 -1.6874
 1854SOL     OW17194   0.195   0.314   8.610 -0.4757  0.0204 -0.7578
 1854SOL    HW117195   0.206   0.398   8.566 -0.1501  0.1130 -0.5015
 1854SOL    HW217196   0.164   0.247   8.549 -2.9436  0.5290 -0.0446
 1855SOL     OW17197   1.145   2.995   3.215  0.5632  0.1385 -0.2261
 1855SOL    HW117198   1.179   2.973   3.302  0.3341 -1.4627 -0.5394
 1855SOL    HW217199   1.157   3.090   3.212  1.6584  0.0752  2.1045
 1856SOL     OW17200   3.209   4.231   5.456 -0.5901 -0.1151  0.3566
 1856SOL    HW117201   3.183   4.182   5.534 -2.2107 -1.6194 -1.1459
 1856SOL    HW217202   3.253   4.304   5.500 -1.0119  0.3592 -0.0079
 1857SOL     OW17203   2.492   4.581   9.758 -0.1622  0.5598 -0.5433
 1857SOL    HW117204   2.432   4.551   9.826  1.1702 -2.2542 -0.6080
 1857SOL    HW217205   2.575   4.586   9.807 -1.2004  1.0777  1.1848
 1858SOL     OW17206   4.194   1.405   6.440 -0.1431 -0.7018  0.7140
 1858SOL    HW117207   4.121   1.379   6.497 -0.6977  1.0040  0.7745
 1858SOL    HW217208   4.216   1.493   6.471 -1.6817 -0.1497  0.2050
 1859SOL     OW17209   4.554   0.409   6.836 -0.1108  0.2967  0.2887
 1859SOL    HW117210   4.491   0.381   6.902  0.2140 -0.0755  0.4460
 1859SOL    HW217211   4.631   0.419   6.892 -0.6691  0.9170  0.9408
 1860SOL     OW17212   4.373   4.470   9.428 -0.2120  0.3665  0.1747
 1860SOL    HW117213   4.354   4.474   9.522 -2.5845  2.5832 -0.3828
 1860SOL    HW217214   4.355   4.564   9.415 -2.0384  0.1511  1.1583
 1861SOL     OW17215   4.690   4.324   6.475  0.4259  0.1886 -0.3513
 1861SOL    HW117216   4.675   4.341   6.568 -0.0378 -1.3266 -0.1453
 1861SOL    HW217217   4.620   4.262   6.454  0.3665 -0.1422  0.8487
 1862SOL     OW17218   4.094   4.171   2.752  0.0213  0.6742 -0.9914
 1862SOL    HW117219   4.065   4.245   2.699 -1.2583  1.0079  0.1746
 1862SOL    HW217220   4.012   4.123   2.740  0.6963 -0.7934  0.2263
 1863SOL     OW17221   1.669   4.082  15.295  0.2592  0.1887  0.2978
 1863SOL    HW117222   1.757   4.046  15.294 -0.4925 -1.6864  1.6154
 1863SOL    HW217223   1.631   4.050  15.377  1.3396 -1.2033  0.2473
 1864SOL     OW17224   2.660   3.270   5.197 -0.4620  0.3237  0.3068
 1864SOL    HW117225   2.666   3.332   5.270  1.9449 -2.1917  2.2635
 1864SOL    HW217226   2.661   3.326   5.119  0.3266 -1.8907 -1.2683
 1865SOL     OW17227   2.455   3.626  13.539 -0.3968  0.0905 -0.4750
 1865SOL    HW117228   2.402   3.661  13.610 -0.9724 -0.5376 -0.5858
 1865SOL    HW217229   2.525   3.596  13.597 -2.1121  0.2726  1.6988
 1866SOL     OW17230   4.544   4.071   5.307 -0.2635  0.1013  0.9365
 1866SOL    HW117231   4.501   3.996   5.349 -0.6872  0.2572  0.7821
 1866SOL    HW217232   4.625   4.036   5.271 -1.3877  0.3068 -1.8083
 1867SOL     OW17233   0.369   3.670   4.753 -0.4677 -0.2709 -0.1810
 1867SOL    HW117234   0.452   3.635   4.720 -0.9491  0.5597 -2.2655
 1867SOL    HW217235   0.404   3.727   4.822  0.7764  0.3087 -1.2946
 1868SOL     OW17236   3.881   0.003  11.437 -0.3183  0.7855 -0.2643
 1868SOL    HW117237   3.958   0.012  11.381  1.0989 -0.3218  1.5279
 1868SOL    HW217238   3.926   4.714  11.516 -3.1629 -3.7191 -0.3450
 1869SOL     OW17239   3.439   4.608   0.210 -0.1173  0.1103 -0.7578
 1869SOL    HW117240   3.432   4.622   0.305 -0.2539  2.6757 -1.1454
 1869SOL    HW217241   3.470   4.695   0.182  2.5497 -0.7225 -0.4603
 1870SOL     OW17242   2.092   4.503   3.894 -0.6949  0.0631  0.3724
 1870SOL    HW117243   2.163   4.519   3.955 -0.6473 -0.6889  0.5234
 1870SOL    HW217244   2.046   4.586   3.884  1.1177  0.8995 -1.1405
 1871SOL     OW17245   2.573   3.425  10.440  0.1440 -0.0679 -0.1019
 1871SOL    HW117246   2.559   3.429  10.535  2.2057  1.2265  0.1390
 1871SOL    HW217247   2.481   3.423  10.412  0.0359 -0.2545  0.2730
 1872SOL     OW17248   1.286   1.494   8.058  0.1101 -0.3718  0.0019
 1872SOL    HW117249   1.299   1.401   8.078  1.3916  0.3230  2.5010
 1872SOL    HW217250   1.371   1.530   8.084 -0.2091  0.6476 -0.3637
 1873SOL     OW17251   0.678   4.344   2.887 -0.3609 -0.2851 -0.3346
 1873SOL    HW117252   0.737   4.272   2.865 -0.4404 -0.8854  1.3901
 1873SOL    HW217253   0.748   4.390   2.935  0.3112 -1.7695  0.1090
 1874SOL     OW17254   2.400   2.280  12.038 -0.5751  1.1930 -0.2744
 1874SOL    HW117255   2.313   2.282  12.078 -1.4369 -3.2805 -1.8520
 1874SOL    HW217256   2.436   2.193  12.056  0.7268  1.3531 -2.0970
 1875SOL     OW17257   0.651   0.648   2.166  0.5987 -0.6681 -0.6746
 1875SOL    HW117258   0.615   0.576   2.217 -0.3993 -0.5617 -1.2310
 1875SOL    HW217259   0.737   0.658   2.207 -0.6916  2.0034  1.3768
 1876SOL     OW17260   1.360   4.600   7.278  0.0830 -0.4728 -0.3909
 1876SOL    HW117261   1.429   4.559   7.227 -1.7960  0.0632 -3.3789
 1876SOL    HW217262   1.282   4.545   7.281 -1.0494  1.1982  0.7321
 1877SOL     OW17263   4.117   2.270   5.139  0.0548 -0.2045 -0.0074
 1877SOL    HW117264   4.209   2.246   5.154  0.6078 -0.0819 -3.1153
 1877SOL    HW217265   4.130   2.364   5.145 -1.0733 -0.0542 -0.0624
 1878SOL     OW17266   2.200   1.878   7.605 -0.2480 -0.1720  0.1093
 1878SOL    HW117267   2.131   1.945   7.609  0.0361  0.0658  1.1222
 1878SOL    HW217268   2.157   1.794   7.619 -1.4687  0.4749  0.3159
 1879SOL     OW17269   1.992   0.418   3.299 -0.1436 -0.4010 -0.3661
 1879SOL    HW117270   1.961   0.340   3.345  0.7039 -0.1155  0.7014
 1879SOL    HW217271   2.060   0.381   3.243 -1.4335 -2.1535 -0.7868
 1880SOL     OW17272   1.175   1.457   6.492  0.1925  0.1336  0.2005
 1880SOL    HW117273   1.220   1.434   6.573  1.6646  4.8589  0.7479
 1880SOL    HW217274   1.248   1.455   6.430  0.1336  0.4055  0.1206
 1881SOL     OW17275   0.806   3.904   7.202  0.5435  0.2238  0.4249
 1881SOL    HW117276   0.768   3.904   7.290 -0.1779 -1.2156  0.1221
 1881SOL    HW217277   0.824   3.810   7.198  0.3256  0.2054 -0.1793
 1882SOL     OW17278   3.462   1.754  16.289  0.3005  0.6957 -0.2708
 1882SOL    HW117279   3.480   1.836  16.243 -2.7381  0.3505 -2.0324
 1882SOL    HW217280   3.518   1.691  16.244  2.0729  1.4129  0.9037
 1883SOL     OW17281   0.308   1.296   1.704 -0.2215  0.1007 -0.2600
 1883SOL    HW117282   0.250   1.356   1.657  0.4824  1.7885  1.0373
 1883SOL    HW217283   0.351   1.256   1.628  2.5823  2.5053  0.0776
 1884SOL     OW17284   1.369   4.049   9.978  0.3326  0.2109 -0.4928
 1884SOL    HW117285   1.377   4.097  10.060  0.2449 -1.2713  0.3815
 1884SOL    HW217286   1.428   4.093   9.916  3.5974 -0.4142  2.1773
 1885SOL     OW17287   3.541   0.534   2.195 -0.1497 -0.1399  0.3233
 1885SOL    HW117288   3.519   0.572   2.110 -0.2363  1.8940  1.2718
 1885SOL    HW217289   3.607   0.467   2.175  1.4159  1.2114  0.9457
 1886SOL     OW17290   3.286   3.187  12.589  0.2236  0.3711  0.2070
 1886SOL    HW117291   3.215   3.200  12.526  2.0070  1.6755 -1.5181
 1886SOL    HW217292   3.351   3.172  12.520  0.5004 -1.7272  0.9322
 1887SOL     OW17293   2.329   3.430   5.140  0.5403  0.4154  0.4680
 1887SOL    HW117294   2.257   3.401   5.195 -0.3382  1.1826 -0.2843
 1887SOL    HW217295   2.368   3.351   5.101 -2.7346 -1.3408  0.7953
 1888SOL     OW17296   1.536   4.557   2.787 -0.4652  0.0889  0.4548
 1888SOL    HW117297   1.617   4.558   2.736  0.9124 -0.1822  2.5877
 1888SOL    HW217298   1.572   4.584   2.872  2.3753  3.1866 -1.7371
 1889SOL     OW17299   1.388   1.700   7.452  0.1661 -0.2099  0.2376
 1889SOL    HW117300   1.329   1.698   7.377  0.3114  0.2832  0.1123
 1889SOL    HW217301   1.466   1.743   7.417  0.0318 -0.2825 -0.1460
 1890SOL     OW17302   4.574   1.616   2.864 -0.1131  0.5471  0.3590
 1890SOL    HW117303   4.519   1.672   2.919 -0.0327 -2.0082  3.0236
 1890SOL    HW217304   4.654   1.669   2.867 -0.0087  0.4551 -0.8498
 1891SOL     OW17305   2.253   4.270  15.181  0.2838  0.5617  0.3494
 1891SOL    HW117306   2.320   4.297  15.244  0.4164  0.7445  0.1340
 1891SOL    HW217307   2.174   4.269  15.234  0.7182  2.6720  1.0297
 1892SOL     OW17308   1.467   0.070  15.333 -0.1862 -0.1610  0.3876
 1892SOL    HW117309   1.450   0.018  15.254  0.3009  0.1533  0.0789
 1892SOL    HW217310   1.562   0.066  15.341 -0.4777 -2.1066  2.7532
 1893SOL     OW17311   2.175   3.552   2.008  0.5386  0.1812  0.1016
 1893SOL    HW117312   2.217   3.478   2.053  0.4500 -0.3742 -0.7405
 1893SOL    HW217313   2.084   3.524   2.006  0.3538  0.8756 -1.2241
 1894SOL     OW17314   1.481   2.027   7.054  0.4615 -0.0229 -0.1126
 1894SOL    HW117315   1.420   2.089   7.014  0.3827 -1.7632 -2.7464
 1894SOL    HW217316   1.559   2.079   7.070 -0.7612  1.3080  1.4749
 1895SOL     OW17317   2.497   4.522   7.357  0.2991 -0.0896 -0.4853
 1895SOL    HW117318   2.569   4.508   7.418  0.3220  0.2717 -0.4329
 1895SOL    HW217319   2.426   4.555   7.413 -0.0780  0.3259 -1.2072
 1896SOL     OW17320   4.036   0.876   7.750 -0.1443 -0.1876 -0.0272
 1896SOL    HW117321   3.970   0.943   7.733 -0.2571  0.7824  4.2504
 1896SOL    HW217322   4.118   0.923   7.763  1.1098 -1.7989 -2.0509
 1897SOL     OW17323   0.730   0.010   5.757  0.4211  0.4199  0.0992
 1897SOL    HW117324   0.700   4.674   5.709  0.0446  0.3441  0.4511
 1897SOL    HW217325   0.736   0.063   5.677  1.9174 -1.4798 -1.0484
 1898SOL     OW17326   4.248   1.633   0.770  0.1011  0.2441 -0.3450
 1898SOL    HW117327   4.301   1.653   0.693  0.6937 -0.9243 -0.2437
 1898SOL    HW217328   4.299   1.690   0.827 -1.6363 -0.5772  2.0475
 1899SOL     OW17329   2.594   0.405   8.049 -0.0744 -0.2837 -0.1154
 1899SOL    HW117330   2.629   0.426   7.963  1.4619  1.0104  0.8229
 1899SOL    HW217331   2.652   0.332   8.071 -0.3566  0.3139  2.6552
 1900SOL     OW17332   1.513   1.294  11.820  0.7378  0.1391 -0.0577
 1900SOL    HW117333   1.476   1.367  11.870  2.1116 -0.4908  1.8611
 1900SOL    HW217334   1.443   1.256  11.767 -1.2709  2.1959  1.1429
 1901SOL     OW17335   1.848   4.468  15.870 -0.1289 -0.4636 -0.5078
 1901SOL    HW117336   1.835   4.473  15.965  1.3374 -1.4213 -0.2546
 1901SOL    HW217337   1.837   4.375  15.852 -1.2784 -0.4353  0.0523
 1902SOL     OW17338   2.859   3.516   2.516 -0.1210  0.4606  0.0809
 1902SOL    HW117339   2.868   3.611   2.518  0.0872  0.4628 -0.6493
 1902SOL    HW217340   2.764   3.512   2.527 -0.2810  0.0506 -1.3930
 1903SOL     OW17341   1.034   0.650   4.067 -0.2724 -0.2140 -0.1411
 1903SOL    HW117342   1.026   0.612   3.980 -1.1073 -0.2101 -0.0732
 1903SOL    HW217343   1.023   0.745   4.063  2.0117  0.0382 -0.2625
 1904SOL     OW17344   1.073   2.608  17.514  0.0532  0.0654 -0.0062
 1904SOL    HW117345   1.003   2.620  17.450 -0.8167  1.7275  1.2714
 1904SOL    HW217346   1.157   2.613  17.466 -1.0066  0.6412 -1.8023
 1905SOL     OW17347   3.221   4.590  12.798  0.0890  0.3319 -1.2185
 1905SOL    HW117348   3.144   4.608  12.745 -0.1507  0.5717 -0.7848
 1905SOL    HW217349   3.173   4.596  12.881  1.2526 -2.6873 -0.3463
 1906SOL     OW17350   4.273   0.979  15.840 -0.3896  0.3228 -0.3425
 1906SOL    HW117351   4.228   1.062  15.826 -0.1281  0.5789  0.3074
 1906SOL    HW217352   4.308   0.947  15.757  1.0298  0.9867 -0.0042
 1907SOL     OW17353   4.712   2.075  13.936 -0.7107 -0.2721  0.0973
 1907SOL    HW117354   4.693   2.032  14.019  0.3563 -1.1074 -0.0874
 1907SOL    HW217355   0.050   2.126  13.954  1.2394 -3.4193  0.3148
 1908SOL     OW17356   3.793   4.272   1.906  0.0991 -0.3065  1.2773
 1908SOL    HW117357   3.755   4.228   1.831  2.0615  1.4426 -0.7349
 1908SOL    HW217358   3.718   4.273   1.966 -0.0745  2.1315  1.0323
 1909SOL     OW17359   4.019   1.793   0.293 -0.6052  0.3632  0.0873
 1909SOL    HW117360   3.953   1.736   0.254  0.5304  1.4289 -3.4013
 1909SOL    HW217361   3.983   1.879   0.270 -1.3013 -0.0578 -0.4154
 1910SOL     OW17362   3.428   1.308  16.262  0.2998  0.1060 -0.3558
 1910SOL    HW117363   3.417   1.215  16.243  0.9142  0.0683 -0.5055
 1910SOL    HW217364   3.519   1.318  16.236  1.3222  1.0751  3.6973
 1911SOL     OW17365   4.214   0.100   4.345  0.0217  0.1126 -0.1147
 1911SOL    HW117366   4.280   0.139   4.402 -1.6621  1.0455  1.2214
 1911SOL    HW217367   4.138   0.139   4.390  0.4546 -0.2483  0.9130
 1912SOL     OW17368   3.654   3.969   1.968 -0.3323 -0.1587  0.0536
 1912SOL    HW117369   3.576   3.946   1.917 -0.0468  0.0133 -0.4676
 1912SOL    HW217370   3.609   4.049   1.995  1.1003 -0.0254  2.0257
 1913SOL     OW17371   0.732   1.991   5.510  0.0993 -0.2137  0.1129
 1913SOL    HW117372   0.707   1.936   5.436  0.4876 -0.5303  0.2148
 1913SOL    HW217373   0.650   2.040   5.514 -0.8211 -1.6111 -1.3638
 1914SOL     OW17374   1.247   4.288   9.867  0.2326 -0.4057 -0.4492
 1914SOL    HW117375   1.320   4.250   9.817  0.1259 -0.5303 -0.5090
 1914SOL    HW217376   1.188   4.213   9.877 -0.0309 -0.3825 -1.8530
 1915SOL     OW17377   2.026   1.273   6.921 -0.7285  0.4443  0.1938
 1915SOL    HW117378   1.933   1.265   6.899 -0.4427 -3.5099  0.4354
 1915SOL    HW217379   2.033   1.347   6.982 -1.5256 -1.1587  2.2454
 1916SOL     OW17380   0.853   1.416   8.188 -0.3217  0.2146  0.1770
 1916SOL    HW117381   0.828   1.442   8.277 -0.3050 -1.5516  0.7001
 1916SOL    HW217382   0.924   1.478   8.173 -0.8562  1.0386  1.0786
 1917SOL     OW17383   3.137   1.623   0.912 -0.3860 -0.3782  0.0955
 1917SOL    HW117384   3.110   1.690   0.848  1.1437 -1.2217 -1.4243
 1917SOL    HW217385   3.066   1.630   0.976  0.3684  0.4108  0.8578
 1918SOL     OW17386   1.954   4.608   8.284  0.0641  0.8566 -0.1765
 1918SOL    HW117387   2.034   4.616   8.232  0.3827 -1.5659 -0.0547
 1918SOL    HW217388   1.889   4.609   8.213 -0.6329  2.4545  0.4854
 1919SOL     OW17389   0.122   2.196   7.319  0.3115 -0.3613  0.6141
 1919SOL    HW117390   0.211   2.172   7.293  0.6538  0.4800  1.0050
 1919SOL    HW217391   0.132   2.189   7.414  1.8175  2.3420  0.6384
 1920SOL     OW17392   3.241   2.381   1.954  0.1466  0.6358  0.1980
 1920SOL    HW117393   3.177   2.451   1.970 -0.8913 -0.7244  1.9639
 1920SOL    HW217394   3.258   2.384   1.860 -0.7812 -2.1495 -0.0708
 1921SOL     OW17395   2.292   1.293  11.965 -0.1096  0.7739 -0.5248
 1921SOL    HW117396   2.263   1.299  12.056  2.5194 -0.1230  0.3734
 1921SOL    HW217397   2.209   1.264  11.925 -0.3783  1.9074 -0.7936
 1922SOL     OW17398   4.350   0.953   6.056  0.0718  0.4119 -0.1116
 1922SOL    HW117399   4.304   0.885   6.006 -1.4708  0.4890  1.2024
 1922SOL    HW217400   4.439   0.925   6.036  0.5694  1.5621  0.5617
 1923SOL     OW17401   2.671   4.153   9.855  0.1910  0.1936 -0.2169
 1923SOL    HW117402   2.643   4.171   9.765  0.5865  1.7203 -0.0412
 1923SOL    HW217403   2.745   4.094   9.842  0.0788  0.2090 -0.9336
 1924SOL     OW17404   0.873   1.441   3.758 -0.6076 -0.5421  0.0193
 1924SOL    HW117405   0.824   1.476   3.832 -1.5554 -0.7173 -0.5214
 1924SOL    HW217406   0.800   1.395   3.717 -1.7200  0.0206  1.3758
 1925SOL     OW17407   3.852   4.726   6.351  0.5139 -0.5498  0.2127
 1925SOL    HW117408   3.905   0.064   6.344 -1.1156  0.5671  0.3282
 1925SOL    HW217409   3.833   4.707   6.259 -1.1533  2.5179 -0.0924
 1926SOL     OW17410   3.634   1.943  15.583  0.1109 -0.3631 -0.0519
 1926SOL    HW117411   3.544   1.955  15.552 -0.1506  0.7594  1.1707
 1926SOL    HW217412   3.686   1.963  15.505 -1.8136  0.8322 -1.0126
 1927SOL     OW17413   2.974   0.992   8.001 -0.1850 -0.3589 -0.0232
 1927SOL    HW117414   2.894   1.042   8.017 -0.9158 -1.8009  0.9278
 1927SOL    HW217415   2.948   0.933   7.930 -1.7441  0.5618 -0.2157
 1928SOL     OW17416   0.011   3.347   3.045  0.4357 -0.3271 -0.0647
 1928SOL    HW117417   0.052   3.264   3.069  0.2463 -0.8358 -1.4675
 1928SOL    HW217418   0.072   3.380   2.979  0.0206 -1.0958 -0.8358
 1929SOL     OW17419   4.179   0.482   8.497 -0.6422  0.5208  0.2697
 1929SOL    HW117420   4.092   0.459   8.465 -0.8968  2.0565 -0.1352
 1929SOL    HW217421   4.244   0.460   8.430  1.0802 -0.8454  2.4118
 1930SOL     OW17422   4.578   0.992   1.544 -0.1709  0.1445 -0.1281
 1930SOL    HW117423   4.649   0.935   1.575 -0.3965  0.6358  1.2803
 1930SOL    HW217424   4.630   1.030   1.473 -1.6619  0.8380 -0.8274
 1931SOL     OW17425   2.730   2.015  11.042  0.1622 -0.3813  0.0931
 1931SOL    HW117426   2.732   2.042  10.951  1.6351 -0.8021 -0.0040
 1931SOL    HW217427   2.639   1.990  11.057 -0.6904  0.9262 -2.9731
 1932SOL     OW17428   3.182   1.202  13.978  0.5657  0.6193  0.6618
 1932SOL    HW117429   3.194   1.117  14.019 -0.2300 -0.0487 -0.5132
 1932SOL    HW217430   3.095   1.221  14.013 -0.0875 -1.0691 -0.0992
 1933SOL     OW17431   1.472   3.354   3.144 -0.1191  0.1579 -0.5641
 1933SOL    HW117432   1.516   3.420   3.197  2.6058  1.1604 -4.1076
 1933SOL    HW217433   1.523   3.352   3.063  0.6683 -0.6585 -0.0575
 1934SOL     OW17434   4.498   1.972   0.988 -0.0313  0.7559 -0.5812
 1934SOL    HW117435   4.542   1.918   0.922  0.1267  0.9721 -0.6551
 1934SOL    HW217436   4.474   2.042   0.927  2.7134  1.3297 -1.0008
 1935SOL     OW17437   0.023   3.781   3.370  0.2483 -0.6443 -0.2288
 1935SOL    HW117438   4.686   3.772   3.315 -1.0369 -0.0358  1.4807
 1935SOL    HW217439   0.094   3.742   3.320 -0.5278 -2.4300  0.0620
 1936SOL     OW17440   0.124   3.936   5.758 -0.0710 -0.6033  0.0519
 1936SOL    HW117441   0.190   3.926   5.827 -0.0235 -3.1473 -0.3639
 1936SOL    HW217442   0.051   3.974   5.807 -0.8804  0.7102 -2.1631
 1937SOL     OW17443   4.531   1.678   1.039  0.1797  0.2633  0.0188
 1937SOL    HW117444   4.506   1.666   0.947  1.3295 -1.7877 -0.0267
 1937SOL    HW217445   4.460   1.624   1.076  0.3848  0.4164  0.6335
 1938SOL     OW17446   2.466   2.972   5.061  0.1247  0.2686  0.1531
 1938SOL    HW117447   2.409   3.005   4.992 -1.5492 -0.7065  1.0675
 1938SOL    HW217448   2.463   3.051   5.115  4.3489  0.8688 -0.5029
 1939SOL     OW17449   2.108   0.426   5.733  0.0029  0.0930  0.3916
 1939SOL    HW117450   2.094   0.340   5.771 -1.8645  0.0579 -0.3697
 1939SOL    HW217451   2.030   0.473   5.765  0.4609  1.1539 -0.0636
 1940SOL     OW17452   0.805   1.315   4.555  0.3662  0.0592 -0.0488
 1940SOL    HW117453   0.834   1.385   4.497  2.5884 -1.6762 -1.0178
 1940SOL    HW217454   0.733   1.275   4.506  1.5120 -0.0780 -1.6154
 1941SOL     OW17455   2.104   4.035   7.134 -0.2925  0.5131 -0.4466
 1941SOL    HW117456   2.110   4.043   7.229  1.1301  0.3781 -0.5190
 1941SOL    HW217457   2.076   3.944   7.128 -0.6201  0.3931  3.0978
 1942SOL     OW17458   3.957   1.964   9.079 -0.0587  0.1942 -0.0406
 1942SOL    HW117459   4.035   1.917   9.106  1.0076  0.8243 -1.9880
 1942SOL    HW217460   3.986   2.023   9.009 -1.1355  2.4126  1.3461
 1943SOL     OW17461   3.103   1.123   5.087  0.7848  0.0446  0.3311
 1943SOL    HW117462   3.180   1.178   5.104  1.1147 -0.1979 -0.3725
 1943SOL    HW217463   3.098   1.138   4.992  0.0169 -2.6492 -0.0421
 1944SOL     OW17464   0.792   2.490  17.497 -0.5919  0.0641 -0.2619
 1944SOL    HW117465   0.729   2.419  17.482  0.4766 -0.7180 -1.0428
 1944SOL    HW217466   0.865   2.464  17.441 -1.3089 -1.5210 -0.4591
 1945SOL     OW17467   2.546   2.075  12.169  0.7683 -0.1170 -0.6788
 1945SOL    HW117468   2.637   2.085  12.198  0.4149 -0.2697  0.4642
 1945SOL    HW217469   2.509   2.067  12.256 -0.7699  2.7836 -1.0798
 1946SOL     OW17470   2.511   1.624   5.582  0.4801 -0.3599 -0.1302
 1946SOL    HW117471   2.558   1.706   5.562 -0.6003  0.1370 -0.6279
 1946SOL    HW217472   2.512   1.615   5.677  0.5763 -1.3213 -0.2304
 1947SOL     OW17473   2.787   1.759   5.611  0.3897 -0.0042 -0.4995
 1947SOL    HW117474   2.841   1.684   5.585 -0.4720 -0.8966  0.2856
 1947SOL    HW217475   2.833   1.793   5.688  1.2979 -1.2148 -0.5061
 1948SOL     OW17476   4.448   4.199   6.954 -0.2354  0.3293  0.0256
 1948SOL    HW117477   4.382   4.230   6.891 -0.6504  0.1906  0.3961
 1948SOL    HW217478   4.409   4.133   7.011  2.5250 -1.5276 -0.2334
 1949SOL     OW17479   4.359   2.253   8.789  0.3428 -0.2403 -0.0577
 1949SOL    HW117480   4.361   2.170   8.740 -1.1386 -0.2278 -0.1335
 1949SOL    HW217481   4.346   2.222   8.878  1.2721 -0.3044  0.0526
 1950SOL     OW17482   3.856   3.968  12.841 -0.3657  0.6696  0.2577
 1950SOL    HW117483   3.799   3.941  12.770 -0.6376  1.0577  0.3277
 1950SOL    HW217484   3.874   4.055  12.806  0.5936  0.8525  1.1810
 1951SOL     OW17485   1.096   3.306   1.888  0.6921  0.2130 -0.3063
 1951SOL    HW117486   1.076   3.267   1.973 -0.0336  0.7131 -0.2462
 1951SOL    HW217487   1.116   3.398   1.910  1.7862 -0.1440  0.1712
 1952SOL     OW17488   4.636   2.270   0.391 -0.5407  0.8175 -0.3814
 1952SOL    HW117489   4.697   2.316   0.449  0.4210 -2.2606  1.0402
 1952SOL    HW217490   4.562   2.250   0.447 -0.3295  0.2318 -0.3135
 1953SOL     OW17491   2.803   2.781   4.592  0.2486 -0.2414 -0.1633
 1953SOL    HW117492   2.708   2.771   4.592  0.3340 -1.0869  1.8155
 1953SOL    HW217493   2.822   2.783   4.686  0.1783  2.5991 -0.2006
 1954SOL     OW17494   0.828   0.532   8.340 -0.4549  0.1117  0.5272
 1954SOL    HW117495   0.795   0.619   8.318  0.6365  0.5377  0.5819
 1954SOL    HW217496   0.898   0.549   8.404  1.8308 -0.9210 -1.6785
 1955SOL     OW17497   4.713   3.964   5.125  0.0154 -0.0737 -0.4141
 1955SOL    HW117498   4.622   3.990   5.118  0.1416  0.3819 -0.3084
 1955SOL    HW217499   0.001   3.935   5.038  0.1017 -1.4143  0.0620
 1956SOL     OW17500   4.670   1.473   6.536 -0.0084  0.0798 -0.2277
 1956SOL    HW117501   4.678   1.421   6.456  2.2406  1.3018 -0.7897
 1956SOL    HW217502   4.602   1.540   6.522  1.5000  1.7349  0.3648
 1957SOL     OW17503   2.744   4.314   5.871  0.1024  0.2555 -0.7763
 1957SOL    HW117504   2.701   4.365   5.940  0.4204  0.8062 -0.9890
 1957SOL    HW217505   2.739   4.229   5.915  1.9465 -1.5177 -4.0356
 1958SOL     OW17506   1.804   1.247  14.059  0.0723  0.8417 -0.3266
 1958SOL    HW117507   1.743   1.238  14.132 -0.0328 -0.9857 -0.6470
 1958SOL    HW217508   1.753   1.207  13.988 -1.1482 -0.4470  1.2857
 1959SOL     OW17509   0.256   3.338   7.607 -0.0277  0.1670 -0.5926
 1959SOL    HW117510   0.281   3.363   7.518  0.0977  0.3021 -0.5205
 1959SOL    HW217511   0.200   3.410   7.636 -0.5100 -0.5478  0.2259
 1960SOL     OW17512   1.597   3.398  10.438 -0.2570  0.1802 -0.2879
 1960SOL    HW117513   1.676   3.376  10.488  0.0617  1.0107 -0.4239
 1960SOL    HW217514   1.597   3.313  10.395 -0.1942  1.4799 -2.8718
 1961SOL     OW17515   3.322   1.829   0.630 -0.2377 -0.2341 -0.1455
 1961SOL    HW117516   3.383   1.787   0.691  0.5284 -1.0340 -1.4668
 1961SOL    HW217517   3.313   1.754   0.570  0.4724 -0.3995 -0.0429
 1962SOL     OW17518   2.522   4.707  12.108 -0.2563 -0.8372  0.1387
 1962SOL    HW117519   2.580   4.669  12.042 -0.0794  0.0415 -0.2207
 1962SOL    HW217520   2.450   0.002  12.056  1.8380 -2.3556 -3.7854
 1963SOL     OW17521   0.051   0.047   3.446  0.3370  0.6465  0.5769
 1963SOL    HW117522   4.740   0.017   3.520 -0.6764 -0.0965 -0.4351
 1963SOL    HW217523   0.049   4.712   3.387 -2.0255  0.7153  0.5438
 1964SOL     OW17524   0.878   3.679   3.206  0.2511 -0.1826  0.0906
 1964SOL    HW117525   0.858   3.739   3.278 -1.5859  2.0595 -2.3092
 1964SOL    HW217526   0.855   3.728   3.128  1.9526  0.4153 -0.0365
 1965SOL     OW17527   3.656   3.090   8.360 -1.0200  0.0278 -0.3727
 1965SOL    HW117528   3.633   3.019   8.420 -0.0811 -0.8306 -1.0258
 1965SOL    HW217529   3.625   3.167   8.407 -0.3651 -1.0823  1.8773
 1966SOL     OW17530   0.880   1.450   8.834 -0.7438 -0.2865  0.1209
 1966SOL    HW117531   0.785   1.440   8.838 -0.7405 -0.2022  0.4016
 1966SOL    HW217532   0.908   1.375   8.886 -1.8906  1.1152  2.7254
 1967SOL     OW17533   3.476   0.603  12.743 -0.8121 -0.0563  0.0207
 1967SOL    HW117534   3.464   0.534  12.808  2.2139 -0.0928  0.5059
 1967SOL    HW217535   3.508   0.675  12.797  1.8110 -1.5484  0.4000
 1968SOL     OW17536   0.482   3.255   7.778  0.1481  0.4899  0.3708
 1968SOL    HW117537   0.406   3.292   7.733  1.0487  0.5504 -1.0903
 1968SOL    HW217538   0.553   3.271   7.716 -1.1847  0.5370 -1.1210
 1969SOL     OW17539   2.383   4.041   3.690 -0.1474  0.1036 -0.3736
 1969SOL    HW117540   2.443   3.967   3.694 -1.6923 -1.0616  1.1384
 1969SOL    HW217541   2.342   4.035   3.604  1.4605 -0.4232 -1.1112
 1970SOL     OW17542   1.049   1.551   1.427 -0.3942 -0.4248  0.1414
 1970SOL    HW117543   0.969   1.525   1.380  0.7930 -2.6655 -0.6584
 1970SOL    HW217544   1.032   1.644   1.416  1.4298 -0.5188 -3.6313
 1971SOL     OW17545   3.036   2.668  15.522 -0.0297 -0.0416 -0.2710
 1971SOL    HW117546   3.025   2.757  15.490 -0.0236 -0.0952 -0.4215
 1971SOL    HW217547   3.004   2.665  15.612  1.2224  0.1111  0.1719
 1972SOL     OW17548   3.011   2.237   0.637  0.4482  0.4883 -0.5770
 1972SOL    HW117549   3.007   2.298   0.564  0.9684  2.6228  1.2057
 1972SOL    HW217550   3.029   2.154   0.593  1.9585  1.6768 -2.1781
 1973SOL     OW17551   1.337   0.522   0.452  0.0820  0.2217 -0.4494
 1973SOL    HW117552   1.374   0.457   0.510  1.5423  0.9469 -0.5786
 1973SOL    HW217553   1.378   0.509   0.366  0.4556 -0.7509 -0.1184
 1974SOL     OW17554   3.515   1.666   6.247 -0.2381  0.9431 -0.3343
 1974SOL    HW117555   3.584   1.657   6.312 -0.8842 -1.0241  0.0724
 1974SOL    HW217556   3.564   1.671   6.165 -1.1576  0.6010 -0.9070
 1975SOL     OW17557   2.504   4.139   2.296  1.0474 -0.0787 -0.7305
 1975SOL    HW117558   2.421   4.164   2.257 -0.7856 -1.2599  2.4456
 1975SOL    HW217559   2.485   4.048   2.317 -3.5604  2.0779  4.2502
 1976SOL     OW17560   2.114   3.382  10.157 -0.0667  0.3937 -0.0960
 1976SOL    HW117561   2.043   3.437  10.123 -0.2181  1.5082  2.0143
 1976SOL    HW217562   2.169   3.378  10.079  0.8996  0.0803  0.6037
 1977SOL     OW17563   2.790   4.004   2.040  0.8531 -0.2607  0.0738
 1977SOL    HW117564   2.776   3.916   2.075 -0.7439 -0.1579 -0.3178
 1977SOL    HW217565   2.780   3.992   1.946  0.4386 -1.5965  0.2882
 1978SOL     OW17566   4.543   3.404   3.651  0.1760 -0.0062 -0.5183
 1978SOL    HW117567   4.493   3.419   3.730 -0.5368 -0.6344 -0.8495
 1978SOL    HW217568   4.592   3.486   3.657  0.6029 -0.3317  0.4021
 1979SOL     OW17569   3.206   2.572   7.303 -0.1581  0.1255 -0.2228
 1979SOL    HW117570   3.289   2.525   7.313  0.8311  1.5242 -1.9815
 1979SOL    HW217571   3.197   2.586   7.397  2.5006  0.1056  0.0267
 1980SOL     OW17572   2.031   2.542   0.596  0.2261 -0.1961 -0.0795
 1980SOL    HW117573   1.987   2.624   0.574  0.3219  0.0086  0.5102
 1980SOL    HW217574   2.122   2.571   0.604  0.5636 -1.1840 -0.2663
 1981SOL     OW17575   2.916   3.660   9.780 -0.1119  0.1176 -0.3482
 1981SOL    HW117576   2.975   3.721   9.824 -0.8025  0.7971 -0.3698
 1981SOL    HW217577   2.836   3.711   9.796  0.1714  0.4549  0.0040
 1982SOL     OW17578   0.466   0.634  16.005 -0.3692 -0.4522  0.2792
 1982SOL    HW117579   0.437   0.725  16.009  0.2629 -0.3143  1.7570
 1982SOL    HW217580   0.508   0.611  16.088 -1.7558 -0.6637  0.9078
 1983SOL     OW17581   1.761   0.563   3.824 -0.4779  0.1954  0.7186
 1983SOL    HW117582   1.753   0.646   3.777  0.8356  0.3032  0.6964
 1983SOL    HW217583   1.683   0.561   3.879 -0.4619 -1.4668  0.6759
 1984SOL     OW17584   3.179   4.283   0.507 -0.2751 -0.4105 -0.4354
 1984SOL    HW117585   3.190   4.202   0.458  0.6055 -0.8067  0.3968
 1984SOL    HW217586   3.137   4.343   0.445  0.9106 -0.5070 -1.3300
 1985SOL     OW17587   1.397   1.770  10.313 -0.3008  0.4318  0.3749
 1985SOL    HW117588   1.408   1.714  10.389 -0.1311 -1.0720 -0.7604
 1985SOL    HW217589   1.434   1.854  10.340  1.5414  0.3914 -2.0484
 1986SOL     OW17590   0.432   2.891  15.216 -0.0628 -0.5305  0.2530
 1986SOL    HW117591   0.349   2.855  15.184  1.4079 -3.1422 -0.6503
 1986SOL    HW217592   0.488   2.881  15.138  1.0074 -1.1084  1.0839
 1987SOL     OW17593   0.742   4.555   1.761  0.2280 -0.6380  0.5346
 1987SOL    HW117594   0.750   4.638   1.715 -0.3721 -0.6845  0.3417
 1987SOL    HW217595   0.830   4.527   1.787  0.4774 -0.9217 -0.5855
 1988SOL     OW17596   1.253   2.808   7.443  0.0925 -0.0205 -0.4619
 1988SOL    HW117597   1.274   2.815   7.536  2.5148  0.4222 -1.0335
 1988SOL    HW217598   1.164   2.842   7.445 -0.2211 -1.1664  4.4457
 1989SOL     OW17599   1.032   2.717   2.762 -0.4722  0.2976  0.1897
 1989SOL    HW117600   1.046   2.623   2.768  1.0825  0.5319  0.1697
 1989SOL    HW217601   1.107   2.757   2.805  0.4924  0.0365 -1.2335
 1990SOL     OW17602   4.622   2.411   2.505  0.1417 -0.3004 -0.5152
 1990SOL    HW117603   4.638   2.402   2.598  0.3168  0.5378 -0.4637
 1990SOL    HW217604   4.600   2.322   2.477  0.7014 -0.5713 -0.0759
 1991SOL     OW17605   2.302   3.874   3.067 -0.3574  0.2933 -0.0223
 1991SOL    HW117606   2.253   3.801   3.031 -2.0733  0.4752  1.9171
 1991SOL    HW217607   2.364   3.891   2.996  1.3142 -3.2886  0.6107
 1992SOL     OW17608   1.790   0.812   6.116  0.4897  0.2539 -0.7469
 1992SOL    HW117609   1.713   0.864   6.093  1.8312  2.0052 -1.3045
 1992SOL    HW217610   1.753   0.726   6.097  0.4713  0.5338 -1.9324
 1993SOL     OW17611   3.090   4.650  13.022  0.6346  0.7369 -0.4981
 1993SOL    HW117612   3.105   4.692  13.107  1.9059  0.7228 -0.7103
 1993SOL    HW217613   3.012   4.596  13.034  0.8117  0.3327 -1.1584
 1994SOL     OW17614   4.589   4.541   3.158 -0.5079 -0.0642 -0.2699
 1994SOL    HW117615   4.582   4.623   3.207 -1.4289 -0.3407  0.0588
 1994SOL    HW217616   4.503   4.501   3.169 -1.2849  1.2163 -1.6984
 1995SOL     OW17617   0.539   0.130   8.821  0.3705  0.1341  0.0787
 1995SOL    HW117618   0.544   0.063   8.754 -2.4957  0.6984 -0.7198
 1995SOL    HW217619   0.631   0.147   8.842 -0.0755  1.4523  1.0022
 1996SOL     OW17620   3.889   4.474  15.270  0.3887  0.1299 -0.2123
 1996SOL    HW117621   3.795   4.477  15.287  0.5852 -0.8971  1.0945
 1996SOL    HW217622   3.881   4.507  15.181  3.6045  1.8523  0.1546
 1997SOL     OW17623   0.122   2.289  16.195 -0.5942  0.4880 -0.7241
 1997SOL    HW117624   0.205   2.258  16.233 -1.2576 -0.6152 -0.1889
 1997SOL    HW217625   0.115   2.237  16.115 -1.4237  2.1679 -1.7205
 1998SOL     OW17626   4.193   0.510   4.528 -0.1697  0.4958  0.1990
 1998SOL    HW117627   4.174   0.562   4.606  0.9628  1.3931 -0.1242
 1998SOL    HW217628   4.281   0.477   4.548  0.2395  1.8086  0.5543
 1999SOL     OW17629   3.933   0.708   5.202  0.0638  0.5188  0.4015
 1999SOL    HW117630   4.014   0.675   5.240  0.1794 -0.3060 -0.5786
 1999SOL    HW217631   3.964   0.706   5.112  3.4680 -1.5294  1.6225
 2000SOL     OW17632   2.136   3.599  14.265 -0.2467 -0.3344 -0.0444
 2000SOL    HW117633   2.217   3.650  14.263 -0.9312  0.6324 -3.3598
 2000SOL    HW217634   2.166   3.511  14.241 -0.8601 -0.3741 -0.6727
 2001SOL     OW17635   1.160   3.900   4.878  0.3109 -0.2992 -0.4911
 2001SOL    HW117636   1.163   3.976   4.936 -1.3288 -1.7838  1.5676
 2001SOL    HW217637   1.167   3.956   4.801 -0.5646 -2.6697 -2.2969
 2002SOL     OW17638   4.646   1.486   3.797  0.0046  0.0982 -0.2175
 2002SOL    HW117639   4.639   1.393   3.775 -1.9576  1.0204 -3.4613
 2002SOL    HW217640   4.566   1.502   3.847  0.0937 -0.1243 -0.0059
 2003SOL     OW17641   2.822   0.723   4.192  0.7053 -0.3579  0.2392
 2003SOL    HW117642   2.850   0.804   4.148  2.8091 -0.3027  1.6690
 2003SOL    HW217643   2.727   0.731   4.184  0.2747 -3.9489  1.6833
 2004SOL     OW17644   2.972   1.698   7.365  0.6664  0.2386  0.3077
 2004SOL    HW117645   2.936   1.787   7.364 -2.8725 -1.2029  1.3241
 2004SOL    HW217646   3.050   1.703   7.419  1.9536  2.1872 -1.7310
 2005SOL     OW17647   0.172   4.590   2.415  0.5299 -0.5053 -0.5351
 2005SOL    HW117648   0.220   4.584   2.497  0.3597 -0.2630 -0.4159
 2005SOL    HW217649   0.108   4.658   2.440  0.6210 -0.3032 -0.8441
 2006SOL     OW17650   1.531   1.757   2.483 -0.2537 -0.4345 -0.9602
 2006SOL    HW117651   1.550   1.847   2.456  0.1487  0.5255  2.5159
 2006SOL    HW217652   1.509   1.782   2.573  1.3998 -1.4924 -0.2783
 2007SOL     OW17653   0.906   0.037  15.703 -0.5804 -0.2171  0.5877
 2007SOL    HW117654   0.936   0.074  15.786 -2.0860  0.0874  0.9904
 2007SOL    HW217655   0.904   0.107  15.637 -0.0227  0.3882  1.2098
 2008SOL     OW17656   4.598   4.310   3.555  0.2400 -0.5622 -0.0600
 2008SOL    HW117657   4.685   4.352   3.549  0.2646 -0.8140 -1.5933
 2008SOL    HW217658   4.555   4.376   3.610 -2.1000 -0.4314 -2.0499
 2009SOL     OW17659   1.689   0.331   3.671  0.0337 -0.7154 -0.0855
 2009SOL    HW117660   1.748   0.400   3.702  0.0547 -0.9252  0.3351
 2009SOL    HW217661   1.608   0.382   3.669  0.8458  0.7191  3.2973
 2010SOL     OW17662   0.793   2.079  11.426 -0.5264 -0.0099 -0.1150
 2010SOL    HW117663   0.868   2.132  11.399 -0.2154 -0.8084 -0.8093
 2010SOL    HW217664   0.796   2.089  11.521  1.3078  0.3199 -0.2108
 2011SOL     OW17665   2.277   3.860  17.523 -0.1645  0.5383  0.0800
 2011SOL    HW117666   2.230   3.918  17.583 -0.2404  1.4368 -0.8481
 2011SOL    HW217667   2.364   3.859  17.564 -1.3793 -1.6021  2.6043
 2012SOL     OW17668   2.145   0.800   2.424 -0.0126  0.5235  0.2820
 2012SOL    HW117669   2.126   0.882   2.379  0.5684  0.5986  0.1670
 2012SOL    HW217670   2.236   0.789   2.396 -0.0637 -0.4664  0.4824
 2013SOL     OW17671   3.262   1.460   2.010 -0.3132  0.2292  0.1689
 2013SOL    HW117672   3.181   1.472   1.960 -0.1724  0.8067  0.0861
 2013SOL    HW217673   3.258   1.364   2.017  1.7201  0.1957  0.8647
 2014SOL     OW17674   0.883   2.232  17.760  0.2461 -0.0935 -0.1843
 2014SOL    HW117675   0.859   2.292  17.689  0.6223 -1.9983 -1.9109
 2014SOL    HW217676   0.880   2.148  17.715 -0.6445 -1.0003  1.5255
 2015SOL     OW17677   2.625   3.733   5.279 -0.3792  0.3885  0.4858
 2015SOL    HW117678   2.642   3.647   5.318  1.7526  0.4720 -0.2769
 2015SOL    HW217679   2.706   3.784   5.276  0.0817 -0.3737  0.0682
 2016SOL     OW17680   0.045   1.975   0.857  0.2926 -0.5651  0.2176
 2016SOL    HW117681   0.138   1.995   0.851  0.4817 -0.8545  2.2337
 2016SOL    HW217682   0.003   2.061   0.854 -1.8138 -1.6332 -0.7086
 2017SOL     OW17683   1.615   1.357  16.902 -0.3463 -0.3095 -0.0935
 2017SOL    HW117684   1.659   1.414  16.839  1.8197  0.1202  1.8422
 2017SOL    HW217685   1.655   1.274  16.876 -0.5048  0.0086 -1.3818
 2018SOL     OW17686   0.872   1.263   7.504  0.4965 -0.2742  0.7954
 2018SOL    HW117687   0.929   1.330   7.542 -0.6413  1.9300 -1.3840
 2018SOL    HW217688   0.927   1.220   7.439  1.4902 -2.0047  2.7751
 2019SOL     OW17689   2.179   3.777   6.448 -0.3605  0.0405 -0.0518
 2019SOL    HW117690   2.271   3.764   6.472 -0.4539 -1.9839 -0.7605
 2019SOL    HW217691   2.153   3.869   6.453  2.8888  0.8693  1.7474
 2020SOL     OW17692   2.639   3.654   8.073  0.0454  0.3492  0.5050
 2020SOL    HW117693   2.699   3.622   8.005 -0.3257  0.3297  0.1834
 2020SOL    HW217694   2.602   3.577   8.116  0.9642  0.8979  2.2824
 2021SOL     OW17695   2.858   1.984   4.450  0.2649  0.0944 -0.3283
 2021SOL    HW117696   2.856   2.075   4.423  2.7753  0.2633  0.1033
 2021SOL    HW217697   2.874   1.980   4.544 -2.2486 -0.2495  0.0722
 2022SOL     OW17698   3.492   4.079  12.225  0.2379  0.3647  0.6044
 2022SOL    HW117699   3.495   4.094  12.319 -1.1938 -0.0689  0.7296
 2022SOL    HW217700   3.573   4.030  12.217  0.5008  0.5826  1.9196
 2023SOL     OW17701   0.183   2.087   4.715 -0.3320 -0.2654 -0.0920
 2023SOL    HW117702   0.135   2.049   4.642  0.4135 -0.8679 -0.2753
 2023SOL    HW217703   0.241   2.146   4.666  0.8068 -2.4508 -1.3821
 2024SOL     OW17704   2.710   3.847   7.003 -0.1097  0.0100  0.3560
 2024SOL    HW117705   2.707   3.943   7.005 -0.2412 -0.0174  1.5930
 2024SOL    HW217706   2.626   3.820   6.966 -0.0064  0.2635 -0.0788
 2025SOL     OW17707   1.563   2.877   6.187 -0.1305  0.1880  0.0612
 2025SOL    HW117708   1.577   2.829   6.106 -1.0682 -0.7920  0.4917
 2025SOL    HW217709   1.552   2.802   6.245 -0.6561 -0.6640 -1.1530
 2026SOL     OW17710   0.968   3.498   5.050  0.5246  0.0091  0.1733
 2026SOL    HW117711   0.921   3.418   5.027  0.3329  0.0263  0.4990
 2026SOL    HW217712   0.901   3.565   5.034  1.3332  0.8403  0.3007
 2027SOL     OW17713   0.019   3.104   2.801 -0.4879  0.1676  0.7040
 2027SOL    HW117714   0.045   3.079   2.713  2.5464  3.8488  0.5670
 2027SOL    HW217715   0.096   3.157   2.822 -1.1333  0.6067  1.9725
 2028SOL     OW17716   4.574   3.190   5.461  0.3810 -0.1366  0.9392
 2028SOL    HW117717   4.644   3.178   5.397 -1.1511  1.3123 -1.0415
 2028SOL    HW217718   4.576   3.111   5.515 -0.4914 -0.2681  0.7858
 2029SOL     OW17719   0.059   2.333   3.726 -0.3562 -0.2358  0.0968
 2029SOL    HW117720   4.740   2.408   3.722 -0.3076 -0.1743  0.5865
 2029SOL    HW217721   0.118   2.349   3.652 -0.8057 -1.4724 -0.5277
 2030SOL     OW17722   0.319   4.189   2.774  0.6078 -0.4241  0.2274
 2030SOL    HW117723   0.245   4.135   2.746  0.7010 -0.1040 -0.6307
 2030SOL    HW217724   0.347   4.215   2.686 -1.3579 -0.2842 -0.3625
 2031SOL     OW17725   4.115   1.081   2.053 -0.0766 -0.1503  0.0535
 2031SOL    HW117726   4.141   0.994   2.082 -1.2261 -0.5078  0.0225
 2031SOL    HW217727   4.037   1.059   2.002 -0.0557  0.6362 -0.3119
 2032SOL     OW17728   1.576   1.649   2.233 -0.1488  0.0706 -0.3593
 2032SOL    HW117729   1.665   1.616   2.219 -0.2076 -0.3157  0.1697
 2032SOL    HW217730   1.579   1.646   2.329 -1.2712  1.4706 -0.2824
 2033SOL     OW17731   1.406   4.442   4.997  0.2010  0.4861  0.1093
 2033SOL    HW117732   1.419   4.520   5.050 -1.3472 -0.7361  2.3227
 2033SOL    HW217733   1.387   4.378   5.066  0.9886  2.4180  2.1056
 2034SOL     OW17734   1.106   0.212   9.579  0.4030  0.0716 -0.0540
 2034SOL    HW117735   1.016   0.183   9.562 -0.6924  1.5733  3.3015
 2034SOL    HW217736   1.144   0.205   9.491  0.6632  0.7879 -0.0004
 2035SOL     OW17737   4.218   2.616   1.975 -0.2852  0.2570 -0.1157
 2035SOL    HW117738   4.290   2.642   1.917  0.4071 -1.1677  0.1208
 2035SOL    HW217739   4.260   2.636   2.059 -0.2492 -0.0088 -0.0728
 2036SOL     OW17740   3.944   4.628   2.871  0.4358 -0.1354 -0.1685
 2036SOL    HW117741   4.026   4.653   2.830  2.3582 -0.8619  3.2368
 2036SOL    HW217742   3.894   4.591   2.798 -0.3725 -0.3153  0.4687
 2037SOL     OW17743   3.419   3.338   7.128 -0.3068 -0.0618 -0.1781
 2037SOL    HW117744   3.418   3.263   7.068  1.0442 -0.1641 -0.0819
 2037SOL    HW217745   3.492   3.392   7.096  1.6369 -3.0122 -0.7461
 2038SOL     OW17746   0.467   3.696   6.183  0.0087  0.5565  0.0730
 2038SOL    HW117747   0.470   3.758   6.256  0.4217 -1.5498  1.8469
 2038SOL    HW217748   0.484   3.759   6.113  1.0860 -0.9744 -1.0265
 2039SOL     OW17749   1.029   4.443  13.448 -0.4065 -0.2131 -0.0113
 2039SOL    HW117750   0.976   4.398  13.382  1.1682 -1.6868 -0.2537
 2039SOL    HW217751   1.026   4.388  13.525 -2.1054 -0.0206  0.0740
 2040SOL     OW17752   2.922   1.050  16.316 -0.0094  0.0699  0.1153
 2040SOL    HW117753   2.859   1.122  16.319 -0.1546 -0.0404 -0.2527
 2040SOL    HW217754   2.895   1.001  16.239  1.1235 -0.9771  0.3813
 2041SOL     OW17755   0.127   3.759   2.153 -0.2061 -0.8788  0.1137
 2041SOL    HW117756   0.041   3.778   2.114 -0.4559  1.2342  1.7503
 2041SOL    HW217757   0.182   3.733   2.079  0.3168  0.5330  0.0107
 2042SOL     OW17758   0.380   1.127   5.270 -0.6260  0.0584  0.2647
 2042SOL    HW117759   0.396   1.090   5.183 -1.3918  1.9174 -0.6791
 2042SOL    HW217760   0.390   1.222   5.257  0.8385 -0.1104  0.2099
 2043SOL     OW17761   3.228   1.786   4.637  0.2755  0.6646 -0.0065
 2043SOL    HW117762   3.319   1.805   4.613  0.1442  2.8226  1.1699
 2043SOL    HW217763   3.223   1.691   4.630  0.1102  0.5916  1.1325
 2044SOL     OW17764   1.592   3.200  13.693 -0.3074  0.0731 -0.5063
 2044SOL    HW117765   1.607   3.203  13.788 -0.7459 -0.1266 -0.4317
 2044SOL    HW217766   1.632   3.116  13.669 -3.2612 -1.3911 -0.3537
 2045SOL     OW17767   3.829   3.030   7.417 -0.2085  0.5241 -0.4194
 2045SOL    HW117768   3.902   3.007   7.360  0.0414  0.7610 -0.1958
 2045SOL    HW217769   3.873   3.055   7.498 -0.8866 -0.1523  0.1592
 2046SOL     OW17770   3.266   0.342  12.735  0.5341  0.2769 -0.4928
 2046SOL    HW117771   3.206   0.382  12.673 -0.6970 -2.1329 -0.8721
 2046SOL    HW217772   3.208   0.269  12.755  1.6608 -0.4975 -0.0153
 2047SOL     OW17773   0.806   4.022   2.408  0.3869 -0.1074 -0.4756
 2047SOL    HW117774   0.819   3.927   2.410 -0.1510 -0.2157 -1.9013
 2047SOL    HW217775   0.893   4.060   2.403  1.9413 -3.8393 -1.9573
 2048SOL     OW17776   0.544   3.872  13.924  0.1188 -0.3794  0.0735
 2048SOL    HW117777   0.475   3.933  13.896  0.3713 -0.2130 -0.1896
 2048SOL    HW217778   0.499   3.793  13.953  0.1424 -0.2161  0.5494
 2049SOL     OW17779   1.303   4.222  13.736  0.0842  0.1782  0.0886
 2049SOL    HW117780   1.346   4.149  13.781  0.4004  1.0959  1.2767
 2049SOL    HW217781   1.343   4.297  13.781  0.1265 -0.2150  0.7124
 2050SOL     OW17782   2.792   4.048   6.286  0.4657  0.0135  0.4968
 2050SOL    HW117783   2.725   4.109   6.317 -0.5269 -0.1924 -1.2820
 2050SOL    HW217784   2.758   4.015   6.203  2.0762 -1.0272  0.2469
 2051SOL     OW17785   1.845   3.178  10.594  0.3283  0.0759  0.0638
 2051SOL    HW117786   1.784   3.139  10.532  0.2502  1.4468 -0.7240
 2051SOL    HW217787   1.914   3.212  10.538  1.0848 -2.1816 -0.3585
 2052SOL     OW17788   1.412   2.039  12.927 -0.6076 -0.2698 -0.1044
 2052SOL    HW117789   1.470   2.059  13.000  4.2821 -2.9108 -3.2520
 2052SOL    HW217790   1.337   2.000  12.971 -0.7030 -0.9336 -0.8548
 2053SOL     OW17791   4.381   4.528   6.913 -0.6907 -0.5467  0.3665
 2053SOL    HW117792   4.341   4.581   6.983 -0.8264  0.6728 -0.6325
 2053SOL    HW217793   4.438   4.591   6.870  0.9384 -0.2582  2.9376
 2054SOL     OW17794   0.529   0.547   3.656 -0.3021 -0.1975 -0.0075
 2054SOL    HW117795   0.492   0.480   3.712  0.4240 -0.1916  0.4830
 2054SOL    HW217796   0.622   0.521   3.658 -0.0907  0.6792  1.5556
 2055SOL     OW17797   4.258   3.552   2.911  0.2106  0.1447  0.0208
 2055SOL    HW117798   4.267   3.626   2.971 -0.2776 -0.5509  0.9527
 2055SOL    HW217799   4.262   3.593   2.825 -2.0689 -0.4227 -0.3518
 2056SOL     OW17800   1.746   3.359   2.463  0.0756 -0.2448 -0.1354
 2056SOL    HW117801   1.694   3.358   2.543 -0.2142 -0.1199 -0.3218
 2056SOL    HW217802   1.806   3.296   2.504 -0.9800 -0.2212  1.4391
 2057SOL     OW17803   1.470   2.240   1.161 -0.0098  0.4737  0.0570
 2057SOL    HW117804   1.443   2.277   1.077 -0.5042  0.1667  0.0855
 2057SOL    HW217805   1.536   2.178   1.129 -1.8873 -0.3512 -2.1936
 2058SOL     OW17806   4.606   0.971   3.666  0.1043  0.0597 -0.4332
 2058SOL    HW117807   4.609   0.915   3.588 -2.4576 -0.5076 -0.1152
 2058SOL    HW217808   4.642   0.910   3.729  2.8962  0.7964 -1.2985
 2059SOL     OW17809   1.940   3.763   6.068  0.2393 -0.2519  0.5858
 2059SOL    HW117810   2.034   3.775   6.077  0.4711  0.6838 -2.9166
 2059SOL    HW217811   1.930   3.670   6.046  1.7044  0.2956 -2.3763
 2060SOL     OW17812   1.241   4.600   3.942  0.0280  0.9494 -0.0464
 2060SOL    HW117813   1.333   4.625   3.951 -0.1270  1.2056  0.8534
 2060SOL    HW217814   1.216   4.606   4.034  2.7190  2.4843  0.5799
 2061SOL     OW17815   2.043   0.872  17.649  0.2008 -0.0693 -0.2179
 2061SOL    HW117816   2.008   0.955  17.617  1.5406  0.9217  0.8831
 2061SOL    HW217817   2.028   0.865  17.743  0.5394  0.5177 -0.1235
 2062SOL     OW17818   4.030   2.346   5.873 -0.3026 -0.1190 -0.6068
 2062SOL    HW117819   3.960   2.342   5.938 -2.1917  1.5753 -2.5428
 2062SOL    HW217820   4.052   2.439   5.873 -2.0695  0.2969 -1.5565
 2063SOL     OW17821   1.564   1.697  10.112  0.0008 -0.2957 -0.4264
 2063SOL    HW117822   1.506   1.695  10.035  1.4703  2.2383 -1.6039
 2063SOL    HW217823   1.508   1.724  10.185  2.0683 -0.2705  1.1283
 2064SOL     OW17824   4.207   0.488   4.838 -0.2425 -0.5886 -0.6026
 2064SOL    HW117825   4.159   0.419   4.792 -1.7168 -0.0314  0.1044
 2064SOL    HW217826   4.276   0.435   4.879  1.3091  1.6739 -0.2878
 2065SOL     OW17827   0.260   2.950   8.256  0.0697 -0.2619  0.4930
 2065SOL    HW117828   0.281   3.029   8.207 -1.4518 -0.3937 -0.3707
 2065SOL    HW217829   0.165   2.949   8.267 -0.0276  0.6769 -0.3009
 2066SOL     OW17830   3.844   2.522   8.146  0.1006  0.6348 -0.2022
 2066SOL    HW117831   3.830   2.585   8.075  2.7893 -0.8298 -2.0374
 2066SOL    HW217832   3.757   2.482   8.158  0.0297  1.1966  1.0808
 2067SOL     OW17833   0.204   1.130   3.588  0.0535  0.2293 -0.1128
 2067SOL    HW117834   0.213   1.045   3.630  1.4536 -0.6770 -2.2205
 2067SOL    HW217835   0.262   1.127   3.512  2.8927 -0.5682  2.0743
 2068SOL     OW17836   3.485   0.674  16.257  0.0672  0.3218 -0.2208
 2068SOL    HW117837   3.490   0.624  16.176 -1.5528  0.0367 -0.1525
 2068SOL    HW217838   3.393   0.660  16.278  0.2835 -0.2270  0.3552
 2069SOL     OW17839   0.612   3.017   5.058  0.0231 -0.3864 -0.5283
 2069SOL    HW117840   0.632   2.924   5.048 -0.1554 -0.3605 -1.0833
 2069SOL    HW217841   0.637   3.030   5.150 -0.5182 -1.9102 -0.1671
 2070SOL     OW17842   4.439   2.107   3.050 -0.3664  0.4549  0.2860
 2070SOL    HW117843   4.492   2.186   3.063  0.0505  0.2320 -0.0726
 2070SOL    HW217844   4.495   2.054   2.994  1.1960  0.1870  2.1445
 2071SOL     OW17845   2.661   4.294   5.379 -0.3011 -0.2173  0.2508
 2071SOL    HW117846   2.605   4.252   5.444 -1.3493 -2.2047 -1.9242
 2071SOL    HW217847   2.615   4.300   5.296 -0.9400  1.9693  0.7771
 2072SOL     OW17848   2.906   4.110  11.773  0.6462 -0.6976 -0.6019
 2072SOL    HW117849   2.876   4.021  11.791  2.6852 -1.3029 -0.1156
 2072SOL    HW217850   2.980   4.120  11.833  0.3973 -3.9329  0.2026
 2073SOL     OW17851   3.292   0.029   5.685 -0.1772  0.2936 -0.8768
 2073SOL    HW117852   3.315   4.691   5.733 -1.8507  1.2663  1.5261
 2073SOL    HW217853   3.211   4.738   5.645 -2.0849 -1.9039  4.6517
 2074SOL     OW17854   1.526   2.636   6.319  0.4895  0.4938  0.3885
 2074SOL    HW117855   1.536   2.629   6.414 -1.0522  1.8284  0.6581
 2074SOL    HW217856   1.518   2.546   6.290 -1.1392  0.2308  1.6623
 2075SOL     OW17857   0.998   1.685   1.917 -0.0744 -0.2015  0.6410
 2075SOL    HW117858   0.947   1.737   1.855 -0.6128  0.3574  1.5549
 2075SOL    HW217859   1.012   1.608   1.862 -2.0425  0.4813 -0.8065
 2076SOL     OW17860   4.354   3.239   2.027 -0.1144 -0.4690  0.2029
 2076SOL    HW117861   4.279   3.240   2.086 -0.8207 -2.6993 -0.6516
 2076SOL    HW217862   4.409   3.291   2.085 -2.4737 -0.7996  2.7123
 2077SOL     OW17863   4.671   2.231   6.922  0.1431  0.2942  0.0222
 2077SOL    HW117864   4.677   2.191   6.835  2.7853 -0.8399  0.7301
 2077SOL    HW217865   4.576   2.234   6.928  0.1478  2.0410 -0.5136
 2078SOL     OW17866   4.549   2.587  14.958  0.5541  0.1504  0.2181
 2078SOL    HW117867   4.576   2.551  15.042 -0.1774  0.1803  0.4630
 2078SOL    HW217868   4.623   2.557  14.905  0.5192 -0.4753  0.5278
 2079SOL     OW17869   0.172   1.187   5.431 -0.2984  0.4841  0.3797
 2079SOL    HW117870   0.148   1.152   5.517  0.5040  0.6571  0.6684
 2079SOL    HW217871   0.242   1.137   5.388 -0.6426 -0.0353  0.4226
 2080SOL     OW17872   4.736   0.202  11.007 -0.2426  0.2477 -0.1851
 2080SOL    HW117873   4.714   0.219  11.098  0.3108 -2.8081  0.5435
 2080SOL    HW217874   4.685   0.123  10.989 -0.5711  0.7238 -1.3266
 2081SOL     OW17875   0.501   1.239   2.782 -0.0683 -0.9892 -0.0761
 2081SOL    HW117876   0.520   1.261   2.690 -1.5650  4.0293  0.7811
 2081SOL    HW217877   0.585   1.207   2.814  0.2981 -0.9574 -0.9830
 2082SOL     OW17878   0.950   3.062   8.281 -0.4550 -0.5877  0.7087
 2082SOL    HW117879   0.882   3.023   8.337 -1.9438  0.5761 -0.2752
 2082SOL    HW217880   1.022   3.014   8.321  1.8211  0.9861 -1.5473
 2083SOL     OW17881   1.254   0.561   7.494  0.0669 -0.2132  0.2339
 2083SOL    HW117882   1.232   0.650   7.522  1.2568 -0.4720  1.9895
 2083SOL    HW217883   1.185   0.510   7.538 -1.4218  0.0421 -1.7911
 2084SOL     OW17884   2.952   3.244   5.020  0.5411 -0.2692  0.3568
 2084SOL    HW117885   3.037   3.287   5.010  0.8446 -1.3393 -1.6304
 2084SOL    HW217886   2.910   3.314   5.071 -0.8081 -0.6805 -0.1885
 2085SOL     OW17887   2.935   0.110   4.709 -0.2003 -0.5660  0.4461
 2085SOL    HW117888   2.956   0.157   4.790  0.5887  1.0643 -0.7028
 2085SOL    HW217889   2.998   0.039   4.717 -0.6211 -0.8801  0.9784
 2086SOL     OW17890   4.376   1.214   3.035  0.1034  0.1103  0.1811
 2086SOL    HW117891   4.330   1.295   3.015  1.4107  0.9627  0.6163
 2086SOL    HW217892   4.461   1.233   2.995 -0.2801 -1.8904 -1.5780
 2087SOL     OW17893   1.469   2.937   4.098  0.3146 -0.0272  0.4335
 2087SOL    HW117894   1.416   2.956   4.021  2.5017 -0.7276 -1.2247
 2087SOL    HW217895   1.397   2.937   4.162 -2.1636 -0.7249 -2.3801
 2088SOL     OW17896   0.907   3.711  15.187 -0.8705 -0.0724  0.2507
 2088SOL    HW117897   0.896   3.806  15.187  0.9972  0.1251  1.0176
 2088SOL    HW217898   0.892   3.680  15.276 -1.7522  0.4027  0.2771
 2089SOL     OW17899   2.832   0.718  16.237  0.3965  0.1754 -0.0633
 2089SOL    HW117900   2.881   0.724  16.319  0.1991 -0.5309  0.1117
 2089SOL    HW217901   2.830   0.622  16.231  1.0312  0.1797 -0.3509
 2090SOL     OW17902   3.724   2.484   5.771 -0.6745 -0.0540  0.0224
 2090SOL    HW117903   3.670   2.533   5.832 -0.0810 -0.9575  1.2650
 2090SOL    HW217904   3.802   2.484   5.826 -1.9798  0.3724  1.8473
 2091SOL     OW17905   3.427   1.404   9.156  0.4161 -0.0116 -0.0634
 2091SOL    HW117906   3.340   1.418   9.118  0.4061  0.2237  0.0466
 2091SOL    HW217907   3.461   1.316   9.138  1.9405  0.1370  2.1451
 2092SOL     OW17908   3.815   3.112   8.109 -0.2870  0.0820  0.2514
 2092SOL    HW117909   3.777   3.098   8.196 -2.0197 -1.7362 -0.7927
 2092SOL    HW217910   3.907   3.095   8.129  0.0474  3.2561  1.4121
 2093SOL     OW17911   1.107   2.283   9.322  0.3321 -0.1093 -0.3793
 2093SOL    HW117912   1.124   2.258   9.413  0.6251 -3.0193 -1.2083
 2093SOL    HW217913   1.195   2.268   9.287  1.1540  1.9347  0.8205
 2094SOL     OW17914   1.569   1.239   2.839  0.2572 -0.6084  0.0196
 2094SOL    HW117915   1.661   1.223   2.861 -0.2695 -3.4610  0.1329
 2094SOL    HW217916   1.530   1.247   2.927 -4.6534  1.0375 -2.2795
 2095SOL     OW17917   0.580   1.194  15.355  0.6554 -0.4168  0.0587
 2095SOL    HW117918   0.518   1.198  15.428  0.0245  0.3814 -0.5181
 2095SOL    HW217919   0.538   1.128  15.300  2.3646  0.7029 -2.5983
 2096SOL     OW17920   0.516   4.369   6.895  0.1454  0.1081 -0.1893
 2096SOL    HW117921   0.451   4.379   6.825  0.3417 -1.3901 -0.5778
 2096SOL    HW217922   0.569   4.303   6.850  0.9134  1.2434 -0.9716
 2097SOL     OW17923   3.058   2.860   8.486  0.0605  0.2431 -0.1721
 2097SOL    HW117924   2.989   2.894   8.428  1.8707  2.0520 -1.2486
 2097SOL    HW217925   3.046   2.924   8.556  1.4536  0.2314  0.0733
 2098SOL     OW17926   2.895   1.414   5.118 -0.7281  0.1367 -0.0858
 2098SOL    HW117927   2.910   1.388   5.027  1.5825  0.1258  0.3104
 2098SOL    HW217928   2.975   1.462   5.138 -0.3139 -0.6138  0.0627
 2099SOL     OW17929   1.193   3.781  13.412 -0.2210  0.3659 -0.0054
 2099SOL    HW117930   1.129   3.715  13.386  0.3753  0.0428 -0.6814
 2099SOL    HW217931   1.223   3.744  13.496 -1.9312 -1.2722 -0.1152
 2100SOL     OW17932   4.537   2.527  17.710  0.0405 -0.1732  0.4655
 2100SOL    HW117933   4.606   2.582  17.672 -0.6293 -0.7852 -1.6770
 2100SOL    HW217934   4.495   2.602  17.753 -1.4161  0.3631 -1.8610
 2101SOL     OW17935   2.786   1.520   1.369 -0.1180  0.5799 -0.5377
 2101SOL    HW117936   2.801   1.513   1.463  0.2340  0.8683 -0.5750
 2101SOL    HW217937   2.713   1.582   1.361 -1.4844 -0.8882  0.4575
 2102SOL     OW17938   3.182   1.538  10.258 -0.1714  0.2161 -0.3356
 2102SOL    HW117939   3.203   1.529  10.165 -3.1595  0.4529 -1.0207
 2102SOL    HW217940   3.181   1.633  10.270 -1.5310  0.0362  0.9380
 2103SOL     OW17941   0.927   3.387   7.921  0.0422 -0.2370  0.2515
 2103SOL    HW117942   0.997   3.351   7.975 -0.3339 -0.7712  0.3810
 2103SOL    HW217943   0.890   3.451   7.982 -0.1829  0.7960 -0.9499
 2104SOL     OW17944   0.615   1.343   9.650 -0.4984  0.4466 -0.0929
 2104SOL    HW117945   0.561   1.318   9.725  0.0832  0.1049  0.2134
 2104SOL    HW217946   0.701   1.356   9.690 -1.1604 -0.5928  1.7130
 2105SOL     OW17947   1.816   3.168   9.072 -0.3104  0.1236  0.8577
 2105SOL    HW117948   1.818   3.263   9.062 -2.1946  0.1070  0.2071
 2105SOL    HW217949   1.884   3.133   9.015 -1.4363 -0.6750 -0.0017
 2106SOL     OW17950   1.658   2.866  10.638 -0.0044  0.6151  0.1844
 2106SOL    HW117951   1.656   2.828  10.726  0.6449  1.0050  0.3701
 2106SOL    HW217952   1.727   2.932  10.644  0.3760  0.0021  2.5824
 2107SOL     OW17953   3.266   1.928  14.973  0.1930  0.4677 -0.5150
 2107SOL    HW117954   3.310   2.011  14.994 -0.7518  0.7343  0.4253
 2107SOL    HW217955   3.217   1.899  15.050  0.5926  0.3052 -0.3245
 2108SOL     OW17956   3.888   4.034  11.987 -0.2609 -0.2282  0.4144
 2108SOL    HW117957   3.964   4.028  11.929 -0.0520  0.5644  0.6136
 2108SOL    HW217958   3.827   4.077  11.927 -1.3824 -0.7883  1.1613
 2109SOL     OW17959   3.918   1.330   3.818 -0.4241  0.0835  0.3265
 2109SOL    HW117960   3.824   1.328   3.836 -0.4131 -1.7222  0.1172
 2109SOL    HW217961   3.956   1.282   3.891  0.7954  0.2991 -0.1669
 2110SOL     OW17962   3.836   4.414   7.673  0.5978  0.1324 -0.2587
 2110SOL    HW117963   3.814   4.327   7.640  0.1343  0.4130 -0.6763
 2110SOL    HW217964   3.930   4.424   7.659  1.1097 -1.9583  1.5470
 2111SOL     OW17965   0.720   0.248  12.828  0.3259 -0.0458 -0.0290
 2111SOL    HW117966   0.751   0.290  12.908 -0.9013 -2.5246  1.7712
 2111SOL    HW217967   0.776   0.284  12.760 -0.9867  0.2268 -0.9560
 2112SOL     OW17968   2.617   2.716   2.167 -0.1469  0.3945 -0.2113
 2112SOL    HW117969   2.609   2.638   2.111 -2.5442  0.1963  0.3916
 2112SOL    HW217970   2.542   2.762   2.129 -0.7267 -1.2588 -1.0515
 2113SOL     OW17971   1.936   3.086  14.252  0.0746 -0.8322 -0.0093
 2113SOL    HW117972   2.008   3.068  14.313  0.3958  1.5672  0.3064
 2113SOL    HW217973   1.883   3.008  14.270 -1.1167  0.5049  2.2963
 2114SOL     OW17974   2.225   3.404  14.095  0.1422 -0.1437 -0.1382
 2114SOL    HW117975   2.231   3.316  14.058  4.2685 -0.6609  1.7300
 2114SOL    HW217976   2.313   3.408  14.134 -0.1844 -1.1573  0.6925
 2115SOL     OW17977   4.195   0.817   9.678 -0.4218  0.1609 -0.0712
 2115SOL    HW117978   4.156   0.855   9.756  1.7894  2.9209 -0.3278
 2115SOL    HW217979   4.282   0.795   9.711  0.0203  0.8862 -0.7689
 2116SOL     OW17980   2.093   3.477   1.722  0.2009 -0.0138 -0.1614
 2116SOL    HW117981   1.999   3.476   1.739  0.0868  1.9181 -0.6738
 2116SOL    HW217982   2.131   3.408   1.776 -0.3443 -0.0290  0.2004
 2117SOL     OW17983   0.523   4.736  15.451 -0.3083 -0.1109  0.1453
 2117SOL    HW117984   0.434   4.716  15.480 -0.5481  0.4339 -0.2166
 2117SOL    HW217985   0.542   4.655  15.403 -1.3856 -0.2184 -0.1148
 2118SOL     OW17986   1.142   2.396   0.757 -0.7264 -0.4571  0.5438
 2118SOL    HW117987   1.071   2.413   0.820 -1.8440  0.2848 -0.9098
 2118SOL    HW217988   1.185   2.481   0.755 -0.0494 -0.7625  3.1220
 2119SOL     OW17989   2.966   2.253  13.633 -0.1818 -0.3190  0.1824
 2119SOL    HW117990   2.930   2.227  13.717 -3.4169  1.7691 -0.5314
 2119SOL    HW217991   2.883   2.289  13.600 -0.0555  0.4234  0.6829
 2120SOL     OW17992   2.864   3.666   6.456  0.4152  0.4215  0.0651
 2120SOL    HW117993   2.838   3.632   6.542 -1.2703 -0.3878 -0.7614
 2120SOL    HW217994   2.916   3.601   6.410  1.1057  1.5566 -0.7448
 2121SOL     OW17995   2.568   0.794   1.841  0.3797 -0.0971 -0.6685
 2121SOL    HW117996   2.622   0.740   1.899 -1.5558  0.1177  1.3006
 2121SOL    HW217997   2.620   0.874   1.832  0.2601  0.1451  0.8287
 2122SOL     OW17998   2.867   0.696  12.912 -0.0820  0.3182  0.2480
 2122SOL    HW117999   2.958   0.689  12.941 -0.5072  0.7837  1.6845
 2122SOL    HW218000   2.868   0.627  12.845  0.3151 -0.0082  0.5924
 2123SOL     OW18001   4.653   2.167   0.137  0.2585 -0.1837  0.2868
 2123SOL    HW118002   4.729   2.117   0.168  1.6805  1.1680 -1.0450
 2123SOL    HW218003   4.646   2.216   0.219  3.0070 -0.1598  0.5080
 2124SOL     OW18004   3.711   3.103   5.294  0.2734  0.1007 -0.9941
 2124SOL    HW118005   3.762   3.025   5.315  0.5085  0.9866  1.7461
 2124SOL    HW218006   3.686   3.133   5.381  3.1602 -0.7608  0.1023
 2125SOL     OW18007   0.249   4.013   6.381 -0.5528 -0.0926  0.7749
 2125SOL    HW118008   0.207   4.003   6.295  1.8390 -0.4729 -0.3660
 2125SOL    HW218009   0.276   3.922   6.384  0.9411  0.3428  0.7047
 2126SOL     OW18010   4.578   2.115   2.060 -0.6226 -0.3523  0.4455
 2126SOL    HW118011   4.510   2.134   1.996  0.3398  2.5201  0.3078
 2126SOL    HW218012   4.529   2.057   2.119  0.2851 -0.1186  1.4369
 2127SOL     OW18013   2.549   0.152   4.358 -0.8424  0.2101  0.1310
 2127SOL    HW118014   2.607   0.115   4.424  2.5887  2.3103 -1.7400
 2127SOL    HW218015   2.605   0.222   4.324  1.0055 -0.8398  1.0505
 2128SOL     OW18016   2.403   3.206   6.369  0.0996  0.1672 -0.0429
 2128SOL    HW118017   2.398   3.110   6.361  0.1599  0.0492  1.3919
 2128SOL    HW218018   2.449   3.226   6.288 -1.0513  2.2128 -0.2005
 2129SOL     OW18019   3.631   1.575   7.116 -0.2813  0.2878  0.1821
 2129SOL    HW118020   3.635   1.488   7.076 -1.4417 -0.0540  0.8254
 2129SOL    HW218021   3.545   1.562   7.155  0.5504  0.8029  2.2026
 2130SOL     OW18022   3.013   0.583   9.383 -0.2601 -0.0628  0.7085
 2130SOL    HW118023   3.093   0.579   9.436 -0.9021  0.4737  1.7280
 2130SOL    HW218024   2.958   0.522   9.432  2.2407 -1.4948  1.7254
 2131SOL     OW18025   3.349   0.241   4.522 -0.1405 -0.6218 -0.1698
 2131SOL    HW118026   3.402   0.181   4.469  1.5853  0.1666  0.6313
 2131SOL    HW218027   3.262   0.230   4.484  0.0726  0.6030 -1.0323
 2132SOL     OW18028   1.606   4.124  17.755 -0.0493  0.1078 -0.6428
 2132SOL    HW118029   1.511   4.131  17.751  0.0835  2.9616  0.9241
 2132SOL    HW218030   1.613   4.130  17.660 -0.7607 -1.6887 -0.7945
 2133SOL     OW18031   3.490   2.708  12.363  0.0928 -0.3316 -0.0501
 2133SOL    HW118032   3.504   2.721  12.457  1.2911  0.0962 -0.2827
 2133SOL    HW218033   3.412   2.653  12.372 -0.4589  0.6473  1.3083
 2134SOL     OW18034   2.409   4.281   8.041  0.2539 -0.6718  0.0099
 2134SOL    HW118035   2.414   4.362   7.990  2.4511 -0.0839  1.1769
 2134SOL    HW218036   2.363   4.221   7.982 -0.2708 -0.6927  0.4391
 2135SOL     OW18037   4.701   4.612   6.979 -0.6276 -0.8627 -0.6094
 2135SOL    HW118038   4.654   4.659   7.047 -1.0304  1.0535 -2.1962
 2135SOL    HW218039   4.656   4.630   6.896  0.6302  2.8360 -0.5024
 2136SOL     OW18040   1.947   2.381  13.399 -0.5339 -0.8184  0.2636
 2136SOL    HW118041   1.973   2.346  13.485 -1.4361 -3.0207 -0.3704
 2136SOL    HW218042   1.939   2.473  13.421  0.8154 -0.5275 -0.4618
 2137SOL     OW18043   4.374   2.661   7.767  0.2442  0.0206 -0.4097
 2137SOL    HW118044   4.356   2.742   7.719 -0.1967  0.4829  0.5429
 2137SOL    HW218045   4.305   2.676   7.832 -0.8881 -1.0080 -1.3789
 2138SOL     OW18046   1.342   1.171   0.200  0.2496 -0.0721  0.3325
 2138SOL    HW118047   1.393   1.136   0.128 -0.3890  1.6663 -0.9610
 2138SOL    HW218048   1.268   1.111   0.205 -0.4643  0.8715  1.1813
 2139SOL     OW18049   2.155   0.312  14.573  0.5114  0.1169  0.2407
 2139SOL    HW118050   2.116   0.326  14.659  0.4486 -1.8888  0.5396
 2139SOL    HW218051   2.239   0.357  14.579  1.0744 -1.0102  0.6455
 2140SOL     OW18052   2.610   3.284  10.070  0.6477 -0.6495  0.2009
 2140SOL    HW118053   2.585   3.359  10.017 -0.4525 -1.6501 -0.7158
 2140SOL    HW218054   2.526   3.238  10.065  1.7179 -2.3449 -2.7273
 2141SOL     OW18055   4.413   0.772   1.715 -0.6746  0.1484  0.3112
 2141SOL    HW118056   4.497   0.730   1.697 -0.7179 -0.7778  2.2517
 2141SOL    HW218057   4.430   0.831   1.788  1.1305  1.2944 -1.0647
 2142SOL     OW18058   2.846   4.631  12.156  0.2816  0.0390  0.2735
 2142SOL    HW118059   2.810   4.718  12.139  1.5396  0.4187 -0.4461
 2142SOL    HW218060   2.845   4.589  12.070 -2.1572  0.2781  0.1740
 2143SOL     OW18061   1.673   1.334   2.436  0.0969 -0.0155  0.0524
 2143SOL    HW118062   1.668   1.429   2.446  0.3250 -0.1198  1.1314
 2143SOL    HW218063   1.712   1.304   2.518  1.4692  2.6714  0.3706
 2144SOL     OW18064   3.114   1.604  15.307  0.2104 -0.1231  0.5463
 2144SOL    HW118065   3.179   1.542  15.341  2.2776  1.1652 -0.9984
 2144SOL    HW218066   3.067   1.630  15.386 -0.0191 -0.3571  0.4864
 2145SOL     OW18067   3.422   0.690   7.672 -0.1132  0.2159 -0.5040
 2145SOL    HW118068   3.420   0.662   7.764 -0.4937  1.4667 -0.1220
 2145SOL    HW218069   3.387   0.777   7.692 -0.1137  0.5309 -1.8722
 2146SOL     OW18070   0.456   3.928   7.064  0.0281 -0.2680  0.3016
 2146SOL    HW118071   0.406   3.982   7.125  0.4531  0.4832 -0.0034
 2146SOL    HW218072   0.400   3.937   6.986  3.3874  2.0912 -1.8827
 2147SOL     OW18073   3.556   1.275   3.147  0.6020 -0.0439  0.2619
 2147SOL    HW118074   3.535   1.333   3.221  1.5909  0.7374 -0.0639
 2147SOL    HW218075   3.647   1.251   3.167  0.0836 -2.1744  0.0150
 2148SOL     OW18076   3.606   4.107   8.149  0.2230  0.0847  0.0221
 2148SOL    HW118077   3.542   4.101   8.220  0.8972  0.4542  0.6669
 2148SOL    HW218078   3.690   4.091   8.192 -0.6387 -0.3026  1.5432
 2149SOL     OW18079   0.400   3.734  13.688  0.1207 -0.3842  0.0474
 2149SOL    HW118080   0.372   3.748  13.779  0.0180 -0.8049  0.0765
 2149SOL    HW218081   0.315   3.735  13.643 -0.3563 -1.9137  0.9180
 2150SOL     OW18082   4.178   3.469   4.989  0.6209  0.4495 -0.0583
 2150SOL    HW118083   4.218   3.427   4.912  0.9340  0.7756 -0.0770
 2150SOL    HW218084   4.104   3.513   4.947 -1.3713 -0.8579  2.1862
 2151SOL     OW18085   2.757   3.054   0.806 -0.4386  0.6917  0.0195
 2151SOL    HW118086   2.727   2.974   0.849  3.6569 -0.2067  1.1545
 2151SOL    HW218087   2.850   3.047   0.825 -0.6098 -1.7222 -0.0304
 2152SOL     OW18088   2.223   1.588   4.540  0.2657 -0.1519  0.8050
 2152SOL    HW118089   2.288   1.628   4.598  0.2853  1.9658 -0.6976
 2152SOL    HW218090   2.185   1.673   4.518  0.0901 -0.6023 -0.6478
 2153SOL     OW18091   0.482   0.507   4.228  0.5963  0.2561  0.8474
 2153SOL    HW118092   0.424   0.580   4.206  1.8671  0.8892 -0.3526
 2153SOL    HW218093   0.523   0.531   4.312  2.5030  0.5328 -0.1679
 2154SOL     OW18094   2.066   0.690  16.192 -0.3637 -0.4859 -0.2387
 2154SOL    HW118095   2.130   0.738  16.139 -0.2544 -0.4763 -0.0990
 2154SOL    HW218096   1.987   0.707  16.141  0.0016  0.9934 -0.3139
 2155SOL     OW18097   1.760   2.504  11.844  0.2377  0.1291 -0.6356
 2155SOL    HW118098   1.730   2.557  11.918 -2.0719 -3.0442  0.6740
 2155SOL    HW218099   1.807   2.431  11.884  1.1102  0.2401 -1.4441
 2156SOL     OW18100   1.598   1.436  17.387  0.4975  0.3159 -0.7857
 2156SOL    HW118101   1.605   1.528  17.361 -0.3848  0.5100 -0.3475
 2156SOL    HW218102   1.634   1.392  17.311 -1.3380  0.8146 -1.9465
 2157SOL     OW18103   3.301   0.221   6.951 -0.0575  0.7944 -0.1770
 2157SOL    HW118104   3.265   0.306   6.976  0.1569  0.5503  0.9580
 2157SOL    HW218105   3.356   0.254   6.880  0.6617 -0.2589 -0.1025
 2158SOL     OW18106   0.651   4.312   6.147  0.0135  0.1572 -0.4214
 2158SOL    HW118107   0.586   4.242   6.143 -1.2152  1.3488 -0.9793
 2158SOL    HW218108   0.719   4.283   6.209 -0.5901 -0.2444  0.0586
 2159SOL     OW18109   2.465   2.028   3.654  0.4382 -0.0704  0.4866
 2159SOL    HW118110   2.538   2.032   3.716 -0.5920  0.0430  1.6836
 2159SOL    HW218111   2.419   1.945   3.658 -1.1346  0.8507  1.5520
 2160SOL     OW18112   0.513   2.203   1.792 -0.7792  0.2089  0.8400
 2160SOL    HW118113   0.502   2.288   1.748 -1.7599  0.1052  0.9056
 2160SOL    HW218114   0.452   2.150   1.741  1.4961 -1.1280 -0.4881
 2161SOL     OW18115   4.340   1.627  13.801  0.0972 -0.1948  0.2938
 2161SOL    HW118116   4.297   1.710  13.820  0.6063  0.2624 -0.5138
 2161SOL    HW218117   4.409   1.620  13.867 -1.6684 -0.4002  2.1165
 2162SOL     OW18118   1.501   2.632   5.217  0.3409  0.1058 -0.1079
 2162SOL    HW118119   1.539   2.555   5.259 -0.8661 -3.0956 -4.8094
 2162SOL    HW218120   1.558   2.699   5.254 -0.2868 -0.4456  1.8432
 2163SOL     OW18121   1.754   2.407  13.196 -0.7645  0.4073 -0.4806
 2163SOL    HW118122   1.692   2.346  13.235 -0.3305  1.3535  1.6706
 2163SOL    HW218123   1.829   2.396  13.254 -0.3829  0.4615 -0.9652
 2164SOL     OW18124   0.652   4.300   4.564  0.6656  0.1167  0.4551
 2164SOL    HW118125   0.596   4.347   4.625 -0.7476  0.3907 -1.0586
 2164SOL    HW218126   0.686   4.381   4.525 -1.8164 -0.0451 -2.0490
 2165SOL     OW18127   4.623   2.774   5.158  0.0744  0.3415  0.1690
 2165SOL    HW118128   4.592   2.847   5.104  0.8610  0.3990 -0.2149
 2165SOL    HW218129   4.715   2.799   5.169  0.1921  0.0830 -0.2123
 2166SOL     OW18130   3.577   4.227  14.914  0.2935  0.3154  0.1417
 2166SOL    HW118131   3.571   4.273  14.830  0.6523 -1.5496 -0.8954
 2166SOL    HW218132   3.521   4.289  14.961  0.5526 -0.8463  1.9417
 2167SOL     OW18133   1.106   2.487   6.777  0.7720  0.2849 -0.0075
 2167SOL    HW118134   1.021   2.520   6.804  0.6624  1.6863 -2.0967
 2167SOL    HW218135   1.089   2.395   6.759 -1.9226  0.2148  2.9679
 2168SOL     OW18136   2.507   1.703   4.265  0.0134  0.0919  1.0530
 2168SOL    HW118137   2.464   1.654   4.195  0.2746  1.8120 -0.3111
 2168SOL    HW218138   2.567   1.635   4.293  2.3372  1.0929 -1.5169
 2169SOL     OW18139   0.626   0.221   6.363  0.6816 -0.5132 -0.2209
 2169SOL    HW118140   0.688   0.152   6.341  1.8846  0.0677  1.3103
 2169SOL    HW218141   0.631   0.279   6.287  0.4163 -0.0384  0.1205
 2170SOL     OW18142   1.009   3.833  12.365  0.0590  0.0792 -0.3244
 2170SOL    HW118143   0.955   3.837  12.286 -0.0279 -0.1671 -0.2781
 2170SOL    HW218144   1.091   3.803  12.325 -0.9123 -2.0956 -0.7212
 2171SOL     OW18145   0.244   3.054   8.654  0.2008  0.1397 -0.2565
 2171SOL    HW118146   0.315   3.078   8.594 -0.0755  2.1270  0.1845
 2171SOL    HW218147   0.294   3.072   8.733  1.3378 -0.0002 -0.9393
 2172SOL     OW18148   1.810   4.523   7.849  0.4566  0.4691 -0.9161
 2172SOL    HW118149   1.785   4.544   7.759 -4.1815  2.5869  0.8868
 2172SOL    HW218150   1.793   4.608   7.889  2.6783 -0.4701  2.0537
 2173SOL     OW18151   3.775   0.540   2.723  0.1239  0.4702 -0.2296
 2173SOL    HW118152   3.692   0.541   2.771 -0.2434 -3.0340 -0.7205
 2173SOL    HW218153   3.755   0.497   2.639 -0.1877 -3.3429  1.7662
 2174SOL     OW18154   1.892   1.764   7.382 -0.2221  0.3598 -0.0323
 2174SOL    HW118155   1.958   1.707   7.423 -1.0998 -1.1126 -0.6532
 2174SOL    HW218156   1.892   1.715   7.299 -1.7153  0.0147  0.1716
 2175SOL     OW18157   1.535   4.376   9.563  0.1186  0.1468 -0.0027
 2175SOL    HW118158   1.620   4.387   9.605  0.3014 -0.5628 -0.1710
 2175SOL    HW218159   1.562   4.360   9.472 -0.2589  2.2448 -0.4703
 2176SOL     OW18160   1.065   2.946   0.961  0.0029 -0.3112 -0.2593
 2176SOL    HW118161   0.973   2.951   0.986 -0.2845  1.4863 -1.6969
 2176SOL    HW218162   1.108   3.008   1.020 -4.5533 -0.0904  2.8037
 2177SOL     OW18163   1.202   3.913   6.204  0.0064  0.2073  0.2709
 2177SOL    HW118164   1.156   3.847   6.255 -2.1932  1.1852 -0.4351
 2177SOL    HW218165   1.194   3.869   6.119  0.6075  0.9726 -0.1843
 2178SOL     OW18166   1.953   2.030  13.393  0.0362  0.2359  0.5818
 2178SOL    HW118167   1.902   1.983  13.327  0.6878 -1.0536  1.0007
 2178SOL    HW218168   2.024   2.051  13.333 -0.1048  0.7706  0.6012
 2179SOL     OW18169   1.412   4.584  10.569 -0.0326  0.1251 -0.3007
 2179SOL    HW118170   1.379   4.584  10.659  0.7269  2.3218 -0.0218
 2179SOL    HW218171   1.412   4.679  10.559 -0.5336  0.3751  2.1257
 2180SOL     OW18172   4.101   0.214  12.276 -0.3587 -0.0053 -0.1414
 2180SOL    HW118173   4.130   0.148  12.339 -0.6474  1.6309  1.7123
 2180SOL    HW218174   4.157   0.286  12.305  0.5632 -0.4101 -0.9222
 2181SOL     OW18175   1.330   2.008  16.992 -0.2393 -0.1620  0.1865
 2181SOL    HW118176   1.409   2.029  17.042 -1.5712  2.5882  1.1725
 2181SOL    HW218177   1.309   1.927  17.038  0.7637  1.3402  3.2770
 2182SOL     OW18178   0.279   0.633  10.102  0.6275  0.0616  0.7308
 2182SOL    HW118179   0.295   0.715  10.054 -2.5995  0.8567  1.0192
 2182SOL    HW218180   0.343   0.644  10.171  0.5912 -1.8691  1.0711
 2183SOL     OW18181   1.554   0.537   7.882 -0.3876  0.4330  0.5394
 2183SOL    HW118182   1.558   0.558   7.789  2.7859 -2.2156  0.0736
 2183SOL    HW218183   1.536   0.619   7.928 -1.5551 -0.5681  1.8708
 2184SOL     OW18184   3.664   4.044   4.945 -0.3099 -0.4863  0.0434
 2184SOL    HW118185   3.742   4.004   4.907  0.8161  0.5530  1.2546
 2184SOL    HW218186   3.600   3.974   4.942 -1.1957  0.2014  2.8318
 2185SOL     OW18187   3.807   1.740   7.273  0.2865  0.3774  0.1876
 2185SOL    HW118188   3.737   1.696   7.225  0.5319  1.8550 -1.5182
 2185SOL    HW218189   3.849   1.664   7.315  0.8817  1.5578  1.7052
 2186SOL     OW18190   3.493   0.243   2.754  0.1645 -0.2380  0.3324
 2186SOL    HW118191   3.470   0.205   2.669  0.8947 -1.5469  0.7144
 2186SOL    HW218192   3.413   0.216   2.799 -1.2528  1.4957 -1.1585
 2187SOL     OW18193   2.624   0.299   6.957  0.2974 -0.1478  0.7694
 2187SOL    HW118194   2.599   0.384   6.995 -0.1830  1.3456 -2.8400
 2187SOL    HW218195   2.545   0.245   6.962 -0.2846  0.5994 -0.3712
 2188SOL     OW18196   1.941   2.327  12.523  0.1670 -0.5690 -0.3629
 2188SOL    HW118197   1.904   2.414  12.506  0.8932 -0.4591 -1.3741
 2188SOL    HW218198   1.918   2.280  12.443  3.2453 -1.1873 -0.8963
 2189SOL     OW18199   2.189   1.975   8.644 -0.1340 -0.5942 -0.4356
 2189SOL    HW118200   2.248   1.915   8.689  0.7657  1.4838  1.1628
 2189SOL    HW218201   2.234   1.982   8.559  0.8116 -0.5256  0.0764
 2190SOL     OW18202   0.710   0.884  14.895  0.2802  0.2558  0.1071
 2190SOL    HW118203   0.693   0.952  14.960 -1.7441 -1.5969  1.5231
 2190SOL    HW218204   0.797   0.862  14.927  0.1795 -1.0838 -0.5395
 2191SOL     OW18205   4.498   3.501   6.413  0.1443 -0.5634  0.1541
 2191SOL    HW118206   4.499   3.425   6.471 -0.7862  0.2311  1.2128
 2191SOL    HW218207   4.417   3.483   6.365 -0.1972 -0.3614  0.6590
 2192SOL     OW18208   1.967   3.881   6.795  0.7394  0.4189 -0.0954
 2192SOL    HW118209   1.895   3.861   6.854  1.0121  1.3904  0.5717
 2192SOL    HW218210   2.001   3.965   6.825 -0.0417  0.6790  0.0649
 2193SOL     OW18211   3.658   1.771   0.462  0.5202 -0.6023  0.3102
 2193SOL    HW118212   3.568   1.765   0.430  0.7554 -1.9051 -0.0877
 2193SOL    HW218213   3.689   1.856   0.430 -1.5182  0.5069  1.2995
 2194SOL     OW18214   0.057   1.076   1.952 -0.0076 -0.4590 -0.1936
 2194SOL    HW118215   0.151   1.067   1.933  0.0811  2.8353 -1.2699
 2194SOL    HW218216   0.061   1.146   2.016 -1.5805  0.0063 -0.6148
 2195SOL     OW18217   1.747   2.087   5.338  0.3151  0.2560  0.1320
 2195SOL    HW118218   1.814   2.109   5.403 -0.7387  1.2719  0.9007
 2195SOL    HW218219   1.766   2.128   5.253  0.7136 -0.1832  0.0128
 2196SOL     OW18220   2.541   2.491  17.271  0.6126 -0.0301  0.1834
 2196SOL    HW118221   2.477   2.484  17.201 -1.0684  0.8887  1.6367
 2196SOL    HW218222   2.627   2.495  17.229 -0.0696 -0.0741 -1.2049
 2197SOL     OW18223   2.372   1.029   5.054  0.3026 -0.0031 -0.1823
 2197SOL    HW118224   2.359   1.121   5.030  0.1176  0.5483  2.0176
 2197SOL    HW218225   2.463   1.020   5.024 -0.8141 -0.2818 -3.5539
 2198SOL     OW18226   2.349   4.035  11.551 -0.0692 -0.0247 -0.2656
 2198SOL    HW118227   2.391   4.115  11.582  0.7759 -0.9312  0.9156
 2198SOL    HW218228   2.413   3.973  11.585 -0.3800 -0.4253 -0.4004
 2199SOL     OW18229   3.169   2.961   5.491  0.3861 -0.3269  0.3322
 2199SOL    HW118230   3.151   2.882   5.439  0.8149 -0.3149  0.1609
 2199SOL    HW218231   3.252   2.989   5.451 -0.4972  0.6223 -0.8362
 2200SOL     OW18232   3.187   0.799  16.522  0.0228 -0.9364 -0.2513
 2200SOL    HW118233   3.259   0.862  16.522  0.3048 -1.2567  0.0004
 2200SOL    HW218234   3.202   0.742  16.447 -2.4482 -0.5446 -1.0679
 2201SOL     OW18235   1.344   2.269   2.843  0.2522 -0.1571 -0.4316
 2201SOL    HW118236   1.396   2.251   2.765  0.1838 -0.3275 -0.4374
 2201SOL    HW218237   1.260   2.228   2.823 -0.1145 -0.4319  1.7129
 2202SOL     OW18238   1.380   1.489  11.032 -0.2368 -0.2524 -0.6051
 2202SOL    HW118239   1.331   1.572  11.028  1.2972  0.5825 -2.4185
 2202SOL    HW218240   1.352   1.471  11.121 -0.4779  2.6336 -0.0957
 2203SOL     OW18241   3.130   3.044  12.911  0.2972 -0.2199 -0.3120
 2203SOL    HW118242   3.055   3.046  12.971  0.2051 -0.1858 -0.4291
 2203SOL    HW218243   3.136   3.134  12.882  1.1879 -0.1601  0.0778
 2204SOL     OW18244   3.187   0.974   7.492 -0.0355 -0.1602  0.2293
 2204SOL    HW118245   3.226   0.929   7.416 -2.1706 -0.7762 -0.5060
 2204SOL    HW218246   3.108   1.005   7.447 -0.2173 -0.7226  0.1589
 2205SOL     OW18247   0.629   2.380   0.431  0.5073  0.5212  0.1837
 2205SOL    HW118248   0.725   2.381   0.428  0.3769  0.0403 -4.1930
 2205SOL    HW218249   0.598   2.470   0.436 -0.5718  0.2547 -1.8466
 2206SOL     OW18250   3.900   0.861  14.458 -0.2536 -0.5806 -0.0926
 2206SOL    HW118251   3.927   0.792  14.519 -0.9483  2.2741  3.4476
 2206SOL    HW218252   3.983   0.895  14.424 -0.2791 -1.1086 -0.6865
 2207SOL     OW18253   0.184   0.333  10.872 -0.6756  0.4907  0.4639
 2207SOL    HW118254   0.256   0.295  10.922  0.3245  3.4369  1.2916
 2207SOL    HW218255   0.107   0.288  10.905  1.0685 -1.0976  2.3532
 2208SOL     OW18256   1.096   0.762   0.243 -0.5335 -0.3807 -0.3862
 2208SOL    HW118257   1.030   0.785   0.308 -0.3479  1.7757 -0.9612
 2208SOL    HW218258   1.089   0.668   0.262 -1.2659 -0.3776 -0.6580
 2209SOL     OW18259   2.156   0.670   9.551  0.0852  0.2286  0.5989
 2209SOL    HW118260   2.166   0.757   9.511  1.0156 -0.5411 -0.8111
 2209SOL    HW218261   2.196   0.675   9.638 -0.3424 -0.4486  0.8265
 2210SOL     OW18262   2.445   1.578  11.554 -0.2718  0.2959  0.0117
 2210SOL    HW118263   2.378   1.645  11.562 -1.4663 -0.7870 -0.9894
 2210SOL    HW218264   2.515   1.601  11.616 -0.2995 -1.5420  0.7309
 2211SOL     OW18265   2.597   2.454   8.814 -0.2755  0.6950 -0.1956
 2211SOL    HW118266   2.685   2.450   8.852 -0.0442 -0.6946 -0.8782
 2211SOL    HW218267   2.606   2.393   8.740  2.4204  0.7087  0.1117
 2212SOL     OW18268   0.698   1.176   6.766 -0.1707  0.3362  0.7695
 2212SOL    HW118269   0.618   1.131   6.791 -0.7213  0.4876 -0.7853
 2212SOL    HW218270   0.761   1.137   6.827 -1.2519  0.3260  1.8783
 2213SOL     OW18271   1.541   2.788   4.388 -0.2635 -0.3013 -0.0664
 2213SOL    HW118272   1.463   2.817   4.435  0.3387  0.9854  0.1322
 2213SOL    HW218273   1.562   2.712   4.443 -0.8254  0.1542  0.7654
 2214SOL     OW18274   2.049   3.263  10.751  0.1811  0.2363 -0.0814
 2214SOL    HW118275   2.088   3.200  10.690 -0.5857  2.1768 -2.5765
 2214SOL    HW218276   1.958   3.240  10.733  0.5787 -0.3047 -1.3491
 2215SOL     OW18277   4.503   0.385   1.582  0.3600  0.2627 -0.2762
 2215SOL    HW118278   4.436   0.400   1.516  0.9585  1.0053 -0.7225
 2215SOL    HW218279   4.471   0.309   1.631  1.0025  1.6309  2.2447
 2216SOL     OW18280   3.621   3.248   7.513 -0.7627  0.4536 -0.4020
 2216SOL    HW118281   3.710   3.223   7.489 -1.0991  1.0122 -2.1719
 2216SOL    HW218282   3.557   3.191   7.470 -0.9648  1.0637 -0.8995
 2217SOL     OW18283   0.507   3.646   8.011 -0.4203 -1.0511 -0.0815
 2217SOL    HW118284   0.485   3.706   8.082 -1.1821  1.2722 -2.2725
 2217SOL    HW218285   0.500   3.721   7.952 -0.7611 -1.8798 -1.0934
 2218SOL     OW18286   2.842   3.586  14.561 -0.2161  0.2309 -0.1467
 2218SOL    HW118287   2.938   3.582  14.565 -0.2276 -1.1711 -1.1248
 2218SOL    HW218288   2.816   3.508  14.610 -0.6375  0.2131 -0.3964
 2219SOL     OW18289   3.635   4.450   4.510 -0.2221 -0.2060  0.0192
 2219SOL    HW118290   3.694   4.422   4.440  0.2829  1.1985 -0.1270
 2219SOL    HW218291   3.624   4.367   4.555 -0.0431 -1.3817 -2.0974
 2220SOL     OW18292   1.572   0.829   4.945 -0.6469 -1.1576 -0.5180
 2220SOL    HW118293   1.596   0.747   4.989 -2.6311  0.7526  4.1225
 2220SOL    HW218294   1.617   0.890   5.003 -1.8584  0.7710 -1.6109
 2221SOL     OW18295   2.827   4.413   3.411  0.5274  0.5158  0.4460
 2221SOL    HW118296   2.744   4.420   3.457  0.1329  0.7378 -0.2941
 2221SOL    HW218297   2.797   4.391   3.323 -0.9481  0.0916  1.0596
 2222SOL     OW18298   4.354   2.080  17.272 -0.4816 -0.4355  0.1102
 2222SOL    HW118299   4.276   2.039  17.235  0.0482 -0.4376 -1.0138
 2222SOL    HW218300   4.351   2.058  17.365 -0.0336  0.0762  0.2434
 2223SOL     OW18301   4.295   1.449  11.852 -0.0809  0.2691 -0.5543
 2223SOL    HW118302   4.291   1.479  11.761 -0.6540 -0.1147 -0.6584
 2223SOL    HW218303   4.244   1.368  11.848 -1.3294  1.0099  0.3517
 2224SOL     OW18304   0.897   2.271   7.309 -0.1919  0.0244 -0.3441
 2224SOL    HW118305   0.951   2.334   7.357 -0.7314  0.3841 -0.2087
 2224SOL    HW218306   0.921   2.190   7.354  2.6258  1.0991  0.0574
 2225SOL     OW18307   0.200   2.172  13.830  0.1355  0.4390 -0.2952
 2225SOL    HW118308   0.285   2.214  13.838 -2.0509  4.4080  1.8313
 2225SOL    HW218309   0.166   2.211  13.749 -1.4056  0.0734  0.1818
 2226SOL     OW18310   0.297   1.497   7.630  0.0765 -0.2768 -0.1395
 2226SOL    HW118311   0.249   1.565   7.582 -0.1900 -1.3393 -1.3796
 2226SOL    HW218312   0.340   1.550   7.697 -0.4972  2.4638 -1.9126
 2227SOL     OW18313   1.309   4.458  13.451  0.4678 -0.3925 -0.3990
 2227SOL    HW118314   1.215   4.469  13.469  0.8849  1.1991  0.7728
 2227SOL    HW218315   1.310   4.364  13.472  0.7316 -1.0465 -3.3479
 2228SOL     OW18316   2.768   4.479   8.073 -0.3696 -0.1379  0.1952
 2228SOL    HW118317   2.859   4.482   8.104  0.3943  2.0175 -2.2222
 2228SOL    HW218318   2.748   4.387   8.088  0.0197  0.1138  2.2131
 2229SOL     OW18319   0.903   1.955  15.214  0.0069 -0.3646 -0.2521
 2229SOL    HW118320   0.943   2.028  15.168  0.0543 -0.4292 -0.3136
 2229SOL    HW218321   0.968   1.886  15.201  0.1455 -0.2712 -0.0600
 2230SOL     OW18322   1.034   3.289   2.413  0.6992  0.3841 -0.4943
 2230SOL    HW118323   1.001   3.203   2.437  0.4692 -0.0335 -2.3013
 2230SOL    HW218324   1.127   3.292   2.433  0.3652  0.4264  1.0723
 2231SOL     OW18325   3.812   2.513  16.958 -0.4288  0.1427 -0.1208
 2231SOL    HW118326   3.777   2.498  17.046  0.9614  0.8232  0.5499
 2231SOL    HW218327   3.798   2.608  16.956 -0.2679  0.1300 -1.8636
 2232SOL     OW18328   1.032   1.553   2.235  0.7522  0.6170 -0.1194
 2232SOL    HW118329   1.118   1.519   2.260  1.1797  1.1116 -0.9031
 2232SOL    HW218330   1.023   1.485   2.168  0.8052  2.0884 -1.6246
 2233SOL     OW18331   2.545   2.060  14.347  0.1238 -0.0223  0.6058
 2233SOL    HW118332   2.504   2.037  14.264  0.4745  0.0385  0.4129
 2233SOL    HW218333   2.619   2.104  14.305  0.1389 -0.7205 -0.0812
 2234SOL     OW18334   1.524   2.661   6.606  0.4768  0.7546 -0.0775
 2234SOL    HW118335   1.545   2.665   6.699  3.0526 -0.6036 -0.6214
 2234SOL    HW218336   1.485   2.748   6.601 -1.6674 -0.0403  2.7715
 2235SOL     OW18337   1.315   1.802  17.472  0.4485 -0.2351 -1.1671
 2235SOL    HW118338   1.376   1.870  17.443  1.8719 -0.6982  0.7646
 2235SOL    HW218339   1.350   1.777  17.557 -1.4202  0.3831 -0.2030
 2236SOL     OW18340   2.897   3.589  16.469 -0.0402 -0.7132  0.1654
 2236SOL    HW118341   2.933   3.546  16.547 -1.2039  3.0984  2.8178
 2236SOL    HW218342   2.813   3.621  16.504  1.6531  2.0737  1.6465
 2237SOL     OW18343   0.218   0.423  12.854 -0.1741  0.2041  0.0463
 2237SOL    HW118344   0.159   0.498  12.855  1.6886  1.6783  0.2142
 2237SOL    HW218345   0.249   0.421  12.763 -0.2933 -1.1913  0.0431
 2238SOL     OW18346   4.459   3.723  11.649  0.1565 -0.1257 -0.5869
 2238SOL    HW118347   4.418   3.667  11.714 -2.2490  1.2311 -0.9285
 2238SOL    HW218348   4.392   3.780  11.611  1.0641  0.3156 -1.5534
 2239SOL     OW18349   0.486   0.295   8.504 -0.0824  0.1940  0.1042
 2239SOL    HW118350   0.442   0.322   8.423 -0.1636 -0.6305 -0.1189
 2239SOL    HW218351   0.409   0.293   8.561 -1.7716  1.8649 -2.0542
 2240SOL     OW18352   0.604   0.473   0.087  0.4236  0.6748  0.4121
 2240SOL    HW118353   0.685   0.466   0.136 -1.0721 -0.3163  2.7373
 2240SOL    HW218354   0.563   0.549   0.128  1.4220  2.7322 -2.3711
 2241SOL     OW18355   0.629   1.713  17.421  0.6773  0.6842 -0.1181
 2241SOL    HW118356   0.705   1.745  17.468  0.1635  1.3837  0.2323
 2241SOL    HW218357   0.598   1.656  17.491 -0.3522  1.7550  0.3035
 2242SOL     OW18358   0.480   2.502  14.484 -0.1347  0.2511 -0.0568
 2242SOL    HW118359   0.490   2.416  14.444  1.6105  0.2174  0.4606
 2242SOL    HW218360   0.518   2.492  14.572 -0.5073 -0.1485  0.0588
 2243SOL     OW18361   1.976   2.376   8.689  0.6439  0.2239 -0.3006
 2243SOL    HW118362   1.899   2.404   8.640  1.0524 -0.3456 -1.2558
 2243SOL    HW218363   1.985   2.284   8.665 -0.5533  0.3367 -1.1505
 2244SOL     OW18364   3.012   2.333   3.303  0.4882  0.8658 -0.0756
 2244SOL    HW118365   2.969   2.342   3.218  0.4442 -1.0341 -0.2671
 2244SOL    HW218366   3.028   2.425   3.321 -0.8794  0.6284  2.4749
 2245SOL     OW18367   4.426   0.384   4.625  0.4002 -0.3885 -0.1378
 2245SOL    HW118368   4.473   0.301   4.619  0.3094 -0.4357 -0.2161
 2245SOL    HW218369   4.453   0.408   4.713 -1.8588  0.4603  0.3369
 2246SOL     OW18370   0.478   3.354  12.869  0.1649 -0.3142  0.0601
 2246SOL    HW118371   0.529   3.395  12.939  0.0734 -0.7505  0.3873
 2246SOL    HW218372   0.456   3.435  12.825  0.9434  0.2580  0.7157
 2247SOL     OW18373   0.186   3.073   3.839 -0.4602 -0.7480 -0.3554
 2247SOL    HW118374   0.111   3.019   3.863 -1.9445  1.4523  0.0118
 2247SOL    HW218375   0.146   3.137   3.781 -2.1590 -1.1147  0.4045
 2248SOL     OW18376   4.055   4.138   1.903  0.5604  0.3035  0.3991
 2248SOL    HW118377   3.961   4.158   1.898  1.2530  3.0680 -1.4580
 2248SOL    HW218378   4.080   4.213   1.957  2.2181 -1.0033  1.4173
 2249SOL     OW18379   3.302   2.006  11.777  0.5724  0.3664  0.0624
 2249SOL    HW118380   3.344   2.089  11.795  2.2522 -0.9527  2.2480
 2249SOL    HW218381   3.325   1.990  11.686  0.3895  2.6244 -0.3716
 2250SOL     OW18382   1.450   3.816   7.587  0.0693  0.0158  0.1014
 2250SOL    HW118383   1.545   3.820   7.600 -0.0067  0.3121  0.5781
 2250SOL    HW218384   1.411   3.896   7.620  1.8611  0.7739  0.3938
 2251SOL     OW18385   1.310   0.991   1.914  0.3470 -0.0208  0.1609
 2251SOL    HW118386   1.322   1.030   1.828  1.8463 -0.6594  0.0722
 2251SOL    HW218387   1.228   0.944   1.903  0.4685  0.0161 -0.8714
 2252SOL     OW18388   2.729   0.940  16.149  0.7378 -0.0041 -0.1979
 2252SOL    HW118389   2.645   0.936  16.195 -0.2525  0.3945 -1.9431
 2252SOL    HW218390   2.775   0.865  16.186 -0.6894 -0.8060 -0.0389
 2253SOL     OW18391   1.091   0.899  14.763  0.3609 -0.2416 -0.3178
 2253SOL    HW118392   1.033   0.897  14.687 -0.5889 -1.3695  0.4403
 2253SOL    HW218393   1.046   0.840  14.823 -1.7380  1.6846 -0.0218
 2254SOL     OW18394   1.011   3.816   5.093  0.2628  0.2700 -0.3635
 2254SOL    HW118395   1.066   3.826   5.015 -0.0720  0.5547 -0.5656
 2254SOL    HW218396   1.077   3.791   5.157  0.5812  1.6180 -0.1704
 2255SOL     OW18397   2.692   0.786   8.884 -0.1038  0.1187  0.3579
 2255SOL    HW118398   2.746   0.722   8.837 -1.8218 -1.7847  0.9809
 2255SOL    HW218399   2.612   0.735   8.895 -1.3383  1.8682 -0.5827
 2256SOL     OW18400   3.500   3.451   2.146 -0.0668  0.2503  0.6126
 2256SOL    HW118401   3.454   3.432   2.065 -1.2045  0.4262  1.2172
 2256SOL    HW218402   3.587   3.466   2.108 -0.5075 -2.7238 -1.5208
 2257SOL     OW18403   4.303   4.381   9.154  0.2852 -0.5243  0.5490
 2257SOL    HW118404   4.218   4.336   9.151  0.1571 -0.1077 -1.6693
 2257SOL    HW218405   4.314   4.408   9.245  1.0012  0.2749  0.2215
 2258SOL     OW18406   0.692   0.977  14.634  0.0026  0.3120  0.4263
 2258SOL    HW118407   0.687   0.946  14.725  2.2188 -0.3060  0.3306
 2258SOL    HW218408   0.772   0.928  14.615  0.3513  1.3089 -0.6985
 2259SOL     OW18409   4.209   4.166   2.190  1.1566 -0.1499 -0.3585
 2259SOL    HW118410   4.199   4.197   2.280 -1.0134 -0.5408 -0.4559
 2259SOL    HW218411   4.235   4.250   2.152  1.1318 -0.1534 -0.3839
 2260SOL     OW18412   3.269   1.703  15.631  0.2166  0.2122  0.1033
 2260SOL    HW118413   3.178   1.674  15.621  0.2866 -0.1783  0.5997
 2260SOL    HW218414   3.317   1.629  15.593  0.0943  1.4150 -2.3702
 2261SOL     OW18415   2.182   0.591   5.482 -0.0280 -0.5737 -0.3091
 2261SOL    HW118416   2.175   0.666   5.423 -1.9893 -0.5763 -0.0689
 2261SOL    HW218417   2.178   0.637   5.565  1.0195  1.0615 -1.1599
 2262SOL     OW18418   0.537   3.525   2.192  0.8733  0.1795 -0.1450
 2262SOL    HW118419   0.506   3.436   2.212 -0.7197  0.9563  0.8609
 2262SOL    HW218420   0.513   3.574   2.271  0.1349 -0.6967  0.1867
 2263SOL     OW18421   1.132   4.224   0.210  0.1682  0.1189  0.1604
 2263SOL    HW118422   1.114   4.140   0.169 -0.5587  0.2680  0.1813
 2263SOL    HW218423   1.227   4.209   0.212  0.1951  0.1280 -0.9369
 2264SOL     OW18424   3.896   3.847  16.121  0.0912  0.2597 -0.5708
 2264SOL    HW118425   3.865   3.899  16.196 -1.4917 -1.8947  0.2814
 2264SOL    HW218426   3.855   3.889  16.046 -3.3823  1.4825  2.0350
 2265SOL     OW18427   0.782   3.869  16.323  0.2790 -0.3084  0.0079
 2265SOL    HW118428   0.841   3.840  16.253  0.3343 -1.9520  0.7389
 2265SOL    HW218429   0.835   3.941  16.358  0.8135  0.5155 -2.4970
 2266SOL     OW18430   0.247   2.373  17.739 -0.1479  0.2249  0.6506
 2266SOL    HW118431   0.160   2.351  17.706  0.0309  1.1555 -0.4553
 2266SOL    HW218432   0.249   2.467  17.719  1.0536 -0.0063 -0.3027
 2267SOL     OW18433   3.793   2.087   6.589  0.4845  0.0378  0.1871
 2267SOL    HW118434   3.817   2.042   6.509 -0.1384  3.0141 -1.6803
 2267SOL    HW218435   3.875   2.120   6.627  0.1250  0.9812  0.1465
 2268SOL     OW18436   0.731   3.818   2.964 -0.0689  0.8410  0.2765
 2268SOL    HW118437   0.710   3.907   2.935 -0.1890  0.5477 -0.5351
 2268SOL    HW218438   0.648   3.800   3.009  0.9094  0.8746  2.0888
 2269SOL     OW18439   1.449   4.676   7.538  1.0936  0.0760  0.1240
 2269SOL    HW118440   1.429   4.642   7.451 -0.2069 -0.4592  0.6444
 2269SOL    HW218441   1.459   4.597   7.592  0.8018  1.6586  2.5123
 2270SOL     OW18442   4.020   1.273  11.951 -0.1531 -0.1027  0.0895
 2270SOL    HW118443   3.987   1.202  12.006  0.2354  1.5550  2.4495
 2270SOL    HW218444   4.110   1.243  11.943  0.8352  2.7077  0.6768
 2271SOL     OW18445   3.621   4.690   5.852  0.5321  0.4563  0.0639
 2271SOL    HW118446   3.575   4.703   5.936 -1.7019  0.4182 -1.1557
 2271SOL    HW218447   3.555   4.636   5.808 -0.0087  0.2191  1.1567
 2272SOL     OW18448   0.453   1.627  14.046  0.6140 -0.0738 -0.0636
 2272SOL    HW118449   0.403   1.650  13.967 -2.2530 -0.0931  1.7623
 2272SOL    HW218450   0.437   1.533  14.049 -0.9104  0.2020  0.2173
 2273SOL     OW18451   1.078   3.202   9.186  0.1208  0.4326  0.3403
 2273SOL    HW118452   1.115   3.231   9.269  0.2137 -2.5169  1.3137
 2273SOL    HW218453   1.031   3.282   9.163 -2.9057 -2.5156 -3.9741
 2274SOL     OW18454   2.800   3.932   0.244 -0.3253 -0.3278 -0.1596
 2274SOL    HW118455   2.827   3.971   0.327 -1.3325  1.3254 -0.6134
 2274SOL    HW218456   2.712   3.969   0.234  0.1781  1.2320  1.1816
 2275SOL     OW18457   0.306   0.731   7.964  0.1059 -0.3495  0.7119
 2275SOL    HW118458   0.256   0.766   8.038 -0.0035 -0.5065  0.7106
 2275SOL    HW218459   0.317   0.813   7.915  1.6984 -0.2417  1.2353
 2276SOL     OW18460   0.918   1.559  16.330  0.6081 -0.1383 -0.2933
 2276SOL    HW118461   0.881   1.641  16.297 -0.2425  0.4335  2.0797
 2276SOL    HW218462   0.919   1.503  16.252 -0.4641 -1.8459  0.9298
 2277SOL     OW18463   4.572   3.147   7.456  0.0613 -0.3883  0.5363
 2277SOL    HW118464   4.543   3.204   7.385  0.1034 -1.3274 -0.2375
 2277SOL    HW218465   4.587   3.205   7.530 -1.0910  2.0928 -1.1876
 2278SOL     OW18466   2.299   1.566  13.120  0.3576  0.1848  0.0288
 2278SOL    HW118467   2.389   1.564  13.152  0.6310 -1.8655 -0.8316
 2278SOL    HW218468   2.263   1.510  13.189  2.0251 -1.6355 -0.5727
 2279SOL     OW18469   1.947   0.752   0.211  0.1573 -0.1272 -0.1185
 2279SOL    HW118470   1.974   0.714   0.295 -1.4769  1.0094  0.9149
 2279SOL    HW218471   1.929   0.839   0.246  0.8348  0.7998 -2.1483
 2280SOL     OW18472   0.927   2.061   5.179 -0.1966 -0.1524 -0.5881
 2280SOL    HW118473   0.876   2.022   5.250  1.2341 -3.0607 -1.1726
 2280SOL    HW218474   1.010   2.014   5.183 -1.5385 -2.4620  0.2421
 2281SOL     OW18475   3.073   3.767   3.932  0.2690 -0.2237 -0.3736
 2281SOL    HW118476   3.108   3.810   3.854  0.0025  2.2221  0.8664
 2281SOL    HW218477   3.054   3.679   3.898  1.0145 -0.9532  1.1069
 2282SOL     OW18478   0.469   4.569   7.790 -0.7693  0.3100  0.3437
 2282SOL    HW118479   0.432   4.502   7.847  0.8877  0.0816  1.1634
 2282SOL    HW218480   0.432   4.648   7.829  0.1888  1.7869 -1.7258
 2283SOL     OW18481   3.890   0.416   9.170  0.2244 -0.1228 -0.7366
 2283SOL    HW118482   3.826   0.396   9.239  1.4420 -0.3177  0.3388
 2283SOL    HW218483   3.962   0.457   9.218  1.3522 -2.3251 -0.5467
 2284SOL     OW18484   0.736   3.915  17.284  0.5835  0.4617 -0.1911
 2284SOL    HW118485   0.732   3.950  17.373  1.1811  1.7025 -0.6503
 2284SOL    HW218486   0.728   3.821  17.299  0.9082  0.9002  2.8240
 2285SOL     OW18487   2.369   1.562  13.907 -0.3415 -0.1407 -0.2887
 2285SOL    HW118488   2.395   1.614  13.982 -1.1458 -2.9224  1.9321
 2285SOL    HW218489   2.319   1.491  13.947 -0.6196 -0.6398 -1.4991
 2286SOL     OW18490   3.564   2.370   4.775  0.6887  0.1065  0.2185
 2286SOL    HW118491   3.612   2.287   4.770  1.7204  0.7910 -1.5293
 2286SOL    HW218492   3.640   2.428   4.768  0.3421  0.5252 -0.0384
 2287SOL     OW18493   0.334   3.438   3.564 -0.1595 -0.2812  0.7962
 2287SOL    HW118494   0.308   3.515   3.614  1.4934  0.2916  0.7833
 2287SOL    HW218495   0.339   3.365   3.626  1.5635 -1.5252 -0.7941
 2288SOL     OW18496   4.593   4.397  16.036  0.1916 -0.3919  0.1762
 2288SOL    HW118497   4.633   4.341  16.103  0.9560 -0.4228 -0.3040
 2288SOL    HW218498   4.634   4.479  16.064  1.1496 -0.0026 -2.3116
 2289SOL     OW18499   3.620   3.871  11.841  0.0466 -0.1056 -0.0960
 2289SOL    HW118500   3.596   3.875  11.748  1.4528 -2.2305 -0.5484
 2289SOL    HW218501   3.546   3.913  11.885 -0.1876 -1.3870  0.7317
 2290SOL     OW18502   4.455   2.691   0.139 -0.0192 -0.3113  0.9518
 2290SOL    HW118503   4.509   2.765   0.167  1.1778  0.0392 -2.3619
 2290SOL    HW218504   4.459   2.627   0.210  0.3067 -1.8923 -0.5134
 2291SOL     OW18505   3.675   0.124  15.000  0.1048  0.4829  0.2194
 2291SOL    HW118506   3.649   0.096  14.912 -1.6797 -2.2363  1.5987
 2291SOL    HW218507   3.761   0.165  14.989 -0.1102  1.1150  0.9733
 2292SOL     OW18508   3.602   2.369   0.738  0.0153  0.8759  0.3189
 2292SOL    HW118509   3.533   2.347   0.676 -0.0307 -2.4295  1.5524
 2292SOL    HW218510   3.586   2.463   0.748 -1.3907  0.6039  0.6038
 2293SOL     OW18511   3.589   3.339   2.693  0.4032  0.8285  0.3947
 2293SOL    HW118512   3.678   3.368   2.674  0.2191  0.3046 -1.2897
 2293SOL    HW218513   3.572   3.377   2.779  1.0999  0.0597  0.8633
 2294SOL     OW18514   1.369   0.814  15.328 -0.0338  0.4453  0.9373
 2294SOL    HW118515   1.315   0.751  15.376  0.9139  0.4641  2.0335
 2294SOL    HW218516   1.306   0.850  15.266  0.9987  0.4376 -0.1257
 2295SOL     OW18517   3.535   1.769   7.902  0.5301 -0.0330 -0.5072
 2295SOL    HW118518   3.451   1.733   7.929  1.6818 -1.2723  1.4309
 2295SOL    HW218519   3.512   1.779   7.809  4.5345  0.8620 -1.4015
 2296SOL     OW18520   4.016   4.594  11.635 -0.2450 -0.2016  0.7386
 2296SOL    HW118521   4.003   4.516  11.689 -0.5233  0.7426  2.0310
 2296SOL    HW218522   3.983   4.661  11.695 -0.2801  0.6216 -0.2115
 2297SOL     OW18523   1.327   3.591   2.505  0.5054 -0.4614  0.1352
 2297SOL    HW118524   1.346   3.498   2.517 -0.7097 -0.9840 -2.1602
 2297SOL    HW218525   1.399   3.619   2.448 -2.8058  1.7086 -3.0143
 2298SOL     OW18526   3.599   2.651   5.016 -0.3878 -0.5819 -0.0757
 2298SOL    HW118527   3.628   2.614   4.933 -0.4208  0.1771 -0.4244
 2298SOL    HW218528   3.557   2.579   5.063 -1.6580 -1.0697 -1.9550
 2299SOL     OW18529   3.676   2.505   5.519 -0.1152  0.2605  0.3976
 2299SOL    HW118530   3.601   2.561   5.540  0.5214  0.9315  0.9065
 2299SOL    HW218531   3.702   2.501   5.611  1.7527  0.1007 -0.1364
 2300SOL     OW18532   0.822   0.741   2.619  0.5076  0.7689 -0.4907
 2300SOL    HW118533   0.843   0.834   2.616 -1.9005  1.3597  0.9763
 2300SOL    HW218534   0.897   0.693   2.654 -0.9170  1.3718  3.5000
 2301SOL     OW18535   3.134   2.042   4.559  0.4344 -0.4896  0.2447
 2301SOL    HW118536   3.042   2.047   4.587  0.6558  0.9449  0.7160
 2301SOL    HW218537   3.157   1.950   4.560 -0.6056 -0.7731 -0.6819
 2302SOL     OW18538   0.490   1.014  15.746  0.1416  0.0197  0.6999
 2302SOL    HW118539   0.579   1.047  15.734 -0.4720  0.2389 -3.1054
 2302SOL    HW218540   0.498   0.933  15.695  0.5212  0.2502  0.3945
 2303SOL     OW18541   2.599   2.555   4.742  0.3395 -0.0428 -0.2410
 2303SOL    HW118542   2.671   2.618   4.735  1.7629 -1.6047  0.4238
 2303SOL    HW218543   2.549   2.568   4.662 -3.1660  1.7932  2.2481
 2304SOL     OW18544   2.435   2.142   4.888  0.6359 -0.1642 -0.4237
 2304SOL    HW118545   2.399   2.212   4.943  1.1183 -1.2932  1.3474
 2304SOL    HW218546   2.359   2.120   4.834  0.3923 -0.8277  0.1743
 2305SOL     OW18547   1.915   0.770   4.868  0.7044  0.3679  0.3980
 2305SOL    HW118548   1.900   0.842   4.929  0.4001  1.3406 -0.8454
 2305SOL    HW218549   2.007   0.779   4.843  0.2346  0.5583 -1.2778
 2306SOL     OW18550   0.354   1.882   8.217 -0.0511 -0.1977 -0.1918
 2306SOL    HW118551   0.435   1.840   8.187 -0.1625  0.4114 -1.3037
 2306SOL    HW218552   0.383   1.970   8.195  1.0356  0.6306  4.4269
 2307SOL     OW18553   0.667   0.382   5.648  0.6984 -0.1654 -0.3698
 2307SOL    HW118554   0.583   0.382   5.601  0.0062  0.4168  0.8776
 2307SOL    HW218555   0.643   0.373   5.740  0.1269  0.0467 -0.4944
 2308SOL     OW18556   2.976   4.572  12.692  0.0611 -0.2711 -0.0560
 2308SOL    HW118557   2.965   4.597  12.600 -0.1489  4.7494  1.2877
 2308SOL    HW218558   2.884   4.577  12.717 -0.9316 -0.6890 -3.6293
 2309SOL     OW18559   2.849   4.323  11.620 -0.0939 -0.1238 -0.6746
 2309SOL    HW118560   2.804   4.362  11.695  2.0428  2.3601 -0.6853
 2309SOL    HW218561   2.877   4.241  11.661 -0.0281  0.9151  1.3638
 2310SOL     OW18562   4.012   0.429   8.240  0.0963  0.6325 -0.0608
 2310SOL    HW118563   3.949   0.404   8.172  2.2048 -2.3740 -0.9516
 2310SOL    HW218564   3.979   0.357   8.293  0.8167 -0.4109 -1.0195
 2311SOL     OW18565   3.393   3.862  15.213 -0.9411  0.6039 -0.0355
 2311SOL    HW118566   3.452   3.792  15.238 -1.6559  0.0179  0.0224
 2311SOL    HW218567   3.324   3.809  15.173  1.5771 -1.2655 -1.8893
 2312SOL     OW18568   4.017   4.454   1.970  0.5752  0.3233  0.4951
 2312SOL    HW118569   3.940   4.399   1.954  0.3884  1.4766 -2.5330
 2312SOL    HW218570   3.999   4.511   1.895 -1.5184 -0.8739  0.0673
 2313SOL     OW18571   0.773   3.770   2.299 -0.5494 -0.2342  0.2404
 2313SOL    HW118572   0.696   3.732   2.257 -0.5255 -0.3399  0.2923
 2313SOL    HW218573   0.804   3.691   2.342 -0.1580  0.0666  0.5106
 2314SOL     OW18574   2.531   4.390   7.115 -0.4974  0.2062  0.1021
 2314SOL    HW118575   2.445   4.409   7.077 -0.0636  0.8852 -0.5378
 2314SOL    HW218576   2.511   4.426   7.201 -2.5820  0.5110 -0.4988
 2315SOL     OW18577   3.578   1.325   2.160  0.2444  0.2349 -0.7186
 2315SOL    HW118578   3.493   1.282   2.160  1.0641 -1.3910  0.5514
 2315SOL    HW218579   3.590   1.344   2.253 -1.1375  0.1035 -0.5110
 2316SOL     OW18580   4.580   3.758   2.387  0.3178 -0.3080 -0.5920
 2316SOL    HW118581   4.674   3.774   2.399 -0.0946  1.6110  0.1290
 2316SOL    HW218582   4.567   3.760   2.292  2.0830  0.8615 -0.8204
 2317SOL     OW18583   1.439   3.475   9.835 -0.7274 -0.1083  0.0489
 2317SOL    HW118584   1.439   3.571   9.844  0.2171 -0.2560  1.5066
 2317SOL    HW218585   1.448   3.441   9.923  1.7640  1.0276  0.2419
 2318SOL     OW18586   2.538   3.176   0.513 -0.0171  0.1836  0.6152
 2318SOL    HW118587   2.481   3.239   0.558 -0.1238  0.8413 -0.4356
 2318SOL    HW218588   2.625   3.204   0.541  0.0098 -0.0902  0.8077
 2319SOL     OW18589   0.568   0.326   7.944 -0.2627  0.3070 -0.2855
 2319SOL    HW118590   0.598   0.362   8.028  1.4812  0.4612 -0.9871
 2319SOL    HW218591   0.503   0.392   7.919 -0.3969 -0.3571 -1.6685
 2320SOL     OW18592   2.437   2.698  15.044 -0.6599 -0.8809  0.2325
 2320SOL    HW118593   2.417   2.649  14.965  2.5737  2.0021 -2.3638
 2320SOL    HW218594   2.533   2.700  15.049 -0.6050 -1.3479 -0.7192
 2321SOL     OW18595   1.278   1.210  14.469 -0.0843  0.5374  0.2713
 2321SOL    HW118596   1.313   1.138  14.521  0.0133  0.3670 -0.0250
 2321SOL    HW218597   1.192   1.238  14.499  0.2131  1.0210  0.6664
 2322SOL     OW18598   2.636   3.927   0.556  0.5918 -0.0027 -0.2105
 2322SOL    HW118599   2.634   3.835   0.580 -1.3221  0.0496 -0.1690
 2322SOL    HW218600   2.727   3.955   0.570  1.0890 -0.9301 -1.6847
 2323SOL     OW18601   2.447   3.413   7.588  0.7914  0.0315 -0.0109
 2323SOL    HW118602   2.474   3.503   7.567  1.8723 -0.2868  0.0225
 2323SOL    HW218603   2.385   3.391   7.519 -1.1783  2.0571  1.1104
 2324SOL     OW18604   4.391   2.764   4.673  0.1445 -0.4094 -0.0759
 2324SOL    HW118605   4.482   2.768   4.643  0.9539 -2.5982  1.9977
 2324SOL    HW218606   4.384   2.671   4.653 -0.2356 -0.3091 -0.3986
 2325SOL     OW18607   4.025   1.805   3.282 -0.1815  0.0220  0.2143
 2325SOL    HW118608   4.009   1.853   3.201  0.9091  1.4996  0.8853
 2325SOL    HW218609   3.959   1.737   3.269  0.4003 -0.8000  1.4992
 2326SOL     OW18610   1.935   1.648  13.650  0.6044  0.3845  0.4727
 2326SOL    HW118611   2.026   1.642  13.624  1.0170  1.2279  1.7314
 2326SOL    HW218612   1.933   1.732  13.695  1.3514  0.7207 -0.1280
 2327SOL     OW18613   4.177   1.674   1.259  0.0275  0.2751  0.1559
 2327SOL    HW118614   4.197   1.760   1.295  2.3368 -0.2644  0.1408
 2327SOL    HW218615   4.133   1.712   1.184  1.1194  1.6539  0.2190
 2328SOL     OW18616   1.167   1.898  10.228 -0.2903 -0.2195  0.3166
 2328SOL    HW118617   1.215   1.957  10.170  0.0717 -0.1365  0.7062
 2328SOL    HW218618   1.243   1.855  10.265 -0.2069  0.7015  1.2244
 2329SOL     OW18619   4.200   1.151   8.040 -0.5081 -0.9027 -0.3605
 2329SOL    HW118620   4.177   1.160   7.948 -0.3687  1.2415 -0.1837
 2329SOL    HW218621   4.233   1.238   8.062  0.9152 -0.5986 -3.7866
 2330SOL     OW18622   3.173   2.613   5.092  0.1458 -0.2355  0.0059
 2330SOL    HW118623   3.083   2.583   5.081  0.3870 -0.2800 -1.8148
 2330SOL    HW218624   3.168   2.688   5.032 -0.9704 -0.5082 -0.2437
 2331SOL     OW18625   2.599   3.347   7.998  0.7200  0.4031 -0.3191
 2331SOL    HW118626   2.544   3.407   7.948 -2.0133 -1.4356  0.4188
 2331SOL    HW218627   2.537   3.298   8.053  0.1583  0.4079 -0.9463
 2332SOL     OW18628   2.979   0.890   1.921 -0.1523  0.2137 -0.2002
 2332SOL    HW118629   3.052   0.840   1.958 -0.1890  1.2279  1.2009
 2332SOL    HW218630   2.904   0.832   1.937 -0.8482  1.7636  2.0936
 2333SOL     OW18631   4.440   2.270   0.017  0.5690 -0.0390  0.2121
 2333SOL    HW118632   4.528   2.241   0.040  0.5667  2.6301  3.6402
 2333SOL    HW218633   4.449   2.365   0.013  3.0931 -0.3161 -0.3957
 2334SOL     OW18634   1.360   0.734   8.392 -0.4823 -0.0241 -0.6898
 2334SOL    HW118635   1.334   0.642   8.388  0.5027 -0.3228 -0.3299
 2334SOL    HW218636   1.331   0.770   8.308  0.1896  3.9976  0.8580
 2335SOL     OW18637   4.323   3.948   1.962 -0.5294  0.2869 -0.3708
 2335SOL    HW118638   4.319   4.030   2.012 -2.4736  1.0344 -1.7440
 2335SOL    HW218639   4.254   3.894   1.999 -0.2895  0.6754  0.6357
 2336SOL     OW18640   4.142   0.191   2.542  0.6077 -0.1399  0.3904
 2336SOL    HW118641   4.157   0.278   2.503 -0.8602  0.2172  0.6173
 2336SOL    HW218642   4.061   0.218   2.586  0.0264  1.7946 -1.7983
 2337SOL     OW18643   2.061   2.477   6.593  0.5803  0.1579  0.8533
 2337SOL    HW118644   2.027   2.388   6.585  0.0405  0.5633 -1.4230
 2337SOL    HW218645   1.988   2.533   6.568 -0.0168 -0.1218  1.9864
 2338SOL     OW18646   0.624   2.829  17.047 -0.9948 -0.1756 -0.2980
 2338SOL    HW118647   0.665   2.771  16.983 -1.3320  0.7554 -1.3484
 2338SOL    HW218648   0.695   2.831  17.112  0.0510 -2.6268 -1.3648
 2339SOL     OW18649   1.186   3.235   3.072 -0.0587  0.2884  0.5495
 2339SOL    HW118650   1.160   3.323   3.044  1.9504  0.5396 -0.6017
 2339SOL    HW218651   1.282   3.242   3.077 -0.1755  2.2826  0.2169
 2340SOL     OW18652   2.515   3.596   7.226 -0.1225 -0.8202 -0.5491
 2340SOL    HW118653   2.474   3.677   7.256 -0.0774 -0.2916 -1.8997
 2340SOL    HW218654   2.541   3.558   7.309  0.2727  1.1347  0.2204
 2341SOL     OW18655   2.237   0.248   9.049 -0.2373 -0.4488 -0.2693
 2341SOL    HW118656   2.320   0.250   9.097 -0.1113  0.7817 -0.5452
 2341SOL    HW218657   2.178   0.282   9.117 -2.0578 -1.5144 -1.3216
 2342SOL     OW18658   0.059   0.108   4.625  0.5451 -0.0185  0.0138
 2342SOL    HW118659   0.050   0.047   4.699  1.0833  0.3886  0.4102
 2342SOL    HW218660   4.723   0.164   4.638  1.4532  0.7421  2.1948
 2343SOL     OW18661   1.338   0.442   8.325 -0.5787 -0.2570 -0.3052
 2343SOL    HW118662   1.265   0.467   8.270 -0.0493 -0.7234 -1.2227
 2343SOL    HW218663   1.374   0.373   8.269 -2.1220 -1.1245 -0.2101
 2344SOL     OW18664   3.228   2.013  13.552 -0.5448 -0.4805 -0.1194
 2344SOL    HW118665   3.310   1.966  13.565  0.7055  2.5595  2.8781
 2344SOL    HW218666   3.222   2.057  13.637 -0.8553  0.5215 -0.6619
 2345SOL     OW18667   4.490   1.494   4.545  0.0143 -0.9040 -0.3441
 2345SOL    HW118668   4.544   1.478   4.622  0.2397  2.8979  0.2973
 2345SOL    HW218669   4.552   1.506   4.474  0.3437 -1.4241 -0.1395
 2346SOL     OW18670   1.391   2.471  15.010 -0.3744  0.1671  0.1242
 2346SOL    HW118671   1.307   2.443  15.047 -0.4198 -0.7073 -0.6477
 2346SOL    HW218672   1.432   2.506  15.089 -1.3065  0.6063  0.4128
 2347SOL     OW18673   0.063   3.205  17.632  0.0552  0.3261  0.1359
 2347SOL    HW118674   0.049   3.118  17.595 -2.5838  0.5604  0.5936
 2347SOL    HW218675   4.724   3.242  17.594  1.5982  0.8941 -2.5592
 2348SOL     OW18676   3.501   4.136   8.826 -0.3006 -0.7802  0.6593
 2348SOL    HW118677   3.440   4.200   8.790  2.5292  1.3818 -0.2697
 2348SOL    HW218678   3.462   4.050   8.805 -2.0439  0.3800 -0.9001
 2349SOL     OW18679   2.963   4.636   7.389  0.3240 -0.1650  0.0085
 2349SOL    HW118680   3.003   4.550   7.377  0.8352 -0.0911  1.2591
 2349SOL    HW218681   2.958   4.668   7.299 -1.3349  1.1766  0.5712
 2350SOL     OW18682   0.534   2.761  13.560  0.0536 -0.5066  0.2115
 2350SOL    HW118683   0.596   2.774  13.632 -1.9256 -1.0509  1.9946
 2350SOL    HW218684   0.567   2.821  13.493 -2.0803 -0.4641 -0.8061
 2351SOL     OW18685   3.606   1.745   8.318  0.2525  0.0643 -0.3422
 2351SOL    HW118686   3.609   1.791   8.234  0.4507  0.1052 -0.3139
 2351SOL    HW218687   3.634   1.806   8.386  2.7416 -0.0721 -1.2297
 2352SOL     OW18688   1.951   2.238  10.668 -0.0845  0.2754 -0.2475
 2352SOL    HW118689   1.951   2.261  10.575 -1.2552  1.7705  0.1205
 2352SOL    HW218690   2.030   2.183  10.670 -1.2193 -1.3036  0.8062
 2353SOL     OW18691   3.747   2.330   4.347  0.2103  0.1772  0.5591
 2353SOL    HW118692   3.820   2.286   4.388 -0.1866 -2.0472 -1.1261
 2353SOL    HW218693   3.782   2.357   4.262 -1.6712 -1.3973 -0.7173
 2354SOL     OW18694   3.061   3.214   2.504  0.5296  0.2017  0.5229
 2354SOL    HW118695   3.075   3.308   2.508  1.3747  0.1381 -0.9926
 2354SOL    HW218696   3.086   3.187   2.592 -1.5084 -1.8517  0.5098
 2355SOL     OW18697   1.650   2.431   3.998  0.2632  0.1343 -0.1014
 2355SOL    HW118698   1.672   2.514   4.040  3.0418 -0.3190 -0.6951
 2355SOL    HW218699   1.565   2.419   4.040 -1.2595  2.6045 -2.5185
 2356SOL     OW18700   0.730   0.642   4.819  0.1709 -0.0644 -0.8663
 2356SOL    HW118701   0.643   0.656   4.784 -0.2284 -0.5166 -0.0508
 2356SOL    HW218702   0.783   0.658   4.740 -2.4226  1.2524 -2.3241
 2357SOL     OW18703   4.569   2.647   5.393  0.0832  0.3713  0.1323
 2357SOL    HW118704   4.619   2.715   5.439  0.1718 -0.0162  0.6045
 2357SOL    HW218705   4.576   2.684   5.305  0.0188 -0.9502 -0.4348
 2358SOL     OW18706   2.862   4.503  10.625  0.8338  0.1895  0.2707
 2358SOL    HW118707   2.913   4.576  10.590  1.1373 -0.4747 -0.6693
 2358SOL    HW218708   2.780   4.507  10.575  0.4633 -0.3458  0.8284
 2359SOL     OW18709   3.931   0.184   5.947  0.1944 -0.5044 -0.8618
 2359SOL    HW118710   3.872   0.247   5.905  1.5012  1.8922  0.9363
 2359SOL    HW218711   4.004   0.242   5.970 -1.8797  3.2061 -3.6067
 2360SOL     OW18712   3.137   1.518   5.905 -0.6885 -0.1899  0.5482
 2360SOL    HW118713   3.224   1.494   5.874 -0.7281  1.8047 -1.1150
 2360SOL    HW218714   3.090   1.435   5.900 -0.5035 -0.1430 -1.6790
 2361SOL     OW18715   2.469   4.051   0.366  0.1382 -0.6233  0.0920
 2361SOL    HW118716   2.526   4.015   0.434  0.7015  0.2013  0.0498
 2361SOL    HW218717   2.436   4.126   0.415  1.7655  0.1949 -0.0630
 2362SOL     OW18718   3.153   3.838   6.323  0.0038 -0.1256  0.0300
 2362SOL    HW118719   3.181   3.763   6.375 -1.2365 -0.2695  0.4994
 2362SOL    HW218720   3.067   3.855   6.360  0.8795  1.1989  1.4451
 2363SOL     OW18721   1.245   1.803   1.958  0.0150  0.4190 -0.1466
 2363SOL    HW118722   1.256   1.838   1.870 -0.8072 -0.2134 -0.4904
 2363SOL    HW218723   1.157   1.768   1.945  0.9112 -0.9406 -2.5209
 2364SOL     OW18724   4.244   3.279   3.830  0.9751  0.2948  0.3885
 2364SOL    HW118725   4.306   3.343   3.864  0.2206  0.1031  2.1120
 2364SOL    HW218726   4.182   3.266   3.902 -0.2764  0.5341 -0.6356
 2365SOL     OW18727   0.529   1.405   6.495 -0.0052 -0.1052  0.4028
 2365SOL    HW118728   0.608   1.352   6.482 -0.9512 -0.8672 -2.3256
 2365SOL    HW218729   0.462   1.341   6.521 -0.1900 -0.0823 -0.0130
 2366SOL     OW18730   3.251   3.719   6.958 -1.1474  0.7259  0.0455
 2366SOL    HW118731   3.175   3.760   6.999 -1.6059 -0.0764  0.0002
 2366SOL    HW218732   3.270   3.648   7.020 -1.1219  0.2021 -0.5688
 2367SOL     OW18733   3.666   0.969   8.462  0.4748  0.2776 -0.3052
 2367SOL    HW118734   3.624   0.884   8.447  0.7558  0.4067 -1.8048
 2367SOL    HW218735   3.741   0.973   8.404  1.0442 -1.1085  0.3477
 2368SOL     OW18736   2.055   1.629   3.687 -0.0708  0.1327  0.2262
 2368SOL    HW118737   2.150   1.619   3.677 -0.0746 -1.2269  1.5067
 2368SOL    HW218738   2.033   1.536   3.685 -1.1990  0.3882  0.7947
 2369SOL     OW18739   1.115   4.527   9.930  0.6939  0.4046  0.6075
 2369SOL    HW118740   1.125   4.572   9.846  0.5099  2.1553  1.5228
 2369SOL    HW218741   1.152   4.439   9.917 -1.8855 -0.2653 -2.0949
 2370SOL     OW18742   2.165   2.648  16.027 -0.2532  0.0410  0.2595
 2370SOL    HW118743   2.255   2.659  16.059 -0.6627  2.2846  0.6505
 2370SOL    HW218744   2.173   2.569  15.973  1.6079  0.5274 -0.1873
 2371SOL     OW18745   0.674   2.397   9.183 -0.8949  0.4257  0.0752
 2371SOL    HW118746   0.659   2.488   9.211 -2.7370  1.1729 -3.3119
 2371SOL    HW218747   0.658   2.343   9.260 -3.7231 -0.1577 -0.9026
 2372SOL     OW18748   0.164   1.882   6.058 -0.3616 -0.2970 -0.4652
 2372SOL    HW118749   0.144   1.846   5.972 -2.5403  0.3998 -0.2592
 2372SOL    HW218750   0.117   1.966   6.058  2.7263  1.4381  0.4004
 2373SOL     OW18751   0.674   0.214  15.385  0.4795 -0.0149  0.2018
 2373SOL    HW118752   0.617   0.137  15.388 -0.5796  0.8156  1.6982
 2373SOL    HW218753   0.623   0.275  15.438 -1.2428 -0.1795 -1.2735
 2374SOL     OW18754   3.413   3.787  11.217 -0.3221 -0.3489  0.3519
 2374SOL    HW118755   3.434   3.793  11.124 -1.1113 -1.3356  0.1063
 2374SOL    HW218756   3.373   3.871  11.238  0.2455 -0.5862  2.3342
 2375SOL     OW18757   1.509   1.310   4.642  0.1788 -0.0536 -0.0166
 2375SOL    HW118758   1.448   1.382   4.655  0.0171 -0.2825  0.4718
 2375SOL    HW218759   1.555   1.317   4.726  0.3345 -2.7560  0.1255
 2376SOL     OW18760   3.020   3.754   2.953  0.1731  0.2043  0.1868
 2376SOL    HW118761   3.081   3.787   3.019 -0.7677  3.9768 -0.8587
 2376SOL    HW218762   2.936   3.736   2.994  0.3101  0.8777  0.7607
 2377SOL     OW18763   4.419   1.780   3.016 -0.4268  0.6111  0.5660
 2377SOL    HW118764   4.369   1.766   3.096 -0.9907  0.1721  0.1398
 2377SOL    HW218765   4.363   1.853   2.990 -1.2609  0.3782  1.6884
 2378SOL     OW18766   3.453   2.953   7.877 -0.2762 -0.1114  0.7844
 2378SOL    HW118767   3.540   2.986   7.852 -1.2826  2.0342  0.1792
 2378SOL    HW218768   3.465   2.980   7.969 -1.3813  3.2541 -0.0762
 2379SOL     OW18769   1.431   1.382   1.829  0.3900  0.1680  0.4976
 2379SOL    HW118770   1.466   1.327   1.899  0.6262  1.3227  1.2752
 2379SOL    HW218771   1.483   1.461   1.846 -0.6847  1.0824 -0.5108
 2380SOL     OW18772   2.863   1.648   6.698 -0.8181  0.1644 -0.2144
 2380SOL    HW118773   2.819   1.733   6.709 -0.3062  0.6211 -1.7345
 2380SOL    HW218774   2.942   1.673   6.650 -0.1779 -0.8415  0.3274
 2381SOL     OW18775   0.270   3.286   4.753  0.5849  0.3705  0.2397
 2381SOL    HW118776   0.355   3.319   4.782  1.9716 -1.2049 -1.9714
 2381SOL    HW218777   0.251   3.221   4.820 -1.1174  0.7410  0.0976
 2382SOL     OW18778   0.705   4.669   8.171  0.4102  0.4692 -0.0242
 2382SOL    HW118779   0.634   4.732   8.164 -1.2463 -1.5355 -1.1061
 2382SOL    HW218780   0.651   4.590   8.168  1.6845 -0.3908 -0.3526
 2383SOL     OW18781   3.961   2.161  10.609 -0.0493 -0.6262  0.0641
 2383SOL    HW118782   3.938   2.253  10.623 -0.5984 -0.7089 -0.3239
 2383SOL    HW218783   4.057   2.157  10.614  0.0649  0.9778 -0.7661
 2384SOL     OW18784   1.369   2.709   1.211  0.3175  0.1450 -0.1019
 2384SOL    HW118785   1.440   2.687   1.271  2.0802  1.3580 -1.7643
 2384SOL    HW218786   1.348   2.801   1.228 -1.9977 -0.5930  1.1217
 2385SOL     OW18787   3.525   3.138   3.043  1.0753  0.2368 -0.5050
 2385SOL    HW118788   3.602   3.178   3.084  1.2850 -1.2484  0.5343
 2385SOL    HW218789   3.553   3.111   2.955 -0.8099 -0.3131 -0.9258
 2386SOL     OW18790   2.656   2.654   5.944  0.5354 -0.0029  0.4026
 2386SOL    HW118791   2.691   2.565   5.940  2.9224  0.8660  2.2437
 2386SOL    HW218792   2.563   2.631   5.936  0.5351  0.0156  0.3498
 2387SOL     OW18793   3.800   1.471   5.293 -1.3415 -0.6623 -0.2522
 2387SOL    HW118794   3.827   1.563   5.297  1.3154 -1.4284 -0.5581
 2387SOL    HW218795   3.885   1.428   5.299 -0.4712  1.2124  0.9824
 2388SOL     OW18796   0.906   1.111   5.860 -0.1791  0.7924 -0.5721
 2388SOL    HW118797   0.885   1.201   5.886 -0.3020  0.9297 -1.1436
 2388SOL    HW218798   0.835   1.102   5.796  0.4521 -0.2168 -1.1225
 2389SOL     OW18799   4.104   4.292   7.897  0.5138  0.2070  0.2193
 2389SOL    HW118800   4.036   4.236   7.859 -0.3882  0.0639  2.0530
 2389SOL    HW218801   4.186   4.243   7.891 -0.0293 -0.5200 -1.2988
 2390SOL     OW18802   4.479   3.709   3.507  0.3650 -0.6043  0.3430
 2390SOL    HW118803   4.459   3.754   3.589 -1.1416 -1.3176  0.3828
 2390SOL    HW218804   4.574   3.715   3.511  0.3365  0.2561 -0.2614
 2391SOL     OW18805   1.555   1.453   2.695 -0.3321  0.3886 -0.6286
 2391SOL    HW118806   1.560   1.504   2.776  1.0346  0.8395 -1.0132
 2391SOL    HW218807   1.548   1.365   2.733 -0.1456 -0.2277 -2.0237
 2392SOL     OW18808   3.853   2.806   5.017  0.3420 -0.1724 -0.1751
 2392SOL    HW118809   3.860   2.819   5.112 -1.9673 -0.4948  0.0403
 2392SOL    HW218810   3.823   2.717   5.002  0.2791 -0.1963  0.0978
 2393SOL     OW18811   2.000   0.702   3.330  0.2743  0.1623 -0.9234
 2393SOL    HW118812   2.006   0.732   3.239 -0.4927  0.6146 -0.8248
 2393SOL    HW218813   2.005   0.608   3.312 -0.5043 -0.2621  1.1425
 2394SOL     OW18814   1.111   3.695   6.374 -0.0960  0.1836 -0.0810
 2394SOL    HW118815   1.084   3.685   6.465  0.8997 -0.5868  0.1293
 2394SOL    HW218816   1.117   3.606   6.339  2.6966 -0.3443  1.7617
 2395SOL     OW18817   0.487   3.093   8.453  0.0622 -0.1084 -0.0052
 2395SOL    HW118818   0.504   3.000   8.464 -4.0258 -0.4651  3.2389
 2395SOL    HW218819   0.563   3.135   8.412 -1.4977  0.8356 -1.9325
 2396SOL     OW18820   1.233   0.762  10.572  0.0913  0.0077  0.2755
 2396SOL    HW118821   1.173   0.704  10.618  0.3950 -0.3483  0.2251
 2396SOL    HW218822   1.221   0.735  10.481  2.3811  1.6373 -0.5243
 2397SOL     OW18823   3.920   0.819   7.391 -0.2632 -0.2432  0.3968
 2397SOL    HW118824   3.871   0.769   7.457  2.4779  0.1086  2.6928
 2397SOL    HW218825   3.901   0.909   7.419 -2.0063  0.0149 -1.6523
 2398SOL     OW18826   3.362   2.912   3.969 -0.4937 -0.2830 -0.0015
 2398SOL    HW118827   3.337   2.906   4.061 -3.5990 -1.5597 -0.9365
 2398SOL    HW218828   3.435   2.850   3.965  0.3102  0.7779 -2.1732
 2399SOL     OW18829   0.376   3.035   1.027 -0.5450  0.3972  0.9803
 2399SOL    HW118830   0.351   3.125   1.048  0.6074  0.6018  1.4722
 2399SOL    HW218831   0.431   3.014   1.102 -0.3820  0.5010  0.8890
 2400SOL     OW18832   0.419   0.356   5.539  0.3375 -0.5086 -0.2980
 2400SOL    HW118833   0.476   0.382   5.468 -0.5475  3.6657  0.5399
 2400SOL    HW218834   0.354   0.296   5.501 -0.8133  0.6139 -0.1091
 2401SOL     OW18835   0.150   1.094  15.781 -0.0306 -0.1953 -0.0924
 2401SOL    HW118836   0.177   1.007  15.750 -0.2079 -0.2812 -0.0034
 2401SOL    HW218837   0.145   1.144  15.700 -1.2096 -1.1161 -0.5969
 2402SOL     OW18838   0.373   2.137   8.161 -0.7476  0.1306  0.1627
 2402SOL    HW118839   0.339   2.192   8.091 -2.5052  0.8712  1.6328
 2402SOL    HW218840   0.340   2.180   8.239  1.2946 -1.8272  2.1276
 2403SOL     OW18841   2.333   2.764   4.873 -0.5745 -0.1322  0.0952
 2403SOL    HW118842   2.363   2.805   4.792 -2.4117  3.0326  1.0447
 2403SOL    HW218843   2.406   2.718   4.915  0.3831  0.0809 -1.3227
 2404SOL     OW18844   3.857   4.706   8.608 -0.3464 -0.3125  0.0906
 2404SOL    HW118845   3.874   4.615   8.633 -1.2356 -0.7756 -0.9775
 2404SOL    HW218846   3.841   0.007   8.692  0.5874 -1.5263  0.8867
 2405SOL     OW18847   0.684   3.195  11.918  0.4645  0.1503 -0.1526
 2405SOL    HW118848   0.626   3.228  11.849 -1.9295 -1.1961  1.2365
 2405SOL    HW218849   0.737   3.140  11.860  0.2453 -0.2599  0.0369
 2406SOL     OW18850   4.595   2.667   5.932 -0.3375  0.1229  0.6846
 2406SOL    HW118851   4.628   2.744   5.886 -0.2193  0.4122  1.2414
 2406SOL    HW218852   4.669   2.653   5.992 -1.7884 -0.1806  2.4157
 2407SOL     OW18853   1.002   0.377   4.565 -0.2648 -0.8535  0.2872
 2407SOL    HW118854   1.032   0.291   4.538  0.2107 -0.7166  0.3858
 2407SOL    HW218855   1.089   0.406   4.591  0.3981 -0.9264 -1.9080
 2408SOL     OW18856   3.464   4.461  12.894  0.3669  0.5860 -0.6333
 2408SOL    HW118857   3.478   4.384  12.839  2.1737 -0.5519  1.4081
 2408SOL    HW218858   3.404   4.509  12.838 -1.3985 -0.7467  0.1310
 2409SOL     OW18859   1.104   1.011   5.666  0.0778  0.3052  0.0375
 2409SOL    HW118860   1.159   0.989   5.740 -0.6428 -2.2101 -0.1887
 2409SOL    HW218861   1.024   1.047   5.705 -0.4333 -0.1272 -0.6001
 2410SOL     OW18862   0.476   2.914   9.236  0.3303  0.3157 -0.1674
 2410SOL    HW118863   0.465   3.007   9.255 -1.1749  0.3712 -1.2779
 2410SOL    HW218864   0.392   2.891   9.197  0.7137 -2.1236  0.4700
 2411SOL     OW18865   2.107   4.060  17.633  0.4331  0.3550 -0.4365
 2411SOL    HW118866   2.083   4.147  17.601 -0.6300  0.1965 -0.0956
 2411SOL    HW218867   2.023   4.030  17.669 -0.7242  1.7139 -2.0093
 2412SOL     OW18868   4.425   2.399  17.453  0.1040  0.2567 -0.6754
 2412SOL    HW118869   4.450   2.452  17.529 -0.9997 -0.4566  0.1810
 2412SOL    HW218870   4.467   2.452  17.386 -1.5388  0.3122 -1.6570
 2413SOL     OW18871   0.038   1.756   3.003  0.0398  0.0576  0.2841
 2413SOL    HW118872   0.128   1.758   3.035  0.4018  0.0210 -0.7327
 2413SOL    HW218873   4.738   1.773   3.088 -0.7629 -2.0714  0.3406
 2414SOL     OW18874   0.394   0.249   2.692 -0.0658  0.2163 -0.1320
 2414SOL    HW118875   0.459   0.202   2.639  0.4613  0.9074 -0.1068
 2414SOL    HW218876   0.389   0.331   2.643 -0.4398 -0.3400 -1.0267
 2415SOL     OW18877   1.417   1.645   5.160  0.4563 -0.2098  0.5560
 2415SOL    HW118878   1.495   1.642   5.105  0.1096  0.3026  0.0285
 2415SOL    HW218879   1.367   1.581   5.110  3.0373 -1.1985 -0.7611
 2416SOL     OW18880   1.273   2.898   1.595  0.2456 -0.2344  0.2109
 2416SOL    HW118881   1.317   2.927   1.515  0.4130 -1.9489 -0.3317
 2416SOL    HW218882   1.334   2.833   1.628  1.5305  1.5912  1.3959
 2417SOL     OW18883   4.060   0.009  10.055 -0.0429 -0.2377 -0.3512
 2417SOL    HW118884   4.132   0.060  10.020 -1.3241  2.4427  0.8856
 2417SOL    HW218885   3.991   0.027   9.991 -0.7815  0.1478  0.5405
 2418SOL     OW18886   4.663   0.338   0.392 -0.0961 -0.3538  0.2227
 2418SOL    HW118887   4.603   0.300   0.328 -0.2603  1.6517 -0.7906
 2418SOL    HW218888   0.001   0.303   0.351  0.3821 -1.7124  2.2590
 2419SOL     OW18889   4.676   2.877  14.097 -0.6169  0.2658 -0.2658
 2419SOL    HW118890   4.597   2.870  14.149  0.6822 -1.1412  1.5226
 2419SOL    HW218891   4.688   2.788  14.065  2.5212  0.0398  1.4410
 2420SOL     OW18892   1.622   1.031   3.766 -0.1221  0.0057 -0.1264
 2420SOL    HW118893   1.566   1.083   3.823 -1.2447  0.1124 -1.3402
 2420SOL    HW218894   1.578   1.046   3.682 -1.0330 -0.2492  0.3069
 2421SOL     OW18895   4.569   3.672   3.808 -0.6227  0.1348 -0.2170
 2421SOL    HW118896   4.501   3.724   3.764  0.1611  1.7295  0.4254
 2421SOL    HW218897   4.636   3.700   3.745  0.2271 -0.4055  0.4492
 2422SOL     OW18898   0.979   3.339   9.455  0.0879 -0.7601 -0.4962
 2422SOL    HW118899   0.957   3.427   9.423  0.1700 -0.1524  1.1429
 2422SOL    HW218900   0.898   3.289   9.463 -1.5446  2.0283  0.1437
 2423SOL     OW18901   1.956   2.861   7.950 -0.9964 -0.4537  0.0993
 2423SOL    HW118902   1.924   2.859   8.040 -0.8641 -0.2768  0.1509
 2423SOL    HW218903   2.001   2.945   7.943 -0.4225 -0.5252  2.7000
 2424SOL     OW18904   2.626   4.726   2.209 -0.2791  0.0267  0.1313
 2424SOL    HW118905   2.570   0.009   2.135  1.9967  3.2675 -0.5529
 2424SOL    HW218906   2.565   0.009   2.279 -0.0913  0.5730  0.1126
 2425SOL     OW18907   2.187   0.889   4.822 -0.2287 -0.1569 -0.4330
 2425SOL    HW118908   2.142   0.958   4.773 -0.1532 -0.8559 -1.4829
 2425SOL    HW218909   2.235   0.941   4.886 -1.2646 -1.6179  1.5298
 2426SOL     OW18910   2.443   1.890   5.011  0.0251 -0.7495 -0.2550
 2426SOL    HW118911   2.513   1.825   5.006  0.3987 -0.2369 -1.6382
 2426SOL    HW218912   2.476   1.961   4.957 -0.6136 -1.1473 -1.1778
 2427SOL     OW18913   0.529   4.445   2.692 -0.1379 -0.3658 -0.0286
 2427SOL    HW118914   0.603   4.415   2.745  0.1490 -0.3936 -0.4506
 2427SOL    HW218915   0.499   4.363   2.653 -0.2944 -0.9688  1.3409
 2428SOL     OW18916   3.114   2.375   8.238  0.1330  0.5273 -0.0895
 2428SOL    HW118917   3.045   2.418   8.188 -2.0430 -1.0766  1.5103
 2428SOL    HW218918   3.103   2.411   8.326  0.2134  1.5073 -0.4763
 2429SOL     OW18919   3.708   1.323   4.200 -0.3116 -0.2978 -0.4810
 2429SOL    HW118920   3.648   1.308   4.273 -0.2497  0.3795 -0.2907
 2429SOL    HW218921   3.797   1.316   4.234 -0.3276 -0.8587 -0.5645
 2430SOL     OW18922   3.979   2.281   6.967 -0.2177 -0.5971 -1.0727
 2430SOL    HW118923   3.963   2.314   7.055 -0.4795  0.1496 -1.3965
 2430SOL    HW218924   3.902   2.229   6.945 -0.1172 -0.7883 -0.9729
 2431SOL     OW18925   1.188   1.460  11.693 -0.1201  0.4692  0.3032
 2431SOL    HW118926   1.266   1.506  11.663 -0.2973  0.1942 -0.6037
 2431SOL    HW218927   1.218   1.369  11.693 -1.4784 -0.0136 -3.3719
 2432SOL     OW18928   3.934   0.323   4.033  0.0471  0.2268 -0.2916
 2432SOL    HW118929   3.997   0.370   4.087 -1.7740  3.3400 -0.9245
 2432SOL    HW218930   3.853   0.370   4.048 -0.3785 -0.5112 -0.2696
 2433SOL     OW18931   2.911   3.594   7.508  0.4329  0.3199  0.7278
 2433SOL    HW118932   2.820   3.614   7.529 -0.2393 -3.1875  1.2235
 2433SOL    HW218933   2.931   3.525   7.572 -1.2139  1.1951  2.1719
 2434SOL     OW18934   2.872   2.199   2.059 -0.3003 -0.0900 -0.0493
 2434SOL    HW118935   2.905   2.142   1.990 -2.5850  1.8240 -2.7403
 2434SOL    HW218936   2.859   2.290   2.030 -1.2193  0.2874  1.5243
 2435SOL     OW18937   4.072   4.450   4.476  0.4625 -0.0203  0.7003
 2435SOL    HW118938   4.164   4.472   4.482  0.9913 -1.5557 -1.8370
 2435SOL    HW218939   4.065   4.381   4.542  1.7253  0.1110  0.9743
 2436SOL     OW18940   3.794   0.431   2.479 -0.1466 -0.4098 -0.2186
 2436SOL    HW118941   3.858   0.492   2.441 -0.6836  0.6076  0.5239
 2436SOL    HW218942   3.781   0.389   2.394  1.5357 -0.9546 -0.2250
 2437SOL     OW18943   3.572   2.254   6.537 -0.2349  1.1030  0.2432
 2437SOL    HW118944   3.538   2.220   6.620  0.0179 -2.3502 -1.0601
 2437SOL    HW218945   3.653   2.202   6.537 -2.2340 -2.0111  1.4041
 2438SOL     OW18946   3.323   3.646   4.483  0.0910 -0.2605  0.3062
 2438SOL    HW118947   3.292   3.557   4.464 -0.8009 -0.5482  3.0630
 2438SOL    HW218948   3.250   3.672   4.539  0.8157  0.1606  1.0517
 2439SOL     OW18949   1.148   0.588   9.645  0.3775  0.0394  0.0086
 2439SOL    HW118950   1.220   0.648   9.627 -0.2197  0.7175 -0.1398
 2439SOL    HW218951   1.196   0.508   9.664 -0.5172 -0.8043 -1.3477
 2440SOL     OW18952   4.466   2.316  17.008  0.4751  0.3028 -0.1698
 2440SOL    HW118953   4.517   2.395  17.027  0.1778  0.1753  1.1387
 2440SOL    HW218954   4.391   2.352  16.961 -0.2349 -0.8259  0.0976
 2441SOL     OW18955   0.700   1.709   6.513 -0.7301 -0.2962 -0.0498
 2441SOL    HW118956   0.733   1.795   6.538 -0.6901 -1.1471  2.8258
 2441SOL    HW218957   0.765   1.645   6.539 -1.3623  0.2316  2.8072
 2442SOL     OW18958   1.761   1.263  11.713 -0.5279  0.1310  0.4456
 2442SOL    HW118959   1.770   1.332  11.647  4.0282  1.4127  2.4197
 2442SOL    HW218960   1.692   1.296  11.771  1.2458  1.0999  1.9898
 2443SOL     OW18961   1.513   4.101   5.036  0.2008  0.2049  0.1692
 2443SOL    HW118962   1.566   4.057   5.103 -2.0071 -0.8070  1.2708
 2443SOL    HW218963   1.491   4.184   5.079 -1.2403 -0.5002  0.8058
 2444SOL     OW18964   1.602   2.361   0.127 -0.1536  0.0551 -0.4581
 2444SOL    HW118965   1.622   2.432   0.187  1.2315 -0.7856  0.0854
 2444SOL    HW218966   1.550   2.306   0.186 -0.5591 -1.1987 -1.9714
 2445SOL     OW18967   0.192   1.357   1.354  0.5938  0.0395  0.0307
 2445SOL    HW118968   0.235   1.441   1.336 -1.5433  0.5398 -2.7539
 2445SOL    HW218969   0.161   1.389   1.439 -1.0832  1.0655 -0.9728
 2446SOL     OW18970   0.611   0.641  12.009 -0.1568  0.3648  0.1560
 2446SOL    HW118971   0.584   0.568  12.065 -0.1364  1.0162  1.0201
 2446SOL    HW218972   0.704   0.628  11.993 -0.1576 -1.0893  1.4296
 2447SOL     OW18973   2.629   0.948   9.227 -0.5829 -0.0980  0.5640
 2447SOL    HW118974   2.676   0.883   9.175 -2.4171 -0.2338 -0.9645
 2447SOL    HW218975   2.554   0.906   9.269 -0.9284  1.0382  1.0803
 2448SOL     OW18976   2.413   0.295   2.577  0.0267 -0.4573 -0.2944
 2448SOL    HW118977   2.379   0.309   2.489 -1.2509 -2.1780 -0.0738
 2448SOL    HW218978   2.332   0.264   2.619 -0.0788  2.1637  1.3957
 2449SOL     OW18979   4.321   3.491  12.081  0.0022  0.6398  0.8428
 2449SOL    HW118980   4.256   3.530  12.140 -1.4672 -0.6949  0.0886
 2449SOL    HW218981   4.404   3.502  12.128  0.9872 -3.3878  0.0396
 2450SOL     OW18982   0.663   0.452   3.257 -0.4427 -0.3198 -0.3250
 2450SOL    HW118983   0.606   0.506   3.201 -1.3528 -0.5183  0.4194
 2450SOL    HW218984   0.591   0.398   3.289  0.5967 -1.5470 -0.1086
 2451SOL     OW18985   1.999   2.158   4.348  0.1105  0.1553 -0.5557
 2451SOL    HW118986   2.067   2.095   4.325  0.0868  0.1243 -0.5406
 2451SOL    HW218987   2.046   2.195   4.423  0.1087 -1.6344  0.3053
 2452SOL     OW18988   1.522   1.163   2.275 -0.3417  0.2422 -0.8927
 2452SOL    HW118989   1.548   1.248   2.313 -0.3911 -0.8963  1.6597
 2452SOL    HW218990   1.602   1.117   2.250  0.4004  1.0741 -0.0284
 2453SOL     OW18991   1.565   3.514   4.996 -0.3127  0.3355  0.0210
 2453SOL    HW118992   1.484   3.564   5.011  0.3700  0.8781  1.8570
 2453SOL    HW218993   1.534   3.460   4.922  1.7857  0.5573 -1.0353
 2454SOL     OW18994   1.704   0.564   6.069 -0.0557 -0.5606  1.0617
 2454SOL    HW118995   1.692   0.549   5.976 -1.3138  1.1222  0.9586
 2454SOL    HW218996   1.744   0.482   6.099  1.8201 -0.4572 -1.2015
 2455SOL     OW18997   0.872   4.451   3.805 -0.6112  0.5539  0.1432
 2455SOL    HW118998   0.927   4.452   3.727 -0.7182 -2.7982  0.0375
 2455SOL    HW218999   0.899   4.532   3.847  0.4636 -0.8316  2.1217
 2456SOL     OW19000   3.908   1.808   5.197 -0.0792 -0.2875  0.3611
 2456SOL    HW119001   3.937   1.763   5.277  0.1674  1.6735  1.3836
 2456SOL    HW219002   3.925   1.900   5.215 -0.8744  0.0170 -0.4718
 2457SOL     OW19003   0.993   2.270   8.018 -0.8038 -0.4262  0.3094
 2457SOL    HW119004   0.929   2.283   8.088 -1.9841  1.2575 -1.0807
 2457SOL    HW219005   1.052   2.216   8.071  0.0641 -1.2944 -1.5389
 2458SOL     OW19006   1.910   1.073   8.663 -0.0151  0.2782  0.3191
 2458SOL    HW119007   2.003   1.090   8.677 -0.2097  0.9746  0.7686
 2458SOL    HW219008   1.873   1.115   8.740 -0.6931  2.7858 -1.3959
 2459SOL     OW19009   2.859   4.574  14.302  0.4046  0.0599 -0.7897
 2459SOL    HW119010   2.830   4.622  14.380  2.4335 -0.4212  0.2478
 2459SOL    HW219011   2.851   4.651  14.247 -0.1523  1.6578  1.5195
 2460SOL     OW19012   1.003   0.465   8.147  0.6723  0.3546 -0.5069
 2460SOL    HW119013   0.944   0.474   8.222  0.0721 -2.1426 -0.6604
 2460SOL    HW219014   1.005   0.559   8.130 -0.7163  0.8722  2.2112
 2461SOL     OW19015   2.833   2.912   7.797 -0.4245 -0.6622 -0.6702
 2461SOL    HW119016   2.759   2.913   7.858  0.4276  1.1776  0.3408
 2461SOL    HW219017   2.813   2.990   7.747 -0.4181 -0.8768 -1.0069
 2462SOL     OW19018   0.877   2.492  16.406 -0.7099  0.1455  0.2786
 2462SOL    HW119019   0.847   2.565  16.351  1.2527  0.4388 -0.4282
 2462SOL    HW219020   0.853   2.410  16.362  0.4683  0.0280 -0.1575
 2463SOL     OW19021   2.398   3.565   3.360  0.2637  0.0811  0.1013
 2463SOL    HW119022   2.362   3.586   3.446  0.6433  0.9784  0.0345
 2463SOL    HW219023   2.353   3.482   3.345  0.4029  0.0369 -0.0655
 2464SOL     OW19024   1.636   1.384   8.085  0.4871  0.2970  0.5890
 2464SOL    HW119025   1.606   1.469   8.055 -1.0506 -1.0364 -1.6781
 2464SOL    HW219026   1.696   1.372   8.011  0.7880 -2.7385  1.2940
 2465SOL     OW19027   4.391   4.431   5.546  0.0711 -0.3648  0.2232
 2465SOL    HW119028   4.339   4.472   5.477  0.5488 -0.8615 -0.4374
 2465SOL    HW219029   4.338   4.439   5.625 -0.7223 -1.0306 -0.2413
 2466SOL     OW19030   0.147   0.205   3.196  0.3366 -0.3208 -0.5822
 2466SOL    HW119031   0.190   0.129   3.234  1.8968  0.7564 -0.1798
 2466SOL    HW219032   0.118   0.173   3.110 -1.9720  2.0667 -0.7075
 2467SOL     OW19033   0.139   0.345   1.918 -0.4245 -0.6303 -0.3435
 2467SOL    HW119034   0.197   0.368   1.845  0.2388 -2.0640 -0.2715
 2467SOL    HW219035   0.125   0.251   1.907  0.1573 -0.6364 -1.0019
 2468SOL     OW19036   3.147   1.125   0.594  0.4285  0.3894 -0.6979
 2468SOL    HW119037   3.124   1.049   0.540 -2.2636 -0.7160  2.0009
 2468SOL    HW219038   3.160   1.199   0.534 -3.6215  1.9348  0.3523
 2469SOL     OW19039   2.500   1.566  15.720  0.4438 -0.1524  0.0566
 2469SOL    HW119040   2.448   1.605  15.791 -0.0417  0.8358 -0.8517
 2469SOL    HW219041   2.534   1.649  15.687  1.9170 -0.1102  1.6650
 2470SOL     OW19042   0.509   0.666   4.693 -0.0351  0.1979 -0.1189
 2470SOL    HW119043   0.474   0.585   4.656 -0.6241  1.0583 -1.4843
 2470SOL    HW219044   0.497   0.726   4.618 -0.9930 -1.7016 -1.4863
 2471SOL     OW19045   4.465   1.748  12.347 -0.5691 -0.2261 -0.4367
 2471SOL    HW119046   4.441   1.753  12.439 -1.2624 -2.9231 -0.4996
 2471SOL    HW219047   4.399   1.688  12.313 -1.4192  0.7602 -0.5471
 2472SOL     OW19048   1.300   0.860   2.901 -0.4784 -0.0020 -0.0535
 2472SOL    HW119049   1.207   0.863   2.879  0.1017 -0.8421 -2.7061
 2472SOL    HW219050   1.332   0.798   2.835  1.7515 -0.3765  1.4017
 2473SOL     OW19051   0.209   4.602  10.143  0.2335  0.4385  0.7634
 2473SOL    HW119052   0.240   4.693  10.150 -1.8741  1.2304 -0.4133
 2473SOL    HW219053   0.199   4.586  10.049 -0.8849  0.8393  0.8212
 2474SOL     OW19054   0.131   1.044   7.490 -0.2252 -0.1504 -0.2789
 2474SOL    HW119055   0.119   1.133   7.524  0.3465  0.0257 -0.5364
 2474SOL    HW219056   0.050   1.003   7.518  0.5535 -1.6267 -0.2042
 2475SOL     OW19057   0.476   1.654   2.757 -0.1877  0.0107  0.1392
 2475SOL    HW119058   0.473   1.590   2.686  1.2376 -1.0163  1.0038
 2475SOL    HW219059   0.398   1.708   2.744 -1.1070 -1.1428  0.9699
 2476SOL     OW19060   1.292   2.778   0.936 -0.2914 -0.5918 -1.0232
 2476SOL    HW119061   1.316   2.750   1.025  1.4509 -1.5604 -1.7977
 2476SOL    HW219062   1.213   2.830   0.955 -0.7382 -1.6348 -0.0276
 2477SOL     OW19063   0.494   3.595   7.136  0.5506 -0.7420  0.3675
 2477SOL    HW119064   0.413   3.583   7.086  0.8917  1.0582 -0.6180
 2477SOL    HW219065   0.478   3.683   7.169  0.0787 -1.7191  2.7672
 2478SOL     OW19066   1.638   2.364   3.703  0.3169 -0.9908 -0.1691
 2478SOL    HW119067   1.544   2.364   3.683  0.6335  0.1611 -1.5764
 2478SOL    HW219068   1.647   2.422   3.779  0.7980  0.5627 -1.4010
 2479SOL     OW19069   2.729   4.336   4.170 -0.0794  0.5014 -0.0013
 2479SOL    HW119070   2.698   4.246   4.181 -0.2883  0.9087  2.7738
 2479SOL    HW219071   2.671   4.379   4.233 -1.0597 -0.3795 -0.3001
 2480SOL     OW19072   0.328   1.829   7.529 -0.0976  0.2293 -0.0918
 2480SOL    HW119073   0.408   1.835   7.581 -0.8475  1.0226  0.9677
 2480SOL    HW219074   0.327   1.911   7.480 -1.5587  0.4551  0.3265
 2481SOL     OW19075   0.813   1.585   8.465 -0.0444 -0.0014  0.1245
 2481SOL    HW119076   0.753   1.659   8.462 -0.1235 -0.1929 -2.5793
 2481SOL    HW219077   0.877   1.603   8.534  1.9753  1.3481 -2.1470
 2482SOL     OW19078   0.086   1.336   2.084  0.5868 -0.1621  0.0679
 2482SOL    HW119079   0.139   1.395   2.030  1.8987 -0.6123  0.8632
 2482SOL    HW219080   0.130   1.326   2.169  1.2331 -2.8662 -0.5744
 2483SOL     OW19081   2.600   3.035   5.556 -0.5697 -0.0733 -0.3230
 2483SOL    HW119082   2.520   3.041   5.503  0.1648 -0.8845 -1.5368
 2483SOL    HW219083   2.561   3.045   5.642 -1.0421 -0.2826 -0.5117
 2484SOL     OW19084   0.647   1.175   9.454  0.4079  0.1739  0.2675
 2484SOL    HW119085   0.624   1.245   9.516 -0.3643 -0.9279  1.2310
 2484SOL    HW219086   0.719   1.133   9.501  0.7655 -0.0343 -0.4630
 2485SOL     OW19087   1.103   0.523   4.305 -0.0748  0.2285  0.0640
 2485SOL    HW119088   1.020   0.476   4.295  0.3028 -0.3808 -0.1648
 2485SOL    HW219089   1.075   0.594   4.247  0.2203 -0.1139 -0.4943
 2486SOL     OW19090   1.917   4.691   0.528  0.7808  0.5909  0.3234
 2486SOL    HW119091   1.874   4.717   0.446  0.2204 -1.7292 -0.1315
 2486SOL    HW219092   1.933   4.598   0.513 -0.2461  0.9860 -3.3084
 2487SOL     OW19093   1.653   2.706  13.364  0.4204  0.7521 -0.4569
 2487SOL    HW119094   1.670   2.671  13.276  0.1530 -0.7275  0.0936
 2487SOL    HW219095   1.559   2.693  13.373  0.3728  2.0839  0.8054
 2488SOL     OW19096   2.248   4.442   7.059  0.2788 -0.0206 -0.1708
 2488SOL    HW119097   2.173   4.478   7.011  1.2760 -0.9168 -2.4208
 2488SOL    HW219098   2.200   4.420   7.139 -0.1414 -2.1973 -1.0224
 2489SOL     OW19099   0.885   3.094   2.490  0.3844 -0.2618  0.1989
 2489SOL    HW119100   0.881   3.057   2.578  0.2941  1.6266  0.9951
 2489SOL    HW219101   0.832   3.031   2.442 -0.7144  0.4028  0.5289
 2490SOL     OW19102   0.464   0.371  10.181  0.0028 -0.1790 -0.1617
 2490SOL    HW119103   0.410   0.416  10.246  0.2699 -1.8359  1.1852
 2490SOL    HW219104   0.432   0.426  10.109 -0.1860  0.2300  0.2334
 2491SOL     OW19105   4.135   4.210  16.023 -0.3827  0.4634 -0.0291
 2491SOL    HW119106   4.201   4.250  15.966 -0.3350  1.8276  0.9827
 2491SOL    HW219107   4.166   4.241  16.108 -2.4763 -0.9644  1.2515
 2492SOL     OW19108   3.577   3.583   0.696  0.4131 -0.4664 -0.1745
 2492SOL    HW119109   3.619   3.658   0.739 -1.7115 -0.1259  1.2891
 2492SOL    HW219110   3.651   3.526   0.675  0.3107 -0.2948 -0.9948
 2493SOL     OW19111   2.860   1.437   0.199 -0.8283 -0.1878 -0.2338
 2493SOL    HW119112   2.803   1.508   0.173 -0.2674  0.8085  1.2321
 2493SOL    HW219113   2.922   1.441   0.127  0.0654 -0.2200  0.5227
 2494SOL     OW19114   3.555   1.744   4.017  0.4166  0.0238 -0.0123
 2494SOL    HW119115   3.460   1.732   4.015  0.5808 -1.4257  1.4356
 2494SOL    HW219116   3.564   1.804   3.942 -0.6263  0.6972  0.4026
 2495SOL     OW19117   2.201   1.937   3.509 -0.1691 -0.1044  0.1875
 2495SOL    HW119118   2.128   1.946   3.571 -0.3351 -0.6127  0.0662
 2495SOL    HW219119   2.266   1.887   3.558  0.8038  1.1361  0.1532
 2496SOL     OW19120   4.028   2.012  15.247 -0.0868  0.2967 -0.3031
 2496SOL    HW119121   4.084   2.074  15.295 -0.0301  1.1894 -1.5255
 2496SOL    HW219122   4.072   2.015  15.162  1.3864  2.5259  0.5250
 2497SOL     OW19123   2.772   2.923   2.228 -0.5373 -0.0825  0.5976
 2497SOL    HW119124   2.806   2.881   2.307 -1.1360  0.3526  1.0926
 2497SOL    HW219125   2.747   2.851   2.169 -0.5716 -0.7435  1.4188
 2498SOL     OW19126   1.519   3.590   6.394 -0.0444  0.2029  0.5301
 2498SOL    HW119127   1.476   3.676   6.397  1.9806  1.2563 -0.0855
 2498SOL    HW219128   1.513   3.561   6.485 -0.6418 -3.7332 -0.7980
 2499SOL     OW19129   3.554   1.206  12.117  0.0014 -0.4291 -0.2091
 2499SOL    HW119130   3.622   1.178  12.055 -0.3937 -1.6575 -0.0935
 2499SOL    HW219131   3.570   1.299  12.135 -1.8301 -0.1809  0.0713
 2500SOL     OW19132   2.861   2.230   0.880  1.2665  0.2241  0.0659
 2500SOL    HW119133   2.817   2.309   0.852  2.9877  1.1159 -0.1128
 2500SOL    HW219134   2.919   2.229   0.804  1.9604 -1.9850  0.6006
 2501SOL     OW19135   3.727   4.406   6.001  0.8051  0.3392  0.0376
 2501SOL    HW119136   3.664   4.450   5.944  1.9259  1.6758 -0.1936
 2501SOL    HW219137   3.744   4.334   5.941 -2.9990 -1.1534  0.7710
 2502SOL     OW19138   2.747   3.501   5.375  0.7544  0.0190 -0.1235
 2502SOL    HW119139   2.807   3.543   5.437 -0.7038  0.0098  1.3050
 2502SOL    HW219140   2.731   3.427   5.434  2.2125  0.1822  0.4729
 2503SOL     OW19141   3.662   2.701  14.425  0.4212  0.0080 -0.1374
 2503SOL    HW119142   3.569   2.722  14.414  0.6473  3.0666  3.6001
 2503SOL    HW219143   3.649   2.613  14.390  0.7280 -0.6420  1.3781
 2504SOL     OW19144   3.684   3.333   4.308  0.4071 -0.7098  0.8465
 2504SOL    HW119145   3.628   3.273   4.259  1.8024 -1.1078 -0.2655
 2504SOL    HW219146   3.619   3.373   4.366  1.6840 -0.1629  1.9220
 2505SOL     OW19147   3.225   0.079   9.820  0.2079 -0.1028 -0.5779
 2505SOL    HW119148   3.232   0.120   9.907  1.0488 -0.3210 -0.5429
 2505SOL    HW219149   3.233   4.729   9.848  0.3974 -0.0503 -0.4549
 2506SOL     OW19150   0.508   2.992   1.495  0.9151 -0.3945 -0.1695
 2506SOL    HW119151   0.442   3.058   1.512 -1.1131 -1.8271 -2.5493
 2506SOL    HW219152   0.570   3.011   1.566  0.9188 -0.4582 -0.1552
 2507SOL     OW19153   0.257   4.422  12.414 -0.1110 -0.0419  0.1794
 2507SOL    HW119154   0.216   4.376  12.488 -1.7916 -1.6857 -1.7749
 2507SOL    HW219155   0.231   4.364  12.342  0.6586  1.2002 -1.1038
 2508SOL     OW19156   1.584   3.348   4.404 -0.2533 -0.2472  0.4308
 2508SOL    HW119157   1.630   3.358   4.321 -2.0001  0.6747 -0.4284
 2508SOL    HW219158   1.522   3.420   4.403 -0.5880 -0.5458 -0.1467
 2509SOL     OW19159   3.857   0.873   4.667 -0.7832 -0.2907  0.1784
 2509SOL    HW119160   3.838   0.799   4.610 -0.7875  0.4052 -0.7260
 2509SOL    HW219161   3.861   0.833   4.754 -1.5954 -0.9054 -0.0623
 2510SOL     OW19162   0.654   1.056   3.046 -0.6814 -0.1815  0.2679
 2510SOL    HW119163   0.649   1.150   3.067  1.5488 -0.0939  0.4124
 2510SOL    HW219164   0.562   1.029   3.042 -0.1260 -1.9038 -0.5521
 2511SOL     OW19165   2.747   1.884   7.616  0.3108 -0.4430 -0.0898
 2511SOL    HW119166   2.696   1.804   7.606  0.7804 -0.7217 -0.2446
 2511SOL    HW219167   2.686   1.928   7.676 -0.6584  1.1288 -2.2042
 2512SOL     OW19168   4.235   2.355  17.226 -0.2595  0.1949  0.4194
 2512SOL    HW119169   4.242   2.266  17.192 -0.6451  0.3498 -0.0670
 2512SOL    HW219170   4.283   2.345  17.308 -1.1958 -1.2726  0.7759
 2513SOL     OW19171   1.363   3.498   6.878  0.0054 -0.3312  0.3775
 2513SOL    HW119172   1.277   3.456   6.873  0.1587 -0.7268  1.1535
 2513SOL    HW219173   1.391   3.472   6.965  0.7107  0.9901  0.5493
 2514SOL     OW19174   4.067   4.251  14.239 -0.4063 -0.2762 -0.3277
 2514SOL    HW119175   3.989   4.235  14.291  0.2434 -0.9640  0.4468
 2514SOL    HW219176   4.121   4.182  14.277 -2.9607 -2.3510 -0.5406
 2515SOL     OW19177   0.401   4.475  10.298  0.4142  0.4955  0.0419
 2515SOL    HW119178   0.318   4.498  10.257  0.4567 -0.5731 -0.6464
 2515SOL    HW219179   0.462   4.540  10.263  0.9829  2.0243  3.8492
 2516SOL     OW19180   2.174   4.024   3.236 -0.2652 -0.0705  0.4373
 2516SOL    HW119181   2.218   3.994   3.315 -0.7984  1.0074  1.1432
 2516SOL    HW219182   2.225   3.974   3.173 -1.9387 -2.5059  1.0209
 2517SOL     OW19183   1.049   4.365  12.819 -0.2220  0.3212  0.0569
 2517SOL    HW119184   1.082   4.455  12.823  0.8889 -0.0773 -0.4349
 2517SOL    HW219185   0.954   4.380  12.823 -0.3197 -0.8174  1.8087
 2518SOL     OW19186   1.020   1.959   6.428 -0.5239  0.3436  0.0079
 2518SOL    HW119187   0.932   1.994   6.418 -0.1500  1.7734  1.6126
 2518SOL    HW219188   1.024   1.929   6.519 -0.7560  1.4137  0.3615
 2519SOL     OW19189   2.466   3.165  13.804 -0.2740  0.0196  1.4190
 2519SOL    HW119190   2.488   3.256  13.781 -1.6414  0.3486  1.3998
 2519SOL    HW219191   2.399   3.169  13.871 -0.3669  3.0666  1.1522
 2520SOL     OW19192   2.532   4.219   6.341  0.6484  0.4524 -0.0483
 2520SOL    HW119193   2.436   4.216   6.348  0.5801  0.7080 -0.9529
 2520SOL    HW219194   2.567   4.250   6.425 -0.4183  0.8019  0.2819
 2521SOL     OW19195   3.318   3.424   2.712 -0.4966  0.2095  0.2085
 2521SOL    HW119196   3.402   3.446   2.752 -1.1899  0.2853  1.6441
 2521SOL    HW219197   3.322   3.453   2.621  1.2417 -0.6595  0.0203
 2522SOL     OW19198   4.126   2.808   3.830 -0.2365 -0.1309  0.5751
 2522SOL    HW119199   4.206   2.797   3.778 -1.4152 -2.5375 -0.6782
 2522SOL    HW219200   4.153   2.876   3.892 -3.0916  1.3284  0.2124
 2523SOL     OW19201   0.893   0.682  13.126 -0.4656 -0.4136  0.2239
 2523SOL    HW119202   0.988   0.673  13.125 -0.5827 -1.6436  0.5950
 2523SOL    HW219203   0.871   0.630  13.049 -0.2812 -0.4185  0.1766
 2524SOL     OW19204   1.269   0.418   4.651 -0.3508 -0.5275  0.0943
 2524SOL    HW119205   1.354   0.443   4.688  0.3937 -1.1030 -1.1919
 2524SOL    HW219206   1.256   0.331   4.690  0.4930 -0.4753  0.5006
 2525SOL     OW19207   4.274   2.650   1.571  0.1228  0.1514 -0.5261
 2525SOL    HW119208   4.353   2.665   1.518 -0.7963 -0.1417 -1.9756
 2525SOL    HW219209   4.282   2.712   1.643  1.4979  1.3370 -1.7093
 2526SOL     OW19210   2.345   4.238   4.807 -0.2202  0.3690  0.6002
 2526SOL    HW119211   2.412   4.238   4.875  2.1861  2.4980 -1.7339
 2526SOL    HW219212   2.391   4.194   4.735 -0.7807 -0.4158  0.7172
 2527SOL     OW19213   0.292   2.159   0.980 -0.1603 -1.0508  0.5025
 2527SOL    HW119214   0.302   2.139   1.073  0.9301 -0.1323  0.5717
 2527SOL    HW219215   0.373   2.207   0.965 -1.3787  0.7670 -0.3984
 2528SOL     OW19216   4.597   1.996   5.234 -0.4034  0.2452 -0.1686
 2528SOL    HW119217   4.617   2.052   5.159 -1.8706  1.6907  0.5314
 2528SOL    HW219218   4.502   1.998   5.231 -0.3953 -1.2618 -1.6345
 2529SOL     OW19219   0.710   4.723   6.692 -0.5150 -0.0406 -0.6257
 2529SOL    HW119220   0.758   0.054   6.732 -1.4427  0.3247 -0.1722
 2529SOL    HW219221   0.773   4.653   6.676  0.1553  0.3518  0.2773
 2530SOL     OW19222   1.020   0.910  10.843  0.2849 -0.4676 -0.0409
 2530SOL    HW119223   1.023   0.828  10.892 -1.8234 -0.0268  0.8577
 2530SOL    HW219224   0.975   0.964  10.908  0.6521  1.3460 -1.3022
 2531SOL     OW19225   0.984   0.370   1.502 -0.2996 -0.4395  0.1014
 2531SOL    HW119226   0.982   0.299   1.566 -0.5107  0.3962  1.0241
 2531SOL    HW219227   1.064   0.416   1.529  0.7608 -1.1316 -1.8155
 2532SOL     OW19228   2.405   2.249   5.686 -0.1176  0.2128  0.1912
 2532SOL    HW119229   2.496   2.239   5.713 -0.3066 -1.2783  0.2481
 2532SOL    HW219230   2.413   2.241   5.591 -2.9849  1.3443 -0.1458
 2533SOL     OW19231   2.199   2.588  11.709 -0.3733 -0.2783  0.3440
 2533SOL    HW119232   2.158   2.675  11.715  0.9544  0.3812 -0.2426
 2533SOL    HW219233   2.146   2.540  11.773  0.4865 -2.5252 -0.6645
 2534SOL     OW19234   0.917   0.136   6.759 -0.1107 -0.1596 -0.1934
 2534SOL    HW119235   0.985   0.201   6.775 -0.4652  0.0505  0.4633
 2534SOL    HW219236   0.969   0.061   6.785  0.2631  0.2852  0.3294
 2535SOL     OW19237   3.610   0.224   3.365 -0.5457  0.2386  0.1561
 2535SOL    HW119238   3.673   0.276   3.416  1.0205  0.5615 -2.0907
 2535SOL    HW219239   3.588   0.155   3.428 -0.3213 -0.4032 -0.4674
 2536SOL     OW19240   2.098   2.940   1.139 -0.1387  0.2026 -0.9610
 2536SOL    HW119241   2.172   2.920   1.196 -1.5620  0.4857  0.9603
 2536SOL    HW219242   2.138   3.010   1.087 -1.9234  1.5848 -0.4600
 2537SOL     OW19243   0.734   4.166   5.477  0.0575  0.2209 -0.3514
 2537SOL    HW119244   0.773   4.115   5.548 -2.3303 -1.6046 -0.3604
 2537SOL    HW219245   0.651   4.184   5.520 -0.2403 -1.0062 -0.4005
 2538SOL     OW19246   4.709   0.020   2.458  0.4077  0.4079  0.3057
 2538SOL    HW119247   4.706   0.076   2.380 -0.1806 -1.2106 -0.8301
 2538SOL    HW219248   0.013   0.071   2.526 -0.2357 -0.8809  1.6833
 2539SOL     OW19249   4.711   3.840   6.119 -0.3793 -0.3137  0.0183
 2539SOL    HW119250   4.618   3.853   6.100 -0.1901  1.6155  0.4480
 2539SOL    HW219251   4.709   3.752   6.156  0.7328 -0.6140 -0.6109
 2540SOL     OW19252   2.755   1.185   8.511 -0.6741 -0.5159  0.1070
 2540SOL    HW119253   2.798   1.104   8.540 -0.9041 -0.0940  1.6147
 2540SOL    HW219254   2.829   1.232   8.473 -0.8760  2.0238  2.8366
 2541SOL     OW19255   3.591   0.768   2.002 -0.2787 -0.4518 -0.7163
 2541SOL    HW119256   3.622   0.856   1.983 -0.3446 -0.6203 -1.5997
 2541SOL    HW219257   3.509   0.764   1.952  0.4675 -0.1787 -1.9405
 2542SOL     OW19258   0.810   3.448  12.994 -0.5362  0.1393  0.1569
 2542SOL    HW119259   0.768   3.533  13.003 -0.2890  0.3328 -0.5605
 2542SOL    HW219260   0.862   3.460  12.915 -2.0294 -0.6519 -0.9279
 2543SOL     OW19261   4.459   4.220  16.711 -0.1479 -0.1008 -0.2726
 2543SOL    HW119262   4.499   4.174  16.638 -0.5212 -0.7278 -0.0821
 2543SOL    HW219263   4.535   4.236  16.767  0.8109 -1.9434 -1.0511
 2544SOL     OW19264   3.168   3.263   9.007 -0.0327  0.3143  0.6067
 2544SOL    HW119265   3.099   3.290   8.946 -0.1778  3.3753  2.1106
 2544SOL    HW219266   3.210   3.194   8.956 -0.2067 -0.0802  0.9970
 2545SOL     OW19267   2.964   3.029  12.572 -0.0189 -0.6857 -0.7248
 2545SOL    HW119268   2.897   2.964  12.591  0.8307 -1.2307  0.4426
 2545SOL    HW219269   3.046   2.987  12.600  0.1682  0.5028  0.5206
 2546SOL     OW19270   3.946   1.867   0.571 -1.1663 -0.5704  0.3014
 2546SOL    HW119271   4.030   1.859   0.525 -1.0739 -1.6890  0.6660
 2546SOL    HW219272   3.887   1.811   0.521 -1.0756 -0.7009  0.3420
 2547SOL     OW19273   1.188   3.329  12.756  0.4948  0.4757 -0.6589
 2547SOL    HW119274   1.269   3.333  12.807  1.6775 -1.8033 -2.3723
 2547SOL    HW219275   1.164   3.239  12.775 -1.1440  1.3194  1.2115
 2548SOL     OW19276   1.455   0.079   5.910  0.0926  0.3985 -0.3308
 2548SOL    HW119277   1.507   0.015   5.861 -1.5514 -0.4945 -0.9183
 2548SOL    HW219278   1.408   0.118   5.836 -0.2361  1.0246  0.2088
 2549SOL     OW19279   2.252   3.411   9.911  0.1868  0.0604 -0.2539
 2549SOL    HW119280   2.207   3.451   9.836  1.8411 -0.6376 -1.6145
 2549SOL    HW219281   2.229   3.323   9.881  0.9991 -0.0143 -0.6399
 2550SOL     OW19282   1.302   0.894  17.729 -0.4004 -0.6524 -0.1007
 2550SOL    HW119283   1.316   0.807  17.693 -0.6743 -1.2866  1.3231
 2550SOL    HW219284   1.229   0.938  17.685  1.7503  2.2790 -0.7047
 2551SOL     OW19285   4.490   0.452   4.886 -0.5459 -0.2601 -0.2277
 2551SOL    HW119286   4.474   0.435   4.979  1.1522  0.1326  0.1297
 2551SOL    HW219287   4.514   0.544   4.895  2.3276 -1.1427  1.0392
 2552SOL     OW19288   4.370   3.655  17.319  0.1162  0.0028  0.4447
 2552SOL    HW119289   4.448   3.637  17.267  1.5714 -0.3792  2.7395
 2552SOL    HW219290   4.405   3.645  17.407  1.7290  0.1885 -0.1721
 2553SOL     OW19291   4.294   2.662  11.783  0.6107  0.3694  0.4083
 2553SOL    HW119292   4.353   2.599  11.739  0.0811  0.8645 -1.0181
 2553SOL    HW219293   4.350   2.739  11.768 -0.3305  1.1414  0.9289
 2554SOL     OW19294   3.675   2.781   8.623 -0.1829 -0.1144 -0.2260
 2554SOL    HW119295   3.726   2.701   8.636  0.3175 -0.0173 -1.5244
 2554SOL    HW219296   3.626   2.771   8.541 -1.8423  0.6219  0.6971
 2555SOL     OW19297   2.117   2.786   2.041  0.0815  0.0418 -0.5539
 2555SOL    HW119298   2.139   2.762   1.951  2.1365 -2.0530  0.5201
 2555SOL    HW219299   2.192   2.745   2.082  0.9662  1.5625 -0.6423
 2556SOL     OW19300   0.716   2.499  15.476 -0.3507  0.5413  0.6972
 2556SOL    HW119301   0.668   2.577  15.505 -0.6972  0.7742 -0.4807
 2556SOL    HW219302   0.806   2.515  15.505 -0.7969 -0.1451  2.4784
 2557SOL     OW19303   0.976   1.227   0.325  0.0560  0.4772  0.8930
 2557SOL    HW119304   1.016   1.162   0.267 -0.6560 -0.1610  1.1158
 2557SOL    HW219305   1.053   1.283   0.332 -0.0672  0.7129  0.3943
 2558SOL     OW19306   4.180   3.320   6.165  0.2468 -0.2214  0.1734
 2558SOL    HW119307   4.271   3.297   6.182 -0.3212 -2.8263 -0.2358
 2558SOL    HW219308   4.188   3.297   6.072  3.1656 -1.7214  0.8100
 2559SOL     OW19309   0.770   4.055  14.193  0.7805 -0.4665 -0.2514
 2559SOL    HW119310   0.863   4.078  14.193  1.2421 -2.3310  1.1200
 2559SOL    HW219311   0.726   4.130  14.153  1.7035  0.0011 -0.3877
 2560SOL     OW19312   1.697   1.638   0.866  0.1730 -0.4782  0.7769
 2560SOL    HW119313   1.613   1.593   0.851  0.5316 -0.1786 -2.0515
 2560SOL    HW219314   1.719   1.685   0.786 -1.6123 -0.9395  0.0062
 2561SOL     OW19315   3.458   1.338   5.591 -0.2386  0.4430 -0.2350
 2561SOL    HW119316   3.470   1.253   5.550 -0.5195  0.4137 -0.2563
 2561SOL    HW219317   3.548   1.370   5.596  0.0667 -0.5094  0.3471
 2562SOL     OW19318   0.086   2.478   5.387 -0.0804  0.4846 -0.3217
 2562SOL    HW119319   0.052   2.392   5.362  0.2247  0.0439  0.7818
 2562SOL    HW219320   0.012   2.530   5.358  0.8738  2.0144  0.0149
 2563SOL     OW19321   1.126   1.985  13.624 -0.3879 -0.2128  0.0159
 2563SOL    HW119322   1.107   2.049  13.693  0.2654  0.2430 -0.2246
 2563SOL    HW219323   1.035   1.959  13.610 -0.5866 -0.4860  1.8136
 2564SOL     OW19324   3.193   2.102  13.836  0.4660 -0.6387 -0.0491
 2564SOL    HW119325   3.197   2.010  13.862 -0.4295 -0.5905  0.2679
 2564SOL    HW219326   3.145   2.148  13.905  0.9414 -0.8954  0.4503
 2565SOL     OW19327   0.797   3.077   3.333 -0.4226 -0.4705 -0.6972
 2565SOL    HW119328   0.819   3.108   3.421 -0.2474  0.4758 -1.0731
 2565SOL    HW219329   0.803   2.982   3.344 -1.7780 -0.6726 -1.6767
 2566SOL     OW19330   0.792   1.763   5.031 -0.4780  0.5983  0.0325
 2566SOL    HW119331   0.873   1.808   5.007 -0.6714  0.2484 -1.2909
 2566SOL    HW219332   0.784   1.697   4.962 -2.1943  0.1714  0.6214
 2567SOL     OW19333   2.703   2.427   0.750  0.3389  0.1922  0.7092
 2567SOL    HW119334   2.755   2.484   0.693 -0.4792  1.3726  1.1484
 2567SOL    HW219335   2.637   2.397   0.688  0.9880 -1.6542  0.9126
 2568SOL     OW19336   1.082   3.605  14.715  0.0246 -0.3900  0.3004
 2568SOL    HW119337   1.032   3.549  14.655  1.4103 -0.5709 -0.6952
 2568SOL    HW219338   0.999   3.630  14.754  0.9736  1.0427  1.3910
 2569SOL     OW19339   2.838   2.441   3.756  0.1404  0.0312 -0.3211
 2569SOL    HW119340   2.797   2.485   3.681  1.2660  0.9634 -0.3955
 2569SOL    HW219341   2.904   2.384   3.718  1.0077  1.2064 -0.5815
 2570SOL     OW19342   2.368   2.595   8.417  0.1041  0.0764  0.2821
 2570SOL    HW119343   2.284   2.578   8.459 -0.3124 -2.3435 -1.5630
 2570SOL    HW219344   2.387   2.506   8.387  3.0175  1.4191 -1.8417
 2571SOL     OW19345   3.690   2.138   0.854  0.3199 -0.1763  0.0639
 2571SOL    HW119346   3.665   2.057   0.809  1.5603 -0.6391  0.1943
 2571SOL    HW219347   3.659   2.203   0.791  1.4958 -0.7409 -1.1093
 2572SOL     OW19348   1.302   2.815   1.997  0.3451 -0.4348 -0.4039
 2572SOL    HW119349   1.334   2.843   2.083  1.6529 -1.2721 -0.6155
 2572SOL    HW219350   1.354   2.736   1.980  0.8831 -0.2466  0.3530
 2573SOL     OW19351   1.995   1.854   9.443 -0.2843  0.4666  0.3926
 2573SOL    HW119352   1.987   1.945   9.471  3.4274  0.9606 -0.1562
 2573SOL    HW219353   1.953   1.857   9.357 -0.1382 -0.3847  0.2934
 2574SOL     OW19354   0.215   0.761   0.943  0.3862 -0.2474  0.0253
 2574SOL    HW119355   0.285   0.696   0.936 -1.4745 -2.0875 -1.6298
 2574SOL    HW219356   0.148   0.729   0.883 -0.8192 -0.0356  1.2688
 2575SOL     OW19357   0.870   2.959   2.753  0.0456  0.1615 -0.3156
 2575SOL    HW119358   0.921   2.973   2.833  0.6817  1.2697 -0.9114
 2575SOL    HW219359   0.918   2.880   2.729  1.2480 -0.1932  3.1682
 2576SOL     OW19360   3.172   4.399  13.775 -0.2780  0.3563 -0.7351
 2576SOL    HW119361   3.142   4.488  13.797  0.9654  0.5409  0.2067
 2576SOL    HW219362   3.092   4.347  13.769  1.2803 -2.2025  0.7156
 2577SOL     OW19363   0.010   2.745   4.366  0.2086  0.4835 -0.2016
 2577SOL    HW119364   0.086   2.761   4.422 -0.3872 -5.1762  2.1969
 2577SOL    HW219365   4.679   2.765   4.425 -0.6273  1.3060 -1.4958
 2578SOL     OW19366   1.350   1.597  15.978  0.1753  0.5946  0.4628
 2578SOL    HW119367   1.444   1.576  15.984  0.2695  1.0535  0.5832
 2578SOL    HW219368   1.351   1.680  15.932 -1.0046  1.1634  1.4881
 2579SOL     OW19369   2.972   3.347   6.649 -0.7614 -0.3046 -0.2152
 2579SOL    HW119370   2.899   3.405   6.670 -1.1778 -0.8184 -0.2320
 2579SOL    HW219371   2.936   3.294   6.577  0.5168 -1.9032  0.3196
 2580SOL     OW19372   1.557   1.075   8.637  0.0459 -0.0531  0.0239
 2580SOL    HW119373   1.564   1.164   8.670 -0.5836  1.0277 -2.7585
 2580SOL    HW219374   1.640   1.041   8.671 -0.2736 -0.2723  0.5857
 2581SOL     OW19375   3.269   4.001   2.344 -0.3801  0.2421  0.5119
 2581SOL    HW119376   3.347   4.038   2.385  1.5154 -1.2734 -1.6887
 2581SOL    HW219377   3.305   3.914   2.323 -1.6600  0.4843 -2.7134
 2582SOL     OW19378   2.787   0.374   2.514 -0.8588  0.5367 -0.3740
 2582SOL    HW119379   2.703   0.327   2.515 -0.6698  0.1358 -2.7655
 2582SOL    HW219380   2.844   0.318   2.460 -2.6154 -2.0428  0.4100
 2583SOL     OW19381   4.449   1.512   4.948  0.3098  0.0677 -0.4286
 2583SOL    HW119382   4.479   1.492   5.037 -1.1489 -2.6440 -0.5748
 2583SOL    HW219383   4.357   1.488   4.949  0.6378 -1.1883 -0.6796
 2584SOL     OW19384   2.033   0.458   3.762  0.3744  0.0284 -0.1276
 2584SOL    HW119385   2.058   0.550   3.764  0.8535 -0.1318  1.1139
 2584SOL    HW219386   1.941   0.469   3.788  0.8207 -0.0964  1.5062
 2585SOL     OW19387   3.408   3.172   2.525  0.1134 -0.1068  0.1438
 2585SOL    HW119388   3.363   3.238   2.473  2.1321  1.3703  0.2432
 2585SOL    HW219389   3.454   3.230   2.585 -0.8828  0.1901  0.6150
 2586SOL     OW19390   3.718   4.278   7.991  0.3807  0.0613 -0.0036
 2586SOL    HW119391   3.676   4.208   8.040  0.3903  0.1658  0.1563
 2586SOL    HW219392   3.785   4.233   7.940 -0.5679 -3.3395  1.7511
 2587SOL     OW19393   3.923   0.821  12.720  0.2138 -0.0610  0.2402
 2587SOL    HW119394   3.872   0.742  12.736 -0.2221 -0.2579 -2.0516
 2587SOL    HW219395   3.964   0.803  12.635  0.1644  1.4254 -0.1060
 2588SOL     OW19396   1.205   2.532   4.637 -0.2841  0.0271 -0.7335
 2588SOL    HW119397   1.122   2.485   4.636  0.5053 -1.4249  2.1857
 2588SOL    HW219398   1.264   2.469   4.679 -0.7816  0.6325  0.8622
 2589SOL     OW19399   1.842   0.597   4.136  0.3084  0.1499 -0.8219
 2589SOL    HW119400   1.838   0.508   4.102  1.8220  0.2063 -1.1595
 2589SOL    HW219401   1.770   0.607   4.198 -1.1250 -2.7684 -2.0721
 2590SOL     OW19402   1.220   2.815   9.003  0.3757 -0.2571  0.5179
 2590SOL    HW119403   1.229   2.906   9.028 -0.9296 -1.3013  4.6904
 2590SOL    HW219404   1.248   2.777   9.086 -1.7489 -1.8154  0.5172
 2591SOL     OW19405   0.531   1.970   6.837  0.5646 -0.4786 -0.2028
 2591SOL    HW119406   0.480   1.895   6.806  2.5326 -1.2340 -1.6097
 2591SOL    HW219407   0.469   2.043   6.832 -1.3340 -2.0244  0.5834
 2592SOL     OW19408   1.381   3.297   2.505 -0.6059 -0.2482  0.1606
 2592SOL    HW119409   1.455   3.305   2.565 -0.7191 -2.1420  0.5551
 2592SOL    HW219410   1.315   3.253   2.559 -2.1412  0.7963 -0.8595
 2593SOL     OW19411   1.971   1.894   2.796 -0.0925  0.3061  0.9408
 2593SOL    HW119412   1.926   1.964   2.843 -2.4642  1.2514 -2.8199
 2593SOL    HW219413   2.050   1.879   2.849 -0.3643 -0.5559  1.0997
 2594SOL     OW19414   2.959   1.521  14.379 -0.2088  0.0636  0.0922
 2594SOL    HW119415   2.966   1.426  14.382 -3.9678 -0.1941 -0.1077
 2594SOL    HW219416   2.953   1.550  14.470 -0.1850  0.5032 -0.0464
 2595SOL     OW19417   4.316   2.069  11.494  0.2222  0.2976 -0.2233
 2595SOL    HW119418   4.240   2.015  11.517 -0.0300  0.6240 -0.2976
 2595SOL    HW219419   4.352   2.038  11.411 -0.3650  0.6906 -0.6186
 2596SOL     OW19420   0.016   1.846  11.708  0.3666 -0.1086  0.2982
 2596SOL    HW119421   4.710   1.773  11.668  0.6764 -1.6757  2.7983
 2596SOL    HW219422   0.107   1.816  11.698  1.4604  3.6191 -1.0645
 2597SOL     OW19423   0.974   4.196   7.603  0.7100  0.2905 -0.5651
 2597SOL    HW119424   1.056   4.232   7.567 -0.0011  0.8149 -1.6446
 2597SOL    HW219425   0.898   4.237   7.563  0.7231  2.6944  1.9103
 2598SOL     OW19426   0.125   2.593   1.782 -0.3513  0.0154  0.4162
 2598SOL    HW119427   0.167   2.679   1.788  1.1984 -0.6154 -1.1419
 2598SOL    HW219428   0.195   2.549   1.733 -1.5370 -1.9667  0.4979
 2599SOL     OW19429   4.219   3.235   8.018 -0.0841  0.1020  0.3421
 2599SOL    HW119430   4.270   3.201   8.092 -0.5373 -0.7899  0.2524
 2599SOL    HW219431   4.285   3.293   7.981  0.3019 -1.2280 -1.0883
 2600SOL     OW19432   4.303   2.286   3.788 -0.0710 -0.8317 -0.5590
 2600SOL    HW119433   4.316   2.305   3.695 -1.2197 -0.9153 -0.7315
 2600SOL    HW219434   4.279   2.371   3.824  2.0000 -1.3780  2.1475
 2601SOL     OW19435   3.492   2.030   6.312  0.5162  0.5356  0.3255
 2601SOL    HW119436   3.426   2.038   6.380  0.6510  1.2820  0.3627
 2601SOL    HW219437   3.436   1.990   6.245  1.5316 -1.6063  0.7453
 2602SOL     OW19438   0.303   3.328   5.099 -0.9551 -0.3140 -0.4647
 2602SOL    HW119439   0.388   3.354   5.064 -1.2746  0.8068 -0.4029
 2602SOL    HW219440   0.247   3.404   5.083 -1.3997 -0.0414  2.3574
 2603SOL     OW19441   1.105   3.076   4.831  0.0855  0.0046 -0.2821
 2603SOL    HW119442   1.103   2.981   4.836 -0.5157  0.3148  5.5291
 2603SOL    HW219443   1.163   3.097   4.758  0.7642  0.5825  0.4216
 2604SOL     OW19444   0.139   3.645  15.866  0.1417 -0.4064 -0.0675
 2604SOL    HW119445   0.069   3.640  15.801 -0.6972  0.7693  0.7184
 2604SOL    HW219446   0.135   3.554  15.895  3.0261  0.0513  1.7758
 2605SOL     OW19447   3.402   3.079   5.345 -0.5095  0.0181 -0.6897
 2605SOL    HW119448   3.456   3.015   5.299 -0.7261 -0.4334 -0.3235
 2605SOL    HW219449   3.380   3.141   5.276 -0.2512 -1.0593 -1.7261
 2606SOL     OW19450   4.167   3.882   2.298  0.2105  0.2342 -0.5063
 2606SOL    HW119451   4.147   3.958   2.243  1.9324  1.2734  0.3199
 2606SOL    HW219452   4.164   3.811   2.234  1.2826 -0.2548  0.0033
 2607SOL     OW19453   0.293   4.593   1.532 -0.1450 -0.0397  0.2068
 2607SOL    HW119454   0.321   4.680   1.558  3.8632 -0.7387 -1.7861
 2607SOL    HW219455   0.364   4.540   1.569 -0.8447 -2.0246 -1.2463
 2608SOL     OW19456   4.486   3.082   2.840 -0.1923  0.2230  0.1398
 2608SOL    HW119457   4.546   3.153   2.862  0.4140 -0.5928  1.1542
 2608SOL    HW219458   4.555   3.032   2.796 -0.7412  0.2276 -0.7271
 2609SOL     OW19459   2.549   4.527   8.581 -0.1896  0.1280 -0.2510
 2609SOL    HW119460   2.524   4.602   8.527 -0.4360 -0.5010 -1.0115
 2609SOL    HW219461   2.643   4.518   8.563  0.3756 -1.3636  3.3786
 2610SOL     OW19462   0.596   0.469   5.361  0.2195  0.2878 -0.0436
 2610SOL    HW119463   0.631   0.434   5.280 -2.1082 -0.4529 -0.7360
 2610SOL    HW219464   0.555   0.553   5.340  2.4224  1.5086  0.5464
 2611SOL     OW19465   3.788   1.009   9.312  0.1783  0.7389  0.1016
 2611SOL    HW119466   3.752   1.074   9.252  0.3120 -1.0082 -1.8386
 2611SOL    HW219467   3.718   0.979   9.370  0.5437 -2.7474 -1.2636
 2612SOL     OW19468   0.767   3.612   5.413 -0.0243  0.2898 -0.1462
 2612SOL    HW119469   0.728   3.584   5.330  0.9335 -2.5971  0.3994
 2612SOL    HW219470   0.693   3.607   5.473  1.0908  1.5339  1.3421
 2613SOL     OW19471   2.371   1.776   3.633 -0.4189 -0.3806 -0.0281
 2613SOL    HW119472   2.367   1.684   3.658  0.5130 -0.0767  1.2272
 2613SOL    HW219473   2.439   1.772   3.566  1.1246  0.8186  1.4719
 2614SOL     OW19474   0.194   3.881   4.793  0.9621 -0.3786  0.0983
 2614SOL    HW119475   0.276   3.914   4.830  1.2933  1.4741 -2.2672
 2614SOL    HW219476   0.214   3.789   4.779  1.9348  0.0463 -1.4359
 2615SOL     OW19477   4.207   0.825   2.134  0.2165  0.1334  0.0174
 2615SOL    HW119478   4.289   0.869   2.156  0.2611  2.1718 -4.1203
 2615SOL    HW219479   4.203   0.768   2.210 -2.9970 -1.6176 -1.4663
 2616SOL     OW19480   1.988   0.464   9.005  0.3704  0.7252 -0.0992
 2616SOL    HW119481   1.894   0.474   8.989  0.3618  0.0928 -0.4169
 2616SOL    HW219482   1.994   0.410   9.084  0.4134  1.7816  0.6260
 2617SOL     OW19483   0.063   2.539   9.300  0.1891  0.0290 -0.3787
 2617SOL    HW119484   4.725   2.551   9.247 -0.7433  1.2418  1.2897
 2617SOL    HW219485   0.121   2.607   9.267 -0.5458  1.7689  1.9273
 2618SOL     OW19486   3.941   1.431  12.150  0.6122  0.0733 -0.7243
 2618SOL    HW119487   3.986   1.402  12.071  0.0542 -0.5223 -0.8200
 2618SOL    HW219488   3.850   1.423  12.120 -0.4750  1.1415  2.2175
 2619SOL     OW19489   3.192   4.432   3.691  0.1245 -0.1296  0.5343
 2619SOL    HW119490   3.160   4.408   3.778  0.3407 -0.2713  0.5750
 2619SOL    HW219491   3.143   4.374   3.633  0.9644 -0.5752  0.2697
 2620SOL     OW19492   0.938   3.641  14.477  0.3997  0.3410  0.1770
 2620SOL    HW119493   1.006   3.691  14.431 -0.3759 -2.0273 -3.5520
 2620SOL    HW219494   0.862   3.664  14.424  0.5999 -0.8321 -0.6097
 2621SOL     OW19495   2.949   0.498   5.992 -0.2173 -0.0935  0.4434
 2621SOL    HW119496   2.983   0.577   5.950  1.3796 -0.9327  0.1749
 2621SOL    HW219497   2.884   0.539   6.050 -1.4373  0.6488 -1.4199
 2622SOL     OW19498   1.006   0.844   1.649  0.4378 -0.2362 -0.1096
 2622SOL    HW119499   0.987   0.812   1.737  2.3607 -2.8377 -0.6364
 2622SOL    HW219500   0.925   0.886   1.621  1.6746  1.7906 -0.6608
 2623SOL     OW19501   0.434   0.771   1.763 -0.0588 -0.4487 -0.1178
 2623SOL    HW119502   0.416   0.677   1.763 -1.4664 -0.1560 -1.2381
 2623SOL    HW219503   0.517   0.776   1.811 -1.1421 -4.2390  2.1873
 2624SOL     OW19504   0.756   0.888   7.616 -0.3018 -0.0026 -0.4230
 2624SOL    HW119505   0.674   0.876   7.664 -0.6120 -0.8863 -1.1942
 2624SOL    HW219506   0.772   0.983   7.615  0.7193 -0.1522  1.0815
 2625SOL     OW19507   0.816   2.601   5.319 -0.4167  0.0853 -0.1590
 2625SOL    HW119508   0.823   2.508   5.339  1.9147  0.0614 -1.1762
 2625SOL    HW219509   0.893   2.633   5.365 -0.2822 -0.7800  0.2165
 2626SOL     OW19510   1.800   2.495   9.023  0.3315  0.5828  1.2092
 2626SOL    HW119511   1.734   2.558   8.996 -1.0347 -0.7884  1.3147
 2626SOL    HW219512   1.785   2.487   9.118  1.0544 -1.7404  1.1375
 2627SOL     OW19513   2.824   0.564   5.457  0.8286 -0.5438 -0.1937
 2627SOL    HW119514   2.783   0.568   5.543 -0.5825 -2.6557 -0.7636
 2627SOL    HW219515   2.760   0.616   5.408  1.3544  0.0139 -0.2884
 2628SOL     OW19516   2.385   1.760   8.513  0.1463  0.4255 -0.2438
 2628SOL    HW119517   2.477   1.746   8.492 -0.3339  0.3508 -2.3563
 2628SOL    HW219518   2.385   1.738   8.606 -0.1742  1.0790 -0.0859
 2629SOL     OW19519   0.832   4.388  11.142 -0.0218  0.1624  0.4242
 2629SOL    HW119520   0.912   4.424  11.179 -0.4736  1.1643  0.4180
 2629SOL    HW219521   0.863   4.330  11.071  0.7631  0.9170  0.1564
 2630SOL     OW19522   0.353   3.275   3.890  0.4411 -0.3755 -0.1612
 2630SOL    HW119523   0.308   3.200   3.851  2.9689 -2.1279  0.2928
 2630SOL    HW219524   0.299   3.291   3.967  2.5219  2.6645  0.7068
 2631SOL     OW19525   2.220   0.570   5.104 -0.0285  0.2094  0.0378
 2631SOL    HW119526   2.298   0.619   5.077  0.8448 -1.0555  0.2159
 2631SOL    HW219527   2.168   0.633   5.154 -0.7294 -0.6698  0.4108
 2632SOL     OW19528   1.081   2.534  11.045 -0.3295 -1.2275 -0.0276
 2632SOL    HW119529   1.085   2.545  11.140  1.0959 -1.0561 -0.0983
 2632SOL    HW219530   1.009   2.472  11.036 -0.9221 -0.2911 -1.6589
 2633SOL     OW19531   3.089   1.281   5.367 -0.5925  0.2378 -0.7833
 2633SOL    HW119532   3.082   1.186   5.361 -0.6155 -0.0102  2.9780
 2633SOL    HW219533   3.017   1.307   5.425 -0.0798  0.5963 -0.2994
 2634SOL     OW19534   0.655   1.813  11.297 -0.1376  0.0455 -0.8149
 2634SOL    HW119535   0.706   1.875  11.351 -0.2321 -1.1266  0.6424
 2634SOL    HW219536   0.591   1.875  11.263  0.7025  1.5791  0.3591
 2635SOL     OW19537   3.841   3.012   3.327  0.1947 -0.1415  0.7694
 2635SOL    HW119538   3.909   3.022   3.394 -0.2976  1.1263  1.0816
 2635SOL    HW219539   3.890   3.010   3.245 -0.5189  0.2291  0.3343
 2636SOL     OW19540   0.689   3.410   2.498  0.4328 -0.1853  0.6813
 2636SOL    HW119541   0.708   3.334   2.553 -0.5547 -0.6519  0.3778
 2636SOL    HW219542   0.632   3.363   2.438  1.4802 -1.4510  0.6902
 2637SOL     OW19543   1.652   4.060  15.565  0.1629  0.2394  0.1743
 2637SOL    HW119544   1.560   4.081  15.576  0.1010  0.3367 -0.5582
 2637SOL    HW219545   1.648   3.964  15.566 -0.3270  0.2583  0.0475
 2638SOL     OW19546   0.113   2.119   7.868 -0.0499 -0.3481  0.2222
 2638SOL    HW119547   0.205   2.141   7.881 -0.2078  1.1010 -0.9991
 2638SOL    HW219548   0.116   2.030   7.834  0.3988  0.0099 -0.6749
 2639SOL     OW19549   0.366   0.067   9.962  0.0867  0.0260 -0.2712
 2639SOL    HW119550   0.367   0.110  10.047  0.8612 -0.6362  0.0559
 2639SOL    HW219551   0.272   0.070   9.940  0.4291 -1.5452 -1.9784
 2640SOL     OW19552   2.404   2.415   8.019  0.1912  0.1860 -0.3458
 2640SOL    HW119553   2.450   2.394   7.937  0.6024  1.5563 -0.4726
 2640SOL    HW219554   2.452   2.364   8.083 -0.3822 -1.2957 -1.0842
 2641SOL     OW19555   1.593   1.547  14.117 -0.1952  0.3947 -0.2463
 2641SOL    HW119556   1.632   1.621  14.071  0.1317 -0.4467 -1.3167
 2641SOL    HW219557   1.602   1.562  14.211 -1.2550 -1.1977  0.1101
 2642SOL     OW19558   0.536   3.560   5.557 -0.0565 -0.4211 -0.0755
 2642SOL    HW119559   0.486   3.605   5.625  1.0675 -1.6523  1.5809
 2642SOL    HW219560   0.467   3.507   5.518  0.3034 -2.0936  1.5339
 2643SOL     OW19561   4.295   4.482   0.377 -0.1770 -0.1784 -0.1193
 2643SOL    HW119562   4.322   4.530   0.455  1.3038 -1.0052 -0.1210
 2643SOL    HW219563   4.368   4.424   0.355  1.2964  0.4061  3.3747
 2644SOL     OW19564   0.007   0.484   4.704  0.1606  0.0691  0.0735
 2644SOL    HW119565   4.712   0.572   4.706  0.6300  0.2576  0.2102
 2644SOL    HW219566   4.707   0.447   4.626 -1.2269  0.0624  0.7990
 2645SOL     OW19567   0.522   2.786   6.891 -0.4006  0.6614 -0.8183
 2645SOL    HW119568   0.483   2.797   6.978 -2.3863  1.1252 -1.7761
 2645SOL    HW219569   0.594   2.850   6.892  0.8138 -0.7371  2.4117
 2646SOL     OW19570   1.509   3.685   8.813 -0.7596 -0.3970  0.0259
 2646SOL    HW119571   1.472   3.692   8.901  0.4616  0.5996  0.4606
 2646SOL    HW219572   1.451   3.749   8.773 -0.1519  0.3213  0.2881
 2647SOL     OW19573   1.526   2.112   7.328  0.0811  0.0071 -0.2742
 2647SOL    HW119574   1.471   2.168   7.382 -1.7121 -2.6128  0.6394
 2647SOL    HW219575   1.466   2.095   7.256 -0.8046  0.2440  0.4092
 2648SOL     OW19576   0.408   2.913  11.893  0.5296 -0.2353  0.1477
 2648SOL    HW119577   0.402   2.968  11.815  2.3746  1.2225  1.0475
 2648SOL    HW219578   0.317   2.916  11.924  1.2852  3.1343  2.1070
 2649SOL     OW19579   2.487   4.501   2.781 -0.2123 -0.2948  0.3730
 2649SOL    HW119580   2.544   4.484   2.856  0.1904 -1.4170 -0.2014
 2649SOL    HW219581   2.415   4.443   2.802 -0.6028 -0.1746 -0.6243
 2650SOL     OW19582   1.477   2.015  17.451  0.1882 -0.0732 -0.1104
 2650SOL    HW119583   1.538   2.084  17.478 -0.0176 -0.1975  0.6839
 2650SOL    HW219584   1.402   2.069  17.426  0.3605  0.3656  0.3099
 2651SOL     OW19585   2.510   0.613   8.435  0.0020  0.0262  0.1164
 2651SOL    HW119586   2.484   0.595   8.526 -0.3864  0.9044  0.1784
 2651SOL    HW219587   2.424   0.649   8.415  0.0352 -1.2837 -2.3664
 2652SOL     OW19588   4.487   3.572   2.552 -0.1576  0.8143 -0.4185
 2652SOL    HW119589   4.550   3.502   2.536 -0.6459  0.0134  1.1156
 2652SOL    HW219590   4.516   3.644   2.496 -0.6202  0.8542 -0.6072
 2653SOL     OW19591   2.324   1.828  14.358  0.4390  0.5598  0.0589
 2653SOL    HW119592   2.272   1.907  14.373  0.3278  0.6023 -0.5524
 2653SOL    HW219593   2.263   1.756  14.373  1.3542  0.1255  1.7893
 2654SOL     OW19594   2.027   4.523   2.018 -0.1151 -0.1435  0.0089
 2654SOL    HW119595   2.026   4.469   1.939  1.4475 -2.4015  1.5470
 2654SOL    HW219596   1.993   4.605   1.983 -2.7430 -1.8328 -1.4528
 2655SOL     OW19597   0.450   2.476   8.163 -0.0248 -0.0075 -0.2172
 2655SOL    HW119598   0.454   2.501   8.255 -1.6170 -0.1438 -0.1133
 2655SOL    HW219599   0.362   2.499   8.132 -0.6042 -2.8342 -0.6805
 2656SOL     OW19600   3.575   4.342   3.111  0.3747 -0.3561  0.7247
 2656SOL    HW119601   3.640   4.359   3.043 -1.6285  0.3393 -1.0227
 2656SOL    HW219602   3.493   4.327   3.063 -0.3899  1.4045  1.4683
 2657SOL     OW19603   1.168   2.617  12.443 -0.7671  0.0763  0.2536
 2657SOL    HW119604   1.087   2.665  12.459 -0.2502  1.3538 -0.9569
 2657SOL    HW219605   1.178   2.569  12.525  0.1180  0.6245  0.4705
 2658SOL     OW19606   0.050   1.888   5.604  0.0089 -0.0654  0.2696
 2658SOL    HW119607   4.729   1.927   5.542  0.4544 -1.1393 -0.8290
 2658SOL    HW219608   0.130   1.933   5.578 -1.9360  3.6161  0.6190
 2659SOL     OW19609   1.449   1.555   3.480 -0.4751 -0.2359  0.5243
 2659SOL    HW119610   1.375   1.525   3.426 -0.0451 -1.0157  0.3646
 2659SOL    HW219611   1.431   1.648   3.486 -1.2080 -0.2337 -1.4518
 2660SOL     OW19612   2.463   0.920  16.239  0.2598  0.0414 -0.1469
 2660SOL    HW119613   2.405   0.860  16.192 -0.3666  0.8271 -0.3746
 2660SOL    HW219614   2.418   1.004  16.232 -2.2735 -1.4878 -2.3830
 2661SOL     OW19615   3.438   0.859   8.873 -0.0228 -0.5751  0.4169
 2661SOL    HW119616   3.527   0.883   8.900 -0.1471 -0.1244  0.4234
 2661SOL    HW219617   3.398   0.850   8.960  1.3471  0.9357  1.2225
 2662SOL     OW19618   1.892   0.656   9.457  0.3987  0.0054  0.1061
 2662SOL    HW119619   1.928   0.671   9.369 -3.4700  1.6147 -1.1951
 2662SOL    HW219620   1.978   0.662   9.499  0.0640  3.2464  0.3637
 2663SOL     OW19621   1.763   0.426   6.562  0.4482 -0.4034 -0.2068
 2663SOL    HW119622   1.737   0.512   6.595 -0.7544 -2.5012  4.3293
 2663SOL    HW219623   1.720   0.359   6.615 -1.7944  0.9410 -0.3243
 2664SOL     OW19624   0.647   1.581   1.493  0.4500  0.1002 -0.7356
 2664SOL    HW119625   0.595   1.656   1.463 -1.1548 -1.1254 -1.0424
 2664SOL    HW219626   0.618   1.514   1.431  0.0810  0.8251 -1.3599
 2665SOL     OW19627   4.496   0.313  12.725 -0.1227 -0.1762 -0.5644
 2665SOL    HW119628   4.564   0.311  12.793  2.8458  1.9535 -3.5060
 2665SOL    HW219629   4.449   0.394  12.746  1.6786  1.0981 -1.4385
 2666SOL     OW19630   1.303   3.789   5.290  0.1993 -0.5552  0.1867
 2666SOL    HW119631   1.276   3.740   5.368  1.9250 -1.0285  0.4852
 2666SOL    HW219632   1.261   3.874   5.296  0.7405 -0.3004  0.3643
 2667SOL     OW19633   0.397   2.757   7.437  0.3250  0.0045 -0.1972
 2667SOL    HW119634   0.339   2.770   7.512  0.1485  0.2954 -0.3868
 2667SOL    HW219635   0.405   2.661   7.439 -1.3739 -0.2071 -3.5158
 2668SOL     OW19636   2.302   0.123   4.525 -0.5763  0.4235 -0.5647
 2668SOL    HW119637   2.387   0.116   4.483 -0.4381 -0.6470 -0.0974
 2668SOL    HW219638   2.248   0.100   4.450 -1.3308 -0.0384  0.1171
 2669SOL     OW19639   0.619   4.049   7.645  0.0142  0.1460 -0.1415
 2669SOL    HW119640   0.673   4.126   7.625  0.9495 -0.0524  1.6399
 2669SOL    HW219641   0.692   3.988   7.657  1.0570  1.2260 -0.9139
 2670SOL     OW19642   2.608   2.074   4.586 -0.0701 -0.2541 -0.2997
 2670SOL    HW119643   2.547   2.008   4.554 -3.0554  1.9796  0.7019
 2670SOL    HW219644   2.662   2.083   4.507 -0.0522  2.8145  0.0389
 2671SOL     OW19645   2.621   3.338   6.233 -0.6589 -0.4911 -0.2262
 2671SOL    HW119646   2.653   3.255   6.268  0.7178 -0.3148 -1.0371
 2671SOL    HW219647   2.684   3.395   6.277  0.4380 -1.3071 -0.7223
 2672SOL     OW19648   1.642   2.280   2.900  0.0232 -0.6359 -0.1059
 2672SOL    HW119649   1.717   2.338   2.907 -0.4553  0.0603 -0.7048
 2672SOL    HW219650   1.599   2.313   2.821 -0.8871 -0.3515  0.5087
 2673SOL     OW19651   3.429   0.626   6.864 -0.1847 -0.1771  0.1523
 2673SOL    HW119652   3.484   0.550   6.843 -0.0793 -0.2080  0.5350
 2673SOL    HW219653   3.373   0.584   6.930  1.1468 -0.1649  1.2957
 2674SOL     OW19654   0.425   4.350   6.406  0.3669 -0.3554  0.0050
 2674SOL    HW119655   0.492   4.417   6.397  1.1829 -1.2695 -0.8089
 2674SOL    HW219656   0.371   4.381   6.479 -1.0864  1.3726 -1.8416
 2675SOL     OW19657   3.106   4.150   4.149 -0.7352  0.5116  0.1781
 2675SOL    HW119658   3.043   4.078   4.158 -1.5600  1.5376  2.4958
 2675SOL    HW219659   3.181   4.096   4.125 -0.3358  0.2196  2.1087
 2676SOL     OW19660   0.393   4.020   5.407 -0.4787 -0.0453  0.1940
 2676SOL    HW119661   0.379   4.098   5.353 -1.1204 -0.9312 -0.9172
 2676SOL    HW219662   0.437   3.958   5.350 -2.0122 -1.7734  0.8697
 2677SOL     OW19663   3.814   4.699   7.711  1.0869  0.0516  0.3814
 2677SOL    HW119664   3.851   4.693   7.800  2.2059 -2.4815 -0.2714
 2677SOL    HW219665   3.803   4.607   7.687  3.2130  1.0272 -4.4025
 2678SOL     OW19666   4.673   3.428  10.919  0.2690 -0.0178 -0.2638
 2678SOL    HW119667   4.650   3.338  10.939  1.5512 -0.1618  0.5082
 2678SOL    HW219668   0.022   3.435  10.950  0.0437 -0.4554  0.4900
 2679SOL     OW19669   1.780   0.603   2.636  0.1769 -0.0358  0.4769
 2679SOL    HW119670   1.804   0.682   2.589  0.7188 -0.5918 -0.1813
 2679SOL    HW219671   1.732   0.638   2.711 -0.6302 -0.5564  0.2087
 2680SOL     OW19672   0.869   1.880  15.480 -0.8335  0.3091 -0.2653
 2680SOL    HW119673   0.775   1.896  15.490 -0.8681  0.5952 -1.0720
 2680SOL    HW219674   0.882   1.922  15.395 -0.0130 -2.5041 -1.5260
 2681SOL     OW19675   2.891   0.741   2.427 -0.6934 -0.1287 -0.5480
 2681SOL    HW119676   2.934   0.719   2.509 -0.3021  0.2720 -0.6469
 2681SOL    HW219677   2.951   0.808   2.393  1.2082 -0.8623  1.4097
 2682SOL     OW19678   2.543   2.008   8.627 -0.1412 -0.2788  0.1326
 2682SOL    HW119679   2.530   2.013   8.722 -1.2723  0.2484 -0.0442
 2682SOL    HW219680   2.612   1.942   8.623 -0.3695 -0.5198  0.1778
 2683SOL     OW19681   1.872   4.119   6.391 -0.2566 -0.1883  0.5360
 2683SOL    HW119682   1.823   4.139   6.470 -1.0909  1.0245 -0.2837
 2683SOL    HW219683   1.825   4.043   6.357 -0.9180  0.2939  0.3756
 2684SOL     OW19684   1.592   1.618   5.531 -0.1754  0.3830  0.0789
 2684SOL    HW119685   1.615   1.692   5.476  0.4501 -0.1339 -0.3565
 2684SOL    HW219686   1.497   1.617   5.517 -0.4385  0.7786  1.8515
 2685SOL     OW19687   0.870   3.337  10.593 -0.1128 -0.0497 -0.0197
 2685SOL    HW119688   0.824   3.253  10.597 -1.0097  0.4780  0.7566
 2685SOL    HW219689   0.794   3.391  10.612 -0.6359 -0.7974  0.0417
 2686SOL     OW19690   3.841   4.447   2.181  0.3193 -0.2607  0.1854
 2686SOL    HW119691   3.891   4.461   2.101 -0.4797 -0.7254 -0.3896
 2686SOL    HW219692   3.773   4.514   2.170 -1.9182 -2.2076  2.3183
 2687SOL     OW19693   2.699   4.206   8.034  0.1764  0.0223  0.2137
 2687SOL    HW119694   2.694   4.111   8.035 -0.7339  0.0505 -0.9538
 2687SOL    HW219695   2.614   4.222   8.077  0.0938 -0.1690  0.1197
 2688SOL     OW19696   3.004   4.489  15.335  1.3074 -0.2168  0.3350
 2688SOL    HW119697   3.038   4.550  15.400 -2.4238  0.0778  1.9823
 2688SOL    HW219698   3.072   4.512  15.271 -0.5858 -1.3678 -2.1165
 2689SOL     OW19699   1.180   3.602   2.727  0.6896 -0.1428 -0.0779
 2689SOL    HW119700   1.252   3.604   2.664  0.9524  0.0621  0.2283
 2689SOL    HW219701   1.203   3.678   2.780  0.2684 -0.0703  0.0009
 2690SOL     OW19702   3.095   2.227   4.995  0.2670  0.3839  0.7196
 2690SOL    HW119703   3.177   2.261   4.958 -0.0143 -0.1050 -0.3630
 2690SOL    HW219704   3.093   2.270   5.080  0.1907 -2.9844  2.4028
 2691SOL     OW19705   1.279   3.631   7.504 -0.1910 -0.1174  0.0163
 2691SOL    HW119706   1.358   3.579   7.513 -0.1411 -0.0030  0.2533
 2691SOL    HW219707   1.333   3.709   7.516  1.0527 -0.7114 -1.7225
 2692SOL     OW19708   3.192   4.120  11.873 -0.6328 -0.0903  0.1378
 2692SOL    HW119709   3.279   4.099  11.907 -0.5633 -1.0424 -0.6443
 2692SOL    HW219710   3.168   4.041  11.825  2.8408 -0.0561 -1.5995
 2693SOL     OW19711   4.588   1.188   0.280 -0.2027  0.5494 -0.1600
 2693SOL    HW119712   4.604   1.209   0.187  0.2133  0.2980 -0.1432
 2693SOL    HW219713   4.640   1.108   0.284  1.5841  1.6564 -1.0884
 2694SOL     OW19714   4.154   1.998   2.833  0.2825 -0.2702 -1.0046
 2694SOL    HW119715   4.210   1.946   2.776  0.4174 -0.1685 -0.9644
 2694SOL    HW219716   4.073   1.950   2.815  1.1795 -2.4804  0.7251
 2695SOL     OW19717   1.504   3.274  12.549 -0.3523  0.0501 -0.5095
 2695SOL    HW119718   1.530   3.360  12.582 -2.2280  0.6958 -0.7129
 2695SOL    HW219719   1.576   3.235  12.501  0.7875 -1.4907  2.4226
 2696SOL     OW19720   2.774   1.742   1.681 -0.1226  0.1989 -0.3532
 2696SOL    HW119721   2.755   1.783   1.765  0.7258  1.4586 -0.7880
 2696SOL    HW219722   2.867   1.765   1.680  0.0248 -0.3984 -0.4023
 2697SOL     OW19723   3.664   3.036   2.803 -0.0373  0.2700 -0.2874
 2697SOL    HW119724   3.759   3.023   2.804 -0.0953  0.1215  2.2071
 2697SOL    HW219725   3.639   3.083   2.723 -0.3094  1.1150  0.2959
 2698SOL     OW19726   0.106   3.033   7.423  0.1917  0.0382 -0.2552
 2698SOL    HW119727   0.094   3.007   7.514  3.1724  2.8182  0.8946
 2698SOL    HW219728   0.013   3.049   7.403  0.1855 -1.2599 -1.2504
 2699SOL     OW19729   3.217   1.428   3.503  0.2343 -0.1624 -0.2553
 2699SOL    HW119730   3.144   1.443   3.562 -0.6681  0.2004 -1.4610
 2699SOL    HW219731   3.175   1.444   3.418 -0.2906  1.4089  0.2971
 2700SOL     OW19732   1.068   0.513  16.378 -0.4405 -0.0510  0.4396
 2700SOL    HW119733   1.102   0.516  16.467  2.7969 -0.7821 -0.7719
 2700SOL    HW219734   0.993   0.461  16.406 -0.0482 -0.7109  0.2591
 2701SOL     OW19735   0.648   2.349   8.920  0.3403 -0.0118  0.4921
 2701SOL    HW119736   0.638   2.346   9.015 -2.4222  0.7321  0.2050
 2701SOL    HW219737   0.628   2.258   8.900 -3.6225  1.2403 -1.2373
 2702SOL     OW19738   1.542   1.524   7.240 -0.1367 -0.2441  0.5464
 2702SOL    HW119739   1.458   1.479   7.227  0.8714 -2.8664  2.9059
 2702SOL    HW219740   1.518   1.616   7.248  1.2917  0.0668  1.3053
 2703SOL     OW19741   0.861   4.206  15.045  0.2193  0.1452  0.0506
 2703SOL    HW119742   0.948   4.246  15.051  0.5103 -0.9935  3.2794
 2703SOL    HW219743   0.864   4.121  15.088 -0.8102  1.3462  2.5155
 2704SOL     OW19744   1.617   2.692  11.999 -0.2702  0.6235  0.7515
 2704SOL    HW119745   1.594   2.762  12.060 -1.3304  1.7852 -1.0170
 2704SOL    HW219746   1.554   2.717  11.932  0.2127  1.0194  0.4549
 2705SOL     OW19747   0.279   4.318   4.989  0.4878 -0.0182  0.4148
 2705SOL    HW119748   0.201   4.311   5.045 -0.4699 -0.5376 -0.9850
 2705SOL    HW219749   0.290   4.413   4.985 -0.6385  0.1022  0.3507
 2706SOL     OW19750   2.505   2.257  16.720  0.1876  0.2244 -0.1678
 2706SOL    HW119751   2.561   2.207  16.660 -0.7196 -0.8982 -0.0715
 2706SOL    HW219752   2.443   2.188  16.744  2.1135 -0.9661  1.4440
 2707SOL     OW19753   0.362   1.613   2.324  0.0103  0.0517 -0.4965
 2707SOL    HW119754   0.428   1.680   2.309  0.0867 -0.1465 -1.0312
 2707SOL    HW219755   0.384   1.556   2.251  2.1082  0.4858 -0.2038
 2708SOL     OW19756   2.613   3.941  12.700 -0.2872 -0.0378  0.6981
 2708SOL    HW119757   2.664   3.862  12.715  1.1105  0.5883 -0.6894
 2708SOL    HW219758   2.677   4.012  12.692  0.2143 -0.5156  0.4586
 2709SOL     OW19759   2.745   1.036  15.912 -0.0749  0.7323  0.3209
 2709SOL    HW119760   2.697   1.106  15.957 -2.7066  2.1341 -4.6916
 2709SOL    HW219761   2.748   0.984  15.993  1.3980 -0.4870 -0.5057
 2710SOL     OW19762   2.285   2.979   5.382 -0.3136 -0.0722 -0.3915
 2710SOL    HW119763   2.263   3.066   5.413  1.0040  1.0330 -2.5181
 2710SOL    HW219764   2.258   2.988   5.290 -1.5110  0.1753 -0.0174
 2711SOL     OW19765   1.175   2.078   8.122  0.4135 -0.0092  0.0160
 2711SOL    HW119766   1.101   2.059   8.180 -0.6644 -0.6953 -1.5899
 2711SOL    HW219767   1.243   2.027   8.165  0.7826  0.9101  0.5173
 2712SOL     OW19768   1.637   0.948   2.027  0.4965 -0.1466 -0.1898
 2712SOL    HW119769   1.629   1.012   1.956  1.7675 -0.7873 -0.9110
 2712SOL    HW219770   1.686   0.992   2.095  1.6107 -0.7966 -0.5742
 2713SOL     OW19771   1.157   1.871   6.675 -0.0837  0.1904 -0.2740
 2713SOL    HW119772   1.190   1.945   6.725  1.6497  0.1797 -1.4026
 2713SOL    HW219773   1.235   1.857   6.621 -0.3972 -0.2340 -0.6229
 2714SOL     OW19774   1.374   2.056   3.281 -0.0660  0.5801  0.8137
 2714SOL    HW119775   1.452   2.006   3.306  0.1869  0.7412  0.3470
 2714SOL    HW219776   1.373   2.040   3.187  1.0872  1.2696  0.6841
 2715SOL     OW19777   2.740   4.490  15.300 -0.3114 -0.4479 -0.2335
 2715SOL    HW119778   2.835   4.483  15.291 -0.3197 -0.9525  0.0848
 2715SOL    HW219779   2.714   4.411  15.253  0.5256 -0.4806 -0.6357
 2716SOL     OW19780   0.117   1.797  13.324 -0.3185 -0.4808  0.0231
 2716SOL    HW119781   0.028   1.763  13.334  0.5151 -2.6028  0.1507
 2716SOL    HW219782   0.110   1.847  13.243  0.2033 -1.5545 -0.6748
 2717SOL     OW19783   2.932   2.716   6.382 -0.4919  0.2908  0.1593
 2717SOL    HW119784   2.877   2.712   6.303  1.3626 -0.2741 -1.1056
 2717SOL    HW219785   2.910   2.632   6.423 -1.4257  0.0063 -0.8909
 2718SOL     OW19786   2.794   0.105   4.971 -0.0249 -0.1413  0.7272
 2718SOL    HW119787   2.800   0.045   4.896 -0.6021 -0.2842  0.7946
 2718SOL    HW219788   2.754   0.042   5.031 -0.6417 -1.9689 -1.6010
 2719SOL     OW19789   1.405   1.162   7.032  0.4168 -0.3493  0.2938
 2719SOL    HW119790   1.334   1.098   7.031 -0.3814  0.5076  1.3114
 2719SOL    HW219791   1.474   1.109   6.992  1.3394  0.7215  0.4510
 2720SOL     OW19792   0.642   0.586   5.999  0.2746  0.1905  0.5168
 2720SOL    HW119793   0.618   0.668   6.042 -0.4649  0.5938 -0.6829
 2720SOL    HW219794   0.725   0.570   6.044  0.4369 -1.1622 -0.2689
 2721SOL     OW19795   3.705   0.027   4.421  0.6633  0.3414  0.1978
 2721SOL    HW119796   3.618   0.039   4.383  0.8880 -1.6256 -0.9586
 2721SOL    HW219797   3.749   4.723   4.349  0.8743  0.0493  0.5075
 2722SOL     OW19798   1.749   4.001   2.846 -0.4909  0.0799  0.5285
 2722SOL    HW119799   1.817   4.054   2.804 -0.3949 -0.1645  0.3768
 2722SOL    HW219800   1.762   3.919   2.798 -0.5822  1.2582 -1.4601
 2723SOL     OW19801   4.539   4.436  13.586  0.4262  0.0811  0.6402
 2723SOL    HW119802   4.537   4.493  13.509  1.5502 -2.1007 -0.9932
 2723SOL    HW219803   4.536   4.504  13.654 -0.7791 -0.3547  1.0313
 2724SOL     OW19804   4.334   0.409   7.022  0.3383  0.3288  0.2236
 2724SOL    HW119805   4.251   0.418   7.068  1.7884  3.4308  2.2394
 2724SOL    HW219806   4.294   0.359   6.951  2.8802  0.7428 -1.5352
 2725SOL     OW19807   1.880   3.909   4.270 -0.5756  0.5473 -0.1729
 2725SOL    HW119808   1.916   3.997   4.273  0.0578  0.3130 -0.8387
 2725SOL    HW219809   1.885   3.884   4.362 -2.3810  3.2763  0.6751
 2726SOL     OW19810   1.172   4.076  11.735 -0.5255 -0.7360  0.3487
 2726SOL    HW119811   1.252   4.088  11.685  0.8485  2.0544  3.2204
 2726SOL    HW219812   1.193   3.984  11.751  0.8156 -0.3126  1.0509
 2727SOL     OW19813   0.151   0.193   0.322 -0.5768  0.1247 -0.5118
 2727SOL    HW119814   0.166   0.111   0.370  0.4474  0.8938  0.4887
 2727SOL    HW219815   0.244   0.216   0.312 -0.9709  1.7543 -0.3907
 2728SOL     OW19816   3.985   2.940  13.364  0.4121 -0.4312  0.0118
 2728SOL    HW119817   3.926   2.977  13.299  1.4511  1.5792  0.2132
 2728SOL    HW219818   4.035   3.013  13.399 -0.1303  0.8649 -1.9347
 2729SOL     OW19819   1.441   1.701  17.709  0.3867 -0.6878 -0.2703
 2729SOL    HW119820   1.534   1.686  17.696 -0.0452 -1.5386 -2.4512
 2729SOL    HW219821   1.402   1.624  17.667  1.9557 -1.3748 -0.4385
 2730SOL     OW19822   1.813   3.064  17.608  0.4661  0.0077 -0.3533
 2730SOL    HW119823   1.866   3.081  17.686  1.0376 -0.5889 -0.6076
 2730SOL    HW219824   1.764   2.984  17.626 -0.0902  1.0912  2.9061
 2731SOL     OW19825   2.159   4.241   8.308  0.7414  0.0145  0.0389
 2731SOL    HW119826   2.225   4.240   8.378  2.1860 -0.4226 -1.3274
 2731SOL    HW219827   2.086   4.200   8.354 -0.8019 -0.7999 -3.1742
 2732SOL     OW19828   4.423   4.683   4.085  0.4862  0.0746  0.2335
 2732SOL    HW119829   4.454   4.593   4.099 -0.7365 -0.6953 -2.0557
 2732SOL    HW219830   4.474   4.715   4.011 -1.4550  1.1028 -0.6411
 2733SOL     OW19831   2.263   3.306   7.945 -0.2780 -0.1948 -0.3466
 2733SOL    HW119832   2.305   3.391   7.930 -2.0051  0.4142 -1.6931
 2733SOL    HW219833   2.313   3.269   8.018  0.9546  0.4818 -0.8333
 2734SOL     OW19834   0.906   0.654   4.556 -0.4188  0.5177 -0.1081
 2734SOL    HW119835   0.975   0.707   4.595 -2.2619  0.2393  3.5716
 2734SOL    HW219836   0.954   0.578   4.524 -0.8574  1.1102 -2.2259
 2735SOL     OW19837   3.150   4.642  15.501 -0.1753  0.0192  0.3491
 2735SOL    HW119838   3.210   4.717  15.495  0.7146 -0.6615  0.8421
 2735SOL    HW219839   3.199   4.595  15.568  0.2298  1.5418  1.1136
 2736SOL     OW19840   2.801   1.073   5.617  0.1448  0.3300 -0.1625
 2736SOL    HW119841   2.801   1.168   5.629  3.2416  0.3815 -0.7011
 2736SOL    HW219842   2.794   1.058   5.523 -0.1698 -0.0289 -0.0809
 2737SOL     OW19843   0.067   2.129   5.890 -0.0848  0.7349  0.8679
 2737SOL    HW119844   0.120   2.177   5.954 -2.5061  2.1720  1.7972
 2737SOL    HW219845   4.724   2.138   5.935  0.2552  2.2736  1.1931
 2738SOL     OW19846   2.421   4.353   5.229 -0.1135  0.0172 -0.3774
 2738SOL    HW119847   2.369   4.390   5.301 -1.0510 -2.3676  0.1592
 2738SOL    HW219848   2.353   4.333   5.164 -1.0753  1.3093  0.2339
 2739SOL     OW19849   1.970   0.786   2.621  0.1425  0.8831 -0.4867
 2739SOL    HW119850   1.996   0.707   2.669 -1.7146 -0.9128 -2.4543
 2739SOL    HW219851   2.028   0.779   2.545 -0.5033  0.7860 -0.9716
 2740SOL     OW19852   1.880   2.695   6.457 -0.1388  0.5090  0.0311
 2740SOL    HW119853   1.865   2.618   6.403 -1.5164  0.3402  0.6371
 2740SOL    HW219854   1.790   2.713   6.485 -0.5203  0.7786 -1.4064
 2741SOL     OW19855   0.356   2.429   1.993 -0.4874 -0.5108  0.3994
 2741SOL    HW119856   0.448   2.426   2.017 -0.0275 -0.5109 -1.3534
 2741SOL    HW219857   0.323   2.380   2.068 -1.6865  0.8603  0.7729
 2742SOL     OW19858   0.175   3.366   8.970 -0.1535  0.0286 -0.2727
 2742SOL    HW119859   0.083   3.368   8.997  0.1261 -0.5306  0.7117
 2742SOL    HW219860   0.187   3.455   8.937 -3.4246  0.8890  0.9060
 2743SOL     OW19861   4.232   0.124   5.846 -0.5801  0.6555  0.0760
 2743SOL    HW119862   4.153   0.074   5.826 -0.2285  1.4717 -3.2519
 2743SOL    HW219863   4.243   0.104   5.939  0.0770 -0.8331 -0.3175
 2744SOL     OW19864   1.906   2.737   1.702  0.2458  0.3666 -0.7192
 2744SOL    HW119865   1.859   2.656   1.683  1.0366  0.0809 -1.4917
 2744SOL    HW219866   1.836   2.802   1.707 -0.1233 -0.1658  1.0514
 2745SOL     OW19867   3.140   2.396   9.561 -0.1828  0.0801 -0.0838
 2745SOL    HW119868   3.206   2.378   9.628  1.1544 -0.9726 -1.6944
 2745SOL    HW219869   3.141   2.492   9.565  0.2951  0.0880 -0.3284
 2746SOL     OW19870   3.096   2.623   5.770 -0.0002  0.1102 -0.1029
 2746SOL    HW119871   3.107   2.571   5.690  1.3708 -0.9835  0.7935
 2746SOL    HW219872   3.001   2.632   5.766 -0.1933 -1.1877  1.5565
 2747SOL     OW19873   2.441   3.727   6.070  0.1596  0.1321  0.7395
 2747SOL    HW119874   2.416   3.636   6.051 -1.6196  1.5757 -3.8017
 2747SOL    HW219875   2.362   3.770   6.102 -0.9055 -0.9658 -0.3881
 2748SOL     OW19876   3.473   2.440   9.031 -0.0191  0.3868 -0.4583
 2748SOL    HW119877   3.541   2.374   9.050 -0.5904 -0.3006 -0.8079
 2748SOL    HW219878   3.526   2.520   9.033  0.0225  0.3456  0.0262
 2749SOL     OW19879   0.641   3.627  16.426  0.6131 -0.3054  0.5108
 2749SOL    HW119880   0.720   3.617  16.480  0.1577 -2.4170  0.7692
 2749SOL    HW219881   0.674   3.694  16.365 -0.1853 -0.6884 -0.3328
 2750SOL     OW19882   1.903   2.420   3.893 -0.1531  0.3212  0.7954
 2750SOL    HW119883   1.819   2.415   3.938  0.0974  0.4670  1.2789
 2750SOL    HW219884   1.918   2.326   3.890 -1.1494  0.0743  3.5864
 2751SOL     OW19885   4.126   1.679   7.408  0.0610 -1.0145  0.1990
 2751SOL    HW119886   4.120   1.752   7.469 -0.7051  1.4655 -2.8522
 2751SOL    HW219887   4.190   1.710   7.344 -1.6493  0.4132 -0.8120
 2752SOL     OW19888   0.523   3.816   6.425 -0.3183  0.8312 -0.6297
 2752SOL    HW119889   0.533   3.909   6.443 -0.4993  1.1240 -2.0433
 2752SOL    HW219890   0.481   3.797   6.509 -0.3505  0.5734 -0.7032
 2753SOL     OW19891   2.194   1.364   1.100 -0.6097 -0.8183  0.1294
 2753SOL    HW119892   2.227   1.275   1.086  1.8614 -0.0522  1.1033
 2753SOL    HW219893   2.110   1.354   1.144 -1.5009  0.4936 -1.2722
 2754SOL     OW19894   0.416   2.665   6.176 -0.2541 -0.2551 -0.1247
 2754SOL    HW119895   0.475   2.656   6.101  2.9485 -1.9429  2.5910
 2754SOL    HW219896   0.367   2.744   6.154  0.7750  0.5396  0.3882
 2755SOL     OW19897   3.011   4.318  12.011 -0.3476  0.2215 -0.2764
 2755SOL    HW119898   2.996   4.398  11.960 -0.7827  0.0711 -0.3870
 2755SOL    HW219899   3.089   4.295  11.962  0.7625  3.5080 -0.1032
 2756SOL     OW19900   1.526   1.609   4.196 -0.5951 -0.7402 -0.7131
 2756SOL    HW119901   1.600   1.563   4.156  0.3588 -0.5527  0.8726
 2756SOL    HW219902   1.508   1.685   4.140  2.3814  2.2418  2.4394
 2757SOL     OW19903   3.335   3.977   6.804 -0.2202  0.7103 -0.0429
 2757SOL    HW119904   3.271   3.999   6.736  0.2629 -1.0673 -1.0627
 2757SOL    HW219905   3.352   3.885   6.783 -0.1830  1.3569 -2.8726
 2758SOL     OW19906   0.919   2.776   0.750  0.0338  0.1073  0.2435
 2758SOL    HW119907   0.973   2.815   0.819  0.5974  2.6231 -1.6222
 2758SOL    HW219908   0.954   2.819   0.672 -0.2086  0.2985  0.2402
 2759SOL     OW19909   4.316   2.065  11.162 -0.3090 -0.3407 -0.1773
 2759SOL    HW119910   4.281   2.153  11.175 -2.3160 -1.2510  0.5560
 2759SOL    HW219911   4.320   2.065  11.066 -1.6070  1.0203 -0.2303
 2760SOL     OW19912   1.723   0.897   2.576 -0.5764 -0.1592 -0.0538
 2760SOL    HW119913   1.811   0.896   2.537 -0.1191  0.8560  0.9531
 2760SOL    HW219914   1.734   0.970   2.636 -1.0520 -0.1326 -0.0023
 2761SOL     OW19915   2.817   3.094   2.877 -0.3305  0.2749 -0.0679
 2761SOL    HW119916   2.773   3.016   2.841  0.6948 -0.7440  0.9133
 2761SOL    HW219917   2.797   3.085   2.970  3.0231  0.9979  0.7110
 2762SOL     OW19918   2.728   2.856   7.164  0.1204  0.3795 -0.2356
 2762SOL    HW119919   2.677   2.870   7.243 -0.7428 -1.2608 -0.5016
 2762SOL    HW219920   2.659   2.890   7.107 -0.7667  0.7110  1.0392
 2763SOL     OW19921   4.495   2.430   1.435  0.1878  0.0472 -0.1064
 2763SOL    HW119922   4.547   2.419   1.356 -1.5630  3.0872 -1.6867
 2763SOL    HW219923   4.507   2.522   1.460 -1.4882  1.0658 -3.0758
 2764SOL     OW19924   4.617   0.274   8.887  0.1936  0.4196  0.3231
 2764SOL    HW119925   4.664   0.227   8.956  0.6301  0.9504  0.3922
 2764SOL    HW219926   4.656   0.361   8.882  0.6892  0.2806  1.7328
 2765SOL     OW19927   2.309   1.351   7.949  1.1759 -0.5771  0.3331
 2765SOL    HW119928   2.303   1.257   7.932  0.9854 -0.6172  0.6332
 2765SOL    HW219929   2.268   1.357   8.035 -0.4970 -1.4386 -0.4071
 2766SOL     OW19930   4.726   4.163   4.392  0.6821  0.8017  0.4418
 2766SOL    HW119931   0.024   4.098   4.451  2.0071 -1.4996 -2.9779
 2766SOL    HW219932   0.060   4.220   4.373  0.3306  1.9754  2.6643
 2767SOL     OW19933   1.775   0.235   5.799  0.1878  0.2971 -0.0650
 2767SOL    HW119934   1.871   0.232   5.801  0.2088 -0.0668 -1.7678
 2767SOL    HW219935   1.767   0.225   5.894  1.6276  0.9004  0.1193
 2768SOL     OW19936   0.267   1.624   0.297  0.0920 -0.0907 -0.4170
 2768SOL    HW119937   0.174   1.611   0.277 -0.6255  1.9742  1.5620
 2768SOL    HW219938   0.285   1.694   0.235  0.5265 -0.0397 -0.2324
 2769SOL     OW19939   1.460   2.490   0.581  0.0375  0.1798 -0.2395
 2769SOL    HW119940   1.443   2.397   0.599 -1.7062  0.9454  2.0940
 2769SOL    HW219941   1.382   2.538   0.609  0.8472  1.6502 -0.4912
 2770SOL     OW19942   2.485   2.627   6.989  0.8550  0.2992 -0.2699
 2770SOL    HW119943   2.555   2.593   6.933  1.7367 -0.1215  1.0816
 2770SOL    HW219944   2.503   2.718   6.967 -0.1929  0.0058 -2.3654
 2771SOL     OW19945   2.698   0.005   6.458 -0.2330 -0.0000  0.3407
 2771SOL    HW119946   2.742   0.072   6.510 -0.7564 -0.6917  1.6651
 2771SOL    HW219947   2.714   4.674   6.519 -2.4654 -1.4633 -0.7876
 2772SOL     OW19948   4.290   2.537  10.615 -0.6202  0.0791  0.0989
 2772SOL    HW119949   4.320   2.549  10.525  1.9794 -0.8763  0.8410
 2772SOL    HW219950   4.361   2.575  10.668  1.0944 -0.1550 -2.0567
 2773SOL     OW19951   2.020   1.252  16.595 -0.1467 -0.0586  0.0513
 2773SOL    HW119952   2.045   1.344  16.601  1.9018 -0.4722 -2.0028
 2773SOL    HW219953   1.960   1.248  16.670 -0.1203  0.0398  0.0775
 2774SOL     OW19954   0.318   2.698  16.773 -0.6936 -0.5700 -0.5222
 2774SOL    HW119955   0.409   2.672  16.762 -0.8660 -0.2797 -2.6808
 2774SOL    HW219956   0.273   2.679  16.690 -0.8488 -0.0984 -0.5446
 2775SOL     OW19957   2.350   1.240   7.100  0.2238 -0.0969  0.6167
 2775SOL    HW119958   2.288   1.175   7.131 -2.9355  2.5041 -0.2621
 2775SOL    HW219959   2.336   1.248   7.006 -0.2345  1.1153  0.7852
 2776SOL     OW19960   2.712   1.931   6.189  0.4571 -0.1566 -0.0197
 2776SOL    HW119961   2.714   1.914   6.283 -0.2164  1.2823  0.2621
 2776SOL    HW219962   2.692   2.025   6.186 -2.4063 -0.8220 -1.7821
 2777SOL     OW19963   2.611   2.186   6.247 -0.5484 -0.6784  0.1585
 2777SOL    HW119964   2.547   2.225   6.187  0.1677 -0.0403 -0.1837
 2777SOL    HW219965   2.627   2.258   6.309 -3.7706  0.2909 -0.1184
 2778SOL     OW19966   1.754   1.347   1.426  0.3346 -0.8079 -0.1190
 2778SOL    HW119967   1.733   1.440   1.432 -2.0512 -1.3251 -0.4153
 2778SOL    HW219968   1.671   1.307   1.399 -1.0987  1.1819  1.3940
 2779SOL     OW19969   3.561   2.733   8.367 -0.4826 -0.0303 -0.2964
 2779SOL    HW119970   3.616   2.656   8.379 -1.6172 -0.6300  1.0738
 2779SOL    HW219971   3.476   2.692   8.377 -0.9827  1.0593 -0.0590
 2780SOL     OW19972   1.801   4.684   2.749  0.3367  0.1462  0.1798
 2780SOL    HW119973   1.819   4.706   2.657 -0.6882  2.8781  0.6418
 2780SOL    HW219974   1.890   4.688   2.785  0.1159 -0.9852  0.8588
 2781SOL     OW19975   3.994   0.327  12.782 -0.4185 -0.8362 -0.0930
 2781SOL    HW119976   4.086   0.315  12.756 -0.3076 -1.2735  0.4796
 2781SOL    HW219977   4.000   0.383  12.859  1.0020 -1.6089  0.3818
 2782SOL     OW19978   0.550   2.278  14.297 -0.4785  0.3445  0.4770
 2782SOL    HW119979   0.627   2.295  14.242 -1.6379  0.4952 -1.0893
 2782SOL    HW219980   0.541   2.187  14.267 -0.5822  0.0695  1.3406
 2783SOL     OW19981   2.406   0.405  14.560 -0.1156 -0.5365  0.9290
 2783SOL    HW119982   2.452   0.481  14.523  1.3975 -2.3987 -0.9694
 2783SOL    HW219983   2.464   0.332  14.541 -0.6581 -0.6406 -0.4041
 2784SOL     OW19984   1.372   2.957   2.232 -0.2371  0.2137 -0.3812
 2784SOL    HW119985   1.408   2.980   2.318  2.8961  0.0852 -1.6777
 2784SOL    HW219986   1.343   3.047   2.217 -0.2039  0.7212  2.5291
 2785SOL     OW19987   4.685   3.395   5.089  0.4161  0.3758  0.0869
 2785SOL    HW119988   0.014   3.437   5.039 -0.0132  0.5005 -0.4007
 2785SOL    HW219989   4.647   3.474   5.127  0.0374 -0.8582  2.2888
 2786SOL     OW19990   2.010   0.443   5.261  0.3895 -0.2895 -0.0102
 2786SOL    HW119991   2.053   0.508   5.317 -3.4566  1.1210  1.3248
 2786SOL    HW219992   2.087   0.410   5.215  0.6202  0.4364 -0.1508
 2787SOL     OW19993   3.597   1.076   1.143  0.3160  0.1867  0.1192
 2787SOL    HW119994   3.587   1.158   1.094 -2.7592  0.6135  1.4841
 2787SOL    HW219995   3.513   1.081   1.188  0.6859 -0.2726  0.8567
 2788SOL     OW19996   3.332   0.999   7.721 -0.5566 -0.1616  0.3036
 2788SOL    HW119997   3.294   1.047   7.794  0.4363 -1.8662  1.9765
 2788SOL    HW219998   3.253   0.972   7.676  0.2319 -2.0325  0.0169
 2789SOL     OW19999   0.707   1.970  14.016  0.6040 -0.1534  0.1059
 2789SOL    HW120000   0.621   2.003  13.988  0.1578 -0.9966  0.4920
 2789SOL    HW220001   0.691   1.877  14.026  2.8267 -0.5158  0.2709
 2790SOL     OW20002   3.430   3.300  17.367  0.0983  0.0655  0.3238
 2790SOL    HW120003   3.522   3.326  17.372  0.5132 -1.0629 -1.3850
 2790SOL    HW220004   3.388   3.386  17.376  2.7200  1.7390 -3.1817
 2791SOL     OW20005   3.184   0.152   3.526 -0.3215  0.3231  0.2373
 2791SOL    HW120006   3.267   0.180   3.566  0.2687  1.1970 -1.6326
 2791SOL    HW220007   3.154   0.075   3.575 -0.6398  2.4530  3.4057
 2792SOL     OW20008   1.953   1.158   4.987 -0.6053 -0.0366 -0.6232
 2792SOL    HW120009   1.897   1.229   5.020  0.4056  0.0399  0.8984
 2792SOL    HW220010   1.939   1.163   4.893  0.7616  1.2002 -0.7537
 2793SOL     OW20011   1.147   4.504   3.395  0.1808 -0.4378  0.0731
 2793SOL    HW120012   1.169   4.414   3.417  0.3877 -0.9977 -2.3876
 2793SOL    HW220013   1.051   4.508   3.391  0.0872 -1.0326  1.7571
 2794SOL     OW20014   3.889   1.422   5.722 -0.4846 -0.0734  0.2494
 2794SOL    HW120015   3.917   1.450   5.810 -0.8992 -0.7258  0.5915
 2794SOL    HW220016   3.958   1.469   5.677  0.4013 -0.9047  0.7362
 2795SOL     OW20017   2.310   3.465   4.816 -0.4629  0.4596  0.5869
 2795SOL    HW120018   2.315   3.555   4.848 -0.1849  1.4996 -2.3826
 2795SOL    HW220019   2.243   3.475   4.748 -1.5129  1.6565  1.7985
 2796SOL     OW20020   0.919   4.726   1.480 -0.0471  0.3860 -0.2212
 2796SOL    HW120021   0.899   4.634   1.461  1.0499  0.1825 -0.3684
 2796SOL    HW220022   1.005   4.730   1.439  0.5742 -1.9645  0.8853
 2797SOL     OW20023   1.939   4.037  12.232 -0.5837 -0.4516 -0.2381
 2797SOL    HW120024   2.015   4.060  12.286 -0.0790 -1.1535 -0.6447
 2797SOL    HW220025   1.873   4.053  12.299  0.5505 -0.7640  0.9667
 2798SOL     OW20026   0.625   1.482   3.383  0.4003 -0.9709 -0.4478
 2798SOL    HW120027   0.620   1.391   3.353  0.6104 -1.5762  1.3811
 2798SOL    HW220028   0.675   1.527   3.315  0.5144 -0.1575  0.1773
 2799SOL     OW20029   2.300   3.199   4.910 -0.7270  0.0931  0.3470
 2799SOL    HW120030   2.278   3.167   4.823  0.7889  2.7109 -1.0100
 2799SOL    HW220031   2.289   3.294   4.903  3.2844  0.4550 -1.4275
 2800SOL     OW20032   2.317   2.373   5.069  0.2080 -0.0427 -0.8496
 2800SOL    HW120033   2.361   2.444   5.023  0.8532  1.2460  1.7313
 2800SOL    HW220034   2.264   2.425   5.129  2.3324 -0.4470  1.3926
 2801SOL     OW20035   2.955   4.492   2.435 -0.1464  0.2328 -0.0583
 2801SOL    HW120036   2.897   4.429   2.478 -0.3311 -0.0711 -0.7576
 2801SOL    HW220037   2.970   4.455   2.348 -2.5417  2.2183 -1.3278
 2802SOL     OW20038   3.247   2.890   2.017 -0.6190 -0.1005  0.5364
 2802SOL    HW120039   3.320   2.900   1.956 -0.9927 -2.7420 -0.3297
 2802SOL    HW220040   3.294   2.913   2.097 -1.5163 -0.5439  1.1918
 2803SOL     OW20041   4.147   2.105   0.968  0.5979  0.2031  0.3259
 2803SOL    HW120042   4.114   2.098   0.878 -0.2403 -1.7084  0.7864
 2803SOL    HW220043   4.108   2.028   1.009  2.1772 -0.8844 -0.2135
 2804SOL     OW20044   0.211   3.976   6.108 -0.5011 -0.3244  0.1176
 2804SOL    HW120045   0.235   3.885   6.094  1.1012  0.3564 -1.5572
 2804SOL    HW220046   0.117   3.967   6.117 -0.4393 -1.7030 -0.6952
 2805SOL     OW20047   0.796   1.515  13.056 -0.4064  0.3349 -0.6645
 2805SOL    HW120048   0.867   1.577  13.038 -0.4082  0.7229  0.6591
 2805SOL    HW220049   0.839   1.433  13.080 -0.5127  0.0173 -1.5381
 2806SOL     OW20050   4.472   4.606   9.087 -0.1645  0.3817  0.3054
 2806SOL    HW120051   4.400   4.543   9.083  1.3305 -1.3963  1.6496
 2806SOL    HW220052   4.441   4.678   9.032 -0.3810 -0.4710 -0.6717
 2807SOL     OW20053   2.771   1.491   1.854 -0.1794  0.3510 -0.4938
 2807SOL    HW120054   2.783   1.460   1.764  0.5870  1.3104 -0.7216
 2807SOL    HW220055   2.706   1.561   1.850  0.0117  0.4804 -1.4682
 2808SOL     OW20056   1.157   1.245   6.845 -0.3656 -0.0836 -0.0921
 2808SOL    HW120057   1.198   1.221   6.928  0.6362  0.9132 -0.2938
 2808SOL    HW220058   1.196   1.329   6.821 -0.0906  0.0456  0.7988
 2809SOL     OW20059   2.133   2.201   4.838 -0.0968 -0.1074  0.4204
 2809SOL    HW120060   2.115   2.293   4.818  3.0327 -0.0403 -2.0845
 2809SOL    HW220061   2.131   2.208   4.933  0.7319  0.7061  0.3720
 2810SOL     OW20062   1.778   4.141   4.595 -0.4986  0.6570 -0.3403
 2810SOL    HW120063   1.740   4.208   4.539 -0.6745 -0.3580 -1.4336
 2810SOL    HW220064   1.756   4.171   4.683 -0.1282  0.6388 -0.2423
 2811SOL     OW20065   4.683   3.406   2.406 -0.2057 -0.2302 -0.0080
 2811SOL    HW120066   4.718   3.328   2.365 -1.3027  0.7601 -2.8120
 2811SOL    HW220067   0.023   3.457   2.404  0.0827 -0.7981 -2.7955
 2812SOL     OW20068   4.499   1.910   0.545 -0.1104 -0.3471  0.3280
 2812SOL    HW120069   4.502   1.933   0.452  0.5296 -0.5682  0.2995
 2812SOL    HW220070   4.494   2.000   0.578 -0.2504 -0.3258  0.2507
 2813SOL     OW20071   1.121   0.497   0.310  0.0391  0.3773 -0.4574
 2813SOL    HW120072   1.204   0.520   0.353 -0.5788  0.3374  0.7478
 2813SOL    HW220073   1.150   0.503   0.218 -1.4482  0.6426 -0.9001
 2814SOL     OW20074   3.958   1.197   2.580  0.4940 -0.5263 -0.9036
 2814SOL    HW120075   4.026   1.244   2.627 -0.9463  0.4413  0.1924
 2814SOL    HW220076   3.994   1.109   2.592  1.3968  0.1982  1.5907
 2815SOL     OW20077   2.768   0.160  12.144  0.7209 -0.3837  0.2849
 2815SOL    HW120078   2.783   0.249  12.176 -2.1170 -0.5496  2.1248
 2815SOL    HW220079   2.684   0.178  12.103  0.4423 -2.0279  0.1403
 2816SOL     OW20080   1.949   3.723  12.416 -0.6423  0.4198 -0.1683
 2816SOL    HW120081   1.925   3.702  12.326 -0.6136  2.9858 -0.7843
 2816SOL    HW220082   1.948   3.636  12.457 -1.2167  0.2401 -0.5720
 2817SOL     OW20083   2.344   2.044   8.422  0.7954 -0.2775  0.3965
 2817SOL    HW120084   2.420   2.047   8.479 -0.3568 -1.3154  1.9765
 2817SOL    HW220085   2.372   1.962   8.380 -0.3600 -0.4979  0.0550
 2818SOL     OW20086   2.180   0.974   8.878 -0.9786 -0.1961 -0.4546
 2818SOL    HW120087   2.206   0.970   8.970 -0.9619  2.1967 -0.3624
 2818SOL    HW220088   2.167   1.068   8.868 -0.2954 -0.4890 -4.0763
 2819SOL     OW20089   0.917   0.823  14.582  0.0808  0.0207  0.0942
 2819SOL    HW120090   0.928   0.730  14.564 -0.4521 -0.5300  2.5481
 2819SOL    HW220091   0.942   0.860  14.497 -0.0328  2.1040  0.9513
 2820SOL     OW20092   4.188   2.222   3.052  0.1355 -0.0598 -0.3607
 2820SOL    HW120093   4.181   2.235   2.957  0.2702  0.8754 -0.2461
 2820SOL    HW220094   4.268   2.173   3.067 -0.0565 -0.1840  0.2351
 2821SOL     OW20095   1.109   0.748   6.316 -0.1831  0.4206  0.1503
 2821SOL    HW120096   1.045   0.781   6.379  0.2097  2.3352 -0.4483
 2821SOL    HW220097   1.089   0.813   6.248  0.9632  1.2795  0.6266
 2822SOL     OW20098   3.234   0.904  15.049  0.3444 -0.9794  0.3882
 2822SOL    HW120099   3.174   0.978  15.055  0.7390 -0.5032 -1.5483
 2822SOL    HW220100   3.185   0.829  15.083 -1.7247  0.2016  0.0375
 2823SOL     OW20101   1.171   3.377  10.772 -0.2047  0.0443 -0.0874
 2823SOL    HW120102   1.208   3.387  10.860 -1.6839  0.5449  0.4813
 2823SOL    HW220103   1.247   3.399  10.719  1.4890 -0.6611  2.0676
 2824SOL     OW20104   1.292   3.313   1.277 -0.4330 -0.2348 -0.4620
 2824SOL    HW120105   1.362   3.364   1.318 -0.9644  1.7859 -2.0934
 2824SOL    HW220106   1.228   3.338   1.343  1.5366  0.3270  1.2259
 2825SOL     OW20107   0.053   1.470   5.908 -0.3378  0.3176  0.3704
 2825SOL    HW120108   4.707   1.469   5.947 -1.6830 -0.9614 -2.6662
 2825SOL    HW220109   0.054   1.564   5.893  0.2003  0.0757 -1.0873
 2826SOL     OW20110   1.029   0.365   7.039  0.4219  0.3906 -0.0487
 2826SOL    HW120111   1.092   0.295   7.058 -1.3941 -0.2484  3.6163
 2826SOL    HW220112   0.941   0.327   7.032  0.5926 -0.5228  2.8785
 2827SOL     OW20113   0.391   0.065   3.032 -0.3696 -0.8058 -0.5096
 2827SOL    HW120114   0.376   0.158   3.018 -2.0631 -0.9100  0.6051
 2827SOL    HW220115   0.388   0.057   3.127  1.0306 -0.6609 -0.4547
 2828SOL     OW20116   0.789   2.034   3.648 -0.3682 -0.2273 -0.3436
 2828SOL    HW120117   0.832   2.045   3.563  1.3317 -1.8396  0.3028
 2828SOL    HW220118   0.860   2.042   3.712 -2.4642  1.0327  1.8541
 2829SOL     OW20119   1.346   2.464  12.132  0.0813 -0.0833  0.1968
 2829SOL    HW120120   1.381   2.375  12.143 -0.2986 -0.4779 -1.7332
 2829SOL    HW220121   1.279   2.439  12.068 -1.1464 -1.1141  1.8805
 2830SOL     OW20122   3.229   0.103   8.949  0.0332  0.1840 -0.0663
 2830SOL    HW120123   3.302   0.087   8.889  1.2554  1.3482  1.1195
 2830SOL    HW220124   3.155   0.105   8.888  1.6445 -0.0989 -2.0644
 2831SOL     OW20125   2.199   3.001   7.622 -0.1207 -0.4291  0.2669
 2831SOL    HW120126   2.182   2.962   7.708 -1.6450  0.8761  0.5417
 2831SOL    HW220127   2.229   2.920   7.580 -3.1653 -1.5200  0.1787
 2832SOL     OW20128   3.264   2.518   7.586 -0.1335  0.1891  0.3015
 2832SOL    HW120129   3.339   2.466   7.617  0.9245  0.8458 -1.1325
 2832SOL    HW220130   3.288   2.601   7.628 -0.6176  0.7491 -0.5299
 2833SOL     OW20131   1.865   1.870  14.783 -0.0319  0.1235  0.8342
 2833SOL    HW120132   1.822   1.913  14.858 -2.3757  2.6636 -1.9352
 2833SOL    HW220133   1.787   1.821  14.754  0.6630 -0.2929 -0.3121
 2834SOL     OW20134   3.525   1.620   4.827 -0.4300  0.2065 -0.5169
 2834SOL    HW120135   3.463   1.562   4.783  0.6012 -1.7656  0.6283
 2834SOL    HW220136   3.609   1.576   4.811 -0.9413 -0.3832 -1.5969
 2835SOL     OW20137   2.279   3.769   2.660  0.6321  0.4965 -0.0475
 2835SOL    HW120138   2.256   3.847   2.610  2.7845  0.6694 -0.7888
 2835SOL    HW220139   2.205   3.712   2.639  0.0464  0.2965  2.5192
 2836SOL     OW20140   3.736   3.521  13.479  0.1476 -0.0775  0.3999
 2836SOL    HW120141   3.788   3.595  13.510  0.4321  0.2297 -0.8214
 2836SOL    HW220142   3.652   3.565  13.467  0.2401  0.5808  2.0953
 2837SOL     OW20143   2.598   3.152   1.568 -0.4750 -0.0681  0.6381
 2837SOL    HW120144   2.662   3.161   1.638 -2.2858 -0.2839  2.2992
 2837SOL    HW220145   2.561   3.071   1.601 -0.5533 -0.8923 -1.4427
 2838SOL     OW20146   2.922   0.417   4.721 -0.0055 -0.2630 -0.7299
 2838SOL    HW120147   2.977   0.368   4.782  0.2759 -0.2666 -0.9826
 2838SOL    HW220148   2.849   0.362   4.692  1.0763 -1.7774 -0.5989
 2839SOL     OW20149   4.426   0.080   8.908  0.3634 -0.2775 -0.2467
 2839SOL    HW120150   4.465   0.162   8.938  0.4258 -0.0158 -1.0390
 2839SOL    HW220151   4.378   0.110   8.831  2.3917 -0.1168 -1.4273
 2840SOL     OW20152   0.745   3.542   2.884  0.0558 -0.2088  0.6451
 2840SOL    HW120153   0.740   3.637   2.892  1.0206  0.1926 -3.4565
 2840SOL    HW220154   0.654   3.534   2.855  0.9719  2.3008 -3.0383
 2841SOL     OW20155   3.998   2.836   8.727  0.3691  0.2503  1.1924
 2841SOL    HW120156   3.924   2.846   8.788  0.0684 -2.8578  1.3394
 2841SOL    HW220157   3.959   2.880   8.650  2.1000  0.0070  0.1822
 2842SOL     OW20158   1.736   0.102   6.408  0.3773 -0.5377 -0.5070
 2842SOL    HW120159   1.758   0.017   6.370 -0.5072  0.3144 -2.9608
 2842SOL    HW220160   1.641   0.096   6.420 -0.0216 -0.4614 -3.4531
 2843SOL     OW20161   0.412   2.497   9.328  0.1739  0.2939 -0.0107
 2843SOL    HW120162   0.416   2.581   9.374  1.5274  0.4856 -0.4935
 2843SOL    HW220163   0.405   2.529   9.238 -1.2795 -0.2532 -0.0988
 2844SOL     OW20164   3.912   1.614   4.272 -0.3068 -0.0875  0.3837
 2844SOL    HW120165   4.004   1.620   4.299 -0.0345  1.3991 -0.8858
 2844SOL    HW220166   3.886   1.528   4.305 -0.3067  0.1461  0.9917
 2845SOL     OW20167   0.574   2.027   3.311  0.1888 -0.2829 -0.6372
 2845SOL    HW120168   0.554   1.970   3.385  2.2330 -1.3749 -0.9350
 2845SOL    HW220169   0.539   1.974   3.240 -0.5805 -0.5633 -0.0488
 2846SOL     OW20170   1.686   0.367   3.195 -0.5367 -0.5718 -0.1822
 2846SOL    HW120171   1.617   0.301   3.183  0.7531 -2.1808  1.3345
 2846SOL    HW220172   1.647   0.438   3.246 -1.5437 -0.8567 -0.5411
 2847SOL     OW20173   3.910   1.611   5.023 -0.1592 -0.1723 -0.0588
 2847SOL    HW120174   3.862   1.620   4.941 -0.0922  1.7796  0.1210
 2847SOL    HW220175   3.881   1.686   5.074  1.6751  1.1942 -1.0217
 2848SOL     OW20176   4.130   2.455   3.336 -0.3786 -0.5565  0.3156
 2848SOL    HW120177   4.203   2.499   3.294 -0.5991  0.5818  1.1208
 2848SOL    HW220178   4.059   2.512   3.306 -1.3704 -2.5491 -1.1597
 2849SOL     OW20179   3.095   1.538   1.438 -0.2816 -0.0445 -0.3393
 2849SOL    HW120180   3.014   1.528   1.388  0.9302 -0.4545 -2.2039
 2849SOL    HW220181   3.133   1.610   1.388 -0.6071  0.1101 -0.3663
 2850SOL     OW20182   1.669   4.063   4.149 -0.0654 -0.0182 -0.1716
 2850SOL    HW120183   1.755   4.034   4.180  0.7082  0.5600 -1.8129
 2850SOL    HW220184   1.680   4.157   4.156 -1.1270  0.0730  0.2572
 2851SOL     OW20185   1.865   4.370   2.174 -0.5313  0.3330  0.2519
 2851SOL    HW120186   1.943   4.393   2.123 -0.4201 -0.3401  0.1207
 2851SOL    HW220187   1.792   4.385   2.114  1.1775 -0.8737 -2.1190
 2852SOL     OW20188   0.922   4.149   3.033  0.5625 -0.2754 -0.1931
 2852SOL    HW120189   0.949   4.077   2.975  0.0520 -1.1991  0.7111
 2852SOL    HW220190   0.833   4.132   3.065  0.8900 -1.2127  0.2255
 2853SOL     OW20191   2.952   0.828   6.835  0.5833 -0.3332  0.2726
 2853SOL    HW120192   3.027   0.787   6.791  1.1212  0.9328  0.0190
 2853SOL    HW220193   2.962   0.922   6.824 -0.6482 -0.1292  0.8932
 2854SOL     OW20194   2.452   0.535   4.433 -0.3539 -0.6341  0.5049
 2854SOL    HW120195   2.415   0.599   4.494 -1.6852 -0.7984 -0.1358
 2854SOL    HW220196   2.522   0.504   4.490 -0.1178 -1.6604 -0.3587
 2855SOL     OW20197   2.041   4.078   5.424 -0.2401  0.8057 -0.0429
 2855SOL    HW120198   2.126   4.045   5.395 -1.4274 -1.1414 -1.3005
 2855SOL    HW220199   1.991   3.996   5.423  0.4559  0.3851 -1.0117
 2856SOL     OW20200   1.704   2.434   8.648 -0.1493  0.3353 -0.1821
 2856SOL    HW120201   1.667   2.371   8.710  0.1543  0.9678  0.6403
 2856SOL    HW220202   1.652   2.409   8.571 -1.0976 -4.5914  2.0795
 2857SOL     OW20203   2.683   4.667  11.333 -0.2962  0.2902 -0.6544
 2857SOL    HW120204   2.731   4.614  11.268 -0.1546 -0.2525 -0.1041
 2857SOL    HW220205   2.656   4.738  11.274 -1.8912 -0.5646 -0.9561
 2858SOL     OW20206   3.118   4.090   8.871  0.0776 -0.1330 -0.2883
 2858SOL    HW120207   3.111   4.030   8.797 -1.0700  1.2583 -1.3037
 2858SOL    HW220208   3.035   4.072   8.916  1.3271  0.2542  2.1656
 2859SOL     OW20209   3.668   3.438   7.014 -0.2284 -0.8424  0.2417
 2859SOL    HW120210   3.656   3.529   7.042 -3.3220  0.0785 -4.0183
 2859SOL    HW220211   3.747   3.415   7.064 -0.1250  0.2335  0.5760
 2860SOL     OW20212   3.337   0.793   9.115  0.4662  0.2246 -0.1058
 2860SOL    HW120213   3.411   0.836   9.158  1.7148 -1.5205 -0.4674
 2860SOL    HW220214   3.368   0.702   9.114 -0.0999  0.0204  0.9073
 2861SOL     OW20215   3.479   4.486   1.952 -0.1086  0.1208  0.0878
 2861SOL    HW120216   3.397   4.520   1.986 -0.4285 -0.7203  0.1583
 2861SOL    HW220217   3.450   4.456   1.865 -2.6410  0.8016  0.7033
 2862SOL     OW20218   1.902   2.635  11.354  0.3075 -0.5737 -0.8394
 2862SOL    HW120219   1.872   2.547  11.376 -1.5702 -0.1211 -1.6044
 2862SOL    HW220220   1.915   2.674  11.441 -2.0740  2.1952 -1.6905
 2863SOL     OW20221   3.406   2.506   5.352  0.2938 -0.1604  0.4978
 2863SOL    HW120222   3.487   2.502   5.401  0.1215 -1.8151  0.6486
 2863SOL    HW220223   3.429   2.443   5.283 -2.1062  0.7857 -1.1683
 2864SOL     OW20224   2.990   3.038   1.157  0.2309 -0.1319  0.0409
 2864SOL    HW120225   2.922   3.015   1.221  2.4081  0.0334  2.3927
 2864SOL    HW220226   3.038   2.955   1.158 -1.4611 -1.1038  0.5983
 2865SOL     OW20227   1.795   2.172   3.767  0.3963 -0.9632  0.2917
 2865SOL    HW120228   1.724   2.222   3.727  0.5106  0.1735  1.5055
 2865SOL    HW220229   1.769   2.161   3.859 -0.4249 -2.8129 -0.1565
 2866SOL     OW20230   2.493   4.441   2.035 -0.0363 -0.1806  0.3836
 2866SOL    HW120231   2.515   4.399   1.952 -1.7862  0.7928 -0.5736
 2866SOL    HW220232   2.577   4.445   2.079  0.5214 -2.4073 -0.4857
 2867SOL     OW20233   2.966   0.911  12.581 -0.2403 -0.3423  0.1122
 2867SOL    HW120234   2.889   0.961  12.608 -0.0615 -0.0889  0.1442
 2867SOL    HW220235   3.043   0.950  12.621  0.0744 -1.4710  0.6023
 2868SOL     OW20236   0.549   2.279   0.943 -0.3542  0.4740 -0.7046
 2868SOL    HW120237   0.631   2.233   0.959 -0.9843 -1.2270 -2.3254
 2868SOL    HW220238   0.572   2.371   0.957  0.5163 -0.2093  2.3200
 2869SOL     OW20239   2.380   0.347   0.401 -0.0098  0.2888  0.4951
 2869SOL    HW120240   2.331   0.349   0.483 -0.5424 -0.2833  0.1977
 2869SOL    HW220241   2.332   0.393   0.332  1.7300  0.8559 -0.3245
 2870SOL     OW20242   3.110   0.075   8.589 -0.1761  0.3618 -0.4806
 2870SOL    HW120243   3.115   0.167   8.561 -0.7709  0.1484 -1.2937
 2870SOL    HW220244   3.165   0.075   8.667 -0.8297  1.7025 -0.0069
 2871SOL     OW20245   0.099   0.972   2.423  0.1541  0.5449 -0.0905
 2871SOL    HW120246   0.019   0.993   2.374 -0.8424  0.3628  1.4661
 2871SOL    HW220247   0.119   1.057   2.464 -0.1333  0.3335  0.4814
 2872SOL     OW20248   1.024   4.468   0.867  0.0690 -0.1569 -0.7226
 2872SOL    HW120249   1.085   4.482   0.940 -2.1359 -3.5936  1.8032
 2872SOL    HW220250   0.976   4.391   0.899  0.0922  0.2051  0.1870
 2873SOL     OW20251   3.194   2.853   7.145  0.0712 -0.6616 -0.0134
 2873SOL    HW120252   3.147   2.777   7.181 -0.7368 -0.4175 -0.5692
 2873SOL    HW220253   3.176   2.838   7.052  0.3189  0.4587 -0.2366
 2874SOL     OW20254   3.707   1.184  14.343 -0.1453 -0.1474  0.0893
 2874SOL    HW120255   3.680   1.266  14.385 -0.7349 -0.6658  0.7089
 2874SOL    HW220256   3.671   1.193  14.255 -1.6331  0.0357  0.7143
 2875SOL     OW20257   3.578   3.617   2.452 -0.2674 -0.1598  0.2925
 2875SOL    HW120258   3.530   3.648   2.529 -1.4103  2.3795 -1.4434
 2875SOL    HW220259   3.610   3.699   2.415  0.3745 -0.4968  0.0876
 2876SOL     OW20260   1.829   3.127   2.617  0.2766 -0.2851  0.3018
 2876SOL    HW120261   1.843   3.050   2.672  0.5847 -0.5127 -0.0888
 2876SOL    HW220262   1.829   3.196   2.683  0.5662  0.7982 -0.8441
 2877SOL     OW20263   3.127   4.145   3.228  0.0870  0.0653  0.3981
 2877SOL    HW120264   3.038   4.112   3.238  0.3678 -0.5142  0.9967
 2877SOL    HW220265   3.117   4.177   3.139  0.2817  0.1986  0.4228
 2878SOL     OW20266   3.262   2.955   2.340  0.6505 -0.1495 -0.0389
 2878SOL    HW120267   3.282   3.000   2.422  0.5963 -0.0588 -0.0747
 2878SOL    HW220268   3.188   2.899   2.365  1.7155  0.1128  3.5675
 2879SOL     OW20269   0.386   0.778  11.016 -0.1544  0.0889 -0.0072
 2879SOL    HW120270   0.434   0.831  10.952  0.5130 -0.8596 -0.2972
 2879SOL    HW220271   0.331   0.719  10.964  1.3739  1.3093 -2.9695
 2880SOL     OW20272   3.257   0.095   2.858  0.5966  0.0289  0.6988
 2880SOL    HW120273   3.263   0.001   2.875  0.5586  0.0575  0.8634
 2880SOL    HW220274   3.162   0.108   2.857  0.4179 -1.0402  3.4872
 2881SOL     OW20275   0.427   2.582   3.340  0.3198  0.1957 -0.6003
 2881SOL    HW120276   0.515   2.573   3.378  0.7729  1.1316 -1.4165
 2881SOL    HW220277   0.436   2.567   3.245  1.7448 -0.2160 -0.3987
 2882SOL     OW20278   4.368   0.845   4.477 -0.2338 -0.0424  0.5683
 2882SOL    HW120279   4.281   0.862   4.514  0.3911  1.5869  1.3087
 2882SOL    HW220280   4.409   0.931   4.481  2.6540 -1.4229  0.1920
 2883SOL     OW20281   3.826   3.907   1.138  0.4386  0.0578 -0.2315
 2883SOL    HW120282   3.741   3.863   1.134  0.6062 -0.4261  1.7372
 2883SOL    HW220283   3.812   3.993   1.098  0.7313 -0.1141 -0.6986
 2884SOL     OW20284   2.693   3.570   2.809 -0.3672  0.3405 -0.3147
 2884SOL    HW120285   2.754   3.565   2.882  0.4877  2.8938 -0.8760
 2884SOL    HW220286   2.610   3.578   2.856 -1.3760 -0.0824 -2.0428
 2885SOL     OW20287   2.298   4.126  16.624 -0.0647  0.4445 -0.4000
 2885SOL    HW120288   2.293   4.155  16.715  0.5678 -1.2168  0.1576
 2885SOL    HW220289   2.326   4.204  16.574  1.0750  0.0981 -0.3050
 2886SOL     OW20290   4.371   2.959  11.651  0.1417  0.6273  0.1941
 2886SOL    HW120291   4.285   2.975  11.613  1.3767  0.6660 -2.5766
 2886SOL    HW220292   4.419   2.941  11.571 -3.5062 -1.8364 -1.4143
 2887SOL     OW20293   0.840   2.596   6.836 -0.4206 -0.0770  0.6165
 2887SOL    HW120294   0.798   2.593   6.921  0.6641  2.3294  1.2273
 2887SOL    HW220295   0.761   2.604   6.781 -0.1826  0.0780  0.2938
 2888SOL     OW20296   3.054   1.559  16.146 -0.1814 -0.2751  0.5389
 2888SOL    HW120297   3.111   1.526  16.077 -2.6421  0.2162 -1.7498
 2888SOL    HW220298   3.069   1.653  16.134 -0.4092 -0.1872  0.9484
 2889SOL     OW20299   1.458   1.144   4.249 -0.1859  0.1106 -0.3642
 2889SOL    HW120300   1.421   1.155   4.336 -1.2038 -0.3857 -0.7299
 2889SOL    HW220301   1.483   1.232   4.223  0.7040  0.5043  1.8364
 2890SOL     OW20302   2.362   3.749  14.274 -0.5450  0.2186 -0.3448
 2890SOL    HW120303   2.425   3.772  14.342  0.4837  1.0874 -1.5896
 2890SOL    HW220304   2.369   3.827  14.219  0.1151  1.6881  1.8374
 2891SOL     OW20305   0.034   2.615   3.383 -0.0632  0.2216 -0.0855
 2891SOL    HW120306   0.092   2.615   3.307  0.0429  0.3560 -0.0048
 2891SOL    HW220307   4.710   2.685   3.373  0.5147  0.6809 -0.5962
 2892SOL     OW20308   1.234   1.533  12.611 -0.6762 -0.8433  0.9970
 2892SOL    HW120309   1.192   1.541  12.697 -1.0788  0.9203  0.6488
 2892SOL    HW220310   1.293   1.459  12.623  0.9203  0.6388  2.4357
 2893SOL     OW20311   3.567   3.240  12.941 -0.3342  0.0349 -0.4000
 2893SOL    HW120312   3.507   3.227  13.015 -0.3629 -0.5235 -0.5230
 2893SOL    HW220313   3.516   3.210  12.865 -3.3338  1.4791  1.0268
 2894SOL     OW20314   0.631   1.115   8.412 -0.0801  0.0393  0.2026
 2894SOL    HW120315   0.695   1.091   8.479  1.1326  0.2470 -0.8950
 2894SOL    HW220316   0.676   1.163   8.343  1.1686 -1.8306 -0.2755
 2895SOL     OW20317   2.396   2.676   4.313  0.0341  0.6269  0.6679
 2895SOL    HW120318   2.450   2.662   4.235  0.1634 -0.0363  0.8793
 2895SOL    HW220319   2.331   2.606   4.309 -1.3743  1.8426  2.0232
 2896SOL     OW20320   2.659   3.520  16.101 -0.3266  0.0185  0.1313
 2896SOL    HW120321   2.727   3.575  16.060 -1.2573 -1.3751 -3.2873
 2896SOL    HW220322   2.709   3.443  16.127 -0.1030  0.9760  2.5498
 2897SOL     OW20323   0.300   1.484   4.964 -0.4758 -0.1731  0.2180
 2897SOL    HW120324   0.211   1.504   4.993 -0.5081 -1.2122  0.8416
 2897SOL    HW220325   0.279   1.445   4.879 -2.3816  2.1248 -0.3808
 2898SOL     OW20326   4.126   1.287  11.667 -0.1643 -0.0647 -0.2186
 2898SOL    HW120327   4.128   1.267  11.573  1.3209 -1.0387  0.0249
 2898SOL    HW220328   4.099   1.202  11.701  0.2500 -0.6444 -1.3706
 2899SOL     OW20329   3.005   3.705   0.661 -0.2972  0.2502  0.4040
 2899SOL    HW120330   2.992   3.791   0.702 -2.1344  0.6715 -1.0653
 2899SOL    HW220331   3.042   3.727   0.576 -0.9576 -1.2457 -0.2770
 2900SOL     OW20332   0.525   0.402  15.512 -0.4485 -0.3087 -0.5758
 2900SOL    HW120333   0.545   0.491  15.483  1.4166 -1.1897 -1.9605
 2900SOL    HW220334   0.516   0.433  15.602  1.2688 -2.3946  0.3153
 2901SOL     OW20335   1.171   4.679   5.233  0.0381 -0.4027 -0.2050
 2901SOL    HW120336   1.079   4.696   5.209 -0.2129 -2.0940 -0.4218
 2901SOL    HW220337   1.167   4.584   5.240 -0.7726 -0.3386  0.1644
 2902SOL     OW20338   4.317   4.585   0.646  0.6062  0.2009 -0.0649
 2902SOL    HW120339   4.358   4.671   0.638  2.2868 -0.7104 -1.2837
 2902SOL    HW220340   4.351   4.567   0.734  0.9187 -1.7372 -0.5901
 2903SOL     OW20341   1.297   4.122  17.737 -0.1540  0.0927  0.5737
 2903SOL    HW120342   1.241   4.112  17.661 -0.1984 -2.9239  0.9860
 2903SOL    HW220343   1.261   4.059   0.038  2.7004  1.6132  3.8110
 2904SOL     OW20344   0.422   4.042  17.027 -0.3358  0.0456  0.1043
 2904SOL    HW120345   0.333   4.045  17.061 -0.8878 -1.7980 -1.1909
 2904SOL    HW220346   0.420   4.013  16.936  0.3459 -1.5116  0.5950
 2905SOL     OW20347   3.315   2.803   4.215  0.0486 -0.0298 -0.1905
 2905SOL    HW120348   3.221   2.811   4.203  0.3004 -0.5211 -2.5126
 2905SOL    HW220349   3.316   2.723   4.268  1.3392  0.1814  0.1063
 2906SOL     OW20350   4.736   0.814   9.424 -0.3653  0.1204  0.3686
 2906SOL    HW120351   4.725   0.900   9.464 -1.7868  0.8186 -1.5227
 2906SOL    HW220352   0.053   0.778   9.491 -0.6129  0.7287  0.9052
 2907SOL     OW20353   3.552   3.909   5.648  0.0338  0.7316  0.0311
 2907SOL    HW120354   3.634   3.864   5.630 -0.8451 -0.3807 -1.2603
 2907SOL    HW220355   3.554   3.998   5.610  0.8032  1.4986  1.9037
 2908SOL     OW20356   0.737   1.464  15.764  0.0128 -0.4154 -0.6424
 2908SOL    HW120357   0.662   1.502  15.717  1.3305 -0.1216 -2.5451
 2908SOL    HW220358   0.811   1.484  15.706  0.5033  2.6311  1.0499
 2909SOL     OW20359   1.428   4.405   7.688 -0.6083 -0.0173  0.4418
 2909SOL    HW120360   1.444   4.431   7.779 -2.3588  0.0274  0.7368
 2909SOL    HW220361   1.516   4.371   7.671 -0.4204  0.0416  1.2789
 2910SOL     OW20362   0.853   2.529   1.594 -0.2562 -0.1772  0.0764
 2910SOL    HW120363   0.831   2.538   1.501  1.5103  0.9742 -0.2290
 2910SOL    HW220364   0.772   2.548   1.640 -0.5658 -0.7449 -0.2348
 2911SOL     OW20365   1.302   4.301   5.882 -0.3828  0.5408 -0.1327
 2911SOL    HW120366   1.361   4.343   5.820 -0.8554  1.4605  0.0344
 2911SOL    HW220367   1.213   4.315   5.848 -1.5082 -0.8535  2.2692
 2912SOL     OW20368   0.068   4.701   4.102  0.8881  0.0888  0.1447
 2912SOL    HW120369   0.154   4.718   4.064  0.0137 -0.1401 -1.8939
 2912SOL    HW220370   0.062   4.608   4.082  0.5804  0.9467 -3.6155
 2913SOL     OW20371   3.076   2.944   2.744  0.7388 -0.1798  0.7370
 2913SOL    HW120372   3.034   2.890   2.811  1.3959 -2.3574 -0.6034
 2913SOL    HW220373   3.064   3.030   2.784  1.3449  1.8000 -3.4256
 2914SOL     OW20374   3.731   3.148  12.644  0.0389  0.2238  0.7844
 2914SOL    HW120375   3.774   3.207  12.706 -0.2397 -0.1544  1.3442
 2914SOL    HW220376   3.806   3.092  12.625 -0.5510 -0.5021  0.6047
 2915SOL     OW20377   4.621   4.421   6.071  0.4764  0.1094 -0.1913
 2915SOL    HW120378   4.691   4.428   6.136  0.0805 -1.4037  0.4128
 2915SOL    HW220379   4.679   4.423   5.995  0.0055 -1.7222 -0.6104
 2916SOL     OW20380   2.750   0.342   3.633  0.3859  0.0704  0.4660
 2916SOL    HW120381   2.805   0.265   3.623 -0.2100 -0.5039  1.5419
 2916SOL    HW220382   2.806   0.414   3.605 -0.8106  0.6781 -0.3861
 2917SOL     OW20383   4.019   1.952   7.904  0.5004 -0.0865 -0.0914
 2917SOL    HW120384   3.983   1.975   7.990  1.2233 -0.8731  0.4256
 2917SOL    HW220385   4.052   1.867   7.932 -1.1977 -0.0602  1.9555
 2918SOL     OW20386   3.490   0.417   8.759 -0.1252  0.1775  0.3649
 2918SOL    HW120387   3.462   0.400   8.669  0.3893 -1.0472  0.4389
 2918SOL    HW220388   3.529   0.504   8.755  0.5490 -0.0930  1.2271
 2919SOL     OW20389   1.754   1.720   8.195  0.0361  0.7491  0.1127
 2919SOL    HW120390   1.848   1.729   8.209 -0.0398  2.4839 -0.3840
 2919SOL    HW220391   1.743   1.775   8.117  0.9990  0.7032 -0.0528
 2920SOL     OW20392   3.605   1.927   0.684  0.0899  0.0668  0.4351
 2920SOL    HW120393   3.648   1.866   0.625 -1.5639 -0.3407 -0.3657
 2920SOL    HW220394   3.538   1.863   0.709  0.8748  0.1455  2.6983
 2921SOL     OW20395   1.067   0.801  16.316  0.1173  0.8629  0.3924
 2921SOL    HW120396   1.161   0.806  16.334  0.3988 -1.8776 -0.4500
 2921SOL    HW220397   1.060   0.711  16.347  1.0144 -0.0137 -1.9175
 2922SOL     OW20398   0.695   2.505   7.725 -0.3887 -0.7662 -0.6324
 2922SOL    HW120399   0.693   2.563   7.649 -0.9427 -0.2858 -0.2457
 2922SOL    HW220400   0.683   2.565   7.798 -0.7066  0.6649 -1.8423
 2923SOL     OW20401   2.526   0.642   3.695 -0.2375 -0.2712 -0.6296
 2923SOL    HW120402   2.471   0.683   3.762  0.6682 -1.1967  0.6659
 2923SOL    HW220403   2.504   0.548   3.692  0.6871 -0.5619  2.2111
 2924SOL     OW20404   4.247   1.757   5.509 -0.0644  0.1839  0.4044
 2924SOL    HW120405   4.261   1.763   5.604 -2.2045 -0.3327  0.7527
 2924SOL    HW220406   4.229   1.849   5.490  1.4476  0.5222  0.6588
 2925SOL     OW20407   3.516   2.759   2.105 -0.4807  0.6456 -0.2788
 2925SOL    HW120408   3.496   2.785   2.015 -0.5655  0.3028 -0.3610
 2925SOL    HW220409   3.498   2.666   2.089 -0.1511  0.2017  1.8242
 2926SOL     OW20410   0.795   2.822   5.936  0.2736  0.0352  0.5635
 2926SOL    HW120411   0.779   2.910   5.970  1.4083  0.1804  0.7125
 2926SOL    HW220412   0.879   2.828   5.891  0.1390  1.0330  0.4472
 2927SOL     OW20413   2.821   1.707   4.436  0.3006  0.6850 -0.1397
 2927SOL    HW120414   2.831   1.802   4.426  1.8655  0.8261  2.6852
 2927SOL    HW220415   2.811   1.715   4.531 -3.4940 -1.8395 -0.3147
 2928SOL     OW20416   2.506   2.181   3.408 -0.2060  0.1497  0.4973
 2928SOL    HW120417   2.558   2.150   3.333 -0.0008  2.6035 -0.3778
 2928SOL    HW220418   2.499   2.106   3.467  2.8846 -0.6646 -0.1829
 2929SOL     OW20419   1.562   4.113   8.284  0.0991 -0.3094 -0.8134
 2929SOL    HW120420   1.546   4.148   8.196 -0.2789  1.1716 -0.1539
 2929SOL    HW220421   1.589   4.024   8.261  1.0458 -0.2255 -0.0244
 2930SOL     OW20422   3.498   0.185  13.838 -0.0168 -0.4937 -0.3218
 2930SOL    HW120423   3.420   0.199  13.891 -0.2782 -0.1535 -0.7982
 2930SOL    HW220424   3.474   0.095  13.819  0.6523 -1.2809  2.5228
 2931SOL     OW20425   0.041   3.624   9.983 -0.2138 -0.2314 -0.5270
 2931SOL    HW120426   0.097   3.547   9.992 -2.0660 -1.5570 -0.3631
 2931SOL    HW220427   0.105   3.690   9.954  0.0480 -0.8436 -1.3721
 2932SOL     OW20428   4.329   2.328   6.050 -0.3083  0.2229  0.6162
 2932SOL    HW120429   4.258   2.265   6.035 -1.5681  1.9098 -0.4281
 2932SOL    HW220430   4.307   2.401   5.992  4.2221  0.9730 -0.1956
 2933SOL     OW20431   3.629   0.749   7.477  0.6811 -0.4363  0.0437
 2933SOL    HW120432   3.607   0.842   7.480 -0.7496 -0.7744 -0.3991
 2933SOL    HW220433   3.566   0.705   7.533  0.3333 -0.4691 -0.3759
 2934SOL     OW20434   2.226   0.123   3.059 -0.1371  0.1752 -1.0941
 2934SOL    HW120435   2.240   0.049   3.118 -1.6265  0.9188  0.1713
 2934SOL    HW220436   2.305   0.117   3.004 -0.7141  1.6111 -2.0723
 2935SOL     OW20437   2.700   1.340  16.180  0.1009 -0.0119  0.1779
 2935SOL    HW120438   2.795   1.348  16.183 -0.0279  0.3468  3.4559
 2935SOL    HW220439   2.684   1.346  16.274 -0.9791  1.3653 -0.0816
 2936SOL     OW20440   0.763   3.006   7.839  0.0563  0.0140 -0.2721
 2936SOL    HW120441   0.815   2.933   7.805 -1.8344 -1.5082  0.1116
 2936SOL    HW220442   0.736   2.974   7.925 -0.0010 -0.0044 -0.2968
 2937SOL     OW20443   4.582   3.635  17.144  0.1259  1.0276  0.0922
 2937SOL    HW120444   4.610   3.552  17.105 -0.8884  0.3039  0.9147
 2937SOL    HW220445   4.552   3.679  17.064 -3.6366 -0.5447  0.6166
 2938SOL     OW20446   1.102   3.821   1.129  0.0939  0.0456 -0.5358
 2938SOL    HW120447   1.098   3.875   1.051 -0.3636  0.0121 -0.5368
 2938SOL    HW220448   1.074   3.739   1.087  2.3093 -1.5598  1.1123
 2939SOL     OW20449   4.298   3.360   4.560  0.2614  0.2397  0.0596
 2939SOL    HW120450   4.223   3.413   4.536  1.6188  0.8959 -2.6696
 2939SOL    HW220451   4.250   3.286   4.598  1.8693 -0.8028  0.0798
 2940SOL     OW20452   4.189   2.807   5.916 -0.0169  0.6367 -0.0330
 2940SOL    HW120453   4.117   2.852   5.960  0.5938  0.6289  0.9766
 2940SOL    HW220454   4.247   2.881   5.900 -1.3059  1.6617  0.0493
 2941SOL     OW20455   3.463   4.119  15.147  0.1552  0.1624  0.5206
 2941SOL    HW120456   3.433   4.030  15.165 -1.5555  1.2542  2.9563
 2941SOL    HW220457   3.528   4.089  15.084 -0.8485  2.7328 -1.7542
 2942SOL     OW20458   3.078   4.035  13.286 -0.0798  0.6090  0.2776
 2942SOL    HW120459   3.147   4.036  13.220  1.4643 -1.0342  1.8588
 2942SOL    HW220460   3.087   3.947  13.323 -0.0579  0.7073  0.5053
 2943SOL     OW20461   0.790   2.839   1.424 -0.4261  0.1856 -0.1919
 2943SOL    HW120462   0.882   2.856   1.404 -0.7109 -0.9973 -2.5462
 2943SOL    HW220463   0.748   2.914   1.465 -1.0809 -0.3592  0.1430
 2944SOL     OW20464   1.640   1.901   3.368  0.1563  0.4023  0.1568
 2944SOL    HW120465   1.682   1.860   3.292  0.1785  2.7015 -1.0783
 2944SOL    HW220466   1.709   1.960   3.397  0.6998 -0.3918  0.4741
 2945SOL     OW20467   4.662   0.511   1.909 -0.2197  0.0770  0.6035
 2945SOL    HW120468   4.701   0.596   1.892  1.9908 -0.9085  0.8015
 2945SOL    HW220469   4.735   0.449   1.916 -0.9049 -0.5250  2.3493
 2946SOL     OW20470   3.883   2.714   4.129  0.1509 -0.4963 -0.0644
 2946SOL    HW120471   3.963   2.663   4.143  0.0827 -1.2072 -2.3765
 2946SOL    HW220472   3.832   2.673   4.059  0.8256 -0.7698 -0.3943
 2947SOL     OW20473   1.724   1.547   8.937  0.2029 -0.0817 -0.7828
 2947SOL    HW120474   1.660   1.591   8.881 -0.7787 -0.7770 -0.2200
 2947SOL    HW220475   1.664   1.505   8.999  0.9854 -1.2284 -0.8102
 2948SOL     OW20476   1.159   3.226   2.642  0.3688 -0.1494 -0.3112
 2948SOL    HW120477   1.129   3.160   2.706  2.9529  0.5194  1.6035
 2948SOL    HW220478   1.083   3.284   2.640  0.5891  0.2827  2.9249
 2949SOL     OW20479   2.848   1.038  15.181 -0.2146  0.1549 -0.3904
 2949SOL    HW120480   2.795   1.018  15.104 -2.7287 -2.4614  2.0211
 2949SOL    HW220481   2.926   1.068  15.135  0.0409  0.8229  0.4827
 2950SOL     OW20482   2.166   4.654   5.805 -0.4002  0.1484 -0.0499
 2950SOL    HW120483   2.203   4.586   5.748  0.9781 -0.7320  1.8769
 2950SOL    HW220484   2.203   4.734   5.769  0.3147 -0.0930  0.1406
 2951SOL     OW20485   1.717   2.140   1.806 -0.0265  0.1504  0.5855
 2951SOL    HW120486   1.775   2.196   1.858  0.8625 -1.9182  1.8283
 2951SOL    HW220487   1.750   2.051   1.816 -2.6916 -0.7834  1.2261
 2952SOL     OW20488   3.924   3.440   8.484 -0.7859  0.0870 -0.2226
 2952SOL    HW120489   3.855   3.507   8.488 -1.4579 -0.5193 -1.7077
 2952SOL    HW220490   3.951   3.446   8.393 -0.6681 -1.2452 -0.2729
 2953SOL     OW20491   2.082   0.732   4.191  0.4721  0.1126 -0.3150
 2953SOL    HW120492   2.122   0.657   4.147  2.1900  0.6293  0.3706
 2953SOL    HW220493   1.990   0.714   4.172  0.0054  1.1573  0.9204
 2954SOL     OW20494   2.055   2.658   8.210  0.2445 -0.0489 -0.0818
 2954SOL    HW120495   2.010   2.742   8.205  1.1888  0.3901 -1.1404
 2954SOL    HW220496   1.995   2.595   8.250  0.1097  1.0686  1.4637
 2955SOL     OW20497   1.416   1.536   6.938  0.4486 -0.4076  0.2042
 2955SOL    HW120498   1.328   1.521   6.973  0.8856 -1.6380  0.8027
 2955SOL    HW220499   1.480   1.526   7.009 -0.0740  2.6416  1.0994
 2956SOL     OW20500   2.849   0.080   3.591 -0.4338 -0.0894  0.1824
 2956SOL    HW120501   2.805   0.032   3.662  0.9242 -2.0119 -0.2945
 2956SOL    HW220502   2.887   0.014   3.534 -0.8530  1.5116 -1.9151
 2957SOL     OW20503   4.723   4.699   3.705 -0.2829 -0.2137  0.0079
 2957SOL    HW120504   4.700   0.000   3.787 -1.2602  0.0042 -0.3746
 2957SOL    HW220505   0.075   4.710   3.684 -0.3245  0.2278  0.0727
 2958SOL     OW20506   0.829   1.111  16.203  0.0033  0.1552 -0.0955
 2958SOL    HW120507   0.778   1.148  16.130 -2.0161 -0.4004  1.0373
 2958SOL    HW220508   0.851   1.028  16.160  2.4385  0.0204  1.4736
 2959SOL     OW20509   3.810   1.297   0.025  0.2569 -0.5764 -0.0998
 2959SOL    HW120510   3.814   1.225   0.088  0.2604 -0.3885  0.1182
 2959SOL    HW220511   3.774   1.255  17.709 -1.0182 -0.6606  0.5384
 2960SOL     OW20512   0.281   2.135  10.879  0.2228 -0.0711  0.4610
 2960SOL    HW120513   0.195   2.170  10.856  0.1665 -0.3215  0.2910
 2960SOL    HW220514   0.331   2.165  10.803 -0.3393  0.8779  0.4585
 2961SOL     OW20515   1.993   2.137   9.441  0.1487 -0.5343  0.1339
 2961SOL    HW120516   2.061   2.202   9.421  0.1052  0.5197  3.3525
 2961SOL    HW220517   1.995   2.143   9.536  1.1306  1.4980  0.0029
 2962SOL     OW20518   0.097   1.165   8.689 -0.2944  0.0540  0.5823
 2962SOL    HW120519   0.010   1.139   8.659 -0.1678 -0.3277  0.5398
 2962SOL    HW220520   0.147   1.088   8.663  1.5430  1.6237 -0.5642
 2963SOL     OW20521   4.547   2.140   3.451 -0.1044 -0.5844  0.1711
 2963SOL    HW120522   4.626   2.161   3.501 -0.4223  0.8373  0.0939
 2963SOL    HW220523   4.552   2.045   3.463 -1.8378 -0.6656  0.2844
 2964SOL     OW20524   3.022   1.546   8.220  0.2133  0.1647  0.3152
 2964SOL    HW120525   2.939   1.530   8.264 -0.0395  0.4226 -0.0729
 2964SOL    HW220526   3.001   1.621   8.164  2.2493 -0.1899 -0.9203
 2965SOL     OW20527   1.595   2.132   5.780  0.2703 -0.6743 -0.1501
 2965SOL    HW120528   1.514   2.148   5.827  1.1025  1.3079  0.6361
 2965SOL    HW220529   1.675   2.128   5.832  0.7310 -0.5750 -0.8434
 2966SOL     OW20530   0.952   2.413  15.284 -0.1031 -0.4004  0.6733
 2966SOL    HW120531   0.927   2.488  15.338  0.2951  0.5778 -0.5100
 2966SOL    HW220532   0.942   2.341  15.347 -0.2307  0.7396  1.9495
 2967SOL     OW20533   0.344   3.016   0.013  0.5340  0.0145 -0.1844
 2967SOL    HW120534   0.396   2.936   0.018 -0.1041 -0.4305 -0.6177
 2967SOL    HW220535   0.344   3.027  17.679  0.6993 -0.2761 -0.2173
 2968SOL     OW20536   0.846   0.239   2.294 -0.4608 -0.0296 -0.7065
 2968SOL    HW120537   0.807   0.152   2.304 -0.8897  0.2658  0.2616
 2968SOL    HW220538   0.800   0.268   2.215 -0.2129  0.3880 -0.6949
 2969SOL     OW20539   3.494   1.449  12.672 -0.3961 -0.6240  0.4517
 2969SOL    HW120540   3.440   1.417  12.744  0.0175 -1.4334  0.3996
 2969SOL    HW220541   3.584   1.445  12.703 -0.4189  0.7373  0.7097
 2970SOL     OW20542   3.215   3.317   4.669 -0.1250 -0.1188 -0.3108
 2970SOL    HW120543   3.120   3.322   4.662 -0.1627 -0.9708 -0.3646
 2970SOL    HW220544   3.233   3.351   4.582  0.9749  0.4480  0.1309
 2971SOL     OW20545   0.567   3.157   3.235  0.1584 -0.1947  0.3609
 2971SOL    HW120546   0.532   3.071   3.256  1.1965 -1.1681 -1.9137
 2971SOL    HW220547   0.657   3.141   3.263 -0.0940  0.4993  1.6045
 2972SOL     OW20548   1.462   0.064   7.960 -0.7731 -0.4398  0.3136
 2972SOL    HW120549   1.503   0.146   7.986 -0.5659 -0.6670  0.7112
 2972SOL    HW220550   1.430   0.081   7.871  0.5924  1.7848  0.2497
 2973SOL     OW20551   3.386   3.374   5.996  0.1770 -0.6733 -0.0538
 2973SOL    HW120552   3.326   3.333   5.935  0.1033  0.2792 -0.6135
 2973SOL    HW220553   3.446   3.431   5.947  0.7375 -1.5867 -0.4233
 2974SOL     OW20554   1.678   2.621  13.054 -0.1295  0.3260  0.2419
 2974SOL    HW120555   1.721   2.548  13.098 -0.3309  0.1962  0.2242
 2974SOL    HW220556   1.595   2.581  13.027 -1.4011  2.3444  1.0992
 2975SOL     OW20557   2.871   4.476   8.560  0.5447 -0.8302  0.4937
 2975SOL    HW120558   2.888   4.387   8.590 -0.1619 -0.7993  1.0038
 2975SOL    HW220559   2.889   4.541   8.628  1.4942  0.0416 -0.5955
 2976SOL     OW20560   1.951   0.426   7.477  0.1473 -0.7297  0.0697
 2976SOL    HW120561   1.873   0.396   7.523  0.3430 -1.9316 -0.3961
 2976SOL    HW220562   1.983   0.343   7.442  3.0157  0.4209 -0.0499
 2977SOL     OW20563   4.034   0.237  11.841  0.0520  0.2893  0.1313
 2977SOL    HW120564   3.976   0.181  11.789  1.2830  0.4624 -1.4238
 2977SOL    HW220565   3.993   0.225  11.926  2.5889 -2.4166  0.9740
 2978SOL     OW20566   0.757   0.524   7.701  0.3419 -0.3255  0.1678
 2978SOL    HW120567   0.767   0.432   7.723 -0.7786 -0.6096 -0.5510
 2978SOL    HW220568   0.682   0.527   7.642  1.4177 -1.4125 -1.2524
 2979SOL     OW20569   0.935   2.395  14.897 -0.7923 -0.3965 -0.1022
 2979SOL    HW120570   0.978   2.416  14.814  0.6410  1.1819  1.0302
 2979SOL    HW220571   0.856   2.350  14.866 -1.1176 -0.5726  0.9830
 2980SOL     OW20572   3.374   3.975   5.061 -0.3564  0.1682  0.1370
 2980SOL    HW120573   3.326   4.033   5.122 -2.9854 -1.1487 -0.6727
 2980SOL    HW220574   3.313   3.975   4.987 -0.7710 -2.4193  0.4946
 2981SOL     OW20575   0.463   1.739   1.347  0.5810  0.2408  0.0546
 2981SOL    HW120576   0.499   1.701   1.267  0.4218 -1.1225  0.6376
 2981SOL    HW220577   0.380   1.775   1.315  0.0525 -0.4015  0.7097
 2982SOL     OW20578   2.738   0.810  15.233 -0.3275  0.0674 -0.6233
 2982SOL    HW120579   2.753   0.765  15.150  0.2672  0.4145 -0.7034
 2982SOL    HW220580   2.794   0.887  15.225  2.1562 -1.5806  0.9431
 2983SOL     OW20581   2.234   3.126  10.392  0.5511  0.6096 -0.1801
 2983SOL    HW120582   2.147   3.089  10.377  0.9045 -0.1590 -0.3376
 2983SOL    HW220583   2.235   3.116  10.487  1.7663 -1.1063 -0.3627
 2984SOL     OW20584   3.798   1.428  12.498 -0.3523  0.0274 -0.3510
 2984SOL    HW120585   3.823   1.479  12.575 -3.0650  0.0811  0.5022
 2984SOL    HW220586   3.782   1.486  12.424 -0.8397  1.4206  0.8471
 2985SOL     OW20587   3.160   2.216   9.160  0.2606 -0.5595  0.3176
 2985SOL    HW120588   3.178   2.287   9.098 -0.4469 -0.3333  0.3719
 2985SOL    HW220589   3.140   2.146   9.098  1.4035 -1.5070  1.0295
 2986SOL     OW20590   0.415   3.229   2.840 -0.0641 -0.3742  0.0008
 2986SOL    HW120591   0.432   3.221   2.933  1.9653 -0.8911 -0.4215
 2986SOL    HW220592   0.495   3.187   2.808  0.4715  0.3777  0.3798
 2987SOL     OW20593   2.648   1.069   4.999  0.0605  0.1798 -0.1110
 2987SOL    HW120594   2.671   1.095   5.088 -1.4228 -2.0066  0.9256
 2987SOL    HW220595   2.727   1.029   4.962 -0.1105 -0.2534 -0.0093
 2988SOL     OW20596   1.231   0.327  13.496 -0.4155  0.8350 -0.6953
 2988SOL    HW120597   1.203   0.413  13.465 -1.6887  0.5243 -0.3913
 2988SOL    HW220598   1.154   0.273  13.514  1.1754 -1.3446 -0.4471
 2989SOL     OW20599   1.514   1.579   6.393 -0.1855  0.8894 -0.0934
 2989SOL    HW120600   1.558   1.633   6.328 -1.3845  0.4175 -1.2778
 2989SOL    HW220601   1.463   1.519   6.340 -1.2120  1.3173  0.4149
 2990SOL     OW20602   1.004   1.877   7.158  0.4574 -0.0900 -0.2298
 2990SOL    HW120603   1.035   1.960   7.123 -2.4187  1.0152 -0.1650
 2990SOL    HW220604   0.949   1.906   7.231  0.2550 -0.4185 -0.2519
 2991SOL     OW20605   0.298   3.015   4.617  0.9793 -0.3439  0.3118
 2991SOL    HW120606   0.213   3.042   4.652  0.3968 -1.2540 -0.3950
 2991SOL    HW220607   0.279   2.925   4.588 -0.2755 -0.2430  0.7878
 2992SOL     OW20608   2.065   3.447  10.966 -0.2878  0.0122 -0.6752
 2992SOL    HW120609   2.076   3.386  11.040 -1.3261  1.0085  0.3119
 2992SOL    HW220610   2.071   3.379  10.899 -0.1079 -2.5328  1.8885
 2993SOL     OW20611   3.799   3.411   3.321 -0.0276  0.4873 -0.0885
 2993SOL    HW120612   3.874   3.393   3.377 -1.1646  0.2628  1.3719
 2993SOL    HW220613   3.801   3.506   3.310 -3.7546  0.8797  2.3164
 2994SOL     OW20614   1.565   4.466  14.950  0.0302 -0.0692  0.1614
 2994SOL    HW120615   1.572   4.385  15.001  0.9131 -0.0545  0.0687
 2994SOL    HW220616   1.654   4.475  14.917 -0.3318  0.0904 -0.7522
 2995SOL     OW20617   2.071   1.408   2.130  0.5736  0.2966  0.1219
 2995SOL    HW120618   2.150   1.462   2.141  1.1218 -0.5862  0.4692
 2995SOL    HW220619   2.093   1.360   2.050  0.4830  1.3229 -0.5303
 2996SOL     OW20620   0.080   2.061   3.603 -0.1266  0.5264 -0.2699
 2996SOL    HW120621   0.022   2.009   3.659  2.8263 -0.3008  2.0314
 2996SOL    HW220622   0.086   2.147   3.645 -0.8312  0.4333  0.0155
 2997SOL     OW20623   2.508   0.664   5.455  0.0584 -0.0038 -0.1618
 2997SOL    HW120624   2.469   0.751   5.460 -2.0936 -1.0105  0.3767
 2997SOL    HW220625   2.529   0.634   5.544 -4.0449  0.0845  0.8119
 2998SOL     OW20626   0.748   0.950  10.624  0.2417 -0.1561 -0.5880
 2998SOL    HW120627   0.734   0.987  10.537 -2.6454  1.1957  0.4480
 2998SOL    HW220628   0.787   1.024  10.670 -1.0877  0.4100 -0.3798
 2999SOL     OW20629   2.422   2.055   3.980 -0.5443 -0.9530 -0.0838
 2999SOL    HW120630   2.505   2.070   4.025  0.5391 -1.6617 -1.8427
 2999SOL    HW220631   2.388   2.142   3.959  0.7209 -0.0840  1.4081
 3000SOL     OW20632   1.354   2.197   9.215  0.1610  0.1667 -0.3883
 3000SOL    HW120633   1.435   2.171   9.171 -0.6248 -0.9959 -1.1578
 3000SOL    HW220634   1.382   2.272   9.267  2.0576 -0.6211 -0.2745
 3001SOL     OW20635   4.324   3.786   7.810 -0.0628  0.0317  0.1718
 3001SOL    HW120636   4.251   3.823   7.859 -0.2260 -0.4976  0.3287
 3001SOL    HW220637   4.307   3.815   7.720  3.4319  0.7513 -0.2668
 3002SOL     OW20638   2.001   3.119   5.371 -0.1425 -0.0742  0.2138
 3002SOL    HW120639   1.973   3.115   5.279 -0.3601  0.5709  0.2534
 3002SOL    HW220640   2.057   3.196   5.363  0.1097 -0.1360  1.4646
 3003SOL     OW20641   3.320   3.509  17.163  0.8401  0.4446  0.1443
 3003SOL    HW120642   3.298   3.575  17.229  0.6585 -2.7661  3.2603
 3003SOL    HW220643   3.261   3.437  17.184  1.0645  0.6918  1.6543
 3004SOL     OW20644   1.448   0.436   2.992 -0.0424 -0.5307  0.0571
 3004SOL    HW120645   1.382   0.382   2.949  0.2391 -1.4563  0.7770
 3004SOL    HW220646   1.434   0.438   3.087  1.2491  0.0100  0.2326
 3005SOL     OW20647   2.223   2.196   7.956 -0.4549  0.0283  0.6938
 3005SOL    HW120648   2.174   2.190   7.874  0.6135  1.8477 -0.0809
 3005SOL    HW220649   2.258   2.285   7.943 -1.2385  0.4822  1.6999
 3006SOL     OW20650   0.319   1.806   3.760 -0.1355  0.2880 -0.2948
 3006SOL    HW120651   0.242   1.754   3.738  0.4232 -0.1095 -1.2862
 3006SOL    HW220652   0.351   1.744   3.826  1.4752  1.5608  0.1370
 3007SOL     OW20653   2.842   1.887   3.555  0.1736 -0.7077  0.5213
 3007SOL    HW120654   2.791   1.807   3.559 -1.2122  0.0865 -1.0739
 3007SOL    HW220655   2.799   1.941   3.489 -1.0176  0.9741  2.6334
 3008SOL     OW20656   1.353   4.068   7.751 -0.2908  0.2524 -0.7718
 3008SOL    HW120657   1.321   4.124   7.822 -0.5405 -1.3851  0.4146
 3008SOL    HW220658   1.302   4.106   7.679  0.3996  0.5964 -1.0743
 3009SOL     OW20659   4.665   0.939   8.545  0.5129 -0.9113  0.0962
 3009SOL    HW120660   4.655   0.852   8.505 -1.0743  0.0119 -1.5571
 3009SOL    HW220661   4.730   0.980   8.488 -0.3094  1.4113  0.8386
 3010SOL     OW20662   4.430   3.730   4.983  0.2076 -0.7334  1.0882
 3010SOL    HW120663   4.397   3.816   5.009  1.0116 -1.0644  3.2011
 3010SOL    HW220664   4.388   3.709   4.900 -0.7890 -1.1114  1.6955
 3011SOL     OW20665   1.919   1.967  14.013  0.3724  0.2675  0.2925
 3011SOL    HW120666   1.994   1.915  14.044 -2.2814 -2.1017  2.6666
 3011SOL    HW220667   1.853   1.902  13.989 -0.0696  0.8596 -0.0970
 3012SOL     OW20668   1.818   3.844   6.373 -0.3795 -0.8223 -0.2521
 3012SOL    HW120669   1.809   3.811   6.284  1.6498 -1.8509 -0.0653
 3012SOL    HW220670   1.889   3.789   6.405 -0.7259 -1.7861 -1.1131
 3013SOL     OW20671   3.710   3.736   4.733 -0.6461  0.3065 -0.5255
 3013SOL    HW120672   3.631   3.722   4.786 -0.8533 -2.4048 -1.5683
 3013SOL    HW220673   3.700   3.829   4.712 -0.8322  0.4131  0.0292
 3014SOL     OW20674   1.118   1.202  15.773 -0.1297  0.9137  0.4860
 3014SOL    HW120675   1.106   1.272  15.838  1.0274  0.2260  1.4200
 3014SOL    HW220676   1.078   1.251  15.701 -2.2177 -0.3682  0.7653
 3015SOL     OW20677   3.359   0.992  16.507  0.2205 -0.5989 -0.0631
 3015SOL    HW120678   3.346   1.000  16.413 -3.4078  0.8236  0.5318
 3015SOL    HW220679   3.454   1.001  16.501  0.4505 -0.9561  3.0384
 3016SOL     OW20680   0.245   2.729   6.610 -0.3874  0.8331  0.1246
 3016SOL    HW120681   0.261   2.669   6.684 -0.2932  0.4805 -0.1814
 3016SOL    HW220682   0.313   2.700   6.550 -2.3483 -0.3594 -1.5626
 3017SOL     OW20683   1.833   2.873   6.999  0.2929 -0.0141 -0.1950
 3017SOL    HW120684   1.761   2.851   7.059  0.6594  0.0284  0.2620
 3017SOL    HW220685   1.845   2.783   6.968  1.6902 -0.0769  0.5125
 3018SOL     OW20686   1.525   0.615   9.294 -0.0142  0.3857  0.1380
 3018SOL    HW120687   1.559   0.665   9.369  0.8420 -1.1130  0.7565
 3018SOL    HW220688   1.576   0.537   9.315  1.0522  1.1545  0.3997
 3019SOL     OW20689   3.486   3.417   9.588  0.2837 -0.4152  0.3156
 3019SOL    HW120690   3.538   3.483   9.634  0.9961  0.4549 -1.7340
 3019SOL    HW220691   3.458   3.362   9.661  1.8007 -1.1947  0.3198
 3020SOL     OW20692   3.187   2.909  12.668 -0.3625  0.2599  0.3667
 3020SOL    HW120693   3.261   2.848  12.677 -0.0757  0.4770 -0.5032
 3020SOL    HW220694   3.196   2.954  12.752 -0.6813 -1.9524  1.5808
 3021SOL     OW20695   2.533   1.656   1.319  0.2242 -0.6497 -0.4406
 3021SOL    HW120696   2.496   1.726   1.265 -0.4915 -1.7194 -1.3529
 3021SOL    HW220697   2.502   1.585   1.262  1.7116 -1.3014 -0.4288
 3022SOL     OW20698   3.384   3.743   2.621 -0.0639  0.3677  0.1215
 3022SOL    HW120699   3.404   3.825   2.575 -0.5951  1.0965  1.1834
 3022SOL    HW220700   3.331   3.777   2.693  1.8680 -0.3814  1.8655
 3023SOL     OW20701   2.862   3.840   5.292  0.2000  0.1525 -0.0203
 3023SOL    HW120702   2.924   3.841   5.366 -1.1554  1.3708  1.0995
 3023SOL    HW220703   2.881   3.926   5.255  0.9645 -0.0765 -0.1612
 3024SOL     OW20704   0.035   2.375   2.129 -0.1953  0.2271  0.3432
 3024SOL    HW120705   4.681   2.376   2.121 -0.1462  0.5082 -0.2020
 3024SOL    HW220706   0.062   2.297   2.079  0.7464  0.6886  0.1223
 3025SOL     OW20707   1.035   0.901   2.968  0.2992  0.1344 -0.0923
 3025SOL    HW120708   1.061   0.940   3.051  1.5834 -1.5524  0.3022
 3025SOL    HW220709   0.980   0.825   2.989  0.2139 -0.8589 -3.9631
 3026SOL     OW20710   4.634   3.092  12.000 -0.1495  0.5790  0.2507
 3026SOL    HW120711   4.655   3.064  12.089 -1.0097  1.0995  0.6218
 3026SOL    HW220712   4.543   3.062  11.994 -0.2296  0.2728  2.7489
 3027SOL     OW20713   2.889   0.302   6.858  0.3757  1.1515 -0.1504
 3027SOL    HW120714   2.939   0.373   6.898 -0.9354  1.1280  1.5392
 3027SOL    HW220715   2.806   0.311   6.906 -0.5834 -3.5227 -0.9401
 3028SOL     OW20716   0.694   3.422  15.184 -0.0620 -0.5664 -0.2786
 3028SOL    HW120717   0.679   3.509  15.149 -2.8935 -1.3002 -0.8697
 3028SOL    HW220718   0.657   3.358  15.124  0.6701  0.9680 -2.3414
 3029SOL     OW20719   1.032   1.384   7.761 -0.3425  0.2814  0.5413
 3029SOL    HW120720   1.097   1.433   7.813  2.4411 -2.4580 -0.3157
 3029SOL    HW220721   1.019   1.441   7.686 -1.0408  0.4780  0.8182
 3030SOL     OW20722   3.227   2.921   9.650 -0.2458  0.1294 -0.1599
 3030SOL    HW120723   3.138   2.956   9.646  0.2278  1.3557  0.2217
 3030SOL    HW220724   3.271   2.943   9.568  0.2309  0.4816  0.1919
 3031SOL     OW20725   3.433   3.702   0.195 -0.0027  0.5678  0.0611
 3031SOL    HW120726   3.495   3.657   0.252  1.3246  1.8209 -0.3973
 3031SOL    HW220727   3.466   3.787   0.224  1.5499 -0.9107  2.5188
 3032SOL     OW20728   3.354   2.173   8.515 -0.5950 -0.1861 -0.1255
 3032SOL    HW120729   3.392   2.204   8.597 -1.4481 -2.5357  1.1699
 3032SOL    HW220730   3.261   2.156   8.529 -0.7624  1.1042  0.2703
 3033SOL     OW20731   4.250   3.537   1.942  0.4763  0.4290 -0.7121
 3033SOL    HW120732   4.252   3.453   1.989  0.2979 -1.0016 -3.2439
 3033SOL    HW220733   4.209   3.510   1.859  0.0175  1.7597 -0.9166
 3034SOL     OW20734   3.137   1.298   5.676  0.3956  0.8334 -0.7607
 3034SOL    HW120735   3.158   1.383   5.638  0.7660  1.8865  1.7846
 3034SOL    HW220736   3.173   1.235   5.613  2.0555  1.0878 -0.0648
 3035SOL     OW20737   3.379   0.859   4.520 -0.0390 -0.1431  0.2018
 3035SOL    HW120738   3.354   0.943   4.481  1.5068 -0.4508 -1.4133
 3035SOL    HW220739   3.294   0.817   4.513  1.0364 -2.7440  2.9748
 3036SOL     OW20740   3.851   1.607   0.206  0.2054  0.4422 -0.2300
 3036SOL    HW120741   3.778   1.555   0.239  0.8213 -1.6913 -2.1641
 3036SOL    HW220742   3.842   1.599   0.111 -2.3003 -2.4794  0.2370
 3037SOL     OW20743   3.754   0.715  14.248 -0.1411  0.4096  0.0741
 3037SOL    HW120744   3.820   0.736  14.314  0.5933  0.7789 -0.7589
 3037SOL    HW220745   3.810   0.650  14.205  0.5232  0.1631  1.3098
 3038SOL     OW20746   1.451   0.109  16.508 -0.2040  0.3807 -0.0985
 3038SOL    HW120747   1.433   0.085  16.417  0.6779  2.5556 -0.8483
 3038SOL    HW220748   1.540   0.074  16.514 -0.9945 -1.5905  0.2619
 3039SOL     OW20749   1.525   3.872   4.278 -0.0432 -0.0819  0.3674
 3039SOL    HW120750   1.563   3.954   4.248 -0.6377  0.1258  0.1728
 3039SOL    HW220751   1.588   3.851   4.347  0.1031  2.5118  1.0134
 3040SOL     OW20752   2.315   1.489   6.384  0.0243 -0.1762  0.2632
 3040SOL    HW120753   2.267   1.571   6.395 -3.1610 -1.6099 -2.7882
 3040SOL    HW220754   2.392   1.498   6.439 -1.2171  0.7543  1.8520
 3041SOL     OW20755   0.935   0.782  14.984 -0.1321 -0.6352 -0.2037
 3041SOL    HW120756   0.949   0.691  14.958  0.1714 -0.0219 -2.1906
 3041SOL    HW220757   0.926   0.762  15.077  1.3823  1.6952  0.4564
 3042SOL     OW20758   0.520   1.648   6.728  0.0543 -0.4339 -0.5103
 3042SOL    HW120759   0.575   1.664   6.651 -0.0189 -0.7952 -0.6374
 3042SOL    HW220760   0.557   1.569   6.767  2.6703  0.9587 -0.1052
 3043SOL     OW20761   2.647   1.514   2.275 -0.7079  0.0129 -0.3457
 3043SOL    HW120762   2.643   1.461   2.194 -0.8554 -1.1348  0.4115
 3043SOL    HW220763   2.667   1.601   2.241  1.3371 -0.5374 -0.5514
 3044SOL     OW20764   3.382   0.502   9.022 -0.0367  0.4034 -0.1969
 3044SOL    HW120765   3.419   0.430   9.074  0.4524 -0.3712 -1.6050
 3044SOL    HW220766   3.385   0.467   8.933 -0.3168  2.3375 -0.9614
 3045SOL     OW20767   2.451   2.023  16.379  0.1676 -0.0312 -0.0067
 3045SOL    HW120768   2.500   1.947  16.347  1.3683  0.4542  0.6847
 3045SOL    HW220769   2.397   1.988  16.450  0.1933 -0.8399 -0.3856
 3046SOL     OW20770   2.563   2.103   6.647 -0.5327 -0.3980 -0.1616
 3046SOL    HW120771   2.623   2.147   6.707  0.2593  0.7043 -1.7491
 3046SOL    HW220772   2.515   2.179   6.614 -1.1868 -0.3349  0.9551
 3047SOL     OW20773   4.268   4.434   2.085 -0.1829 -0.2217 -0.6241
 3047SOL    HW120774   4.243   4.493   2.156  0.0382 -1.7659  0.7223
 3047SOL    HW220775   4.190   4.446   2.030  0.4846 -1.8801 -1.9334
 3048SOL     OW20776   2.264   1.524   3.380  0.0006 -0.2862 -0.2598
 3048SOL    HW120777   2.313   1.522   3.462 -1.6737  0.3283  0.7527
 3048SOL    HW220778   2.241   1.616   3.376 -0.1646 -0.3892 -1.9896
 3049SOL     OW20779   2.854   3.530  15.669  0.1492  0.2049  0.7157
 3049SOL    HW120780   2.858   3.454  15.727  1.1307 -1.9158 -2.1528
 3049SOL    HW220781   2.762   3.557  15.677  0.4301  1.2325  0.4840
 3050SOL     OW20782   4.186   4.209   3.002 -0.0926 -0.4497  0.4551
 3050SOL    HW120783   4.173   4.227   2.909 -0.1205 -0.9864  0.3552
 3050SOL    HW220784   4.213   4.117   2.998 -0.4268 -0.5141 -0.2174
 3051SOL     OW20785   1.083   2.270   1.135  0.5164  0.1874  0.4557
 3051SOL    HW120786   1.144   2.272   1.209  1.2004 -3.3399 -0.0019
 3051SOL    HW220787   1.089   2.178   1.108 -2.1120  0.3377 -0.5874
 3052SOL     OW20788   1.686   2.242   3.470  0.1116  0.0766 -0.2842
 3052SOL    HW120789   1.730   2.163   3.501 -1.8827 -1.3665 -1.0883
 3052SOL    HW220790   1.663   2.279   3.555 -0.4733  0.3016 -0.5371
 3053SOL     OW20791   2.549   3.632   2.268 -0.0327  0.2401  0.4105
 3053SOL    HW120792   2.555   3.562   2.332 -0.4677 -1.8871 -1.8884
 3053SOL    HW220793   2.489   3.690   2.316 -1.0633  1.1021 -1.8998
 3054SOL     OW20794   4.681   3.894   0.521  0.3422 -0.6022 -0.0344
 3054SOL    HW120795   4.640   3.808   0.521  0.2024 -0.5315  1.8056
 3054SOL    HW220796   0.006   3.892   0.452 -1.4372  1.4495 -1.8160
 3055SOL     OW20797   1.364   1.253  17.200  0.1253 -0.1086  0.0485
 3055SOL    HW120798   1.381   1.182  17.262  0.0787 -0.6328 -0.5455
 3055SOL    HW220799   1.325   1.322  17.253 -1.9440 -1.2053 -0.0663
 3056SOL     OW20800   0.264   1.465   0.879  0.2032  0.0252  0.1925
 3056SOL    HW120801   0.239   1.550   0.844  1.8233  0.3253 -0.2283
 3056SOL    HW220802   0.184   1.416   0.863 -1.1930  2.4754 -0.2657
 3057SOL     OW20803   3.975   4.048  14.032  0.4934 -0.5487  1.4019
 3057SOL    HW120804   3.917   4.086  13.965  0.1305 -0.0037  2.0258
 3057SOL    HW220805   3.910   4.033  14.101  0.2539 -2.4957  0.7661
 3058SOL     OW20806   4.147   0.409   3.214  0.1293 -0.2312 -0.0070
 3058SOL    HW120807   4.114   0.321   3.233  2.1453 -1.0644 -0.4124
 3058SOL    HW220808   4.242   0.398   3.216  0.1476 -0.7070 -2.7431
 3059SOL     OW20809   3.619   1.034   3.980 -0.5355  0.0769 -0.2145
 3059SOL    HW120810   3.534   1.079   3.980  0.6370  2.2700 -0.0182
 3059SOL    HW220811   3.669   1.115   3.971  1.0678 -0.9417 -0.4141
 3060SOL     OW20812   2.317   2.044   2.879 -0.3458 -0.2349  0.2307
 3060SOL    HW120813   2.281   1.978   2.938  1.0015 -1.0630  0.1248
 3060SOL    HW220814   2.321   2.112   2.946  1.1451  1.7172 -1.8304
 3061SOL     OW20815   1.799   1.446   2.210  0.4934 -0.5489  0.0338
 3061SOL    HW120816   1.892   1.445   2.231  0.5326 -0.7385 -0.1520
 3061SOL    HW220817   1.763   1.400   2.286 -1.9909  2.5377  0.7273
 3062SOL     OW20818   2.724   1.202   4.081  0.1030 -0.0147 -0.3397
 3062SOL    HW120819   2.649   1.152   4.114 -0.0750 -1.2509 -2.5876
 3062SOL    HW220820   2.672   1.266   4.032 -0.6788  2.5259  3.8461
 3063SOL     OW20821   3.819   3.289  12.861 -0.3945  0.3191 -0.0425
 3063SOL    HW120822   3.849   3.229  12.930 -0.0763  2.8093  1.9575
 3063SOL    HW220823   3.732   3.312  12.894  0.0490 -0.8841  1.9648
 3064SOL     OW20824   3.312   0.962  11.089 -0.0962 -0.4714  0.3388
 3064SOL    HW120825   3.262   0.882  11.077  0.9136 -1.0087 -0.3278
 3064SOL    HW220826   3.389   0.928  11.134 -2.4518 -1.3061  3.7409
 3065SOL     OW20827   1.048   1.032   4.659 -0.2473  0.1545  0.4542
 3065SOL    HW120828   1.095   0.949   4.669 -0.8158 -0.3667 -1.0925
 3065SOL    HW220829   1.024   1.026   4.566 -2.5463  1.3695  0.9879
 3066SOL     OW20830   4.262   2.881   4.862  0.3525  0.2548 -0.4011
 3066SOL    HW120831   4.169   2.888   4.842 -0.1785  0.3260  2.1045
 3066SOL    HW220832   4.295   2.846   4.779 -3.0219  3.0138 -2.9164
 3067SOL     OW20833   0.737   2.583  13.223  0.3186 -0.1481  0.7932
 3067SOL    HW120834   0.751   2.654  13.160  0.1648 -1.2581 -0.5067
 3067SOL    HW220835   0.806   2.603  13.286  1.9513 -0.2966 -0.9490
 3068SOL     OW20836   3.660   1.388   4.730  0.2690  0.6033 -0.0273
 3068SOL    HW120837   3.754   1.409   4.729  0.5988 -0.7878  0.9357
 3068SOL    HW220838   3.653   1.350   4.643 -1.4565 -1.4709  1.0371
 3069SOL     OW20839   3.596   0.515   5.573 -0.4182 -0.4363 -0.0559
 3069SOL    HW120840   3.604   0.473   5.488  0.0673 -0.5476  0.0495
 3069SOL    HW220841   3.643   0.597   5.557  0.5905 -1.2192 -1.0720
 3070SOL     OW20842   0.319   0.970   6.891  0.1226 -0.7405  0.2195
 3070SOL    HW120843   0.245   0.916   6.919 -1.8117  2.1343  0.7127
 3070SOL    HW220844   0.292   0.997   6.803 -1.1854  1.4363  1.2824
 3071SOL     OW20845   3.328   2.866   8.596  0.1630 -0.0146 -0.4178
 3071SOL    HW120846   3.236   2.892   8.602  0.1622  0.2835 -1.7017
 3071SOL    HW220847   3.319   2.771   8.585 -0.8866  0.0523 -0.0757
 3072SOL     OW20848   1.699   1.100  13.404  0.6719  0.1564 -0.0416
 3072SOL    HW120849   1.698   1.175  13.463  1.8583  0.2487 -0.1379
 3072SOL    HW220850   1.632   1.128  13.342  0.2430  0.0148  0.3565
 3073SOL     OW20851   0.095   0.502   2.299  0.3730  0.2464  0.2284
 3073SOL    HW120852   0.096   0.597   2.283 -0.4640  0.1986 -0.1184
 3073SOL    HW220853   0.167   0.480   2.241  0.2632  0.5123 -0.0055
 3074SOL     OW20854   3.325   1.402   2.860 -0.1759 -0.0726  0.0918
 3074SOL    HW120855   3.318   1.435   2.950  2.0507 -0.1945  0.3019
 3074SOL    HW220856   3.320   1.309   2.882  0.7274 -0.1446 -0.0368
 3075SOL     OW20857   4.318   2.437   4.265 -0.2470  0.3455  0.4287
 3075SOL    HW120858   4.309   2.474   4.353  0.6913  1.3625  0.0940
 3075SOL    HW220859   4.287   2.348   4.284 -0.0614 -0.0667 -1.1718
 3076SOL     OW20860   0.457   1.636   7.812  0.0247 -0.2292  0.4522
 3076SOL    HW120861   0.508   1.557   7.832  1.9229  0.8462 -0.1379
 3076SOL    HW220862   0.522   1.707   7.815  0.4499 -0.5359 -1.3319
 3077SOL     OW20863   4.737   3.657   4.799 -0.0073 -0.1266 -0.1385
 3077SOL    HW120864   4.650   3.622   4.822 -0.3243  1.0529  0.4531
 3077SOL    HW220865   4.720   3.749   4.778  0.4135  0.5461  2.4553
 3078SOL     OW20866   3.844   1.888   2.246 -0.4794  0.1524 -0.0611
 3078SOL    HW120867   3.858   1.892   2.340 -3.2728  0.6692  0.3360
 3078SOL    HW220868   3.881   1.964   2.201 -0.3086  0.4150  0.5284
 3079SOL     OW20869   0.359   3.896  16.793  0.0366  0.0469  0.3927
 3079SOL    HW120870   0.385   3.808  16.821  0.9669  0.1590 -0.1100
 3079SOL    HW220871   0.373   3.897  16.698 -1.6181  1.1096  0.1653
 3080SOL     OW20872   1.422   2.336   3.359 -0.0018 -0.3496  0.4246
 3080SOL    HW120873   1.427   2.384   3.277 -0.5716  0.6495  0.9615
 3080SOL    HW220874   1.421   2.246   3.327 -0.3616  0.5022 -1.9330
 3081SOL     OW20875   4.662   0.176  16.199  0.2291 -0.1776  0.0202
 3081SOL    HW120876   4.718   0.242  16.159 -0.4602  1.7039  2.1606
 3081SOL    HW220877   4.607   0.161  16.122 -1.2795 -1.3479  1.3187
 3082SOL     OW20878   0.626   1.849  15.239 -0.4262 -0.1606 -0.3443
 3082SOL    HW120879   0.709   1.897  15.242  0.8792 -2.5205  1.0846
 3082SOL    HW220880   0.569   1.885  15.171  2.2452  1.2280 -1.8203
 3083SOL     OW20881   0.566   4.027   2.845  0.4697  0.3884  0.3392
 3083SOL    HW120882   0.523   3.957   2.796  2.1368  0.6867 -1.5767
 3083SOL    HW220883   0.491   4.085   2.856  0.5484  0.6935 -0.7605
 3084SOL     OW20884   0.091   4.442   6.244 -0.4261  0.5407 -0.2371
 3084SOL    HW120885   0.173   4.395   6.233 -0.2050  1.0129 -0.6606
 3084SOL    HW220886   0.060   4.382   6.311 -2.0298  0.7903 -0.7455
 3085SOL     OW20887   3.045   2.255   0.091  0.6167  0.0292  0.2863
 3085SOL    HW120888   3.093   2.249   0.174 -1.4550 -1.6461  1.3683
 3085SOL    HW220889   2.986   2.329   0.102 -1.0238 -0.9577 -2.1504
 3086SOL     OW20890   2.421   2.394   4.029  0.3607 -0.1496  0.4293
 3086SOL    HW120891   2.475   2.346   3.965 -1.6205  1.8311 -2.7081
 3086SOL    HW220892   2.490   2.460   4.029 -1.7216  2.0041  1.2370
 3087SOL     OW20893   0.677   2.447   3.109  0.1491  0.0451 -0.0940
 3087SOL    HW120894   0.716   2.426   3.024 -1.6698 -0.6657 -0.7436
 3087SOL    HW220895   0.594   2.401   3.103 -0.2085  0.5344  1.2292
 3088SOL     OW20896   0.774   2.587  16.950  0.4605 -0.3274  0.0434
 3088SOL    HW120897   0.726   2.606  16.869 -0.9865 -0.8361  0.7814
 3088SOL    HW220898   0.804   2.497  16.940 -1.7856 -1.0919  0.2044
 3089SOL     OW20899   4.392   2.602   6.248  0.3360 -0.4014  0.3580
 3089SOL    HW120900   4.481   2.618   6.218  0.3351  1.4702  1.3259
 3089SOL    HW220901   4.405   2.585   6.341  0.1694  0.9841  0.6440
 3090SOL     OW20902   4.239   1.291  14.503 -0.2538 -0.3787  0.3346
 3090SOL    HW120903   4.177   1.328  14.439  0.9903 -1.7715 -1.6627
 3090SOL    HW220904   4.249   1.371  14.554 -0.1678  0.5218 -1.1015
 3091SOL     OW20905   1.335   4.717   8.439 -0.1291 -0.1764 -0.3175
 3091SOL    HW120906   1.327   4.641   8.497  0.3951  0.2992  0.3824
 3091SOL    HW220907   1.372   0.037   8.503  1.2255 -0.6575 -0.6391
 3092SOL     OW20908   4.599   3.346  13.147 -0.4682  0.1803 -0.4538
 3092SOL    HW120909   4.687   3.349  13.185 -0.8855 -1.2618  0.6090
 3092SOL    HW220910   4.534   3.342  13.218  1.9583 -2.7245  1.6083
 3093SOL     OW20911   0.180   2.841  15.128  0.1882  0.0059 -0.7824
 3093SOL    HW120912   0.102   2.813  15.176 -0.0007  0.0917 -1.0444
 3093SOL    HW220913   0.141   2.844  15.041  0.3260  1.9415 -0.7666
 3094SOL     OW20914   3.591   0.804  15.868  0.0397  1.1938 -0.1774
 3094SOL    HW120915   3.619   0.724  15.912 -0.3343  0.8399 -0.5830
 3094SOL    HW220916   3.614   0.774  15.780 -1.3569 -1.3137  0.3020
 3095SOL     OW20917   1.889   0.284   2.321  0.0336 -0.8453  0.0817
 3095SOL    HW120918   1.807   0.307   2.365  0.3513 -1.5220  1.0366
 3095SOL    HW220919   1.930   0.370   2.313 -2.7223  0.2108 -2.4472
 3096SOL     OW20920   4.331   4.028   7.137 -0.8890  0.3935 -0.6096
 3096SOL    HW120921   4.332   3.940   7.100  1.4125  0.7734 -1.4370
 3096SOL    HW220922   4.403   4.026   7.200 -1.0710  0.7357 -0.3884
 3097SOL     OW20923   0.019   3.617   4.035 -0.4436 -0.0870 -0.8178
 3097SOL    HW120924   4.737   3.524   4.033  1.3954 -0.5406 -1.1321
 3097SOL    HW220925   4.691   3.655   3.980 -0.8898 -2.0495 -1.6197
 3098SOL     OW20926   1.615   1.672  12.048 -0.1277  0.6383  0.2013
 3098SOL    HW120927   1.586   1.763  12.047  2.4748  1.4703 -2.1545
 3098SOL    HW220928   1.703   1.689  12.083 -0.1657  0.5447  0.3415
 3099SOL     OW20929   0.031   4.087   2.752  0.1681  0.3600 -0.2376
 3099SOL    HW120930   0.003   4.159   2.695 -2.7211 -0.7993 -0.2781
 3099SOL    HW220931   4.718   4.089   2.831  1.0800  0.8770  0.3666
 3100SOL     OW20932   3.747   2.553   4.770 -0.3017 -0.0088 -0.2495
 3100SOL    HW120933   3.821   2.538   4.830 -0.0298  2.8398  0.1311
 3100SOL    HW220934   3.782   2.595   4.692  1.8459  1.4354  1.4757
 3101SOL     OW20935   0.001   3.596   0.858  0.7477 -0.2573 -0.3049
 3101SOL    HW120936   0.031   3.559   0.941 -0.2883 -0.4768 -0.0288
 3101SOL    HW220937   0.062   3.554   0.797 -1.0429 -3.7703  0.3437
 3102SOL     OW20938   4.381   3.426   8.768  0.0029  0.9013 -0.2892
 3102SOL    HW120939   4.297   3.394   8.738  0.3243 -0.3503  0.1504
 3102SOL    HW220940   4.372   3.522   8.762 -0.6347  0.9484  1.3578
 3103SOL     OW20941   4.108   1.818   6.965 -0.6095 -0.2753  0.0903
 3103SOL    HW120942   4.056   1.865   7.030 -0.4229 -1.8359  1.3741
 3103SOL    HW220943   4.153   1.765   7.030  1.2698  0.6787 -0.4296
 3104SOL     OW20944   3.317   3.261   9.299 -0.6194  0.6543 -0.0289
 3104SOL    HW120945   3.233   3.248   9.342  0.2339  0.9784  1.7789
 3104SOL    HW220946   3.344   3.353   9.306 -2.3239  1.1485 -0.1744
 3105SOL     OW20947   0.352   3.547   4.216  0.4468 -0.2332 -0.2665
 3105SOL    HW120948   0.278   3.604   4.237  1.7892  1.4699 -0.1485
 3105SOL    HW220949   0.302   3.466   4.202 -1.3423  1.1086 -1.6406
 3106SOL     OW20950   2.326   3.915   3.452 -0.5435  0.2659  0.0903
 3106SOL    HW120951   2.313   3.849   3.520  0.4711 -0.0357 -0.0179
 3106SOL    HW220952   2.382   3.861   3.396 -0.2821  1.0151 -0.3665
 3107SOL     OW20953   4.591   3.868   6.389 -0.5138 -0.6514  0.0821
 3107SOL    HW120954   4.577   3.962   6.380  2.2879 -0.3390 -1.1993
 3107SOL    HW220955   4.558   3.829   6.308  0.1263  0.7480 -0.8519
 3108SOL     OW20956   1.568   1.716   3.756  0.3084  0.1681  0.1919
 3108SOL    HW120957   1.511   1.750   3.825  1.3358  1.6198  0.3306
 3108SOL    HW220958   1.658   1.728   3.786  0.8521 -1.9560 -0.5814
 3109SOL     OW20959   4.156   1.879   4.987 -0.3405  0.4009 -0.3353
 3109SOL    HW120960   4.110   1.958   4.958  0.3275  0.7286 -0.4997
 3109SOL    HW220961   4.085   1.822   5.017 -2.4371  2.1802 -1.8954
 3110SOL     OW20962   2.599   3.296   0.810  0.6853  0.5343  0.0847
 3110SOL    HW120963   2.633   3.207   0.816 -0.4665 -0.0501 -2.0793
 3110SOL    HW220964   2.666   3.332   0.752  0.8713 -2.8954 -1.8463
 3111SOL     OW20965   2.723   0.834   3.303 -0.8001 -0.2121 -0.5626
 3111SOL    HW120966   2.661   0.772   3.341 -0.4790 -0.0358  0.2588
 3111SOL    HW220967   2.699   0.910   3.357 -1.2827 -1.1581  0.5442
 3112SOL     OW20968   4.473   2.505   0.347 -0.0360  0.2996 -0.2434
 3112SOL    HW120969   4.542   2.503   0.412  0.2452  1.3610 -0.4979
 3112SOL    HW220970   4.439   2.416   0.346 -0.7849  0.5457  2.7713
 3113SOL     OW20971   2.175   2.089  10.614  0.2573  0.5055 -0.3213
 3113SOL    HW120972   2.258   2.054  10.581 -0.2754  2.5423 -3.7874
 3113SOL    HW220973   2.166   2.026  10.686  0.0177  0.0913 -0.7052
 3114SOL     OW20974   4.308   3.217   4.263  0.2209 -0.0941  0.0633
 3114SOL    HW120975   4.224   3.177   4.287  0.5362 -1.5019 -1.1410
 3114SOL    HW220976   4.376   3.156   4.289 -0.8585 -0.9634  0.8128
 3115SOL     OW20977   0.424   3.016   5.665 -0.3215 -0.3583  0.0182
 3115SOL    HW120978   0.452   2.968   5.586 -1.5770 -2.5629  0.9254
 3115SOL    HW220979   0.429   2.945   5.729  0.2874 -1.7418 -1.5629
 3116SOL     OW20980   2.507   3.466  13.818 -0.2550 -0.3174 -0.0295
 3116SOL    HW120981   2.599   3.461  13.795 -0.4512  0.9042 -1.0652
 3116SOL    HW220982   2.504   3.466  13.914  1.3952 -1.1323  0.0151
 3117SOL     OW20983   3.562   2.226   0.431 -0.0630  0.5497 -0.4891
 3117SOL    HW120984   3.494   2.204   0.495 -1.7685  2.0001 -1.7943
 3117SOL    HW220985   3.564   2.321   0.444 -0.8513  0.5871 -0.6404
 3118SOL     OW20986   3.412   2.963   1.135 -0.1398 -0.0553 -0.2201
 3118SOL    HW120987   3.407   2.985   1.042  1.4133 -0.2920 -0.3690
 3118SOL    HW220988   3.400   3.048   1.177  0.5393  0.4651 -1.0660
 3119SOL     OW20989   3.152   0.268   6.435  0.0050 -0.1435 -0.0731
 3119SOL    HW120990   3.078   0.328   6.430 -1.7006 -2.3971 -2.0098
 3119SOL    HW220991   3.122   0.219   6.511 -3.2656  0.9276 -0.6605
 3120SOL     OW20992   2.545   0.194   5.921 -0.2504  0.5545  0.2993
 3120SOL    HW120993   2.583   0.127   5.863 -1.4813 -0.3594  0.5667
 3120SOL    HW220994   2.609   0.265   5.906  0.9498 -0.7636 -0.8313
 3121SOL     OW20995   0.163   4.225   3.873 -0.2309  0.7282  0.2994
 3121SOL    HW120996   0.140   4.136   3.901  2.8560 -1.2889 -3.6273
 3121SOL    HW220997   0.107   4.237   3.796  1.2692  0.5720 -0.8148
 3122SOL     OW20998   1.432   2.797   2.605 -0.1337  0.2565 -0.3606
 3122SOL    HW120999   1.452   2.873   2.550 -1.6536  1.4329  0.7503
 3122SOL    HW221000   1.488   2.724   2.576  1.4350  0.9982  0.7629
 3123SOL     OW21001   1.417   4.026   8.539 -0.2918 -0.4930  0.0667
 3123SOL    HW121002   1.453   3.998   8.454  1.6808 -1.7501  1.3324
 3123SOL    HW221003   1.499   4.027   8.588  0.3428  3.5832 -0.9878
 3124SOL     OW21004   0.744   2.451   3.659 -0.1495 -0.8242 -0.4558
 3124SOL    HW121005   0.724   2.447   3.565 -0.3170  0.8830 -0.5003
 3124SOL    HW221006   0.662   2.490   3.689  1.3551  2.5840 -0.7609
 3125SOL     OW21007   1.293   0.362   9.709  0.9412  0.3570 -0.6431
 3125SOL    HW121008   1.370   0.310   9.686  0.2707 -0.7107 -0.4361
 3125SOL    HW221009   1.231   0.298   9.674  3.0840 -1.0327 -1.9178
 3126SOL     OW21010   3.587   4.388   3.801  0.2299 -0.2861 -0.4403
 3126SOL    HW121011   3.600   4.433   3.718 -0.4538  1.8712  0.6048
 3126SOL    HW221012   3.549   4.307   3.768  1.3346 -0.3467 -1.5334
 3127SOL     OW21013   1.018   2.782   4.852 -0.0360 -0.0237 -0.4643
 3127SOL    HW121014   1.007   2.745   4.764 -1.4148  1.0968 -0.7616
 3127SOL    HW221015   0.975   2.710   4.898  0.7266 -0.7947 -0.9488
 3128SOL     OW21016   2.562   1.400   5.438  0.3043  0.1998  0.0546
 3128SOL    HW121017   2.549   1.458   5.513 -0.2825  0.5596 -0.3299
 3128SOL    HW221018   2.646   1.356   5.454 -1.1089 -2.6437 -0.2946
 3129SOL     OW21019   4.397   3.627   8.058  0.2550  0.3759 -0.3054
 3129SOL    HW121020   4.368   3.701   8.005 -2.1279  0.2771  0.8932
 3129SOL    HW221021   4.325   3.613   8.119  0.5465  1.4851  0.2897
 3130SOL     OW21022   4.205   4.448  16.428 -0.0530  0.3206 -0.1469
 3130SOL    HW121023   4.206   4.407  16.515 -2.1048  0.8105  0.0990
 3130SOL    HW221024   4.114   4.467  16.408  0.0536  0.8860 -0.1001
 3131SOL     OW21025   3.379   3.432   0.512 -0.0700 -0.5743 -0.1605
 3131SOL    HW121026   3.448   3.490   0.480  0.3700 -0.6208  0.6925
 3131SOL    HW221027   3.302   3.475   0.475 -0.5140 -0.5883  0.7246
 3132SOL     OW21028   0.502   1.995   3.045 -0.1527  0.3509  0.2649
 3132SOL    HW121029   0.416   1.954   3.035  0.3468 -1.2512  2.5207
 3132SOL    HW221030   0.546   1.959   2.968 -2.5015 -0.0691 -0.8829
 3133SOL     OW21031   4.528   2.620  14.160 -0.2757 -0.0063  0.1967
 3133SOL    HW121032   4.524   2.553  14.092 -1.1400 -0.3836  0.6166
 3133SOL    HW221033   4.613   2.608  14.203 -0.2307 -3.9201 -1.0016
 3134SOL     OW21034   1.733   0.359  14.359 -0.1725 -0.0299 -0.7251
 3134SOL    HW121035   1.769   0.275  14.331  0.6518  0.1821 -0.2849
 3134SOL    HW221036   1.659   0.358  14.299  0.1409  0.2394 -1.1212
 3135SOL     OW21037   4.474   1.859  10.847 -0.1689 -0.6857 -0.0261
 3135SOL    HW121038   4.414   1.932  10.854  1.0056  0.2655  0.0844
 3135SOL    HW221039   4.534   1.863  10.922 -0.0345  1.5937 -0.2679
 3136SOL     OW21040   4.505   4.098   3.394  0.1198 -0.1913  0.1797
 3136SOL    HW121041   4.565   4.156   3.440  0.7609 -0.4526 -0.3352
 3136SOL    HW221042   4.423   4.128   3.433 -0.4694 -1.2063 -0.2896
 3137SOL     OW21043   2.053   4.369   6.607 -0.5650 -0.0944  0.3962
 3137SOL    HW121044   2.068   4.439   6.670  2.4049  1.2959 -1.8543
 3137SOL    HW221045   2.145   4.351   6.587 -1.0779 -2.4076  0.0878
 3138SOL     OW21046   2.715   0.872   1.493  0.4567 -0.0501  0.0415
 3138SOL    HW121047   2.676   0.800   1.443  0.5807  0.3000 -0.5648
 3138SOL    HW221048   2.639   0.928   1.480  0.8675  0.4501 -0.1875
 3139SOL     OW21049   2.685   2.036   4.851 -0.0621 -0.5510 -0.5691
 3139SOL    HW121050   2.669   2.037   4.756 -1.8307 -1.5222 -0.2816
 3139SOL    HW221051   2.615   2.096   4.876 -0.8024 -0.9459 -1.6966
 3140SOL     OW21052   3.687   4.453   7.368 -0.7270 -0.1625  0.4856
 3140SOL    HW121053   3.631   4.495   7.303  0.3599 -1.7347 -1.4813
 3140SOL    HW221054   3.764   4.507   7.384 -0.5031 -0.3498  0.0643
 3141SOL     OW21055   2.094   2.839   6.389  0.3350  0.2580  0.5307
 3141SOL    HW121056   2.009   2.797   6.401 -0.7632  2.2423 -0.4212
 3141SOL    HW221057   2.089   2.876   6.301  0.5757 -2.6338 -0.7207
 3142SOL     OW21058   1.176   1.825   3.336  0.1716 -0.3464  0.1424
 3142SOL    HW121059   1.163   1.914   3.303  0.7895 -0.4405 -0.3600
 3142SOL    HW221060   1.230   1.844   3.413  2.5549 -2.4397 -1.0072
 3143SOL     OW21061   4.411   1.681  12.652  0.1437  0.2200 -0.1686
 3143SOL    HW121062   4.413   1.617  12.723  0.8243 -0.1250 -0.4964
 3143SOL    HW221063   4.326   1.660  12.614 -1.0694 -0.8482  3.1628
 3144SOL     OW21064   3.370   2.968   9.402  0.2511 -0.4424  0.5295
 3144SOL    HW121065   3.341   3.047   9.355 -1.4404 -1.1918  0.3269
 3144SOL    HW221066   3.390   2.906   9.333 -3.6208  0.9368 -1.8325
 3145SOL     OW21067   1.342   1.042   7.682  0.1948  0.3532  0.0484
 3145SOL    HW121068   1.419   1.001   7.644  0.0426 -1.1926  1.4016
 3145SOL    HW221069   1.327   1.117   7.625 -1.8957 -0.4185 -0.4254
 3146SOL     OW21070   1.866   3.294  14.403 -0.0180 -0.5766  0.0963
 3146SOL    HW121071   1.873   3.221  14.341 -1.5999 -0.9505  0.3612
 3146SOL    HW221072   1.900   3.257  14.484 -1.1609 -0.4067  0.6503
 3147SOL     OW21073   1.623   0.201   2.755  0.3165  0.1884  0.2575
 3147SOL    HW121074   1.656   0.132   2.812  0.8286 -0.3389 -0.6750
 3147SOL    HW221075   1.708   0.237   2.730  0.9911 -0.2311  1.9624
 3148SOL     OW21076   0.497   4.239   5.592 -0.2491  0.3582 -0.2617
 3148SOL    HW121077   0.428   4.197   5.541  0.0485 -0.7361  0.2453
 3148SOL    HW221078   0.447   4.300   5.647  1.2786  2.1452 -0.8504
 3149SOL     OW21079   3.329   3.455   7.852  0.1542 -0.0131  0.4999
 3149SOL    HW121080   3.416   3.460   7.812  0.5936 -3.0154  1.0960
 3149SOL    HW221081   3.279   3.469   7.771 -1.3392  0.2449  1.4689
 3150SOL     OW21082   4.460   2.603   6.548 -0.6742 -0.3260  0.6537
 3150SOL    HW121083   4.489   2.669   6.611 -0.0316 -0.8490  0.9077
 3150SOL    HW221084   4.369   2.587   6.572 -0.8433 -0.4360 -0.0554
 3151SOL     OW21085   4.594   1.456   0.611 -0.0604 -0.3584  0.1301
 3151SOL    HW121086   4.574   1.452   0.704 -0.2369  1.6139  0.1705
 3151SOL    HW221087   4.520   1.513   0.590 -2.6202 -3.6671  0.1956
 3152SOL     OW21088   4.665   0.428   4.448  0.1376  0.0375  0.5896
 3152SOL    HW121089   4.659   0.514   4.408  0.5278 -0.1933  0.0324
 3152SOL    HW221090   0.017   0.410   4.432 -0.1261  0.9585 -1.9364
 3153SOL     OW21091   0.077   0.755   4.523  0.0079 -0.2321  0.3680
 3153SOL    HW121092   0.169   0.736   4.507  0.6773 -0.2291  4.1669
 3153SOL    HW221093   0.034   0.725   4.443  0.7510 -0.2122 -0.0367
 3154SOL     OW21094   1.841   0.289   5.132  0.0903 -0.3950  0.4772
 3154SOL    HW121095   1.817   0.330   5.049  0.1098 -1.9813 -0.3139
 3154SOL    HW221096   1.892   0.352   5.183 -1.1874 -0.8891  2.3790
 3155SOL     OW21097   1.740   0.152   8.641 -0.0524  0.6452 -0.1259
 3155SOL    HW121098   1.779   0.202   8.713 -2.0936 -0.4840  1.7677
 3155SOL    HW221099   1.815   0.099   8.613  0.2874  0.2316  1.5883
 3156SOL     OW21100   1.133   0.956  15.192  0.3879 -0.3797 -0.7206
 3156SOL    HW121101   1.101   0.994  15.274 -0.9757 -0.3738 -1.2480
 3156SOL    HW221102   1.093   1.021  15.135 -1.1684 -0.7345 -0.0354
 3157SOL     OW21103   3.357   2.918   6.797  0.0599  0.0043  0.0438
 3157SOL    HW121104   3.444   2.885   6.775 -0.5024 -1.0589 -0.6036
 3157SOL    HW221105   3.310   2.840   6.824 -0.2493 -0.0844 -0.7357
 3158SOL     OW21106   4.461   0.466   4.088  0.9075  0.2466  0.2750
 3158SOL    HW121107   4.417   0.389   4.052 -0.3823  0.1702  2.0520
 3158SOL    HW221108   4.390   0.495   4.144 -0.6748  1.0762 -2.1733
 3159SOL     OW21109   0.862   1.223   6.262  0.3489 -0.0137 -0.4654
 3159SOL    HW121110   0.782   1.259   6.222 -0.0866  0.5787  0.9516
 3159SOL    HW221111   0.915   1.302   6.252  0.5331 -0.0613  0.2067
 3160SOL     OW21112   1.249   0.834   8.157  0.0005  0.1860 -0.1931
 3160SOL    HW121113   1.250   0.907   8.095 -0.6583  1.1582  0.9487
 3160SOL    HW221114   1.179   0.788   8.112 -1.3078  2.7498 -0.7880
 3161SOL     OW21115   0.954   2.264   5.017 -0.1845 -0.3587  0.5483
 3161SOL    HW121116   0.984   2.187   5.065  3.1146  0.6308  0.0976
 3161SOL    HW221117   0.864   2.246   4.992 -0.5383  1.5196  0.4296
 3162SOL     OW21118   3.894   1.912   4.791 -0.2458 -0.3317  0.4304
 3162SOL    HW121119   3.982   1.945   4.777 -0.3193 -1.1062 -1.8690
 3162SOL    HW221120   3.857   1.916   4.703  0.0447 -0.0930  0.3217
 3163SOL     OW21121   3.268   0.700   8.696  0.0464 -0.1104  0.3967
 3163SOL    HW121122   3.337   0.765   8.710 -0.8320  1.4444 -2.4815
 3163SOL    HW221123   3.252   0.683   8.789  0.4441 -1.8134  0.1511
 3164SOL     OW21124   1.103   3.440   1.425 -0.0519 -0.5309  0.6237
 3164SOL    HW121125   1.150   3.515   1.389 -0.4437 -0.7410 -0.3582
 3164SOL    HW221126   1.023   3.486   1.449  1.1614  0.7675  2.1028
 3165SOL     OW21127   0.404   4.726   9.003 -0.0421  0.1312 -0.3710
 3165SOL    HW121128   0.460   4.706   9.078 -1.9124 -1.4075  0.6373
 3165SOL    HW221129   0.436   0.058   8.950  0.8397  0.8129  1.0762
 3166SOL     OW21130   1.267   1.113   2.384 -0.2226 -0.2517  0.3104
 3166SOL    HW121131   1.349   1.084   2.344 -0.0575 -0.3899  0.7510
 3166SOL    HW221132   1.295   1.197   2.420  4.9000 -1.5105 -0.6833
 3167SOL     OW21133   3.790   0.690  15.715  0.2985 -0.4116  0.6934
 3167SOL    HW121134   3.818   0.743  15.640 -1.3222 -1.1307 -0.4297
 3167SOL    HW221135   3.863   0.631  15.732 -0.4563 -1.2588  1.0107
 3168SOL     OW21136   1.389   2.218   4.119 -0.2818 -0.4531 -0.2850
 3168SOL    HW121137   1.418   2.306   4.141  0.0947 -1.4053  3.0483
 3168SOL    HW221138   1.377   2.187   4.209 -0.0815 -0.4891 -0.2705
 3169SOL     OW21139   3.813   4.722   5.651 -0.2640 -0.6121 -0.2921
 3169SOL    HW121140   3.762   4.703   5.730  2.3124 -0.8581  1.3312
 3169SOL    HW221141   3.745   0.024   5.599 -0.7915 -2.1926 -0.9226
 3170SOL     OW21142   1.003   2.252   0.539  0.0418 -0.1078 -0.0546
 3170SOL    HW121143   1.046   2.336   0.550  0.8133 -0.1153 -2.9575
 3170SOL    HW221144   0.989   2.248   0.444 -0.7057 -0.6856  0.0752
 3171SOL     OW21145   1.416   2.531  12.684  0.1844  0.0635 -0.5469
 3171SOL    HW121146   1.447   2.456  12.735 -0.1070  0.5929  0.4077
 3171SOL    HW221147   1.321   2.525  12.692 -0.0411  1.3516 -2.3014
 3172SOL     OW21148   0.432   2.615   6.446  0.3920  0.0950 -0.2911
 3172SOL    HW121149   0.455   2.522   6.449 -0.2255 -0.0536 -0.2530
 3172SOL    HW221150   0.415   2.621   6.353  0.8763  1.1223 -0.3116
 3173SOL     OW21151   3.856   3.356   2.562  0.4459  0.8217 -0.1717
 3173SOL    HW121152   3.875   3.411   2.639 -1.1228  0.9319  0.1413
 3173SOL    HW221153   3.947   3.338   2.540 -0.5016 -1.3282 -2.2585
 3174SOL     OW21154   0.721   1.607   4.305 -0.4530 -0.2020 -0.0847
 3174SOL    HW121155   0.656   1.548   4.343  0.6272 -0.4331  1.4272
 3174SOL    HW221156   0.793   1.588   4.366  1.5088  1.8644 -1.7792
 3175SOL     OW21157   2.205   1.007   8.459 -0.8699 -0.0693 -0.2249
 3175SOL    HW121158   2.202   0.955   8.379 -1.4206 -1.2811  0.5858
 3175SOL    HW221159   2.211   0.942   8.529  2.0941 -1.5870 -1.8857
 3176SOL     OW21160   3.522   0.297   6.803 -0.2039 -0.6174 -0.6479
 3176SOL    HW121161   3.543   0.213   6.844  0.3830  0.3801  1.1220
 3176SOL    HW221162   3.605   0.343   6.815  0.7948 -1.6671 -3.4671
 3177SOL     OW21163   4.583   2.644   2.072  0.1231 -0.2209  0.5329
 3177SOL    HW121164   4.586   2.661   1.977  1.7733 -2.0615  0.2510
 3177SOL    HW221165   4.534   2.561   2.066  0.6072 -0.3825 -1.4020
 3178SOL     OW21166   2.664   3.285   3.371  0.1345  0.2317 -0.2069
 3178SOL    HW121167   2.740   3.260   3.424  0.7741 -0.7960 -1.5863
 3178SOL    HW221168   2.602   3.309   3.439 -0.4674  2.8377 -1.6900
 3179SOL     OW21169   4.148   4.392   4.925  0.1649  0.5684 -0.1756
 3179SOL    HW121170   4.078   4.407   4.860 -1.5228  3.6550  2.3530
 3179SOL    HW221171   4.127   4.301   4.946 -2.3917  0.9585 -0.9749
 3180SOL     OW21172   4.584   2.821   3.271 -0.0459  0.0114  0.0688
 3180SOL    HW121173   4.563   2.913   3.288 -0.9937 -0.6206  2.3526
 3180SOL    HW221174   4.597   2.835   3.178 -2.2648  0.2914 -0.2132
 3181SOL     OW21175   1.541   3.743   2.928 -0.0133  0.1668  0.0684
 3181SOL    HW121176   1.533   3.837   2.909 -0.9832  0.0069 -0.3461
 3181SOL    HW221177   1.476   3.738   2.999  0.2545  0.5480  0.3425
 3182SOL     OW21178   0.151   4.292   8.776  0.2520 -0.2946  0.2831
 3182SOL    HW121179   0.175   4.377   8.814 -4.2941  1.0213  0.1579
 3182SOL    HW221180   0.164   4.234   8.850  0.3098 -1.8106 -0.9138
 3183SOL     OW21181   1.167   4.658   4.209 -0.0135 -0.8162  0.1977
 3183SOL    HW121182   1.162   4.566   4.233 -1.6852 -0.8011 -0.0453
 3183SOL    HW221183   1.221   4.696   4.277  0.2143  0.1328 -0.5098
 3184SOL     OW21184   3.238   0.908   2.927 -0.0730  0.0480 -0.4894
 3184SOL    HW121185   3.158   0.870   2.891 -0.2284  0.7656 -0.9001
 3184SOL    HW221186   3.289   0.828   2.941  3.4203  2.4769  0.5611
 3185SOL     OW21187   1.873   4.284   6.159  0.0550  0.2045 -0.1154
 3185SOL    HW121188   1.890   4.206   6.212  2.1724 -0.0655 -1.1701
 3185SOL    HW221189   1.785   4.311   6.185  0.5384  1.5612  0.1052
 3186SOL     OW21190   3.757   1.946  15.332  0.5034  0.8444  0.6135
 3186SOL    HW121191   3.702   2.024  15.324 -0.2306  0.3203  0.5978
 3186SOL    HW221192   3.829   1.974  15.276  1.4956 -2.3083  0.3261
 3187SOL     OW21193   2.592   3.073   9.350  0.4911 -0.3288 -0.1208
 3187SOL    HW121194   2.604   3.143   9.414  0.3717 -0.9264  0.5699
 3187SOL    HW221195   2.538   3.109   9.280 -1.1732  0.4175  1.5572
 3188SOL     OW21196   3.577   1.947   5.717  0.4260  0.0894 -0.3564
 3188SOL    HW121197   3.667   1.923   5.694  0.6412  1.8069 -1.2511
 3188SOL    HW221198   3.538   1.862   5.695  1.7112 -0.3922 -0.7947
 3189SOL     OW21199   0.524   1.882   0.471 -0.3960 -1.0572  0.0259
 3189SOL    HW121200   0.534   1.966   0.426 -1.4789 -1.3978 -0.8675
 3189SOL    HW221201   0.608   1.871   0.515 -0.6643 -0.7269  0.6174
 3190SOL     OW21202   1.599   2.762  12.401 -0.3529 -0.0802  0.0703
 3190SOL    HW121203   1.517   2.723  12.371 -1.3191  0.5407  1.9058
 3190SOL    HW221204   1.629   2.691  12.457  0.0893  1.0915  1.3112
 3191SOL     OW21205   0.156   0.493   3.970 -0.3534 -0.1659 -0.6895
 3191SOL    HW121206   0.130   0.477   3.879  0.5171 -0.9355 -0.8029
 3191SOL    HW221207   0.085   0.452   4.019  1.0980 -2.1424 -0.2452
 3192SOL     OW21208   3.224   0.043  13.631 -0.4225 -0.0564 -0.4583
 3192SOL    HW121209   3.174   0.068  13.553  0.0036 -1.0946 -1.0655
 3192SOL    HW221210   3.311   0.018  13.598  0.5341  0.5811  1.6153
 3193SOL     OW21211   3.959   4.162  17.168  0.4663  0.0254 -0.5962
 3193SOL    HW121212   4.035   4.219  17.155 -2.2308  3.5156 -1.1187
 3193SOL    HW221213   3.885   4.222  17.158 -0.5232 -1.5379 -2.5377
 3194SOL     OW21214   2.198   2.595   5.179 -0.3374 -0.2681  0.8587
 3194SOL    HW121215   2.260   2.664   5.201 -1.3596  1.0048 -0.2016
 3194SOL    HW221216   2.136   2.594   5.253  0.1684  1.4727  1.3021
 3195SOL     OW21217   3.578   1.216   7.743 -0.2623 -0.0073  0.7096
 3195SOL    HW121218   3.530   1.137   7.768 -0.6315  0.1464  0.4883
 3195SOL    HW221219   3.576   1.266   7.824 -0.2025  0.7515  0.2432
 3196SOL     OW21220   2.381   0.761   2.257 -0.3641 -0.6327  0.0468
 3196SOL    HW121221   2.471   0.775   2.287 -0.9071  1.1402  0.8496
 3196SOL    HW221222   2.390   0.731   2.166 -1.0353 -1.8496  0.3825
 3197SOL     OW21223   3.875   3.202  13.267 -0.3181 -0.2177  0.7933
 3197SOL    HW121224   3.826   3.271  13.222  0.8388  0.4597  0.5896
 3197SOL    HW221225   3.832   3.204  13.353 -1.0390 -1.4924  0.4641
 3198SOL     OW21226   1.901   4.361   5.092  0.2276  0.3547  0.3156
 3198SOL    HW121227   1.877   4.452   5.112 -0.9127  0.1770 -0.2799
 3198SOL    HW221228   1.947   4.361   5.008  0.4273  0.7691  0.4242
 3199SOL     OW21229   3.968   1.639   5.942 -0.3441 -0.3681  0.2042
 3199SOL    HW121230   4.002   1.639   6.031  0.7138  0.4035 -0.1921
 3199SOL    HW221231   3.980   1.732   5.922 -1.7420 -0.1198  0.5389
 3200SOL     OW21232   4.394   0.057   8.397 -0.2826  0.1307 -0.5731
 3200SOL    HW121233   4.446   0.012   8.464 -0.9506 -2.8245 -2.0240
 3200SOL    HW221234   4.460   0.076   8.331  2.8888 -1.3659  2.1366
 3201SOL     OW21235   4.106   1.052   6.117  0.1707  0.2495  0.3292
 3201SOL    HW121236   4.176   1.112   6.144  0.1978 -0.0888  1.0198
 3201SOL    HW221237   4.161   0.976   6.098 -0.7547 -0.4184  0.3211
 3202SOL     OW21238   4.486   3.442   6.855  0.3956  0.1395 -0.3266
 3202SOL    HW121239   4.576   3.430   6.885  0.9428 -0.3789 -2.2063
 3202SOL    HW221240   4.480   3.399   6.770  0.0844  2.0933 -1.2925
 3203SOL     OW21241   3.821   2.788   2.626 -0.3316 -0.4629  0.4976
 3203SOL    HW121242   3.878   2.836   2.687  1.8362 -2.4057 -0.0220
 3203SOL    HW221243   3.748   2.754   2.676 -0.0560 -0.8004  0.6653
 3204SOL     OW21244   0.360   3.520  15.726  0.3800  0.1897 -0.3322
 3204SOL    HW121245   0.284   3.525  15.784  0.1113  0.9953 -0.7489
 3204SOL    HW221246   0.411   3.599  15.748 -0.2272  1.1703 -2.4738
 3205SOL     OW21247   4.121   0.473   2.734 -0.0586 -0.8157 -0.0360
 3205SOL    HW121248   4.053   0.452   2.798  0.4433 -0.4927  0.6006
 3205SOL    HW221249   4.196   0.495   2.790 -1.7112  1.6127  1.1991
 3206SOL     OW21250   2.040   3.634   8.176  0.4476  0.3651  0.6242
 3206SOL    HW121251   2.047   3.598   8.087  0.5695 -0.7031  1.0656
 3206SOL    HW221252   2.014   3.567   8.239 -0.1122 -0.2659 -0.2707
 3207SOL     OW21253   3.880   2.287   6.301  0.3188  0.3910  0.0455
 3207SOL    HW121254   3.957   2.230   6.304 -0.0323 -0.1088 -0.4967
 3207SOL    HW221255   3.881   2.330   6.387  0.4560 -1.6608  1.0703
 3208SOL     OW21256   1.265   4.247   7.961 -0.4285  0.3406  0.3857
 3208SOL    HW121257   1.278   4.182   8.030 -0.4463 -0.3142 -0.2160
 3208SOL    HW221258   1.214   4.316   8.003  1.1174  0.2356  2.4317
 3209SOL     OW21259   4.200   4.508   5.358 -0.2806 -0.1926 -0.7637
 3209SOL    HW121260   4.209   4.603   5.361  0.3184 -0.3233  2.1385
 3209SOL    HW221261   4.136   4.510   5.287 -0.1762 -1.6613 -0.8976
 3210SOL     OW21262   4.277   1.079  14.769 -0.8140  0.2996  0.0598
 3210SOL    HW121263   4.233   1.010  14.818 -1.8655 -0.7109 -2.3395
 3210SOL    HW221264   4.313   1.032  14.694 -1.6013  0.7616 -0.6001
 3211SOL     OW21265   3.314   0.099   5.374  0.5345 -0.3197  0.3423
 3211SOL    HW121266   3.317   0.194   5.374 -3.7317 -0.1895 -1.7534
 3211SOL    HW221267   3.321   0.090   5.469  0.8033  1.4702  0.4841
 3212SOL     OW21268   3.830   4.250  12.424 -0.5438  0.1231 -0.1425
 3212SOL    HW121269   3.741   4.247  12.460 -1.4682  0.2511 -2.4095
 3212SOL    HW221270   3.829   4.184  12.355 -2.0097 -0.5728  0.5289
 3213SOL     OW21271   3.846   0.531   8.926  0.0526  0.2065 -0.7856
 3213SOL    HW121272   3.897   0.599   8.970 -0.4330  0.7005 -0.9928
 3213SOL    HW221273   3.823   0.482   9.005  1.0487 -0.6293 -1.0085
 3214SOL     OW21274   2.046   3.431  17.633 -0.0405  0.0127  0.3485
 3214SOL    HW121275   2.127   3.480  17.618 -0.1483  0.3042  0.7120
 3214SOL    HW221276   1.977   3.468  17.578 -0.4679  1.2329  1.7026
 3215SOL     OW21277   2.547   2.932   2.524  0.6707 -0.7035 -0.7875
 3215SOL    HW121278   2.635   2.925   2.560  0.6819  0.2439 -0.6292
 3215SOL    HW221279   2.534   3.027   2.517  1.4380 -0.5669 -0.3955
 3216SOL     OW21280   2.058   3.454   7.293 -0.1469  1.0237 -0.3680
 3216SOL    HW121281   2.104   3.485   7.214  1.3293 -2.4093 -0.8614
 3216SOL    HW221282   2.047   3.540   7.331  0.5631  0.5577  0.8830
 3217SOL     OW21283   3.156   1.738   2.038  0.0335 -0.2770 -0.2262
 3217SOL    HW121284   3.178   1.818   1.990  1.9658 -0.0587  0.9990
 3217SOL    HW221285   3.183   1.757   2.127 -0.3063  2.9494 -0.8161
 3218SOL     OW21286   3.952   0.817   9.440 -0.0978  0.3488 -0.4597
 3218SOL    HW121287   4.038   0.859   9.440  0.5318 -0.8920 -3.6243
 3218SOL    HW221288   3.895   0.885   9.405  1.6057  2.1917  0.3976
 3219SOL     OW21289   4.185   3.115  12.355  0.6058 -0.2565 -0.4226
 3219SOL    HW121290   4.098   3.086  12.328  0.5273  0.9397 -1.4829
 3219SOL    HW221291   4.175   3.171  12.433  0.8619 -2.5868  1.2643
 3220SOL     OW21292   3.620   2.220   1.204 -0.3216  0.2402  0.9277
 3220SOL    HW121293   3.552   2.281   1.175 -0.8763 -1.6296 -1.6717
 3220SOL    HW221294   3.679   2.278   1.253  0.0151  0.6002  0.1023
 3221SOL     OW21295   4.349   3.902   2.518  0.1431 -0.4573  0.1797
 3221SOL    HW121296   4.432   3.893   2.472  0.3693  0.5351  0.4051
 3221SOL    HW221297   4.288   3.928   2.448  1.9129 -1.2418 -1.6505
 3222SOL     OW21298   0.799   2.873   2.392  0.1676 -0.3134 -0.2733
 3222SOL    HW121299   0.757   2.791   2.367  0.5885 -0.1611 -1.4544
 3222SOL    HW221300   0.892   2.847   2.395  0.7164  1.6650  0.3438
 3223SOL     OW21301   3.994   0.555   2.016  0.4179 -0.7243 -0.2977
 3223SOL    HW121302   3.929   0.610   2.060 -0.9064 -1.6003 -1.1531
 3223SOL    HW221303   3.941   0.477   1.996  2.8908 -1.9510 -2.0033
 3224SOL     OW21304   4.460   2.414   2.035  0.0820 -1.0189 -0.1474
 3224SOL    HW121305   4.456   2.323   2.007  2.1811 -1.4980  1.0869
 3224SOL    HW221306   4.378   2.451   2.003 -0.1748 -0.8431  0.6974
 3225SOL     OW21307   1.503   1.954   1.418 -0.1580  0.5077  0.2033
 3225SOL    HW121308   1.596   1.933   1.411  0.2425  2.3309 -0.0700
 3225SOL    HW221309   1.511   2.015   1.492  1.9225  1.0191 -0.4243
 3226SOL     OW21310   1.481   3.061   1.939  0.6105 -0.0621 -0.4535
 3226SOL    HW121311   1.417   3.000   1.973  2.1458 -1.1200  0.5396
 3226SOL    HW221312   1.428   3.135   1.909  0.3711 -0.7766 -1.7826
 3227SOL     OW21313   0.273   3.652   3.704 -0.4114  0.4758  0.6698
 3227SOL    HW121314   0.263   3.747   3.702  0.0062  0.5492  1.9750
 3227SOL    HW221315   0.319   3.637   3.787  1.5237  1.9603 -0.1330
 3228SOL     OW21316   0.665   2.270   7.873 -0.6482 -0.5745  0.3347
 3228SOL    HW121317   0.686   2.302   7.961 -0.9499  0.9989 -0.1776
 3228SOL    HW221318   0.660   2.348   7.818 -0.9453 -0.4737  0.5025
 3229SOL     OW21319   2.403   0.221   8.267  0.0648  0.0584 -0.3254
 3229SOL    HW121320   2.398   0.185   8.355  0.8008  2.9983  0.8959
 3229SOL    HW221321   2.497   0.210   8.257  0.2211  2.0102 -0.8614
 3230SOL     OW21322   4.701   2.902   9.183 -0.0636 -0.1789  0.0436
 3230SOL    HW121323   4.644   2.974   9.154 -0.1769 -0.1683  0.2882
 3230SOL    HW221324   4.655   2.876   9.263 -0.7529  0.4738 -0.1374
 3231SOL     OW21325   3.022   4.333   4.322  0.4937 -0.2047  0.1025
 3231SOL    HW121326   2.951   4.369   4.269  1.5680  2.7322  0.6202
 3231SOL    HW221327   3.060   4.275   4.256 -0.2580 -3.3230  2.4325
 3232SOL     OW21328   0.271   2.503   4.436  0.0948 -0.0003 -0.0951
 3232SOL    HW121329   0.320   2.470   4.360  0.9503 -0.8312  0.8114
 3232SOL    HW221330   0.180   2.496   4.407  0.2665 -0.0864 -0.6013
 3233SOL     OW21331   1.138   3.600   4.237  0.3568  0.0021  0.0246
 3233SOL    HW121332   1.200   3.662   4.197  0.3764 -1.1247 -1.6999
 3233SOL    HW221333   1.069   3.658   4.271  0.8877  1.5474 -1.4959
 3234SOL     OW21334   1.795   1.568  16.080 -0.0922  0.2886 -0.2460
 3234SOL    HW121335   1.787   1.499  16.015 -3.1014 -0.0110  0.4613
 3234SOL    HW221336   1.728   1.549  16.146  0.3617 -2.5819 -0.6226
 3235SOL     OW21337   2.915   3.291  15.771  0.3323  0.4420 -0.3589
 3235SOL    HW121338   2.993   3.300  15.827  0.1328  1.2317 -0.2131
 3235SOL    HW221339   2.871   3.224  15.824  2.6742  0.4134  1.5847
 3236SOL     OW21340   0.312   3.332  17.514 -0.1077  0.5078 -0.1327
 3236SOL    HW121341   0.334   3.239  17.520  1.0851  0.9413  2.5541
 3236SOL    HW221342   0.238   3.333  17.453 -0.4901 -0.5947  0.3176
 3237SOL     OW21343   0.538   3.247   4.937 -0.0781 -0.0728  0.1176
 3237SOL    HW121344   0.588   3.171   4.967 -1.0675  0.4222  3.0136
 3237SOL    HW221345   0.597   3.288   4.873  0.0404 -0.6598 -0.1542
 3238SOL     OW21346   4.465   1.712   3.314  0.3072 -0.2704  0.0923
 3238SOL    HW121347   4.385   1.763   3.303  0.6092  0.4428  1.2088
 3238SOL    HW221348   4.529   1.764   3.266  0.9053  0.1891  1.3846
 3239SOL     OW21349   3.929   1.515   7.372 -0.3994 -0.0023 -0.4171
 3239SOL    HW121350   3.999   1.575   7.398 -1.0046  0.8731 -0.8006
 3239SOL    HW221351   3.968   1.484   7.289  1.8743  1.1447  0.2210
 3240SOL     OW21352   3.434   0.916  17.159 -0.6954 -0.0609 -0.0568
 3240SOL    HW121353   3.387   0.966  17.093  1.3104  0.9102 -0.7357
 3240SOL    HW221354   3.366   0.857  17.192 -0.2937 -1.3921 -1.6269
 3241SOL     OW21355   2.543   2.331   7.044 -0.3645 -0.3522 -0.2153
 3241SOL    HW121356   2.520   2.420   7.017  0.2132  0.1708  1.0430
 3241SOL    HW221357   2.460   2.291   7.071  0.3427 -2.1116 -0.6122
 3242SOL     OW21358   0.157   3.373  17.257  0.1657 -0.3702 -0.3911
 3242SOL    HW121359   0.171   3.438  17.189  1.4206  0.8941  1.0800
 3242SOL    HW221360   0.086   3.412  17.308  0.8397  1.7814 -1.1418
 3243SOL     OW21361   4.569   0.671   2.420 -0.1820 -0.2076  0.0441
 3243SOL    HW121362   4.600   0.602   2.362  0.2222  0.0172 -0.0054
 3243SOL    HW221363   4.596   0.655   2.510 -2.0705 -0.2764  0.5978
 3244SOL     OW21364   0.592   0.568  16.825  0.5913 -0.3642  0.0649
 3244SOL    HW121365   0.601   0.606  16.912 -1.6631  0.0437  0.1238
 3244SOL    HW221366   0.581   0.476  16.850 -0.4396  0.5680  3.1533
 3245SOL     OW21367   4.683   1.821   2.499  0.8910 -0.1597 -0.3039
 3245SOL    HW121368   4.730   1.768   2.434 -0.6960 -0.5581 -1.1206
 3245SOL    HW221369   4.604   1.835   2.448  0.5872  0.7333  0.4048
 3246SOL     OW21370   1.261   3.387   0.064 -0.4580  0.1995  0.2138
 3246SOL    HW121371   1.233   3.302   0.032  1.0038 -1.0062  2.1191
 3246SOL    HW221372   1.266   3.379   0.159  0.4662  3.0616  0.4301
 3247SOL     OW21373   3.703   1.254   2.514  0.6853 -0.3589  0.0880
 3247SOL    HW121374   3.679   1.198   2.587  0.3047  0.4887  0.6195
 3247SOL    HW221375   3.796   1.232   2.508  0.1658 -2.0262 -2.0608
 3248SOL     OW21376   4.158   2.243   2.727  0.0782 -0.0091  0.5392
 3248SOL    HW121377   4.083   2.230   2.670 -0.9437 -2.6504  2.4622
 3248SOL    HW221378   4.179   2.152   2.749 -1.6416 -0.7062 -0.7672
 3249SOL     OW21379   0.757   2.914   4.474 -0.7154 -0.3875  0.0462
 3249SOL    HW121380   0.709   2.977   4.527 -0.6920 -1.3427  1.2155
 3249SOL    HW221381   0.783   2.966   4.398  0.2348  1.2038  1.4571
 3250SOL     OW21382   4.167   0.970   0.534  0.6552  0.0041  0.3233
 3250SOL    HW121383   4.246   1.008   0.573  2.0622 -4.1524  1.5130
 3250SOL    HW221384   4.194   0.879   0.528  0.5845 -0.1163  1.6788
 3251SOL     OW21385   4.298   0.508   5.821  0.1278  0.6678 -0.0494
 3251SOL    HW121386   4.372   0.447   5.822 -0.2198  0.2358 -0.7002
 3251SOL    HW221387   4.289   0.529   5.728 -1.9526 -1.7942 -0.4144
 3252SOL     OW21388   1.582   3.063  11.937 -0.0890 -0.5075  0.1422
 3252SOL    HW121389   1.497   3.067  11.892 -0.3764 -2.6481  0.4909
 3252SOL    HW221390   1.553   3.064  12.029  3.2032  0.3575  1.1555
 3253SOL     OW21391   1.403   0.660   9.595  0.3953  0.8390 -0.6304
 3253SOL    HW121392   1.415   0.569   9.569  0.1275  0.8254 -0.7123
 3253SOL    HW221393   1.485   0.703   9.571  1.6885 -2.2499 -1.7106
 3254SOL     OW21394   2.228   2.654  14.174 -0.6157  0.0501 -0.3074
 3254SOL    HW121395   2.192   2.619  14.255 -1.2551  0.5275 -0.3803
 3254SOL    HW221396   2.151   2.632  14.121  0.3420 -3.2634 -0.3038
 3255SOL     OW21397   4.725   4.007   2.397  0.2260  0.3259 -0.2995
 3255SOL    HW121398   4.662   4.023   2.327 -1.3046 -0.0624  0.9532
 3255SOL    HW221399   4.678   4.051   2.468  1.1110 -2.1224  1.8265
 3256SOL     OW21400   4.260   4.710   3.459  0.3376  0.2068  0.7385
 3256SOL    HW121401   4.191   4.644   3.448  0.1295  0.4833  0.3687
 3256SOL    HW221402   4.212   0.036   3.409 -1.0236 -0.7145  0.8162
 3257SOL     OW21403   1.408   3.972   4.590  0.1213 -0.0585  0.1965
 3257SOL    HW121404   1.442   4.013   4.669 -1.1791  0.4731  0.4966
 3257SOL    HW221405   1.329   4.025   4.576  1.9784  1.9072 -2.7999
 3258SOL     OW21406   1.866   2.464   8.269 -0.6627 -0.0560 -0.0616
 3258SOL    HW121407   1.922   2.389   8.248 -1.6001 -1.8045  3.8343
 3258SOL    HW221408   1.788   2.463   8.213 -0.0242 -0.6709 -0.9537
 3259SOL     OW21409   0.909   4.711   4.584 -0.5332  0.0967  0.2821
 3259SOL    HW121410   0.954   0.055   4.585 -1.4363  0.6113 -2.1870
 3259SOL    HW221411   0.902   4.706   4.489 -1.4021  1.9924  0.2413
 3260SOL     OW21412   4.056   0.790  14.695  0.1433 -0.0934 -0.1654
 3260SOL    HW121413   4.052   0.702  14.659  0.5834 -0.0249 -0.3873
 3260SOL    HW221414   3.973   0.790  14.742  1.3277  0.8465  1.9576
 3261SOL     OW21415   0.701   1.080  17.364  0.1676  0.3702  0.1313
 3261SOL    HW121416   0.697   1.046  17.454  1.2826  0.5405  0.2355
 3261SOL    HW221417   0.684   1.174  17.375 -2.3788 -0.2108  1.2968
 3262SOL     OW21418   3.097   1.887   7.607 -0.0929  0.1942  0.4319
 3262SOL    HW121419   3.096   1.970   7.559 -1.7268 -0.1966 -0.2082
 3262SOL    HW221420   3.016   1.894   7.657  0.3531 -1.5913  1.4108
 3263SOL     OW21421   2.854   2.376   3.060  0.1509  0.3760 -0.0406
 3263SOL    HW121422   2.932   2.383   3.005 -0.9169  2.5053 -1.2610
 3263SOL    HW221423   2.823   2.291   3.028  1.7811 -1.1203  2.3938
 3264SOL     OW21424   4.731   2.596   4.781  0.2068 -0.4241  0.3082
 3264SOL    HW121425   0.048   2.524   4.804 -0.4663 -1.5855 -1.6589
 3264SOL    HW221426   4.664   2.551   4.731  1.5673 -0.6305 -1.3173
 3265SOL     OW21427   0.761   2.781   6.232  0.3859 -0.5375 -0.3355
 3265SOL    HW121428   0.814   2.838   6.175  1.1930 -0.6758  0.2789
 3265SOL    HW221429   0.731   2.847   6.294  1.6928 -1.4224  1.2289
 3266SOL     OW21430   4.282   3.681   2.684  0.0455  0.8557  0.8218
 3266SOL    HW121431   4.337   3.627   2.628 -1.9425 -2.2676  1.8432
 3266SOL    HW221432   4.298   3.764   2.639 -2.1088  0.8243  0.0028
 3267SOL     OW21433   0.521   3.093   6.272 -0.4998  0.0061  0.1890
 3267SOL    HW121434   0.438   3.055   6.302 -1.5777  1.3438 -1.1403
 3267SOL    HW221435   0.579   3.065   6.343  1.0205  1.7553 -0.3730
 3268SOL     OW21436   4.002   1.508  16.870 -0.1037 -0.0308 -0.1976
 3268SOL    HW121437   4.084   1.555  16.855 -1.2144  1.2832 -2.2447
 3268SOL    HW221438   3.934   1.571  16.892 -2.5733 -2.0922 -1.8273
 3269SOL     OW21439   4.099   3.847   4.673  0.1331 -0.0869 -0.4806
 3269SOL    HW121440   4.131   3.825   4.586 -0.1185  1.0059 -0.8446
 3269SOL    HW221441   4.176   3.836   4.729  0.2774 -0.9488 -0.8532
 3270SOL     OW21442   0.490   1.717  10.900  0.3543 -0.5385 -0.1649
 3270SOL    HW121443   0.417   1.780  10.897  0.3586 -0.4744  0.9827
 3270SOL    HW221444   0.513   1.711  10.992 -0.7627 -0.9394  0.0928
 3271SOL     OW21445   0.445   3.078  11.674  0.5356 -0.2701 -0.7567
 3271SOL    HW121446   0.491   3.013  11.621  0.3368 -2.3278  1.6174
 3271SOL    HW221447   0.491   3.159  11.654  0.4756 -0.0461  0.0278
 3272SOL     OW21448   3.691   4.050  15.941 -0.4492 -0.8516 -0.1111
 3272SOL    HW121449   3.649   4.086  15.863 -1.0514 -1.1263  0.0893
 3272SOL    HW221450   3.777   4.091  15.929  0.7030 -2.6504  2.0120
 3273SOL     OW21451   3.540   3.007   6.082  0.3781 -0.7485  0.2453
 3273SOL    HW121452   3.504   3.073   6.141 -1.3026 -1.3385 -0.1099
 3273SOL    HW221453   3.477   2.937   6.100 -1.5363  1.0545  0.5137
 3274SOL     OW21454   0.775   4.458  12.082  0.4321  0.9002  0.0734
 3274SOL    HW121455   0.853   4.494  12.124  0.6691  0.8213 -0.3026
 3274SOL    HW221456   0.790   4.366  12.104  3.2552  1.4061  0.3263
 3275SOL     OW21457   4.722   2.917   1.616 -0.1956 -0.6310 -0.4303
 3275SOL    HW121458   0.061   2.926   1.667 -1.0350 -0.1407  0.8131
 3275SOL    HW221459   0.014   2.903   1.527  0.4333  0.2276 -0.3314
 3276SOL     OW21460   2.210   3.971   4.384 -0.3589  0.0998  0.0568
 3276SOL    HW121461   2.229   3.926   4.302 -2.3648 -0.1981 -0.2444
 3276SOL    HW221462   2.136   4.024   4.354 -0.9638 -1.6113 -1.4882
 3277SOL     OW21463   0.112   0.351   6.657 -0.2094 -0.2660 -0.3206
 3277SOL    HW121464   0.152   0.293   6.591  0.2941  1.6590 -1.6941
 3277SOL    HW221465   0.125   0.431   6.606  3.3890  0.0157  1.0153
 3278SOL     OW21466   3.000   3.878   7.471  0.3796 -0.2126 -0.5084
 3278SOL    HW121467   2.971   3.787   7.460 -0.5240 -0.1323  1.1162
 3278SOL    HW221468   2.923   3.921   7.435  0.3906 -0.8938 -1.3300
 3279SOL     OW21469   1.058   4.465   0.548 -0.1392  0.4751  0.1393
 3279SOL    HW121470   1.091   4.477   0.637  0.5714  0.9773 -0.1830
 3279SOL    HW221471   1.110   4.517   0.487  1.7051  0.0035  1.3057
 3280SOL     OW21472   3.715   1.714   6.070  0.2583 -0.1811 -0.4230
 3280SOL    HW121473   3.772   1.691   5.996  1.9613 -2.6048  1.6588
 3280SOL    HW221474   3.729   1.808   6.069  2.7307 -0.5363  0.1343
 3281SOL     OW21475   1.054   0.366   7.576  0.3979  0.1638  0.2389
 3281SOL    HW121476   0.980   0.313   7.546  2.1546 -0.8275 -2.3836
 3281SOL    HW221477   1.119   0.300   7.602  1.8102  0.7482 -1.8076
 3282SOL     OW21478   1.028   3.251   1.637 -0.5643  0.2118  0.6473
 3282SOL    HW121479   1.051   3.326   1.582  0.3498  0.6244  1.5833
 3282SOL    HW221480   1.058   3.281   1.723 -0.5458  3.5026 -0.4868
 3283SOL     OW21481   1.316   1.437   4.215  0.3033 -0.6994 -0.2117
 3283SOL    HW121482   1.258   1.458   4.141  1.3763 -2.1871 -1.4619
 3283SOL    HW221483   1.394   1.486   4.189  0.4891  0.0055  1.7224
 3284SOL     OW21484   3.389   0.558   3.514 -0.4061 -0.0154 -0.1308
 3284SOL    HW121485   3.403   0.494   3.444  1.2063 -0.3934  0.5243
 3284SOL    HW221486   3.316   0.513   3.556 -0.7111 -0.1356 -0.7837
 3285SOL     OW21487   0.289   2.515  16.143 -0.4722 -0.8203  0.5714
 3285SOL    HW121488   0.228   2.518  16.069 -0.0396  1.2376  0.3073
 3285SOL    HW221489   0.242   2.445  16.188 -0.2603  0.3419  2.6018
 3286SOL     OW21490   0.876   4.063  16.067 -0.3247 -0.0764 -0.2174
 3286SOL    HW121491   0.843   4.147  16.098 -0.5641 -0.5704  0.9008
 3286SOL    HW221492   0.827   4.051  15.986  2.4499 -1.6074 -1.6747
 3287SOL     OW21493   4.339   0.144   7.768  0.3995 -0.2806  0.2549
 3287SOL    HW121494   4.349   0.049   7.765 -0.3844 -0.3344 -0.4281
 3287SOL    HW221495   4.348   0.156   7.863 -0.9272  2.3197  0.0451
 3288SOL     OW21496   0.013   2.686  17.609  0.0034 -0.2785  0.2293
 3288SOL    HW121497   0.036   2.778  17.593  2.0393 -0.6420  1.0918
 3288SOL    HW221498   0.080   2.658  17.671 -0.2072 -0.7690  0.2322
 3289SOL     OW21499   2.848   0.264   8.482  0.1329 -0.0321  0.0559
 3289SOL    HW121500   2.870   0.171   8.475  0.1110 -0.1204  1.3366
 3289SOL    HW221501   2.938   0.298   8.473 -0.2929  0.7991 -1.1035
 3290SOL     OW21502   2.459   1.601   1.927 -0.3065 -0.0780  0.3490
 3290SOL    HW121503   2.453   1.696   1.913 -0.0132  0.2462  2.4880
 3290SOL    HW221504   2.365   1.592   1.917 -0.1398 -2.1101  0.6232
 3291SOL     OW21505   0.592   4.450  11.248 -0.4278 -0.3877  0.4120
 3291SOL    HW121506   0.599   4.520  11.313  0.4858 -0.3526  0.2638
 3291SOL    HW221507   0.685   4.440  11.230 -0.8777 -0.3521 -1.8552
 3292SOL     OW21508   3.178   2.468   7.043  0.0247  0.6650 -0.6623
 3292SOL    HW121509   3.154   2.488   7.133  0.2914 -2.7181  0.1708
 3292SOL    HW221510   3.247   2.403   7.057 -0.3125  0.1885 -1.2364
 3293SOL     OW21511   3.459   3.749   2.156  0.6445 -0.2129  0.2736
 3293SOL    HW121512   3.539   3.794   2.185 -0.3256  1.0040  1.0451
 3293SOL    HW221513   3.479   3.662   2.189  3.4714  1.0986  2.0855
 3294SOL     OW21514   1.392   2.151   2.179  0.3505 -0.7365 -0.7422
 3294SOL    HW121515   1.428   2.167   2.092  1.1448 -1.8722 -0.6235
 3294SOL    HW221516   1.380   2.056   2.175  0.8654 -0.8253 -0.1681
 3295SOL     OW21517   1.636   2.481  12.558 -0.0445 -0.0679  0.4354
 3295SOL    HW121518   1.556   2.512  12.600 -0.7492 -1.8116  0.4025
 3295SOL    HW221519   1.635   2.386  12.575  1.0355 -0.3726 -1.2465
 3296SOL     OW21520   3.064   0.355   2.235 -0.0813 -0.0377  0.1188
 3296SOL    HW121521   3.050   0.309   2.317 -2.2864  0.1284 -0.1649
 3296SOL    HW221522   3.054   0.280   2.177 -0.6915  0.4898 -0.4703
 3297SOL     OW21523   2.928   2.018  16.445  0.7735  0.6495  0.0065
 3297SOL    HW121524   2.982   2.097  16.440 -1.4469  2.1811 -0.0325
 3297SOL    HW221525   2.996   1.954  16.466  0.1420 -0.5422 -1.5606
 3298SOL     OW21526   0.279   2.925   3.305 -0.2066  0.3765  0.2404
 3298SOL    HW121527   0.259   2.951   3.395 -0.3039 -2.5165  1.0396
 3298SOL    HW221528   0.367   2.889   3.309 -0.6766 -0.7690  0.1132
 3299SOL     OW21529   2.273   2.017   4.285 -0.0925 -0.2160 -0.0791
 3299SOL    HW121530   2.262   1.999   4.192 -0.5111 -0.4514  0.0174
 3299SOL    HW221531   2.355   2.068   4.285 -0.4761  0.4007  1.8846
 3300SOL     OW21532   3.488   1.700   5.536 -0.2817 -0.5484 -0.1378
 3300SOL    HW121533   3.517   1.728   5.449  2.3428  2.1039  1.5684
 3300SOL    HW221534   3.542   1.625   5.562 -0.7804  0.4373  3.8004
 3301SOL     OW21535   3.039   3.284  13.294 -0.4293 -0.0878 -0.0461
 3301SOL    HW121536   3.029   3.226  13.219 -2.4665 -1.9296  1.6561
 3301SOL    HW221537   2.952   3.263  13.327  0.5946 -2.3167  1.2668
 3302SOL     OW21538   4.554   3.960   7.792  0.4032  0.3859 -0.4600
 3302SOL    HW121539   4.473   3.915   7.814 -0.4870  1.6780 -1.1636
 3302SOL    HW221540   4.595   3.958   7.879  0.5504  1.5334 -0.5014
 3303SOL     OW21541   1.432   1.327  12.530  0.1141  0.1419 -0.2803
 3303SOL    HW121542   1.505   1.334  12.469 -0.0360  2.0773 -0.2329
 3303SOL    HW221543   1.477   1.303  12.611 -0.6342 -1.8852 -0.4741
 3304SOL     OW21544   3.724   3.731   5.569  0.4839 -0.1817  0.3990
 3304SOL    HW121545   3.706   3.723   5.475 -0.0252 -0.4743  0.5182
 3304SOL    HW221546   3.734   3.639   5.593  0.6874 -0.6578 -1.5193
 3305SOL     OW21547   3.356   2.157   0.628 -0.9196  0.1314  0.0766
 3305SOL    HW121548   3.362   2.062   0.620 -0.6300  0.2493 -1.0421
 3305SOL    HW221549   3.275   2.159   0.678 -2.2072  0.7531 -2.0668
 3306SOL     OW21550   3.805   0.398   8.502 -0.3028  0.0701  0.2478
 3306SOL    HW121551   3.790   0.308   8.475  0.2501 -1.2584  4.2710
 3306SOL    HW221552   3.846   0.384   8.588  1.5577  0.6631 -0.5384
 3307SOL     OW21553   3.125   0.704  12.505  0.2022 -0.4779 -0.1481
 3307SOL    HW121554   3.143   0.767  12.435 -1.6965 -0.3908 -0.5487
 3307SOL    HW221555   3.042   0.741  12.535 -0.3654 -1.2220 -0.8033
 3308SOL     OW21556   0.670   4.458   3.637  0.1917 -0.0885 -0.3338
 3308SOL    HW121557   0.698   4.385   3.582  3.0129  2.2745 -2.0449
 3308SOL    HW221558   0.733   4.446   3.709 -0.3444  2.1103  0.4975
 3309SOL     OW21559   1.766   1.068  12.774 -0.5269 -0.3150  0.2144
 3309SOL    HW121560   1.731   0.993  12.822  0.6909 -1.2310 -0.3044
 3309SOL    HW221561   1.858   1.075  12.800 -1.3107 -0.7384  3.0483
 3310SOL     OW21562   3.970   3.622   4.906  0.6135  0.3731  0.3297
 3310SOL    HW121563   3.893   3.614   4.850  0.6859  0.2836  0.2433
 3310SOL    HW221564   3.942   3.664   4.988  0.8844  0.6172  0.2947
 3311SOL     OW21565   4.242   1.616  16.797  0.3905 -0.0626 -0.5548
 3311SOL    HW121566   4.306   1.555  16.761  0.7862  1.0302 -1.7120
 3311SOL    HW221567   4.219   1.650  16.710 -0.8240  0.0172 -0.2063
 3312SOL     OW21568   4.115   2.899   4.181  0.5308  0.6467  0.2690
 3312SOL    HW121569   4.024   2.882   4.159  0.3934 -0.4689  1.7210
 3312SOL    HW221570   4.114   2.970   4.245  0.9351  0.6560  0.2629
 3313SOL     OW21571   0.443   2.820   8.387  0.4978  0.2874  0.9041
 3313SOL    HW121572   0.368   2.871   8.356 -1.9307 -1.7519  3.4339
 3313SOL    HW221573   0.405   2.732   8.386  0.5071  0.2914 -1.1047
 3314SOL     OW21574   2.378   3.962   6.925 -0.1550  0.0391  0.1409
 3314SOL    HW121575   2.442   4.000   6.985 -0.0820  0.3967 -0.1683
 3314SOL    HW221576   2.347   4.036   6.873  0.2902  0.3813  0.3650
 3315SOL     OW21577   1.869   0.178   3.043 -0.4066 -0.2765  0.0467
 3315SOL    HW121578   1.818   0.211   3.117 -3.1325 -0.9512 -1.5331
 3315SOL    HW221579   1.892   0.267   3.015 -1.1687 -0.2578 -0.5320
 3316SOL     OW21580   0.224   2.412   1.525  0.2767 -0.0842  0.3406
 3316SOL    HW121581   0.190   2.341   1.471  0.2742 -0.3861  0.7432
 3316SOL    HW221582   0.228   2.364   1.608  2.6474  1.0325  0.8726
 3317SOL     OW21583   3.440   3.453  16.636  0.4053  0.5670  0.1655
 3317SOL    HW121584   3.458   3.433  16.728 -1.2143 -1.8852 -0.0497
 3317SOL    HW221585   3.512   3.514  16.618  2.1460 -1.7594 -0.6943
 3318SOL     OW21586   4.521   3.197  14.824  0.4528 -0.3140 -0.4323
 3318SOL    HW121587   4.438   3.224  14.863  0.3213  0.2484 -1.1164
 3318SOL    HW221588   4.554   3.269  14.771  0.4067  1.5768  2.1051
 3319SOL     OW21589   3.479   4.210  10.289  0.5464  0.2566  0.5673
 3319SOL    HW121590   3.516   4.143  10.347  1.5859  0.7709  0.5172
 3319SOL    HW221591   3.468   4.165  10.206  0.8390 -0.4248  0.8983
 3320SOL     OW21592   3.760   0.682   7.930 -0.2811 -0.6055  0.3305
 3320SOL    HW121593   3.670   0.708   7.950 -0.3210 -2.1717  2.1691
 3320SOL    HW221594   3.811   0.747   7.979 -1.6170  0.6235  0.0969
 3321SOL     OW21595   2.781   3.647   1.651 -0.2188  0.0622 -0.2945
 3321SOL    HW121596   2.871   3.644   1.619  0.2777  1.1814  0.9860
 3321SOL    HW221597   2.761   3.553   1.656 -1.0639  0.3216  1.2927
 3322SOL     OW21598   3.189   2.619   3.704 -0.3546  0.2709 -0.3789
 3322SOL    HW121599   3.255   2.552   3.683 -0.3266 -0.5250  2.3335
 3322SOL    HW221600   3.114   2.560   3.693  0.4543 -0.7380 -0.5217
 3323SOL     OW21601   3.250   4.527  15.117 -0.2987 -0.3623  0.4786
 3323SOL    HW121602   3.284   4.617  15.120  0.5370 -0.6858  0.7521
 3323SOL    HW221603   3.205   4.533  15.032  0.4679 -2.1829 -0.0603
 3324SOL     OW21604   0.008   4.723  12.912 -0.4869  0.1025  0.2906
 3324SOL    HW121605   4.712   0.069  12.904  0.4940  0.4093 -0.9475
 3324SOL    HW221606   4.702   4.673  12.845  1.0847 -1.3587  0.2536
 3325SOL     OW21607   2.651   4.108   5.034 -0.0603 -0.3302  0.1915
 3325SOL    HW121608   2.566   4.066   5.027 -0.3380  0.6266 -2.2896
 3325SOL    HW221609   2.701   4.028   5.016 -1.1346 -0.5294 -1.9270
 3326SOL     OW21610   1.270   3.813   4.147 -0.2648 -0.1705  0.2434
 3326SOL    HW121611   1.246   3.863   4.069  0.3347  1.2339  0.9669
 3326SOL    HW221612   1.353   3.850   4.175  0.7597  1.6032 -5.0924
 3327SOL     OW21613   2.137   0.664   1.584  0.3754  0.0190  0.1653
 3327SOL    HW121614   2.074   0.735   1.599  1.6554  1.4466 -1.2709
 3327SOL    HW221615   2.211   0.724   1.580  0.4322  0.0201  1.2714
 3328SOL     OW21616   1.337   1.874  13.303 -0.3159  0.7799 -0.1430
 3328SOL    HW121617   1.400   1.811  13.267 -1.2611  0.4224 -1.1445
 3328SOL    HW221618   1.277   1.876  13.228 -0.1744  0.4994 -0.2624
 3329SOL     OW21619   3.534   3.603   7.249 -0.4303  0.2794 -0.1950
 3329SOL    HW121620   3.530   3.664   7.174 -1.2541  1.6793  0.9831
 3329SOL    HW221621   3.461   3.637   7.301 -0.9507 -0.0614 -0.6944
 3330SOL     OW21622   0.125   1.771   2.289 -0.2033  0.0480  0.6787
 3330SOL    HW121623   0.180   1.849   2.281 -1.9046  1.1293 -0.5663
 3330SOL    HW221624   0.186   1.698   2.285  0.7322  0.9067 -0.7130
 3331SOL     OW21625   2.389   1.556   5.855 -0.4924  0.4242  0.9416
 3331SOL    HW121626   2.429   1.534   5.939  2.0159 -0.3016 -0.4314
 3331SOL    HW221627   2.299   1.528   5.873 -0.5458  0.1105  0.1616
 3332SOL     OW21628   2.784   2.063  16.213 -0.2509  0.1019 -0.4517
 3332SOL    HW121629   2.826   2.040  16.297  0.5298 -0.5181 -1.0140
 3332SOL    HW221630   2.713   2.001  16.196 -0.6886  0.2197  0.9614
 3333SOL     OW21631   1.389   1.243   8.119 -0.5014  0.0085 -0.2213
 3333SOL    HW121632   1.477   1.282   8.116 -0.4589 -0.0978 -0.3450
 3333SOL    HW221633   1.378   1.237   8.213 -0.9591 -1.5298 -0.3731
 3334SOL     OW21634   2.989   4.304   7.850  0.2152 -0.5561 -0.5912
 3334SOL    HW121635   2.988   4.399   7.842  2.6047 -0.5606 -0.7568
 3334SOL    HW221636   3.003   4.286   7.943 -0.2507  2.3359  0.0149
 3335SOL     OW21637   2.060   3.914  16.689  0.0759 -0.2612 -0.4322
 3335SOL    HW121638   2.138   3.967  16.710 -0.0556 -0.4090  0.4411
 3335SOL    HW221639   2.070   3.904  16.595 -2.0637 -0.2915 -0.6386
 3336SOL     OW21640   0.456   4.298   9.119 -0.7605 -0.0780  0.6580
 3336SOL    HW121641   0.445   4.216   9.167  0.3123 -0.1243  0.8123
 3336SOL    HW221642   0.369   4.307   9.079  0.7915  2.2186 -2.2037
 3337SOL     OW21643   0.179   3.772   4.234 -0.0173 -0.1530  0.1641
 3337SOL    HW121644   0.152   3.803   4.320 -1.2542 -0.7813 -0.0094
 3337SOL    HW221645   0.107   3.713   4.212 -0.7533  1.4208 -1.5960
 3338SOL     OW21646   4.517   4.228   3.903 -0.1261  0.1182 -0.3462
 3338SOL    HW121647   4.437   4.180   3.883 -0.4672 -0.2209  1.8788
 3338SOL    HW221648   4.495   4.311   3.861  0.2996 -0.3275 -1.4374
 3339SOL     OW21649   4.645   0.236  12.479  0.2285 -0.1676  0.0122
 3339SOL    HW121650   4.689   0.153  12.496  1.9199  0.5934 -0.7350
 3339SOL    HW221651   4.604   0.267  12.560 -0.0280  0.7915 -0.4820
 3340SOL     OW21652   2.949   2.250   1.503 -0.2516  0.1974  0.1114
 3340SOL    HW121653   2.911   2.170   1.540 -0.4409 -0.7787 -2.1473
 3340SOL    HW221654   2.874   2.272   1.448 -0.0422 -0.9239 -0.6249
 3341SOL     OW21655   3.300   2.251   8.817  0.0010 -0.5497  0.2959
 3341SOL    HW121656   3.380   2.198   8.816  0.3461  0.0027 -1.2280
 3341SOL    HW221657   3.244   2.186   8.774  1.6531 -2.0571  0.4339
 3342SOL     OW21658   1.484   2.817  12.698  0.2898  0.5446 -0.3500
 3342SOL    HW121659   1.463   2.725  12.709  1.3771  0.3059 -0.2710
 3342SOL    HW221660   1.574   2.812  12.666  0.1043 -0.1680 -0.7548
 3343SOL     OW21661   3.579   2.446  14.320  0.5836  0.5257  0.4423
 3343SOL    HW121662   3.586   2.406  14.233  0.5907 -1.9267  1.5948
 3343SOL    HW221663   3.600   2.379  14.384 -0.1771 -1.3497 -1.2808
 3344SOL     OW21664   1.584   1.017   6.520  0.2919  0.0609  0.2560
 3344SOL    HW121665   1.579   0.921   6.525  1.5265 -0.0590 -0.8839
 3344SOL    HW221666   1.488   1.022   6.524  0.4725  3.3811  0.0016
 3345SOL     OW21667   2.101   3.668   4.939  0.0013 -0.3409  0.1711
 3345SOL    HW121668   2.050   3.729   4.885  1.4775  0.3575 -0.4186
 3345SOL    HW221669   2.027   3.629   4.987 -1.8832  1.9198 -0.9025
 3346SOL     OW21670   0.744   0.076   1.673  0.3937 -0.1831 -0.4979
 3346SOL    HW121671   0.783   0.146   1.725  2.1259 -1.7136  0.2346
 3346SOL    HW221672   0.816   0.053   1.614 -0.6875 -0.6031 -1.6498
 3347SOL     OW21673   1.774   3.691  16.676  0.5287 -0.2286  1.1905
 3347SOL    HW121674   1.811   3.779  16.670 -1.4089  0.4369 -0.5525
 3347SOL    HW221675   1.819   3.639  16.609 -0.1070 -0.5232  0.9987
 3348SOL     OW21676   1.564   3.750   6.787  0.0357 -0.3451 -0.0222
 3348SOL    HW121677   1.617   3.794   6.721 -2.6251  1.7760 -0.7575
 3348SOL    HW221678   1.494   3.814   6.801  0.9653  0.8254 -0.7075
 3349SOL     OW21679   1.715   4.173  13.471  0.1586  0.6034  0.0712
 3349SOL    HW121680   1.655   4.108  13.506  1.4189 -1.3273 -1.3789
 3349SOL    HW221681   1.750   4.217  13.549 -0.5202  0.2526  0.5725
 3350SOL     OW21682   2.946   0.656  17.230 -0.0184  0.5008  0.3279
 3350SOL    HW121683   2.949   0.750  17.247 -0.3087  0.3875  1.0241
 3350SOL    HW221684   2.934   0.623  17.319  2.1503 -2.3988 -0.4601
 3351SOL     OW21685   3.910   0.277  17.090 -0.6356  0.1778  0.3441
 3351SOL    HW121686   3.877   0.363  17.116 -0.5770 -0.7860  3.7196
 3351SOL    HW221687   3.883   0.268  16.999  1.1837  1.3256 -0.3035
 3352SOL     OW21688   4.021   0.541   2.344  0.0350 -0.2914 -0.0251
 3352SOL    HW121689   3.983   0.597   2.276  1.1202 -0.3063 -0.6370
 3352SOL    HW221690   4.106   0.582   2.351  0.5397 -1.3739  0.2290
 3353SOL     OW21691   1.188   0.828   8.840  0.2629 -0.6311  0.3000
 3353SOL    HW121692   1.236   0.831   8.758  1.7436  2.4419  1.2868
 3353SOL    HW221693   1.252   0.776   8.889  1.1438  0.0174 -0.1545
 3354SOL     OW21694   2.563   1.750   3.444  0.1841 -0.4414 -0.0462
 3354SOL    HW121695   2.627   1.791   3.385  1.4945 -0.7536  1.1394
 3354SOL    HW221696   2.564   1.662   3.405 -3.3075 -0.1826 -0.6899
 3355SOL     OW21697   2.373   1.213   8.520 -0.2728  0.4983  0.1195
 3355SOL    HW121698   2.310   1.285   8.516 -0.7987  0.1443  2.1556
 3355SOL    HW221699   2.318   1.135   8.515  1.0706 -0.2399 -3.6815
 3356SOL     OW21700   3.194   2.425   8.991 -0.1913 -0.3284 -0.0492
 3356SOL    HW121701   3.279   2.443   9.030 -0.7036 -0.9980  1.3793
 3356SOL    HW221702   3.211   2.360   8.924  1.6378  1.8624 -1.7146
 3357SOL     OW21703   0.782   2.604   7.465  0.2955  0.2580  0.0766
 3357SOL    HW121704   0.751   2.676   7.410 -1.4744  0.2889  1.1464
 3357SOL    HW221705   0.760   2.525   7.417 -1.7616  0.5335  0.5968
 3358SOL     OW21706   4.201   0.185   4.612 -0.1599  0.1452  0.0657
 3358SOL    HW121707   4.145   0.111   4.635 -0.1684 -0.1040 -0.7554
 3358SOL    HW221708   4.239   0.206   4.697 -0.2519 -0.9398  0.3811
 3359SOL     OW21709   2.947   3.931   8.374  0.5249 -0.0283 -0.1531
 3359SOL    HW121710   2.915   4.017   8.348 -0.9328 -0.3404  0.5524
 3359SOL    HW221711   2.868   3.877   8.365 -0.6088  1.6490 -0.3650
 3360SOL     OW21712   4.740   3.151   5.262  0.3536 -0.0498  0.3501
 3360SOL    HW121713   4.721   3.180   5.172 -2.9218  1.1131  1.4115
 3360SOL    HW221714   0.015   3.061   5.235  2.7782  0.6648 -0.6197
 3361SOL     OW21715   1.377   2.851   8.405  0.3692 -0.0037  0.0279
 3361SOL    HW121716   1.366   2.777   8.465 -1.7363 -2.3318 -3.2937
 3361SOL    HW221717   1.293   2.860   8.361  0.1439  1.7990  0.8107
 3362SOL     OW21718   1.196   4.563   7.600 -0.0270  0.0348 -0.0446
 3362SOL    HW121719   1.163   4.500   7.664  2.5418 -0.5555  0.7257
 3362SOL    HW221720   1.291   4.555   7.608  0.1744  1.9744 -0.4000
 3363SOL     OW21721   0.496   2.419  16.552 -0.4286  0.0006 -0.2782
 3363SOL    HW121722   0.516   2.474  16.476  0.5084  1.1926  0.8231
 3363SOL    HW221723   0.438   2.355  16.512  3.0956 -1.4502 -3.0667
 3364SOL     OW21724   0.393   1.132   3.994 -0.0018 -0.0160  0.4548
 3364SOL    HW121725   0.331   1.059   3.991 -1.8251  1.4829  1.5810
 3364SOL    HW221726   0.341   1.198   3.949 -2.4365 -0.8682  2.0260
 3365SOL     OW21727   3.079   3.816   2.141 -0.3053  0.2601  0.4541
 3365SOL    HW121728   2.988   3.789   2.147 -0.3028 -0.0070 -0.7278
 3365SOL    HW221729   3.117   3.755   2.205  1.7223 -1.3505 -2.2702
 3366SOL     OW21730   1.244   0.385   8.040 -0.0250 -0.2223  0.5780
 3366SOL    HW121731   1.338   0.380   8.019 -0.7509  1.0540 -2.9086
 3366SOL    HW221732   1.220   0.466   7.996 -0.3119  0.3201  1.7172
 3367SOL     OW21733   1.813   1.553   5.721  0.6103  0.1414 -0.2751
 3367SOL    HW121734   1.739   1.580   5.667  1.3023  0.5891 -1.0069
 3367SOL    HW221735   1.779   1.514   5.802 -2.0306  3.6928  0.3089
 3368SOL     OW21736   4.071   1.303   7.796  0.5603  0.0241 -0.0700
 3368SOL    HW121737   4.110   1.337   7.877 -1.7086  0.9450  0.6386
 3368SOL    HW221738   3.980   1.289   7.819  0.4372  0.7227 -0.1350
 3369SOL     OW21739   2.416   2.726   5.234 -0.1864 -0.1396 -0.6268
 3369SOL    HW121740   2.441   2.670   5.161  0.7652  1.2059 -1.3437
 3369SOL    HW221741   2.438   2.814   5.201  2.4204 -0.5104  0.1393
 3370SOL     OW21742   3.307   4.120   2.115  0.4108  0.1763  0.1041
 3370SOL    HW121743   3.230   4.111   2.058  1.5181 -0.4429 -1.2782
 3370SOL    HW221744   3.279   4.074   2.194  0.7704 -0.0281  0.1068
 3371SOL     OW21745   4.398   1.063   6.333  0.3212 -0.0174  0.3596
 3371SOL    HW121746   4.400   1.004   6.258 -0.2676  1.3748 -0.7579
 3371SOL    HW221747   4.428   1.003   6.400  1.7902 -0.2041 -0.4822
 3372SOL     OW21748   2.075   1.510   7.141  0.6356  0.0906 -0.6086
 3372SOL    HW121749   1.982   1.523   7.125  0.1039 -1.6264  1.0367
 3372SOL    HW221750   2.114   1.595   7.123  0.3503  0.2837 -0.3075
 3373SOL     OW21751   2.082   2.932   6.859 -0.4411 -0.3036  0.1235
 3373SOL    HW121752   2.100   2.938   6.765  1.5843  1.8596  0.6205
 3373SOL    HW221753   1.987   2.926   6.866 -0.4046 -1.1309 -0.1274
 3374SOL     OW21754   2.962   4.648  12.438  0.5680  0.1891  0.5880
 3374SOL    HW121755   2.901   4.651  12.364 -1.7568  2.2010  2.6101
 3374SOL    HW221756   2.987   4.740  12.440 -1.0491  0.6375  0.5505
 3375SOL     OW21757   1.589   0.361   6.751  0.4419  0.2412 -0.0850
 3375SOL    HW121758   1.537   0.356   6.670 -2.4513  0.0979  1.7919
 3375SOL    HW221759   1.554   0.433   6.804 -0.8939 -0.4908  0.0343
 3376SOL     OW21760   0.088   0.900  15.970 -0.4872 -0.1016  0.1784
 3376SOL    HW121761   0.112   0.973  15.912  0.7839 -0.4825  0.2439
 3376SOL    HW221762   0.028   0.945  16.029 -2.6591 -1.5400 -0.9238
 3377SOL     OW21763   4.069   0.683   4.945 -0.2568 -0.7844  0.4770
 3377SOL    HW121764   4.001   0.628   4.907 -0.2131 -0.8451  0.4863
 3377SOL    HW221765   4.137   0.631   4.902  2.0497  0.0194  3.1307
 3378SOL     OW21766   0.849   3.684   8.888  0.0596 -0.2200 -0.3543
 3378SOL    HW121767   0.889   3.603   8.854  0.3915 -0.2082  0.0097
 3378SOL    HW221768   0.853   3.738   8.808 -1.3811  1.3908  0.6654
 3379SOL     OW21769   3.796   3.618   3.016 -0.3810  0.0660 -0.6390
 3379SOL    HW121770   3.788   3.709   2.989 -0.5603 -0.2848 -1.7917
 3379SOL    HW221771   3.859   3.634   3.086  1.3436  1.2258 -2.4403
 3380SOL     OW21772   3.311   1.779   5.712  0.0301 -0.4325 -0.0560
 3380SOL    HW121773   3.380   1.747   5.653  0.7548  0.3863  0.3407
 3380SOL    HW221774   3.255   1.703   5.698  2.2301 -1.9514 -0.6614
 3381SOL     OW21775   3.781   4.397   2.945  0.3034 -0.3204  0.1721
 3381SOL    HW121776   3.830   4.460   2.891 -1.0491  0.4426 -0.1733
 3381SOL    HW221777   3.848   4.379   3.011  0.4012 -1.8815 -0.3600
 3382SOL     OW21778   3.364   4.703   4.037  0.2734  0.8135 -0.5277
 3382SOL    HW121779   3.283   4.659   4.011  0.7957 -1.2824  1.3545
 3382SOL    HW221780   3.395   4.726   3.950  0.4653 -0.4782 -0.7963
 3383SOL     OW21781   4.699   4.471  17.057 -0.2399 -0.2969  0.4267
 3383SOL    HW121782   4.605   4.474  17.042 -0.3158 -1.5305  0.6434
 3383SOL    HW221783   4.711   4.398  17.118  0.4986  0.0475  0.6939
 3384SOL     OW21784   0.460   1.324   0.987  0.2485 -0.0010  0.1054
 3384SOL    HW121785   0.382   1.363   0.947  0.9919  0.0488 -1.3013
 3384SOL    HW221786   0.523   1.354   0.921 -0.6553  1.2112 -0.1893
 3385SOL     OW21787   1.195   1.601  14.863 -0.4065 -0.3882 -0.1469
 3385SOL    HW121788   1.249   1.532  14.900  0.4237  0.0480 -0.5493
 3385SOL    HW221789   1.199   1.593  14.768 -1.6504  0.8572 -0.3155
 3386SOL     OW21790   0.852   4.509   3.028 -0.2614 -0.3893  0.3556
 3386SOL    HW121791   0.939   4.473   3.011 -0.1890  0.9615 -2.0487
 3386SOL    HW221792   0.871   4.596   3.064  3.1431 -1.0516  0.1376
 3387SOL     OW21793   4.221   0.582   5.183 -0.2952  0.3277  0.0271
 3387SOL    HW121794   4.214   0.619   5.095  1.8305  1.4307  0.3413
 3387SOL    HW221795   4.235   0.661   5.236 -0.7117 -0.1892  0.9095
 3388SOL     OW21796   0.653   1.183  12.660 -0.4938  1.0617 -0.3765
 3388SOL    HW121797   0.694   1.125  12.597  0.0968  0.4655  0.5472
 3388SOL    HW221798   0.636   1.118  12.728 -1.8222  1.4392 -0.3483
 3389SOL     OW21799   3.275   1.171   3.034 -0.0425 -0.0156 -0.0580
 3389SOL    HW121800   3.274   1.078   3.011 -1.6784 -0.0610  0.2438
 3389SOL    HW221801   3.353   1.170   3.090 -0.8739 -0.9309  1.0730
 3390SOL     OW21802   4.600   2.362   3.067  0.0981 -0.0399  0.3849
 3390SOL    HW121803   4.570   2.439   3.019  1.4359 -0.1380 -0.6183
 3390SOL    HW221804   4.696   2.369   3.066  0.4047 -4.3716 -2.0389
 3391SOL     OW21805   1.728   2.702   3.130  0.1186 -0.1693 -0.5013
 3391SOL    HW121806   1.816   2.736   3.145 -0.0601  0.7735 -1.5591
 3391SOL    HW221807   1.723   2.644   3.205 -2.2572  1.9091  0.9461
 3392SOL     OW21808   1.263   1.871   0.059  0.3970  0.1465 -0.2929
 3392SOL    HW121809   1.285   1.838   0.147  2.6757 -0.2842 -1.0266
 3392SOL    HW221810   1.326   1.824   0.004 -2.2366 -0.3040 -2.9313
 3393SOL     OW21811   0.667   3.557  13.270  0.8557 -0.2021  0.6215
 3393SOL    HW121812   0.690   3.647  13.245  1.0515 -0.4143  0.0475
 3393SOL    HW221813   0.575   3.575  13.287  0.3708 -0.2346 -2.0557
 3394SOL     OW21814   3.196   3.163  11.823 -0.0406  0.3061  0.3160
 3394SOL    HW121815   3.117   3.115  11.799 -0.5151  0.0595  2.3746
 3394SOL    HW221816   3.197   3.217  11.744  0.6848  1.6944  1.2617
 3395SOL     OW21817   1.003   3.198   2.135 -0.3144  0.0303  0.0427
 3395SOL    HW121818   1.037   3.155   2.214  1.5078  2.9573  0.8712
 3395SOL    HW221819   0.909   3.179   2.136  0.0117 -1.5693 -0.4229
 3396SOL     OW21820   2.414   4.369  13.178  0.7938  0.6152 -0.1887
 3396SOL    HW121821   2.455   4.282  13.178 -0.2832  0.1016  0.4852
 3396SOL    HW221822   2.486   4.428  13.196 -0.6391  1.8561  1.4584
 3397SOL     OW21823   3.985   4.333   3.134  0.4931 -0.1839 -0.1226
 3397SOL    HW121824   4.055   4.293   3.082  2.0455 -0.1114  1.8862
 3397SOL    HW221825   3.979   4.272   3.208 -3.2666  0.3442 -0.0312
 3398SOL     OW21826   0.553   1.717   0.751  0.2162 -0.4052  0.1525
 3398SOL    HW121827   0.631   1.762   0.717  0.8110 -2.9170 -1.7746
 3398SOL    HW221828   0.499   1.677   0.683 -0.0148 -2.4155  1.5173
 3399SOL     OW21829   2.356   2.955   7.365 -0.0137 -0.0335  0.9234
 3399SOL    HW121830   2.275   3.003   7.347 -0.3653 -0.5390  1.1580
 3399SOL    HW221831   2.342   2.882   7.305  0.7892  0.0755  0.6075
 3400SOL     OW21832   2.041   2.008   3.738  0.4914 -0.3543 -0.1702
 3400SOL    HW121833   1.961   2.047   3.775 -0.5063 -2.5348  0.0034
 3400SOL    HW221834   2.086   1.981   3.818 -2.9730 -3.1647  0.8632
 3401SOL     OW21835   2.221   4.718   7.082  0.0852 -0.3574 -0.7439
 3401SOL    HW121836   2.268   4.638   7.105  0.7205  0.8515  2.0899
 3401SOL    HW221837   2.148   4.664   7.051 -0.7882  0.3065  0.1735
 3402SOL     OW21838   4.027   3.964   3.001  0.1181  0.2409 -0.0278
 3402SOL    HW121839   4.028   3.981   2.907 -2.9487  0.2627 -0.0494
 3402SOL    HW221840   3.962   4.027   3.034  0.4852  0.5207  0.1610
 3403SOL     OW21841   3.867   2.324   3.419 -0.0267 -0.0953  0.1211
 3403SOL    HW121842   3.862   2.393   3.353  0.4029  0.3131  0.5186
 3403SOL    HW221843   3.953   2.348   3.454  0.6392 -0.8159 -1.0150
 3404SOL     OW21844   4.237   2.460  16.966 -0.0036 -0.4619 -0.3628
 3404SOL    HW121845   4.242   2.449  17.061 -1.5641 -0.0870 -0.2394
 3404SOL    HW221846   4.143   2.445  16.954  0.2104 -2.4811  0.3939
 3405SOL     OW21847   1.612   3.673   8.423 -0.1678  0.8523  0.5980
 3405SOL    HW121848   1.602   3.577   8.427 -0.3374  0.7621 -1.7013
 3405SOL    HW221849   1.517   3.685   8.429 -0.2317  1.3037 -1.3911
 3406SOL     OW21850   0.587   0.882   6.803 -0.3893  0.0235 -0.5531
 3406SOL    HW121851   0.493   0.867   6.814 -0.9464  1.8108 -2.9188
 3406SOL    HW221852   0.606   0.899   6.896  0.7905 -1.1388 -0.5830
 3407SOL     OW21853   3.736   0.350   4.631 -0.8635  0.2768 -0.6689
 3407SOL    HW121854   3.685   0.429   4.610 -1.8778 -0.0687  0.5491
 3407SOL    HW221855   3.679   0.315   4.698  0.2672 -0.4818 -0.1109
 3408SOL     OW21856   4.003   0.040   2.350 -0.7714  0.0125 -0.8506
 3408SOL    HW121857   4.049   0.111   2.396 -1.2121  0.3987 -1.0087
 3408SOL    HW221858   3.937   0.093   2.305  0.1935  1.8435 -0.1185
 3409SOL     OW21859   3.019   4.317   5.273 -0.4732  0.0724  0.1076
 3409SOL    HW121860   3.074   4.285   5.345 -0.6992 -1.4141 -0.3842
 3409SOL    HW221861   2.988   4.401   5.309 -1.6684  0.7002 -2.3895
 3410SOL     OW21862   1.397   3.449  10.645 -0.3998 -0.2289  0.0622
 3410SOL    HW121863   1.459   3.434  10.716 -1.1410  1.1770  0.9999
 3410SOL    HW221864   1.447   3.446  10.564 -0.1549  0.1244  0.1983
 3411SOL     OW21865   1.763   4.435  16.136  0.6605  0.4748 -0.5970
 3411SOL    HW121866   1.705   4.496  16.180 -0.1320 -0.3314 -0.5220
 3411SOL    HW221867   1.769   4.360  16.196 -1.1155  1.3772  0.7079
 3412SOL     OW21868   1.031   1.836   9.645 -0.4598  0.4506  0.2795
 3412SOL    HW121869   1.081   1.890   9.585 -1.7280  0.4915 -0.7320
 3412SOL    HW221870   0.988   1.903   9.700 -1.3969 -0.9686  1.2736
 3413SOL     OW21871   4.240   2.929   6.219 -1.0319 -0.7958  0.5506
 3413SOL    HW121872   4.167   2.990   6.207  0.7628  1.0240 -1.0222
 3413SOL    HW221873   4.215   2.868   6.149 -0.9235  0.9329 -1.0022
 3414SOL     OW21874   0.571   2.820   3.611  0.5000 -0.2166  0.3550
 3414SOL    HW121875   0.510   2.849   3.679  0.6251  0.4358  0.1865
 3414SOL    HW221876   0.578   2.727   3.633 -0.7305  0.0201  1.7505
 3415SOL     OW21877   2.136   1.260   3.301 -0.0031 -0.3788  0.6096
 3415SOL    HW121878   2.114   1.288   3.212 -3.4289 -1.2085  1.2082
 3415SOL    HW221879   2.166   1.342   3.340  1.1831 -0.7825  0.5338
 3416SOL     OW21880   3.725   1.899  17.726 -0.1261 -0.4651  0.1959
 3416SOL    HW121881   3.744   1.915  17.633  2.7142 -0.7133  0.7348
 3416SOL    HW221882   3.814   1.893  17.759 -0.0102 -0.4310 -0.1062
 3417SOL     OW21883   1.019   2.937   1.360 -0.3962  0.1278 -0.5395
 3417SOL    HW121884   1.107   2.948   1.397  0.0471 -1.5370 -1.1280
 3417SOL    HW221885   0.990   3.025   1.335 -0.5726 -0.6031 -2.8991
 3418SOL     OW21886   3.203   3.607   5.824 -0.2615 -0.1423  0.3956
 3418SOL    HW121887   3.184   3.513   5.829  1.3021 -0.6857 -3.5901
 3418SOL    HW221888   3.260   3.608   5.747 -1.7858  0.7322 -0.7180
 3419SOL     OW21889   3.672   2.102   1.898  0.3121 -0.1740 -0.2693
 3419SOL    HW121890   3.610   2.031   1.909  0.8607 -0.4276  1.1936
 3419SOL    HW221891   3.628   2.181   1.866  1.0115  0.8951  1.3931
 3420SOL     OW21892   2.339   2.910   2.322  0.2043  0.2983  0.7728
 3420SOL    HW121893   2.430   2.894   2.349 -0.6597 -0.4327  3.2886
 3420SOL    HW221894   2.329   2.831   2.270 -2.1251  0.5726  0.8125
 3421SOL     OW21895   3.153   3.077   6.030  0.2230  0.2713  0.0117
 3421SOL    HW121896   3.213   3.003   6.017  0.0169 -0.1372  1.4652
 3421SOL    HW221897   3.130   3.084   5.937  1.5139  0.8280 -0.2708
 3422SOL     OW21898   0.134   3.031   2.579  0.3492 -0.1840  0.3688
 3422SOL    HW121899   0.126   2.972   2.504 -1.5101  1.8061 -0.9569
 3422SOL    HW221900   0.203   2.985   2.628 -0.0797  0.2190  1.3590
 3423SOL     OW21901   3.834   2.430   0.390 -0.1644 -0.0497 -0.0394
 3423SOL    HW121902   3.929   2.439   0.380 -0.2400  1.1125  0.2765
 3423SOL    HW221903   3.812   2.376   0.314  0.6484  0.8693 -0.9400
 3424SOL     OW21904   0.156   2.741   7.850  0.3921  0.2482 -0.6210
 3424SOL    HW121905   0.227   2.761   7.911  1.2133 -0.7721 -1.2306
 3424SOL    HW221906   0.082   2.729   7.910 -1.8210  0.6667 -3.3001
 3425SOL     OW21907   1.618   0.299   7.982 -0.1310  0.0794  0.2761
 3425SOL    HW121908   1.662   0.325   8.063  0.4654  2.9669 -0.9586
 3425SOL    HW221909   1.615   0.385   7.939  1.4619  0.3970  0.7719
 3426SOL     OW21910   1.069   4.175  10.731  0.3350  0.4084 -0.3455
 3426SOL    HW121911   1.159   4.205  10.748  0.2796  0.8242 -0.7775
 3426SOL    HW221912   1.072   4.167  10.635  0.8103 -1.2917 -0.1946
 3427SOL     OW21913   3.490   1.934   7.035 -0.5702 -0.3203  0.2811
 3427SOL    HW121914   3.552   1.986   7.085  0.4873  1.5245 -2.9345
 3427SOL    HW221915   3.537   1.894   6.962  0.0438  0.6052  0.1777
 3428SOL     OW21916   1.621   0.552   2.013  0.0318 -0.4344 -1.2038
 3428SOL    HW121917   1.553   0.489   1.990 -0.8255  0.2018 -0.4434
 3428SOL    HW221918   1.690   0.508   1.964 -0.2935 -2.8196  0.4824
 3429SOL     OW21919   1.453   0.402   3.976  0.4758 -0.0272 -0.4815
 3429SOL    HW121920   1.471   0.394   3.882 -3.2772  0.9417 -1.2843
 3429SOL    HW221921   1.489   0.488   4.000  1.0381 -0.4999  0.3653
 3430SOL     OW21922   4.429   3.527   7.097  0.0423 -0.3423  0.5734
 3430SOL    HW121923   4.341   3.563   7.088  0.7468  1.2431 -0.1403
 3430SOL    HW221924   4.443   3.489   7.010 -2.5771 -2.8302  1.2590
 3431SOL     OW21925   0.462   3.485   6.480  0.0104  0.4216  0.0368
 3431SOL    HW121926   0.464   3.580   6.480 -2.0131  0.4864  4.3923
 3431SOL    HW221927   0.460   3.482   6.576 -1.0235  0.0361  0.0021
 3432SOL     OW21928   3.092   3.174   8.446 -0.0979  0.5522  0.4292
 3432SOL    HW121929   3.077   3.159   8.539 -0.5023 -1.5677  0.0164
 3432SOL    HW221930   3.022   3.121   8.409 -0.8359  0.4291  1.9958
 3433SOL     OW21931   1.850   3.521   7.083  0.3117  0.0194  0.5101
 3433SOL    HW121932   1.841   3.471   7.002 -2.3526 -0.3998  1.0517
 3433SOL    HW221933   1.895   3.454   7.135 -1.5493 -2.4765 -1.0603
 3434SOL     OW21934   1.813   2.855  14.332 -0.3541 -0.5298 -0.5255
 3434SOL    HW121935   1.741   2.867  14.393  0.1252 -0.3257 -0.0051
 3434SOL    HW221936   1.818   2.759  14.331  0.1617 -0.5026  1.3833
 3435SOL     OW21937   3.456   0.741   3.702  0.1883 -0.6777 -0.5582
 3435SOL    HW121938   3.439   0.674   3.636 -0.4718 -1.2120  0.1574
 3435SOL    HW221939   3.372   0.742   3.747 -0.1129 -0.1961 -1.1302
 3436SOL     OW21940   4.052   0.155   3.328 -0.4517  0.2188 -0.0414
 3436SOL    HW121941   4.022   0.143   3.238 -1.2578  1.4010  0.0769
 3436SOL    HW221942   3.977   0.133   3.382 -0.4781  0.2174 -0.0787
 3437SOL     OW21943   0.845   0.252   1.870 -0.4569 -0.1836  0.0849
 3437SOL    HW121944   0.917   0.196   1.898 -0.9100 -0.5603  0.4795
 3437SOL    HW221945   0.891   0.336   1.874 -0.2065 -0.2805 -0.5852
 3438SOL     OW21946   1.220   1.320  14.973  0.2260  0.1726 -0.5136
 3438SOL    HW121947   1.248   1.324  15.064  0.5801  2.7015 -0.7175
 3438SOL    HW221948   1.301   1.319  14.922 -0.2761 -1.1482 -1.2947
 3439SOL     OW21949   3.384   1.826   7.266 -0.1511  0.6558  0.3777
 3439SOL    HW121950   3.379   1.731   7.276 -1.8546  0.5667 -1.3425
 3439SOL    HW221951   3.428   1.827   7.181  0.8573  0.1377  0.8940
 3440SOL     OW21952   1.045   2.577   5.574  0.2866 -0.5503  0.1115
 3440SOL    HW121953   1.098   2.528   5.637  0.0261 -0.2196  0.5904
 3440SOL    HW221954   1.109   2.623   5.521  1.0820 -3.3895 -1.4217
 3441SOL     OW21955   2.000   0.829   7.986  0.5271  0.5523 -0.5046
 3441SOL    HW121956   2.062   0.894   8.021  1.8639  0.0993 -2.0429
 3441SOL    HW221957   2.052   0.750   7.988  0.1049  0.3740  2.6129
 3442SOL     OW21958   0.689   1.969   6.394 -0.0115 -0.2149  0.1873
 3442SOL    HW121959   0.607   2.009   6.422 -0.4750 -1.3132  0.3801
 3442SOL    HW221960   0.655   1.891   6.351  1.5890 -1.2545  0.7881
 3443SOL     OW21961   0.593   2.820  15.027 -0.0648 -0.1744 -0.1147
 3443SOL    HW121962   0.638   2.736  15.020 -1.1248 -0.7919  0.3942
 3443SOL    HW221963   0.667   2.871  15.059 -0.2953 -0.7753  1.4002
 3444SOL     OW21964   1.981   1.562  14.179  0.1046 -1.0234  0.2016
 3444SOL    HW121965   1.985   1.581  14.273  0.1784 -1.1540  0.2255
 3444SOL    HW221966   1.982   1.468  14.160  0.3085 -1.0303  0.2427
 3445SOL     OW21967   0.806   3.811   8.646 -0.1261 -0.1336  0.6759
 3445SOL    HW121968   0.737   3.867   8.682  0.2082  0.3974  0.4911
 3445SOL    HW221969   0.744   3.747   8.612 -0.2628  0.6228 -0.5048
 3446SOL     OW21970   3.335   0.789   8.358  0.0248  0.3696  0.3658
 3446SOL    HW121971   3.279   0.863   8.381  0.4017 -0.5661  4.1738
 3446SOL    HW221972   3.339   0.735   8.437 -0.5421 -1.1779 -0.6570
 3447SOL     OW21973   1.488   2.253   1.945 -0.0412 -0.1988 -0.0553
 3447SOL    HW121974   1.495   2.328   2.004 -2.0170 -0.1343  0.1162
 3447SOL    HW221975   1.582   2.244   1.932 -0.1487 -1.3026 -0.0540
 3448SOL     OW21976   2.780   1.912   6.719  0.0454 -0.6428 -0.0333
 3448SOL    HW121977   2.833   1.983   6.681  0.9450  0.5188  3.3901
 3448SOL    HW221978   2.704   1.961   6.749  1.2364 -0.6218  2.9903
 3449SOL     OW21979   1.317   2.609   8.567  0.0666 -0.0148 -1.0441
 3449SOL    HW121980   1.353   2.555   8.637  0.7870  0.4470 -1.0557
 3449SOL    HW221981   1.232   2.636   8.602  0.4118 -1.2592  0.7540
 3450SOL     OW21982   1.345   1.867  14.018  0.0498 -0.3318 -0.4675
 3450SOL    HW121983   1.430   1.901  14.046 -1.1745  1.8289  0.6448
 3450SOL    HW221984   1.370   1.788  13.970 -0.3338 -0.5713 -0.2740
 3451SOL     OW21985   3.438   0.826   1.758 -0.0414 -0.4243 -0.5009
 3451SOL    HW121986   3.391   0.825   1.675 -0.5059  1.5550 -0.2535
 3451SOL    HW221987   3.528   0.840   1.726 -0.4530  1.4964 -0.7774
 3452SOL     OW21988   2.576   3.078   2.114 -0.2717 -0.0584  0.7826
 3452SOL    HW121989   2.552   3.123   2.195  0.4162 -0.3863  1.1696
 3452SOL    HW221990   2.661   3.047   2.144  0.3734  0.5440 -0.4306
 3453SOL     OW21991   3.094   0.523   3.204 -0.7420 -0.3096 -0.6199
 3453SOL    HW121992   3.085   0.599   3.262  0.5884 -0.4811 -0.2005
 3453SOL    HW221993   3.108   0.451   3.265  0.1420  0.3117 -0.0887
 3454SOL     OW21994   3.007   4.551   4.833  0.3255  0.0562  0.6029
 3454SOL    HW121995   3.018   4.510   4.747 -0.9794 -2.7777  1.8057
 3454SOL    HW221996   2.912   4.547   4.833  0.2587  1.9613 -2.8287
 3455SOL     OW21997   1.923   1.576  13.339  0.0310 -0.3262 -0.2750
 3455SOL    HW121998   1.923   1.598  13.433 -0.3269  0.0663 -0.3649
 3455SOL    HW221999   1.915   1.665  13.304 -1.4925 -0.2196  0.3111
 3456SOL     OW22000   3.512   4.303   0.498  0.1492  0.3104 -0.5358
 3456SOL    HW122001   3.516   4.392   0.532 -1.2287  0.4004 -0.5805
 3456SOL    HW222002   3.419   4.280   0.507  0.0866  0.8984  0.3045
 3457SOL     OW22003   4.401   1.447   5.874  0.3852 -0.0784  0.3769
 3457SOL    HW122004   4.421   1.359   5.905  0.1544 -0.1866  0.2233
 3457SOL    HW222005   4.309   1.454   5.897 -0.0927 -1.7399 -0.9951
 3458SOL     OW22006   1.985   3.584  10.476 -0.0764  0.3395 -0.0435
 3458SOL    HW122007   2.030   3.615  10.554  1.2607 -3.2391  0.5811
 3458SOL    HW222008   1.981   3.668  10.430 -2.0237 -0.2571 -0.9597
 3459SOL     OW22009   3.928   3.909   3.920  0.3836  0.0485 -0.6736
 3459SOL    HW122010   3.940   3.834   3.979  1.7563 -0.2791 -1.3492
 3459SOL    HW222011   4.001   3.965   3.949  0.7455 -0.7784  0.0349
 3460SOL     OW22012   0.947   3.566   7.023 -0.2872 -0.7236  0.1549
 3460SOL    HW122013   1.020   3.506   7.008 -1.6698 -1.7285 -2.4617
 3460SOL    HW222014   0.951   3.631   6.954 -1.7649  0.4843  1.2103
 3461SOL     OW22015   1.512   4.135   3.076  0.0863  0.5354 -0.0752
 3461SOL    HW122016   1.447   4.196   3.038 -3.6880 -1.4329  3.2296
 3461SOL    HW222017   1.519   4.169   3.165 -1.0219 -1.9699  0.9589
 3462SOL     OW22018   3.689   4.245   0.287 -0.1615  0.4929  0.2387
 3462SOL    HW122019   3.624   4.246   0.357  0.1687  1.3066  0.5254
 3462SOL    HW222020   3.759   4.219   0.346 -0.8483  2.4778  1.9433
 3463SOL     OW22021   4.045   0.828   8.511 -0.0479 -0.5242 -0.3876
 3463SOL    HW122022   4.052   0.751   8.568  2.2503  0.7684  1.0213
 3463SOL    HW222023   3.979   0.805   8.446 -1.1130  1.8113 -0.1327
 3464SOL     OW22024   3.617   2.305  10.316  0.0076  0.7560 -0.6718
 3464SOL    HW122025   3.673   2.364  10.366  0.7246  0.1685 -0.7902
 3464SOL    HW222026   3.552   2.290  10.385  0.5377 -0.0453 -0.3480
 3465SOL     OW22027   2.457   2.178  17.367  0.5749  0.1992  0.3841
 3465SOL    HW122028   2.548   2.201  17.387  1.0358 -0.4794 -0.9755
 3465SOL    HW222029   2.408   2.169  17.449 -3.0043  2.0673 -1.5592
 3466SOL     OW22030   1.130   2.449  15.085 -0.2859 -0.3762  0.0935
 3466SOL    HW122031   1.087   2.436  15.170  0.8308 -0.2267  0.6825
 3466SOL    HW222032   1.052   2.447  15.030 -0.5485  2.2223  0.3683
 3467SOL     OW22033   3.763   0.422   7.349 -0.0920  0.0934 -0.0884
 3467SOL    HW122034   3.858   0.433   7.343 -0.0020 -0.4834  0.2546
 3467SOL    HW222035   3.759   0.434   7.444  2.7059  0.5352 -0.0086
 3468SOL     OW22036   2.945   2.673   7.105  0.1345 -0.1320  0.8936
 3468SOL    HW122037   2.919   2.612   7.174 -0.1014 -1.1260 -0.0922
 3468SOL    HW222038   2.869   2.731   7.116 -0.2275 -0.3459 -0.4884
 3469SOL     OW22039   4.491   4.195   7.426 -0.4743  0.6229 -0.2397
 3469SOL    HW122040   4.525   4.111   7.457  1.2170  0.7888 -1.6158
 3469SOL    HW222041   4.494   4.241   7.510 -2.7770 -1.6937  1.1068
 3470SOL     OW22042   3.093   0.745   6.047 -0.2483  1.2814  0.5049
 3470SOL    HW122043   3.029   0.786   6.105 -0.9407  1.4895 -0.4000
 3470SOL    HW222044   3.050   0.738   5.961  3.0582 -0.7674 -0.9689
 3471SOL     OW22045   2.354   1.171  13.271  0.4688  0.4517 -0.3136
 3471SOL    HW122046   2.346   1.192  13.364 -0.6534  1.3396 -0.6081
 3471SOL    HW222047   2.325   1.252  13.229 -2.0126 -1.0617 -1.4989
 3472SOL     OW22048   2.337   1.242   5.380 -0.0317 -0.3430  0.1775
 3472SOL    HW122049   2.293   1.221   5.462 -0.0599 -0.4102  0.1457
 3472SOL    HW222050   2.410   1.291   5.418 -1.7125  1.4553  1.0693
 3473SOL     OW22051   2.999   1.691  15.523  0.1982  1.0278  0.1489
 3473SOL    HW122052   2.907   1.690  15.496  0.5670 -0.1856 -1.0606
 3473SOL    HW222053   3.006   1.786  15.508 -1.7476  1.2142  0.3208
 3474SOL     OW22054   1.455   1.725  14.671 -0.0800 -0.2934 -0.3123
 3474SOL    HW122055   1.368   1.729  14.632 -1.0141 -1.0808  1.6792
 3474SOL    HW222056   1.442   1.665  14.745 -0.9833 -0.3448 -0.5145
 3475SOL     OW22057   4.558   2.202   7.471 -0.4990 -0.1694  0.5744
 3475SOL    HW122058   4.579   2.234   7.384 -1.3430 -0.2321  0.3413
 3475SOL    HW222059   4.574   2.282   7.520  0.5539  0.4526 -0.8216
 3476SOL     OW22060   1.982   1.419   2.519  0.4928  0.0841  0.7388
 3476SOL    HW122061   1.898   1.459   2.495  0.7550 -0.6481 -1.3435
 3476SOL    HW222062   1.951   1.379   2.601 -2.6176  1.0517  0.0413
 3477SOL     OW22063   1.492   3.468  13.309  0.1142 -0.1607 -0.3103
 3477SOL    HW122064   1.513   3.376  13.294  0.1522 -0.3395  0.8058
 3477SOL    HW222065   1.428   3.487  13.241 -1.2708  0.0770  1.0513
 3478SOL     OW22066   0.284   3.112   4.267  0.3956 -0.6119  0.0265
 3478SOL    HW122067   0.285   3.127   4.362 -1.6068 -0.4826  0.0102
 3478SOL    HW222068   0.378   3.127   4.252  0.5085  0.8830  2.2069
 3479SOL     OW22069   0.326   1.366   0.175  0.1850 -0.1208  0.1561
 3479SOL    HW122070   0.296   1.381   0.085 -0.7302 -0.5810  0.3805
 3479SOL    HW222071   0.311   1.453   0.210  1.0061 -0.6371  1.7851
 3480SOL     OW22072   0.463   3.856   2.276 -0.0159  0.3308  0.3117
 3480SOL    HW122073   0.371   3.871   2.298  0.0999 -0.2507  1.2190
 3480SOL    HW222074   0.494   3.946   2.288 -1.6656  0.8092  0.9939
 3481SOL     OW22075   2.023   1.209  14.408  0.3583 -0.1648  0.2305
 3481SOL    HW122076   1.931   1.203  14.431  1.1138 -0.2733  3.2374
 3481SOL    HW222077   2.074   1.180  14.483 -1.1348  1.0630  1.7174
 3482SOL     OW22078   0.662   3.701   2.611  0.2531  0.1834 -0.3913
 3482SOL    HW122079   0.738   3.754   2.634 -0.6875  0.3780  2.3160
 3482SOL    HW222080   0.714   3.633   2.568 -0.5293 -0.3352 -0.5319
 3483SOL     OW22081   1.097   4.446  13.823 -0.4120  0.5317 -0.2956
 3483SOL    HW122082   1.108   4.533  13.785 -1.5331  0.2990 -1.1319
 3483SOL    HW222083   1.169   4.402  13.776  0.3996 -1.2734  2.6244
 3484SOL     OW22084   2.099   1.039   5.176  0.1696  0.0124  0.0263
 3484SOL    HW122085   2.025   1.073   5.125  1.7025  0.9096 -1.6120
 3484SOL    HW222086   2.170   1.059   5.115  0.3167 -1.3831 -0.2587
 3485SOL     OW22087   2.185   1.111   6.512  0.0345  0.2098 -0.3400
 3485SOL    HW122088   2.209   1.176   6.446  3.0002 -0.8382 -0.2714
 3485SOL    HW222089   2.130   1.168   6.565  2.2904  0.9735  1.1565
 3486SOL     OW22090   2.417   0.986   5.360 -0.3953 -0.1163  0.1624
 3486SOL    HW122091   2.349   0.962   5.296  0.0314  3.3192 -1.5967
 3486SOL    HW222092   2.412   1.081   5.359 -1.0247 -0.1507 -0.4270
 3487SOL     OW22093   0.285   4.614   7.445 -0.0725  0.3134  0.0595
 3487SOL    HW122094   0.280   4.593   7.351  1.5280  0.8378 -0.1435
 3487SOL    HW222095   0.208   4.669   7.459 -0.5607 -0.4244  0.2610
 3488SOL     OW22096   4.327   3.165   6.768 -0.0222  0.3365  0.3059
 3488SOL    HW122097   4.356   3.086   6.723 -0.3831  0.1085  0.4706
 3488SOL    HW222098   4.238   3.186   6.738 -0.6813 -0.7224  1.5463
 3489SOL     OW22099   1.329   3.632   5.066  0.3229 -0.8587 -0.1347
 3489SOL    HW122100   1.335   3.675   5.151 -0.1433  1.0238 -1.0605
 3489SOL    HW222101   1.268   3.561   5.087  0.4270 -0.8401  0.2320
 3490SOL     OW22102   2.276   4.640   4.061 -0.6736 -0.6352  0.2272
 3490SOL    HW122103   2.329   4.617   4.138  0.5156 -1.8417 -0.9628
 3490SOL    HW222104   2.268   4.735   4.072 -0.3532 -0.6919  1.0162
 3491SOL     OW22105   1.544   1.426  15.768 -0.2065 -0.4753 -0.0048
 3491SOL    HW122106   1.619   1.383  15.726 -0.5429 -1.6435  0.5825
 3491SOL    HW222107   1.569   1.518  15.766 -5.4404  0.9296 -0.8428
 3492SOL     OW22108   1.276   1.457   4.641  0.3579 -0.2792 -0.0640
 3492SOL    HW122109   1.212   1.411   4.586 -0.4048 -0.9497  1.3740
 3492SOL    HW222110   1.318   1.521   4.584 -0.9665  0.9025  0.2777
 3493SOL     OW22111   0.053   1.130   2.665 -0.0466  0.1240 -0.6878
 3493SOL    HW122112   0.005   1.209   2.692 -3.0973 -1.3141 -1.8759
 3493SOL    HW222113   4.739   1.061   2.702 -1.9692  0.9081 -2.0586
 3494SOL     OW22114   1.095   2.152  11.592 -0.5099 -0.2751  0.5076
 3494SOL    HW122115   1.086   2.181  11.501 -0.8219  1.9050  1.2429
 3494SOL    HW222116   1.022   2.198  11.632  0.1629 -0.0902  1.5184
 3495SOL     OW22117   4.630   1.686   8.063  0.8680 -0.2770 -0.3861
 3495SOL    HW122118   4.616   1.750   7.993  1.9542 -1.2439 -1.4992
 3495SOL    HW222119   4.709   1.716   8.108 -1.7614  1.1922  3.2063
 3496SOL     OW22120   0.803   1.710   5.883 -0.7182 -0.1681 -0.0491
 3496SOL    HW122121   0.867   1.738   5.949 -0.6503 -2.3596  0.7955
 3496SOL    HW222122   0.758   1.793   5.865 -3.1174 -1.6553 -0.8734
 3497SOL     OW22123   1.175   3.771   7.906 -0.0215  0.2508 -0.7801
 3497SOL    HW122124   1.239   3.793   7.974 -0.3072  0.0420 -0.4428
 3497SOL    HW222125   1.232   3.709   7.861 -0.4976 -0.5254 -0.3102
 3498SOL     OW22126   1.775   3.053   0.258 -0.2390 -0.0365  0.2554
 3498SOL    HW122127   1.814   3.100   0.333 -1.3450 -0.3421  1.0231
 3498SOL    HW222128   1.849   3.052   0.197  0.3167  1.3453  0.8873
 3499SOL     OW22129   3.568   2.914   5.670  0.1320  0.0598  0.5374
 3499SOL    HW122130   3.559   3.001   5.710  0.9401  0.4874 -0.2036
 3499SOL    HW222131   3.489   2.867   5.695  0.1624  0.3714  1.2238
 3500SOL     OW22132   1.402   2.251   4.795  0.1192 -0.4553 -0.2185
 3500SOL    HW122133   1.402   2.293   4.881  1.5835  1.6256 -1.2528
 3500SOL    HW222134   1.465   2.310   4.754 -2.2961 -0.2478 -3.6831
 3501SOL     OW22135   2.438   0.551   9.505  0.6610  0.1587 -0.1308
 3501SOL    HW122136   2.386   0.472   9.514 -2.1651  2.1131  0.7327
 3501SOL    HW222137   2.470   0.587   9.588 -3.4758 -0.8655  1.9148
 3502SOL     OW22138   1.135   0.493   9.387  0.2249 -0.3976  0.0835
 3502SOL    HW122139   1.092   0.531   9.464 -0.6704  2.0006 -1.5944
 3502SOL    HW222140   1.183   0.420   9.426  0.6575  0.2288  0.7381
 3503SOL     OW22141   3.466   2.367  13.531 -0.2833 -0.3959 -0.2681
 3503SOL    HW122142   3.507   2.362  13.445  1.6603 -1.9670  0.7514
 3503SOL    HW222143   3.483   2.458  13.554 -2.2687  0.1360 -0.8636
 3504SOL     OW22144   3.752   1.846  10.644 -0.2036  0.1466  0.1191
 3504SOL    HW122145   3.683   1.831  10.579 -2.1210  1.8512  1.7686
 3504SOL    HW222146   3.790   1.926  10.608 -0.0294  0.4805  1.0383
 3505SOL     OW22147   2.694   4.434   3.906 -0.2951  0.1396 -0.1517
 3505SOL    HW122148   2.683   4.386   3.989 -1.2146 -0.3929 -0.5785
 3505SOL    HW222149   2.654   4.372   3.845 -0.9159  0.5952 -0.2076
 3506SOL     OW22150   4.289   3.998   8.131  0.4575 -0.2266  0.0697
 3506SOL    HW122151   4.314   4.029   8.218  2.2436 -1.8442  0.1247
 3506SOL    HW222152   4.198   4.025   8.140  1.1475  2.5065 -1.1653
 3507SOL     OW22153   3.393   4.649   6.031 -0.3608  0.2438 -0.2181
 3507SOL    HW122154   3.335   4.724   6.045  0.3742  0.8152 -0.2825
 3507SOL    HW222155   3.402   4.621   6.122  1.6839  1.0876 -0.1774
 3508SOL     OW22156   3.601   3.924   7.848  0.0066  0.1594 -0.2685
 3508SOL    HW122157   3.655   3.916   7.926 -2.1661  1.0471  1.3174
 3508SOL    HW222158   3.535   3.858   7.868  1.7168 -0.9111  1.7250
 3509SOL     OW22159   2.114   3.252   2.644 -0.0010 -0.2993 -0.2386
 3509SOL    HW122160   2.163   3.302   2.710 -0.4463  0.0574 -0.1799
 3509SOL    HW222161   2.031   3.245   2.692  1.5140 -2.5503  2.0798
 3510SOL     OW22162   0.887   3.664  10.155 -0.4220  0.6572  0.2996
 3510SOL    HW122163   0.878   3.591  10.216  0.1737 -0.6914 -1.2334
 3510SOL    HW222164   0.883   3.750  10.197 -0.1948  1.0853 -0.5554
 3511SOL     OW22165   2.643   1.089  15.618  0.2927 -0.2278  0.4120
 3511SOL    HW122166   2.595   1.164  15.654  1.0210 -0.2327  1.3968
 3511SOL    HW222167   2.665   1.049  15.702  0.7210  1.1513  0.9535
 3512SOL     OW22168   4.318   2.065   7.683 -0.0194 -0.2171 -0.0593
 3512SOL    HW122169   4.333   2.026   7.597  1.5613  1.6109 -0.6253
 3512SOL    HW222170   4.290   2.150   7.649  1.5376 -0.9624 -3.2198
 3513SOL     OW22171   3.140   1.221  12.180 -0.8323 -0.1051  1.3868
 3513SOL    HW122172   3.131   1.309  12.216  1.4756  1.5524 -2.1269
 3513SOL    HW222173   3.227   1.197  12.212 -0.1288 -0.1970 -0.5824
 3514SOL     OW22174   3.303   0.353   9.354  0.0300  0.4367  0.6607
 3514SOL    HW122175   3.379   0.317   9.308  1.1629  1.8498  1.4246
 3514SOL    HW222176   3.230   0.337   9.295 -0.2568  3.0737  0.2836
 3515SOL     OW22177   1.619   2.880   8.193  0.0622  0.0319  0.5290
 3515SOL    HW122178   1.560   2.947   8.158 -0.5908 -0.8710 -0.1134
 3515SOL    HW222179   1.554   2.838   8.249  0.6291 -0.4968  0.7777
 3516SOL     OW22180   0.297   3.418  16.748 -0.3382 -0.1946 -0.6308
 3516SOL    HW122181   0.300   3.411  16.652  3.0563  1.5516 -0.6690
 3516SOL    HW222182   0.326   3.338  16.792 -1.8528  0.3756  1.3845
 3517SOL     OW22183   4.666   2.394   1.814 -0.2196 -0.0411 -0.2044
 3517SOL    HW122184   4.647   2.382   1.907  0.8759  1.0580  0.1672
 3517SOL    HW222185   4.741   2.452   1.800 -0.1769  0.1939  1.0273
 3518SOL     OW22186   4.246   2.324   9.312  0.0625 -0.1182  0.2471
 3518SOL    HW122187   4.324   2.346   9.362  1.2875  0.6453 -2.0300
 3518SOL    HW222188   4.191   2.401   9.327 -1.2363 -1.0074  0.1255
 3519SOL     OW22189   1.079   2.330   3.702 -0.3831 -0.0729  0.2228
 3519SOL    HW122190   1.100   2.253   3.650 -2.0858  0.0322 -0.6277
 3519SOL    HW222191   1.058   2.389   3.629 -4.1097 -0.6772  0.7936
 3520SOL     OW22192   3.719   0.566   6.583  0.3130 -0.3549  0.1726
 3520SOL    HW122193   3.660   0.626   6.536 -1.9996 -0.4279  2.9684
 3520SOL    HW222194   3.769   0.533   6.509  0.1863  0.1835 -0.1594
 3521SOL     OW22195   0.260   3.841   3.130  0.0565  0.3251 -0.3929
 3521SOL    HW122196   0.173   3.835   3.091 -0.3972  0.6205  0.5823
 3521SOL    HW222197   0.259   3.927   3.171  1.1804 -0.9415  2.3438
 3522SOL     OW22198   4.641   4.587   5.061  0.7724  0.6235  0.1994
 3522SOL    HW122199   4.643   4.679   5.086  1.5936  0.6963 -0.1278
 3522SOL    HW222200   4.552   4.567   5.032  0.8812  1.0798 -0.4446
 3523SOL     OW22201   0.625   4.363  10.457 -0.0194  0.6453 -0.4227
 3523SOL    HW122202   0.574   4.387  10.380 -1.2415  1.4796  0.6516
 3523SOL    HW222203   0.571   4.294  10.495 -1.8704  2.9845  1.2049
 3524SOL     OW22204   4.335   3.769  16.233  0.1327 -0.4636  0.8494
 3524SOL    HW122205   4.245   3.746  16.258 -0.4732  0.8705 -0.0800
 3524SOL    HW222206   4.325   3.864  16.233  2.0530 -0.2587  0.7018
 3525SOL     OW22207   4.007   0.825   3.961 -0.2581 -0.4246 -0.2507
 3525SOL    HW122208   3.948   0.852   4.032 -2.1807 -1.2222 -1.5625
 3525SOL    HW222209   4.082   0.880   3.982  0.0751 -0.3234 -1.7422
 3526SOL     OW22210   4.307   2.483   9.695  0.9285  0.2499 -0.8139
 3526SOL    HW122211   4.211   2.484   9.692  0.7877 -0.5957  3.4122
 3526SOL    HW222212   4.323   2.488   9.601  2.1212 -0.5363 -0.6501
 3527SOL     OW22213   1.954   3.018   6.073 -0.2181 -0.2648 -0.1144
 3527SOL    HW122214   1.900   3.000   6.150 -0.2679 -0.1886 -0.1313
 3527SOL    HW222215   2.029   3.068   6.107 -0.8990 -0.3967  1.5798
 3528SOL     OW22216   1.809   2.119  11.717 -0.4352  0.4510 -0.2621
 3528SOL    HW122217   1.799   2.034  11.676  1.0927 -0.3406  1.0090
 3528SOL    HW222218   1.895   2.151  11.691 -0.9045  0.1797 -2.1584
 3529SOL     OW22219   0.701   0.475   1.304  0.0736  0.0531  0.7616
 3529SOL    HW122220   0.671   0.427   1.381  1.9246  0.2908  1.6312
 3529SOL    HW222221   0.685   0.564   1.335 -1.8875  0.1736 -0.5127
 3530SOL     OW22222   0.724   3.857   4.995  0.2628 -0.1875  0.4516
 3530SOL    HW122223   0.814   3.876   5.021 -0.9643  0.8570  4.0019
 3530SOL    HW222224   0.733   3.836   4.902 -1.7766  3.1305 -0.4734
 3531SOL     OW22225   1.156   3.381   4.872 -0.1932  0.1000  0.6849
 3531SOL    HW122226   1.150   3.286   4.868 -1.1755  0.2053 -0.1728
 3531SOL    HW222227   1.115   3.401   4.956 -0.2842  3.9540 -0.2654
 3532SOL     OW22228   1.984   1.802  16.180  0.3023 -0.1851 -0.1354
 3532SOL    HW122229   1.930   1.876  16.152 -1.4634 -1.5797 -0.4496
 3532SOL    HW222230   1.938   1.737  16.125 -0.4343 -0.0085  0.2672
 3533SOL     OW22231   0.797   2.197  12.624 -0.0794  0.2951 -0.0800
 3533SOL    HW122232   0.808   2.233  12.536  2.0866 -2.8370 -1.1121
 3533SOL    HW222233   0.889   2.202  12.652  0.0672  0.2910 -0.5576
 3534SOL     OW22234   2.044   0.729   6.046  0.5330 -0.4972 -0.5774
 3534SOL    HW122235   2.080   0.673   6.115 -2.3021 -1.4311  0.1578
 3534SOL    HW222236   1.960   0.754   6.084  0.9014 -0.0132 -0.0902
 3535SOL     OW22237   0.866   2.222   2.693  0.3025  0.1108 -0.0016
 3535SOL    HW122238   0.899   2.214   2.603 -0.0465  3.2533 -0.4088
 3535SOL    HW222239   0.940   2.208   2.752 -1.9967 -0.9760  2.6204
 3536SOL     OW22240   2.237   3.206   3.283 -0.5813 -0.4236  0.5301
 3536SOL    HW122241   2.243   3.113   3.259 -0.3320  0.1754 -1.7884
 3536SOL    HW222242   2.217   3.192   3.375  1.4186  0.5863  1.1055
 3537SOL     OW22243   2.349   2.765   2.606  0.1128  0.1079  0.2034
 3537SOL    HW122244   2.426   2.815   2.582 -1.3019  1.7670 -0.8826
 3537SOL    HW222245   2.275   2.809   2.563  0.9074 -0.4610 -1.7444
 3538SOL     OW22246   1.030   2.955   1.677 -0.4397  0.2901  0.3170
 3538SOL    HW122247   1.123   2.941   1.660 -1.0796 -2.0086 -1.2176
 3538SOL    HW222248   1.030   3.050   1.669  0.4126  0.2208 -0.4746
 3539SOL     OW22249   0.045   1.267  10.245  0.2140 -0.5111  0.0096
 3539SOL    HW122250   0.032   1.337  10.309 -1.5961  0.7640 -1.7092
 3539SOL    HW222251   0.005   1.301  10.164  1.3981 -1.1380 -0.8394
 3540SOL     OW22252   2.067   1.821   3.267 -0.0375  0.6349 -0.0174
 3540SOL    HW122253   1.994   1.776   3.310  1.0133 -1.6802 -0.6549
 3540SOL    HW222254   2.128   1.855   3.332  1.8100 -0.2683 -1.2999
 3541SOL     OW22255   0.541   3.522   8.787  0.1335  0.2515  0.5038
 3541SOL    HW122256   0.625   3.565   8.803 -0.1734  1.3520 -0.8641
 3541SOL    HW222257   0.566   3.438   8.748 -1.2090  0.8238 -1.5799
 3542SOL     OW22258   0.441   3.795  17.213  0.8481  0.2621  0.0210
 3542SOL    HW122259   0.444   3.882  17.174 -0.4117 -0.6236 -2.0417
 3542SOL    HW222260   0.411   3.818  17.301  1.5659 -1.3236  0.6962
 3543SOL     OW22261   3.919   3.268   9.089  0.8126  0.5219 -0.5095
 3543SOL    HW122262   3.981   3.228   9.028  0.5372 -1.1663  0.3107
 3543SOL    HW222263   3.926   3.201   9.158 -1.5650 -0.6392 -1.3844
 3544SOL     OW22264   0.339   3.172  10.332 -0.3087  0.0916  0.1082
 3544SOL    HW122265   0.339   3.090  10.283 -0.1804  0.2068 -0.0880
 3544SOL    HW222266   0.253   3.211  10.313  0.6810  2.6790  0.9654
 3545SOL     OW22267   2.611   3.256   6.974  0.8673 -0.0441 -0.2620
 3545SOL    HW122268   2.573   3.207   7.048 -1.3069  0.1786 -1.2157
 3545SOL    HW222269   2.599   3.180   6.916 -1.3335  0.0563  0.0515
 3546SOL     OW22270   0.236   1.326   3.821  1.0294  0.6371  0.0891
 3546SOL    HW122271   0.229   1.273   3.742 -1.8335 -2.6576  2.5302
 3546SOL    HW222272   0.242   1.413   3.782 -2.2293 -0.2089 -2.3136
 3547SOL     OW22273   0.811   2.707   1.045 -0.4474  0.3205 -0.3828
 3547SOL    HW122274   0.899   2.732   1.071 -0.3190 -0.6111  0.0644
 3547SOL    HW222275   0.788   2.785   0.995  0.6904 -0.2722 -1.8234
 3548SOL     OW22276   3.862   1.048   5.929  0.6357 -0.0429  0.0769
 3548SOL    HW122277   3.951   1.030   5.960  0.7736  0.5230  0.0100
 3548SOL    HW222278   3.815   1.078   6.007  1.4635 -0.0301  0.5676
 3549SOL     OW22279   3.060   0.716   7.517 -0.7597 -0.1069 -0.2970
 3549SOL    HW122280   3.081   0.809   7.510 -0.9191 -0.0426  0.0716
 3549SOL    HW222281   3.143   0.675   7.496 -1.9417 -2.1400 -0.9313
 3550SOL     OW22282   3.160   1.882  13.307  0.0542 -0.2003  0.5229
 3550SOL    HW122283   3.250   1.874  13.278 -1.1512 -0.0781 -3.1525
 3550SOL    HW222284   3.114   1.825  13.245  1.0108  0.9400 -1.2208
 3551SOL     OW22285   2.946   2.944   9.145 -0.4540  0.2017 -0.2419
 3551SOL    HW122286   2.906   2.956   9.059 -0.8257 -1.8136 -0.3438
 3551SOL    HW222287   2.973   3.031   9.177  0.9448  0.1413 -1.2377
 3552SOL     OW22288   0.884   0.628   3.004 -0.2173  0.3203 -0.1612
 3552SOL    HW122289   0.899   0.587   2.919  0.7208 -1.8148  1.0411
 3552SOL    HW222290   0.832   0.700   2.969 -1.0345  0.8060  2.0759
 3553SOL     OW22291   4.100   3.864  16.988 -0.6692  0.6278  0.0368
 3553SOL    HW122292   4.047   3.825  16.919 -1.6271  0.3009  0.9510
 3553SOL    HW222293   4.122   3.953  16.963  1.2595 -0.4939 -2.2334
 3554SOL     OW22294   0.187   4.227   6.553  0.2257  0.1660 -0.4877
 3554SOL    HW122295   0.107   4.265   6.517 -0.2564 -1.5363 -1.2022
 3554SOL    HW222296   0.210   4.162   6.486  0.5801 -0.7720  0.5388
 3555SOL     OW22297   0.612   2.706   5.748 -0.1197 -0.0187  0.2207
 3555SOL    HW122298   0.544   2.755   5.794  1.9684  0.9163  2.3531
 3555SOL    HW222299   0.691   2.734   5.795  1.5174  0.5615 -2.8385
 3556SOL     OW22300   1.763   0.281  16.751 -0.3914 -0.6034 -0.3212
 3556SOL    HW122301   1.673   0.299  16.778 -0.1356  0.8128 -0.4292
 3556SOL    HW222302   1.788   0.361  16.705  2.1325 -0.7799  0.7453
 3557SOL     OW22303   3.581   0.183   5.623  0.0764 -0.0810  0.2321
 3557SOL    HW122304   3.569   0.220   5.535 -0.3865  0.0564  0.3529
 3557SOL    HW222305   3.545   0.096   5.607 -1.1932  0.5633 -0.4935
 3558SOL     OW22306   0.162   0.081   6.007 -0.3484 -0.1610  0.4685
 3558SOL    HW122307   0.082   0.030   5.990  1.7081 -2.8167 -1.1647
 3558SOL    HW222308   0.208   0.090   5.924  0.8571 -1.1668  1.0262
 3559SOL     OW22309   1.148   2.289   8.701 -0.3563 -0.0217 -0.2632
 3559SOL    HW122310   1.149   2.270   8.795 -1.5706 -0.6334 -0.3673
 3559SOL    HW222311   1.217   2.355   8.700 -0.0337 -0.3537  0.2298
 3560SOL     OW22312   3.102   2.592   6.657 -0.1291 -0.4021 -0.1234
 3560SOL    HW122313   3.135   2.544   6.582 -0.6413 -0.4435 -0.3246
 3560SOL    HW222314   3.012   2.559   6.668 -0.0026 -0.6946  0.0253
 3561SOL     OW22315   3.803   3.996   7.257 -0.0364 -0.2342  0.1619
 3561SOL    HW122316   3.710   3.989   7.277  0.3353 -2.2280  1.0810
 3561SOL    HW222317   3.792   4.036   7.170 -3.3714  0.5618  0.9474
 3562SOL     OW22318   1.290   4.446   2.739 -0.0133  0.5985 -0.3997
 3562SOL    HW122319   1.382   4.470   2.753  0.1168  0.3486 -0.8186
 3562SOL    HW222320   1.284   4.450   2.644 -0.1515 -2.9189 -0.5654
 3563SOL     OW22321   0.597   4.592   3.954 -0.1673 -0.2896  0.7544
 3563SOL    HW122322   0.506   4.621   3.958  0.5415  2.2556 -1.2039
 3563SOL    HW222323   0.580   4.516   3.898 -1.2096 -0.0640  0.7728
 3564SOL     OW22324   4.720   1.542   4.407 -0.1886 -0.5623  0.4369
 3564SOL    HW122325   0.036   1.508   4.476 -0.3479  0.4609  1.0708
 3564SOL    HW222326   4.726   1.637   4.418 -3.7300 -0.0839 -1.6971
 3565SOL     OW22327   3.336   3.318   3.761  0.1025  0.1136  0.4347
 3565SOL    HW122328   3.339   3.403   3.805 -0.6268 -0.2896  1.2700
 3565SOL    HW222329   3.389   3.322   3.682 -1.7037  1.0474 -0.7279
 3566SOL     OW22330   4.150   1.612  17.739  0.0671 -0.5190 -0.1878
 3566SOL    HW122331   4.169   1.522  17.713 -1.6385 -0.4106 -1.8513
 3566SOL    HW222332   4.174   1.608   0.070  1.6662  0.0796 -0.5891
 3567SOL     OW22333   3.377   3.448   8.328  0.5599  0.1831 -0.0903
 3567SOL    HW122334   3.372   3.425   8.235  0.2289 -3.0719  0.7193
 3567SOL    HW222335   3.413   3.536   8.322 -0.1160  0.5023  0.5716
 3568SOL     OW22336   3.070   2.696   6.061 -0.0297  0.4174  0.4933
 3568SOL    HW122337   3.117   2.623   6.021 -1.1189  0.2226 -0.4051
 3568SOL    HW222338   3.120   2.768   6.022  1.5839 -1.7254 -1.4089
 3569SOL     OW22339   4.246   0.827  14.874 -0.3527 -0.3681 -0.1821
 3569SOL    HW122340   4.179   0.797  14.812 -1.4867  1.8933 -0.0204
 3569SOL    HW222341   4.314   0.760  14.866  1.4027  1.1981  1.8283
 3570SOL     OW22342   3.822   0.520  10.664 -0.3720  0.5019 -0.3380
 3570SOL    HW122343   3.855   0.539  10.576  3.0119 -2.9498  0.2108
 3570SOL    HW222344   3.902   0.538  10.713 -0.8560 -0.7893  0.9169
 3571SOL     OW22345   0.844   3.375   6.663 -0.0523 -0.6981  0.4397
 3571SOL    HW122346   0.778   3.339   6.722 -0.7921 -0.2968 -0.1403
 3571SOL    HW222347   0.794   3.428   6.599  1.0143  0.8081  0.8418
 3572SOL     OW22348   3.024   3.630  11.401  0.1492  0.7450 -0.0198
 3572SOL    HW122349   3.043   3.670  11.486 -0.2510 -0.9042  0.8529
 3572SOL    HW222350   2.931   3.609  11.414 -0.0281  1.3126 -0.3749
 3573SOL     OW22351   0.732   1.822   3.810 -0.0236  0.3522  0.0329
 3573SOL    HW122352   0.727   1.885   3.738  0.3585 -0.7701 -0.9893
 3573SOL    HW222353   0.826   1.807   3.817  0.3175  1.5672 -1.9467
 3574SOL     OW22354   0.108   1.804   4.051  0.3023 -0.0439  0.2482
 3574SOL    HW122355   0.173   1.867   4.081 -1.6036  1.1857  1.8348
 3574SOL    HW222356   0.162   1.751   3.992 -0.0724  0.5486 -0.6371
 3575SOL     OW22357   3.343   2.428   4.164  0.0641  0.2531  0.8167
 3575SOL    HW122358   3.315   2.478   4.240  0.0509 -0.0303  0.9973
 3575SOL    HW222359   3.431   2.465   4.153  0.7248 -2.0093 -1.8267
 3576SOL     OW22360   4.154   1.590   4.919 -0.3441 -0.0597  0.1241
 3576SOL    HW122361   4.060   1.583   4.935  0.0019 -0.1142  2.1316
 3576SOL    HW222362   4.168   1.676   4.878 -0.9906  0.0458  0.1184
 3577SOL     OW22363   3.597   0.157   8.318  0.2466  0.4062  0.1124
 3577SOL    HW122364   3.681   0.174   8.275  0.9197 -1.2176  0.7640
 3577SOL    HW222365   3.539   0.151   8.242  1.8808 -1.8452 -0.9859
 3578SOL     OW22366   1.088   1.579  12.354 -0.3101 -0.4719 -0.0001
 3578SOL    HW122367   1.143   1.560  12.278  0.0535 -0.4066  0.2474
 3578SOL    HW222368   1.125   1.543  12.434 -0.0614  2.1626  1.0578
 3579SOL     OW22369   4.557   4.446   4.070  0.0483  0.5314  0.2848
 3579SOL    HW122370   4.538   4.367   4.019  0.8324  1.4826 -1.4712
 3579SOL    HW222371   4.649   4.451   4.046 -0.1100  2.0560  0.0157
 3580SOL     OW22372   1.155   0.772   5.104 -0.2511 -0.6656 -0.0278
 3580SOL    HW122373   1.095   0.719   5.156 -1.2125  0.1304 -0.3376
 3580SOL    HW222374   1.093   0.827   5.056 -0.5976 -1.0981 -0.0732
 3581SOL     OW22375   2.147   2.805   6.117  0.1978 -0.4403 -0.2254
 3581SOL    HW122376   2.104   2.862   6.053  0.2844 -1.5827 -1.3047
 3581SOL    HW222377   2.078   2.743   6.138 -0.8011  0.6911 -0.1334
 3582SOL     OW22378   3.595   2.562   4.239 -0.1079 -0.4768  0.3888
 3582SOL    HW122379   3.647   2.510   4.301 -1.0869 -0.9531  0.8200
 3582SOL    HW222380   3.533   2.613   4.291  0.0990 -0.9865  1.1388
 3583SOL     OW22381   2.141   1.774  14.068 -0.0482 -0.0495  0.1698
 3583SOL    HW122382   2.212   1.798  14.127 -0.2190 -0.6421  0.6151
 3583SOL    HW222383   2.095   1.702  14.112  1.0328  0.2768  1.8246
 3584SOL     OW22384   0.360   2.522   8.408 -0.3440  0.5823 -0.1201
 3584SOL    HW122385   0.316   2.436   8.408  0.0462  0.3929  1.2145
 3584SOL    HW222386   0.434   2.503   8.465 -2.5847 -2.2079  1.8814
 3585SOL     OW22387   4.339   4.391   2.612 -0.4627  0.5281 -0.0726
 3585SOL    HW122388   4.393   4.368   2.688  0.7426  1.0253 -0.7814
 3585SOL    HW222389   4.362   4.483   2.596  3.2400 -0.2645  0.6802
 3586SOL     OW22390   1.594   3.171  10.086  0.6834 -0.4108  0.3671
 3586SOL    HW122391   1.528   3.241  10.082  1.7324  0.6119  0.8800
 3586SOL    HW222392   1.663   3.218  10.133  1.1417 -1.9461  1.2144
 3587SOL     OW22393   0.660   1.439   6.165  0.2461 -0.7167 -0.1611
 3587SOL    HW122394   0.728   1.462   6.102  0.0787  4.3586  1.5353
 3587SOL    HW222395   0.627   1.524   6.194 -0.2359 -0.6646 -0.8810
 3588SOL     OW22396   4.545   0.418  13.088 -0.0571 -0.4210 -0.1743
 3588SOL    HW122397   4.476   0.397  13.150 -0.7971 -0.0958 -0.8827
 3588SOL    HW222398   4.495   0.463  13.019  0.9205 -0.5694 -0.9828
 3589SOL     OW22399   1.254   0.644  10.275  0.2478  0.0672  0.3550
 3589SOL    HW122400   1.251   0.552  10.300  1.3562  0.3029  1.3805
 3589SOL    HW222401   1.286   0.640  10.185  1.3378  3.7351  0.5503
 3590SOL     OW22402   4.464   4.697   2.052 -0.2554  0.2417 -0.2328
 3590SOL    HW122403   4.408   4.736   2.118 -0.7600 -2.1809  0.7884
 3590SOL    HW222404   4.520   4.638   2.102  0.1402 -0.5799 -1.6209
 3591SOL     OW22405   0.449   3.631   2.430 -0.1945 -0.0544 -0.2205
 3591SOL    HW122406   0.498   3.647   2.510 -0.6083 -0.6700  0.1583
 3591SOL    HW222407   0.446   3.721   2.397 -2.4321 -0.7137 -1.8516
 3592SOL     OW22408   2.344   3.590  16.724 -0.0435 -0.8676 -0.9308
 3592SOL    HW122409   2.256   3.610  16.756  0.0960  0.6497 -1.5089
 3592SOL    HW222410   2.388   3.674  16.719  1.8815 -1.8590 -0.6017
 3593SOL     OW22411   4.005   1.842   8.655  0.3267 -0.0393 -0.4559
 3593SOL    HW122412   4.069   1.807   8.592 -1.1104 -0.0741 -1.8985
 3593SOL    HW222413   3.994   1.932   8.624  1.9926 -0.2120 -1.5588
 3594SOL     OW22414   1.707   1.818   6.451 -0.2872 -0.0583 -0.0655
 3594SOL    HW122415   1.791   1.864   6.456 -0.5467  0.3352  0.6634
 3594SOL    HW222416   1.666   1.878   6.388  2.2797 -0.3695 -2.0323
 3595SOL     OW22417   3.143   1.014   0.840  0.5316 -0.0972  0.0420
 3595SOL    HW122418   3.056   0.975   0.847  1.7703 -2.3430  3.0537
 3595SOL    HW222419   3.146   1.056   0.754 -0.4689  0.1234  0.1128
 3596SOL     OW22420   1.213   3.837   2.178  0.3605  0.4885 -0.4147
 3596SOL    HW122421   1.122   3.864   2.182  0.2265 -0.3956  2.4811
 3596SOL    HW222422   1.258   3.919   2.200  0.7760 -0.1580  1.1284
 3597SOL     OW22423   3.018   2.987  12.105 -0.4189 -0.2778  0.1026
 3597SOL    HW122424   2.933   2.987  12.148 -1.0590  2.5760 -1.1989
 3597SOL    HW222425   3.067   2.955  12.181 -2.4858 -3.2700  0.1673
 3598SOL     OW22426   2.486   2.222   4.244  0.8146 -0.3224  0.1530
 3598SOL    HW122427   2.578   2.216   4.221  1.0692  0.0125  1.0737
 3598SOL    HW222428   2.456   2.269   4.167  0.3370  1.3999  1.3986
 3599SOL     OW22429   4.639   0.617   9.711 -0.5855 -0.0934 -0.4551
 3599SOL    HW122430   4.713   0.628   9.651 -0.2271  1.1504  0.2225
 3599SOL    HW222431   4.656   0.530   9.747  0.5727  0.5430  0.5482
 3600SOL     OW22432   4.290   2.074  10.882  0.1098 -0.7177 -0.2821
 3600SOL    HW122433   4.203   2.034  10.886 -0.6478  0.8763 -0.9011
 3600SOL    HW222434   4.278   2.154  10.830 -2.8625 -1.5252 -0.8224
 3601SOL     OW22435   2.115   4.214   8.037 -0.1369  0.2977  0.0421
 3601SOL    HW122436   2.125   4.296   7.988  1.1476 -0.1083 -0.3931
 3601SOL    HW222437   2.121   4.241   8.129 -1.8196  1.5741 -0.2276
 3602SOL     OW22438   0.045   1.173   3.337 -0.2212 -0.0187 -0.6563
 3602SOL    HW122439   0.089   1.204   3.258  0.7922  0.8858  0.2587
 3602SOL    HW222440   0.123   1.165   3.393 -0.8662 -0.5535  0.1663
 3603SOL     OW22441   0.690   4.457   6.449 -0.8642  0.2457 -0.1451
 3603SOL    HW122442   0.728   4.383   6.403  2.0675  2.2444 -0.9121
 3603SOL    HW222443   0.769   4.481   6.498  1.9395 -1.9809 -3.5824
 3604SOL     OW22444   4.505   1.810   8.326  0.2164  0.1250  0.3443
 3604SOL    HW122445   4.527   1.894   8.365  2.4940  0.8350 -2.4925
 3604SOL    HW222446   4.533   1.818   8.234 -0.3821  0.4832  0.1940
 3605SOL     OW22447   0.557   0.355   7.110  0.2664  0.3282  0.4250
 3605SOL    HW122448   0.636   0.408   7.120  1.3088 -1.5199  1.9073
 3605SOL    HW222449   0.578   0.303   7.032 -1.2110 -1.9330  1.5295
 3606SOL     OW22450   0.357   3.449   6.234 -0.0806  0.3176  0.4558
 3606SOL    HW122451   0.384   3.535   6.200  0.3752 -1.2327 -3.0541
 3606SOL    HW222452   0.398   3.453   6.320 -1.7594 -2.0157  1.3525
 3607SOL     OW22453   0.249   2.884   9.147 -0.3584 -0.6252 -0.1660
 3607SOL    HW122454   0.162   2.904   9.180  0.3260 -1.8173  2.3241
 3607SOL    HW222455   0.226   2.861   9.057  1.9852  1.6048 -1.3221
 3608SOL     OW22456   1.299   4.108   7.046  0.4056 -1.0435 -0.1456
 3608SOL    HW122457   1.283   4.037   7.108 -0.8370 -0.4559  0.2114
 3608SOL    HW222458   1.385   4.139   7.073 -2.2983  3.1426  3.6072
 3609SOL     OW22459   1.095   4.043   3.483  0.0963  0.0119  0.0840
 3609SOL    HW122460   1.109   3.955   3.517 -1.4097 -1.4167 -3.0201
 3609SOL    HW222461   1.006   4.031   3.452  0.6106  0.3627 -1.4951
 3610SOL     OW22462   3.965   0.130   7.534  0.1642  0.7651  0.3572
 3610SOL    HW122463   3.921   0.101   7.614 -0.9276 -2.4177 -1.4031
 3610SOL    HW222464   3.909   0.091   7.467  1.4195  1.1600 -0.9172
 3611SOL     OW22465   4.418   1.444   1.613 -0.1724 -0.1296 -0.4136
 3611SOL    HW122466   4.488   1.418   1.552 -0.2146 -3.6862  1.0239
 3611SOL    HW222467   4.395   1.530   1.577  0.3164  0.9023  1.7685
 3612SOL     OW22468   0.152   0.747   1.383  0.0145  0.1197  0.5143
 3612SOL    HW122469   0.134   0.792   1.466 -4.0915 -1.0870  0.2340
 3612SOL    HW222470   0.196   0.669   1.416 -0.7165 -0.6295 -0.3003
 3613SOL     OW22471   4.402   1.008   8.546 -0.1522  0.1614  0.7115
 3613SOL    HW122472   4.379   0.989   8.455 -3.1658  1.0024  1.2918
 3613SOL    HW222473   4.496   0.991   8.544  0.2204  2.5694 -1.1934
 3614SOL     OW22474   1.160   2.966   7.073  0.1873  0.4274  0.1201
 3614SOL    HW122475   1.099   2.992   7.004 -1.4346 -0.7352  1.1186
 3614SOL    HW222476   1.157   2.872   7.056  0.1217  0.7992 -1.9706
 3615SOL     OW22477   1.071   1.885  11.898 -0.3485 -0.1928 -0.1355
 3615SOL    HW122478   1.103   1.803  11.935 -0.5430 -0.5627 -0.7855
 3615SOL    HW222479   0.981   1.872  11.926  0.4227  0.1155  2.4698
 3616SOL     OW22480   3.962   1.781   1.446  0.2517 -0.3515 -0.0866
 3616SOL    HW122481   3.907   1.706   1.424 -0.4528  0.1318  0.0424
 3616SOL    HW222482   3.987   1.820   1.362  0.9010  0.4647  0.4810
 3617SOL     OW22483   4.597   3.000   1.353 -0.3658  0.2223 -0.6618
 3617SOL    HW122484   4.557   3.048   1.280  2.3694  1.0132 -1.6532
 3617SOL    HW222485   4.571   3.056   1.427  0.9254 -1.6388  1.1911
 3618SOL     OW22486   0.223   0.232   6.455  0.8608 -0.0481  0.6693
 3618SOL    HW122487   0.245   0.239   6.363 -0.0430 -2.4650  0.2625
 3618SOL    HW222488   0.191   0.142   6.462  0.1906  0.1507  0.0645
 3619SOL     OW22489   4.666   0.117   8.658  0.5002  0.6100 -0.5117
 3619SOL    HW122490   4.635   0.156   8.740  0.4386 -2.9779  1.1871
 3619SOL    HW222491   4.699   0.194   8.613  3.5745  0.4008  1.3668
 3620SOL     OW22492   0.920   0.358   4.094  0.1215  0.4893  0.2412
 3620SOL    HW122493   0.977   0.288   4.062 -1.8233 -0.7707 -0.4399
 3620SOL    HW222494   0.969   0.433   4.060  1.0919 -0.5378 -0.6435
 3621SOL     OW22495   2.295   1.848   0.387 -0.4733 -0.5518 -0.4577
 3621SOL    HW122496   2.239   1.924   0.369 -0.8528 -0.8967 -0.7529
 3621SOL    HW222497   2.232   1.785   0.350 -2.5039  1.3383 -0.2067
 3622SOL     OW22498   2.037   1.566   7.499  0.4099  0.5170 -0.0537
 3622SOL    HW122499   1.983   1.493   7.469 -2.1428  3.0935 -1.7446
 3622SOL    HW222500   2.115   1.516   7.525 -2.5356 -2.8193  2.2612
 3623SOL     OW22501   3.640   4.601   2.133 -0.1870 -0.0852 -0.4917
 3623SOL    HW122502   3.577   4.616   2.204  0.6954  0.4813  0.1764
 3623SOL    HW222503   3.581   4.568   2.065 -0.7129  0.1272 -0.1449
 3624SOL     OW22504   4.095   3.506   5.406 -0.4137  0.4380 -0.1792
 3624SOL    HW122505   4.178   3.469   5.436 -0.7520 -1.4198 -1.5354
 3624SOL    HW222506   4.050   3.511   5.490 -2.1766  0.3440 -1.1140
 3625SOL     OW22507   3.168   0.150   0.765 -0.2145  0.2810  0.1237
 3625SOL    HW122508   3.198   0.239   0.783 -0.2770  0.1916  0.6789
 3625SOL    HW222509   3.191   0.098   0.842 -0.2860  1.0198  0.6434
 3626SOL     OW22510   3.358   3.492   4.120 -0.7107 -0.1027  0.1605
 3626SOL    HW122511   3.354   3.538   4.036 -0.2110 -1.6765 -0.7147
 3626SOL    HW222512   3.264   3.474   4.129 -1.4377  3.2418 -0.3841
 3627SOL     OW22513   2.427   1.091   6.179 -0.2303 -0.2672  0.0988
 3627SOL    HW122514   2.343   1.136   6.193  0.2610  0.1637  1.7043
 3627SOL    HW222515   2.465   1.081   6.267  3.9532 -0.3100 -1.7400
 3628SOL     OW22516   2.568   3.197   4.638 -0.4510  0.0838  0.2304
 3628SOL    HW122517   2.596   3.265   4.699 -1.1206  0.4643  0.1088
 3628SOL    HW222518   2.527   3.249   4.569 -2.5069 -0.8484  0.7479
 3629SOL     OW22519   3.689   0.797   1.229 -0.5572 -0.2042 -0.5550
 3629SOL    HW122520   3.646   0.871   1.187 -1.1972  0.4286  1.2690
 3629SOL    HW222521   3.752   0.845   1.282 -1.3605  0.1500  0.0666
 3630SOL     OW22522   2.853   4.249  15.919 -0.4476  0.5512  0.0004
 3630SOL    HW122523   2.782   4.210  15.868 -0.2263 -0.3660  0.4064
 3630SOL    HW222524   2.921   4.253  15.851 -1.6821  0.8915 -1.2170
 3631SOL     OW22525   0.668   1.760   2.296 -0.2269 -0.3440 -0.2532
 3631SOL    HW122526   0.742   1.787   2.241  0.4068 -0.5478  0.5121
 3631SOL    HW222527   0.626   1.843   2.319 -1.2324 -0.6168 -1.1037
 3632SOL     OW22528   0.275   2.126  11.159 -0.3442  0.2917 -0.1934
 3632SOL    HW122529   0.280   2.119  11.063  1.2409  1.7731 -0.2022
 3632SOL    HW222530   0.180   2.117  11.170 -0.4525  1.5440 -0.1377
 3633SOL     OW22531   0.864   4.468   5.025  0.5819  0.3459  0.4810
 3633SOL    HW122532   0.870   4.550   5.074 -2.3489 -0.1771  1.6931
 3633SOL    HW222533   0.943   4.424   5.056  0.8700 -0.0813 -0.8407
 3634SOL     OW22534   2.410   0.061   8.034 -0.2794  0.6973  0.2129
 3634SOL    HW122535   2.364   0.141   8.060 -0.9117  0.5894 -0.5811
 3634SOL    HW222536   2.443   0.034   8.120  0.7104  1.0653 -0.0576
 3635SOL     OW22537   1.370   0.272   4.190 -0.3047 -0.4501  0.0782
 3635SOL    HW122538   1.420   0.291   4.110  1.1075 -1.8324  0.6300
 3635SOL    HW222539   1.387   0.346   4.249  0.4677  0.1674 -0.9166
 3636SOL     OW22540   3.851   4.176   4.540  0.2538  0.0163  0.1429
 3636SOL    HW122541   3.858   4.117   4.464 -1.3806 -0.9565  0.7528
 3636SOL    HW222542   3.841   4.255   4.487 -0.6020  0.7589  1.4316
 3637SOL     OW22543   1.385   0.402   6.256  0.1176 -0.1026  1.0134
 3637SOL    HW122544   1.414   0.318   6.220 -2.6071 -0.6029 -0.0464
 3637SOL    HW222545   1.291   0.385   6.254 -0.0370  0.7217  1.3167
 3638SOL     OW22546   2.989   0.209   2.451 -0.2237  0.3643  0.8399
 3638SOL    HW122547   2.958   0.123   2.424  1.9001 -1.2875  3.5303
 3638SOL    HW222548   2.964   0.206   2.544 -2.6563  0.0110  0.1673
 3639SOL     OW22549   2.589   1.811  10.038  0.2256 -0.3035 -0.0334
 3639SOL    HW122550   2.587   1.757  10.116  1.8715  1.1096  1.0038
 3639SOL    HW222551   2.635   1.888  10.073  2.0173 -0.8821 -1.0794
 3640SOL     OW22552   3.152   0.084  12.213  0.5623 -0.5036  0.3678
 3640SOL    HW122553   3.100   0.062  12.135 -0.4611  1.9691  0.3714
 3640SOL    HW222554   3.080   0.096  12.274  1.7095 -1.0204  1.8187
 3641SOL     OW22555   3.778   0.436   8.063 -0.2456  0.2322 -0.2750
 3641SOL    HW122556   3.745   0.382   7.992 -1.4386 -0.6970  0.9902
 3641SOL    HW222557   3.779   0.520   8.019  0.0301 -0.9176 -2.4624
 3642SOL     OW22558   1.043   1.607   7.602  0.0223  0.1247  0.6058
 3642SOL    HW122559   1.008   1.647   7.682 -0.5646  0.4047  0.2078
 3642SOL    HW222560   1.095   1.680   7.567 -0.4536 -0.6619 -1.7260
 3643SOL     OW22561   3.654   4.164   6.580 -0.2861  0.4036  0.1463
 3643SOL    HW122562   3.674   4.073   6.602 -2.9610  0.2053  1.7709
 3643SOL    HW222563   3.584   4.157   6.515  1.1965  1.5146 -1.5455
 3644SOL     OW22564   2.680   3.501   9.124  0.5204 -0.1295 -0.0073
 3644SOL    HW122565   2.606   3.562   9.126  1.3511  0.8734  0.2576
 3644SOL    HW222566   2.749   3.558   9.090  1.3421 -0.1852  1.6044
 3645SOL     OW22567   2.785   1.725  16.569 -0.0551 -0.6514 -0.0702
 3645SOL    HW122568   2.817   1.752  16.483 -2.1357 -1.1583 -1.0066
 3645SOL    HW222569   2.747   1.641  16.542  0.2365 -0.5114 -0.9195
 3646SOL     OW22570   0.745   1.106  15.721 -1.3852 -0.4505  0.1155
 3646SOL    HW122571   0.823   1.050  15.720 -0.9430  0.2001 -1.2327
 3646SOL    HW222572   0.766   1.174  15.657 -0.4015  0.8931  1.8491
 3647SOL     OW22573   4.008   2.478   2.986 -0.8082 -0.0341 -0.6887
 3647SOL    HW122574   4.081   2.536   3.009 -0.2215  0.4537 -3.7464
 3647SOL    HW222575   4.052   2.393   2.981 -0.4730  0.0648  0.7152
 3648SOL     OW22576   2.583   2.190   7.570 -0.8729 -0.5507  0.8012
 3648SOL    HW122577   2.556   2.099   7.560 -1.1828 -0.3419 -0.2777
 3648SOL    HW222578   2.494   2.226   7.570 -0.4437  0.5086 -0.4695
 3649SOL     OW22579   3.155   3.317   1.082  0.4209 -0.2995 -0.0200
 3649SOL    HW122580   3.119   3.371   1.011  0.3698  0.1982  0.3840
 3649SOL    HW222581   3.070   3.275   1.097  1.1456 -1.0958  1.8295
 3650SOL     OW22582   4.056   3.305   3.083 -0.0194 -0.2043  0.0326
 3650SOL    HW122583   4.129   3.316   3.022  1.4551 -0.8340  1.7096
 3650SOL    HW222584   4.064   3.387   3.131 -0.8268  0.2175 -0.5392
 3651SOL     OW22585   0.875   2.952   3.996  0.1548  0.4151  0.5169
 3651SOL    HW122586   0.940   2.882   3.987 -0.1866 -0.1048  2.1212
 3651SOL    HW222587   0.923   3.034   3.984  1.8516 -0.6739 -0.0831
 3652SOL     OW22588   3.398   2.307   7.085  0.6434  0.2093  0.1162
 3652SOL    HW122589   3.405   2.214   7.107 -1.2588  0.0948  0.2248
 3652SOL    HW222590   3.466   2.348   7.139  0.9781  0.1938 -0.2939
 3653SOL     OW22591   1.285   3.438   5.600 -0.0902  0.0496 -0.3512
 3653SOL    HW122592   1.224   3.511   5.609  0.8234  0.6205  1.0256
 3653SOL    HW222593   1.337   3.458   5.678  1.1862 -0.9006 -0.9410
 3654SOL     OW22594   1.533   0.175   6.153  0.3738 -0.5325 -0.1362
 3654SOL    HW122595   1.512   0.170   6.060  1.3923  0.9829 -0.4476
 3654SOL    HW222596   1.539   0.083   6.179  1.7124 -0.2716  0.5289
 3655SOL     OW22597   1.729   4.357   7.388  0.1533  0.5182 -0.2102
 3655SOL    HW122598   1.689   4.415   7.323  2.1241 -0.1902 -2.0531
 3655SOL    HW222599   1.738   4.418   7.461 -0.0472 -0.8348  0.9467
 3656SOL     OW22600   2.798   3.168   1.769  0.6440  0.2582 -0.2359
 3656SOL    HW122601   2.783   3.162   1.863 -0.6078 -0.7087 -0.4989
 3656SOL    HW222602   2.847   3.250   1.774 -2.2527  2.0747 -1.8729
 3657SOL     OW22603   2.533   3.670   7.517  0.4629 -0.1511 -0.4015
 3657SOL    HW122604   2.498   3.758   7.503  0.1079 -0.5974 -2.3060
 3657SOL    HW222605   2.603   3.688   7.581 -1.1237  0.0439  1.2631
 3658SOL     OW22606   2.609   0.375   7.632 -0.3798 -0.6939 -0.0708
 3658SOL    HW122607   2.586   0.287   7.601  0.6228 -0.7302 -0.7461
 3658SOL    HW222608   2.677   0.396   7.568  0.3059 -0.6763  0.6572
 3659SOL     OW22609   3.565   0.709  14.418  0.5678 -0.7641  0.1260
 3659SOL    HW122610   3.573   0.798  14.451 -0.8376 -0.5771 -0.0389
 3659SOL    HW222611   3.605   0.723  14.332  0.0020  1.6819  0.2681
 3660SOL     OW22612   4.536   4.586  14.245 -0.4182 -0.3579 -0.0691
 3660SOL    HW122613   4.532   4.588  14.149  0.0464 -0.8569 -0.1021
 3660SOL    HW222614   4.446   4.613  14.261 -0.2458 -1.2524  2.4727
 3661SOL     OW22615   1.336   2.443  11.404  0.5085 -0.8020 -0.3639
 3661SOL    HW122616   1.383   2.426  11.323  0.0358  0.5822 -0.9296
 3661SOL    HW222617   1.248   2.458  11.369  1.3924  1.9953 -1.4336
 3662SOL     OW22618   3.886   0.883   8.068 -0.2171  0.0738  0.1578
 3662SOL    HW122619   3.867   0.975   8.086  2.1597  0.5098  0.4820
 3662SOL    HW222620   3.963   0.885   8.012  1.3258  0.3783  2.2594
 3663SOL     OW22621   3.828   2.715   0.343 -0.3533 -0.5263  0.3473
 3663SOL    HW122622   3.834   2.698   0.249  0.3989 -1.5334  0.5657
 3663SOL    HW222623   3.829   2.627   0.381 -1.1493 -0.0689  1.4261
 3664SOL     OW22624   0.570   0.644   6.433  0.0250  0.5306 -0.0976
 3664SOL    HW122625   0.533   0.556   6.428  0.0912  0.4663  0.6162
 3664SOL    HW222626   0.641   0.641   6.497 -0.7765  1.3257  0.8354
 3665SOL     OW22627   1.817   3.004   8.791  0.0584  0.5496 -0.5952
 3665SOL    HW122628   1.734   2.959   8.807 -0.4063  1.2619 -1.0142
 3665SOL    HW222629   1.881   2.932   8.800  0.6983  1.2459  0.4565
 3666SOL     OW22630   2.643   3.333   2.317 -0.0818  0.6645 -0.4856
 3666SOL    HW122631   2.633   3.343   2.412  2.0751 -2.9522  0.1199
 3666SOL    HW222632   2.737   3.337   2.298  0.4603 -1.5298  1.6697
 3667SOL     OW22633   1.479   1.680  13.200 -0.3121  0.2139 -0.3343
 3667SOL    HW122634   1.522   1.595  13.210  2.3941  1.6889  0.5654
 3667SOL    HW222635   1.458   1.668  13.107 -3.5321  0.4922  0.3598
 3668SOL     OW22636   3.244   3.401   3.043 -0.0077  0.2921 -0.5031
 3668SOL    HW122637   3.276   3.489   3.064  3.4019 -1.2625  0.9979
 3668SOL    HW222638   3.177   3.421   2.978  0.5593 -0.9135 -1.4601
 3669SOL     OW22639   0.749   0.665  12.625 -0.1675  0.0667 -0.2727
 3669SOL    HW122640   0.715   0.740  12.577  0.3463  0.5311  0.1003
 3669SOL    HW222641   0.695   0.654  12.704 -0.2463 -0.8121 -0.4410
 3670SOL     OW22642   2.632   3.924  17.451  0.4314 -0.5872  0.0525
 3670SOL    HW122643   2.602   3.954  17.537 -1.4549 -2.2914 -0.0086
 3670SOL    HW222644   2.615   3.999  17.393  0.2197  1.2824  2.4930
 3671SOL     OW22645   4.059   1.251   9.850  0.4873  0.1175 -0.2950
 3671SOL    HW122646   4.140   1.218   9.889  1.4056  1.9659 -0.6978
 3671SOL    HW222647   4.072   1.337   9.811  0.1462  0.6786  0.8354
 3672SOL     OW22648   1.606   2.072  17.084 -0.0555 -0.2028 -0.1864
 3672SOL    HW122649   1.604   2.136  17.154 -0.3359  0.5718 -0.9060
 3672SOL    HW222650   1.684   2.118  17.052 -1.1344  2.3875  0.9484
 3673SOL     OW22651   3.940   4.190  16.666 -0.0376  0.1663  0.1398
 3673SOL    HW122652   3.981   4.144  16.593  0.3364  0.1809  0.3451
 3673SOL    HW222653   3.850   4.170  16.639 -0.7571  0.0857  2.5729
 3674SOL     OW22654   3.820   2.898   6.369 -0.0188  0.0190 -0.5121
 3674SOL    HW122655   3.827   2.834   6.440  0.5897 -2.3959 -2.7258
 3674SOL    HW222656   3.826   2.841   6.293  2.0613  0.4292 -0.6374
 3675SOL     OW22657   3.979   4.635   8.290 -0.7425 -0.1869 -0.7554
 3675SOL    HW122658   3.956   4.563   8.231  2.2450 -1.1857 -0.6983
 3675SOL    HW222659   3.945   4.606   8.374  1.2245 -1.1735 -0.3169
 3676SOL     OW22660   2.673   2.328  14.463 -0.0229  0.2124  0.6625
 3676SOL    HW122661   2.681   2.414  14.421  0.8514  0.0673  0.5241
 3676SOL    HW222662   2.674   2.277  14.381 -0.5246  1.5437 -0.1745
 3677SOL     OW22663   0.317   2.760   2.241  0.9902 -0.3292 -0.0129
 3677SOL    HW122664   0.330   2.686   2.300 -0.6316 -0.4998  0.1394
 3677SOL    HW222665   0.256   2.713   2.183  0.8071 -0.6867  0.4692
 3678SOL     OW22666   1.934   2.140   2.344  0.7724 -0.1889 -0.4273
 3678SOL    HW122667   1.940   2.060   2.292  0.5239 -1.9793  2.3166
 3678SOL    HW222668   2.028   2.157   2.345  0.7636 -0.1521 -0.0111
 3679SOL     OW22669   1.402   4.472   2.476  0.2846  0.0075 -0.0153
 3679SOL    HW122670   1.365   4.559   2.459 -2.5661 -1.3216 -0.5299
 3679SOL    HW222671   1.494   4.488   2.452  0.5167 -0.7444  0.3716
 3680SOL     OW22672   2.111   4.247   4.659 -0.1406  0.1365 -0.1578
 3680SOL    HW122673   2.201   4.235   4.690 -1.8127 -0.9504  4.1725
 3680SOL    HW222674   2.072   4.161   4.642  2.3279 -0.8949 -0.7074
 3681SOL     OW22675   4.392   0.770   4.226 -0.1921  0.0991 -0.4497
 3681SOL    HW122676   4.389   0.779   4.321  0.0227  0.7931 -0.5158
 3681SOL    HW222677   4.359   0.680   4.222 -0.5698  0.2797 -1.4555
 3682SOL     OW22678   1.754   0.534   8.176  0.1513 -0.0511  0.2794
 3682SOL    HW122679   1.740   0.581   8.258  0.4830 -0.3561  0.5128
 3682SOL    HW222680   1.778   0.444   8.196  3.7609  1.4822  2.9320
 3683SOL     OW22681   0.194   1.719   8.426 -0.1790  0.3946 -0.4112
 3683SOL    HW122682   0.278   1.750   8.461  1.0787 -2.1656 -1.0965
 3683SOL    HW222683   0.204   1.757   8.339  0.4423 -0.8555 -0.8937
 3684SOL     OW22684   1.782   1.242  12.145  0.6106 -0.3142  0.2060
 3684SOL    HW122685   1.779   1.170  12.208  0.9724 -0.1328  0.4310
 3684SOL    HW222686   1.743   1.193  12.073 -0.6480  0.5207  0.3135
 3685SOL     OW22687   1.219   1.053   7.991  0.1906  0.0472  0.3184
 3685SOL    HW122688   1.266   1.019   7.915  0.4009 -1.0766  0.9561
 3685SOL    HW222689   1.285   1.116   8.020  0.5772  0.5421 -1.6295
 3686SOL     OW22690   0.870   4.425   3.354 -0.3903  0.0115  0.1610
 3686SOL    HW122691   0.841   4.340   3.387 -0.0975  0.6487  2.1065
 3686SOL    HW222692   0.909   4.402   3.270 -1.7688 -0.9369 -0.2135
 3687SOL     OW22693   0.828   1.079  15.113  0.0894 -0.2395  0.2220
 3687SOL    HW122694   0.914   1.087  15.072 -1.2396  0.1073 -2.5140
 3687SOL    HW222695   0.801   1.163  15.077  1.1172  0.2405  0.5861
 3688SOL     OW22696   4.353   0.678   6.860 -0.5101  0.8142 -0.0843
 3688SOL    HW122697   4.282   0.669   6.797  1.0868  0.4290 -1.8239
 3688SOL    HW222698   4.408   0.603   6.837 -1.3727  0.6803 -1.6810
 3689SOL     OW22699   1.391   1.863   2.186 -0.0657 -0.1140  0.1376
 3689SOL    HW122700   1.332   1.832   2.117  2.5888 -2.0735 -1.2559
 3689SOL    HW222701   1.444   1.783   2.185  1.9780  1.2207  0.9898
 3690SOL     OW22702   1.893   3.232   2.988  0.2141 -0.2004 -0.4333
 3690SOL    HW122703   1.882   3.142   3.020  1.0648 -0.1893 -0.1144
 3690SOL    HW222704   1.893   3.282   3.070 -2.5336  0.7377 -1.0141
 3691SOL     OW22705   2.253   0.222   5.142  0.1015  0.3108  0.1179
 3691SOL    HW122706   2.229   0.227   5.050  0.9013 -1.7784 -0.2129
 3691SOL    HW222707   2.336   0.270   5.144  1.5612 -2.3984  4.0948
 3692SOL     OW22708   2.221   4.362   9.346 -0.1162  0.3529 -0.6992
 3692SOL    HW122709   2.293   4.371   9.284 -1.2122  0.7513 -1.9171
 3692SOL    HW222710   2.245   4.271   9.365 -0.3549  0.5010  0.3431
 3693SOL     OW22711   4.523   3.700   9.657 -0.1219 -0.4096  0.1621
 3693SOL    HW122712   4.428   3.688   9.661 -0.1641 -0.0464  0.1589
 3693SOL    HW222713   4.558   3.610   9.657  2.0075  0.4264 -2.8130
 3694SOL     OW22714   3.854   4.389   4.059  0.0076  0.9634 -0.3664
 3694SOL    HW122715   3.828   4.299   4.039  1.6031  0.6612 -1.0823
 3694SOL    HW222716   3.773   4.439   4.051  0.8890  2.2453 -1.2298
 3695SOL     OW22717   2.795   1.864   2.604  0.4922  0.2298  0.4538
 3695SOL    HW122718   2.889   1.869   2.618  0.4336  1.1436  0.5145
 3695SOL    HW222719   2.766   1.955   2.605  0.9878  0.3840  0.9536
 3696SOL     OW22720   3.678   1.503   9.070 -0.1580 -0.3473 -0.6554
 3696SOL    HW122721   3.603   1.473   9.121  0.2942  0.5604  0.5334
 3696SOL    HW222722   3.634   1.580   9.034 -2.4108 -1.2150  0.2244
 3697SOL     OW22723   3.009   1.669   2.402  0.5296 -0.5167  0.0338
 3697SOL    HW122724   3.096   1.661   2.442  0.3027  0.0078  0.6183
 3697SOL    HW222725   3.023   1.752   2.357 -0.3705 -0.5258 -0.2600
 3698SOL     OW22726   0.052   2.013   2.670  0.0295 -0.2745  0.2643
 3698SOL    HW122727   0.141   2.011   2.635 -0.3704  0.6206 -0.7921
 3698SOL    HW222728   0.007   1.942   2.624  0.3773  1.3509 -2.5492
 3699SOL     OW22729   3.074   3.945   5.456  0.5380 -0.1968 -0.7685
 3699SOL    HW122730   3.125   4.005   5.401 -0.2204 -1.3524 -2.7412
 3699SOL    HW222731   3.131   3.927   5.530 -0.3022  0.3018 -0.0143
 3700SOL     OW22732   2.916   1.133   9.509  0.2371  0.5804  0.0838
 3700SOL    HW122733   2.867   1.108   9.430 -0.2943  1.0261  0.2714
 3700SOL    HW222734   2.980   1.062   9.509  0.9429  1.2252  0.7244
 3701SOL     OW22735   0.124   3.586   6.595  0.1299 -0.1441  0.3746
 3701SOL    HW122736   0.030   3.585   6.613 -0.6753  0.0170 -3.9406
 3701SOL    HW222737   0.160   3.601   6.683 -1.6150  1.5449  0.8065
 3702SOL     OW22738   2.506   3.534   6.972 -0.3029  0.3689 -0.2231
 3702SOL    HW122739   2.493   3.553   7.065 -1.4989 -1.1401 -0.0793
 3702SOL    HW222740   2.533   3.442   6.978 -1.5249  0.1830  2.6583
 3703SOL     OW22741   1.408   1.444  17.588  0.1640 -0.0712 -0.1174
 3703SOL    HW122742   1.479   1.442  17.524 -0.0396  0.6538 -0.3644
 3703SOL    HW222743   1.459   1.388  17.646  0.5800  0.6089  0.1666
 3704SOL     OW22744   0.550   4.661   4.378  0.2050  0.0530  0.1698
 3704SOL    HW122745   0.535   4.740   4.328 -1.2317 -0.9053 -0.9045
 3704SOL    HW222746   0.540   4.695   4.467  2.6391 -0.6872  0.7389
 3705SOL     OW22747   2.771   0.367  11.086 -0.4267  0.0090  0.0170
 3705SOL    HW122748   2.845   0.309  11.064 -0.0173  1.5338 -2.6274
 3705SOL    HW222749   2.820   0.410  11.156  0.3779 -2.3494  0.9284
 3706SOL     OW22750   0.377   4.526   1.936 -0.0002  0.9694  0.4188
 3706SOL    HW122751   0.296   4.553   1.979 -0.1446  3.2488 -1.2803
 3706SOL    HW222752   0.351   4.488   1.852  0.6526 -0.2887  0.7883
 3707SOL     OW22753   0.524   0.201  13.385  0.3651 -0.0319 -0.3602
 3707SOL    HW122754   0.461   0.219  13.455  0.0714  0.1798 -0.6800
 3707SOL    HW222755   0.479   0.249  13.316  1.0130  1.0534 -0.0394
 3708SOL     OW22756   0.075   1.784  17.194  0.5908  0.2942  0.6496
 3708SOL    HW122757   4.729   1.749  17.211 -0.0142  0.4474 -2.1606
 3708SOL    HW222758   0.054   1.877  17.207  0.3090  0.5006 -1.3406
 3709SOL     OW22759   1.146   0.625  13.075  0.1558  0.0270 -0.6644
 3709SOL    HW122760   1.155   0.532  13.058  1.7257  0.2028 -0.7903
 3709SOL    HW222761   1.222   0.648  13.022 -0.4484  2.1238 -0.6446
 3710SOL     OW22762   2.752   1.688   4.715 -0.1609 -0.2146  0.2251
 3710SOL    HW122763   2.815   1.748   4.753 -2.0159  1.6949  0.2510
 3710SOL    HW222764   2.689   1.687   4.787  0.0837 -0.5229  0.4373
 3711SOL     OW22765   2.212   0.565   7.242  0.1445 -0.3290 -0.3091
 3711SOL    HW122766   2.219   0.659   7.259 -1.9737 -0.2521  0.1364
 3711SOL    HW222767   2.131   0.562   7.192 -0.5992  1.2881  0.8303
 3712SOL     OW22768   1.735   3.758   8.668  0.0199  0.9311  0.3171
 3712SOL    HW122769   1.673   3.709   8.721  0.5814 -1.2620 -1.0615
 3712SOL    HW222770   1.711   3.730   8.580  0.3545 -1.4458  0.9742
 3713SOL     OW22771   1.397   4.279   5.224  0.0766  0.1509 -0.1041
 3713SOL    HW122772   1.415   4.215   5.293 -0.6526 -0.7414 -0.7439
 3713SOL    HW222773   1.473   4.334   5.244 -0.6626  0.0116  3.1710
 3714SOL     OW22774   1.075   0.229   2.720 -0.2870 -0.5193 -0.4090
 3714SOL    HW122775   1.157   0.277   2.730 -0.4786 -0.4358  0.7868
 3714SOL    HW222776   1.093   0.158   2.781  2.2724  0.2700 -0.2736
 3715SOL     OW22777   2.634   0.936   4.588  0.2137  0.2513  0.2555
 3715SOL    HW122778   2.594   0.992   4.654 -0.4961 -0.7944  0.7112
 3715SOL    HW222779   2.598   0.850   4.607 -0.9251  0.2779 -1.7814
 3716SOL     OW22780   0.501   4.149   5.032  0.1605 -0.7106 -0.2363
 3716SOL    HW122781   0.558   4.225   5.025  0.9801 -1.3082 -0.0723
 3716SOL    HW222782   0.420   4.197   5.051  1.1871  0.7111  0.5329
 3717SOL     OW22783   3.532   3.981   3.835 -0.0359  0.6153 -0.2277
 3717SOL    HW122784   3.528   4.036   3.756  1.7149  2.4432  0.9591
 3717SOL    HW222785   3.563   3.897   3.801  0.5624 -0.0880  2.0501
 3718SOL     OW22786   2.205   0.747   5.712 -0.1909 -0.0887 -0.5608
 3718SOL    HW122787   2.227   0.716   5.799 -3.4109  3.0348  1.3716
 3718SOL    HW222788   2.286   0.796   5.694  0.0966 -0.7466 -1.0418
 3719SOL     OW22789   3.006   0.764   2.874  0.5136  0.7403  0.0487
 3719SOL    HW122790   2.929   0.767   2.930  1.0166  0.0948  0.7712
 3719SOL    HW222791   3.047   0.685   2.911  0.8899  0.1989 -1.5173
 3720SOL     OW22792   4.728   3.027  13.812 -0.5815 -0.0533  0.5535
 3720SOL    HW122793   4.696   2.944  13.777  0.0608 -0.0078 -0.1478
 3720SOL    HW222794   4.726   3.014  13.906  0.8504 -2.6849  0.2422
 3721SOL     OW22795   4.404   4.512   4.960  0.1359  0.4933  0.0674
 3721SOL    HW122796   4.317   4.509   5.000  0.4247  0.0729  0.6808
 3721SOL    HW222797   4.392   4.570   4.885  1.0596 -0.4534 -0.8086
 3722SOL     OW22798   3.207   1.180   2.001  0.6634 -0.0698  0.5232
 3722SOL    HW122799   3.256   1.121   1.944 -2.3196 -0.5460 -1.5790
 3722SOL    HW222800   3.253   1.169   2.084  0.1858 -1.1344  0.6452
 3723SOL     OW22801   3.121   1.727   6.627  0.6355 -0.0832  0.4283
 3723SOL    HW122802   3.153   1.809   6.664  1.7924  0.4248 -1.7051
 3723SOL    HW222803   3.190   1.700   6.566 -0.0438  0.1294 -0.4282
 3724SOL     OW22804   4.019   1.572  11.046 -0.0165 -0.1432 -0.1035
 3724SOL    HW122805   4.086   1.636  11.023 -0.3736  0.3918  0.3196
 3724SOL    HW222806   3.951   1.592  10.981 -0.1638 -1.4938 -0.3631
 3725SOL     OW22807   0.370   1.806   3.476 -0.3607 -0.8690  0.3346
 3725SOL    HW122808   0.461   1.782   3.462 -0.0517  1.1939 -1.2454
 3725SOL    HW222809   0.368   1.792   3.571 -0.6338 -0.3816  0.4038
 3726SOL     OW22810   2.740   0.265   7.211  0.2759 -0.0846  0.2123
 3726SOL    HW122811   2.719   0.272   7.117  0.4460 -2.4731  0.0048
 3726SOL    HW222812   2.692   0.185   7.233 -2.1336  1.3280  0.1535
 3727SOL     OW22813   1.819   2.833  17.355 -0.0281 -0.0341  0.0228
 3727SOL    HW122814   1.902   2.822  17.400  0.1193  2.2523  0.3264
 3727SOL    HW222815   1.806   2.928  17.346  1.2865  0.0923 -0.5592
 3728SOL     OW22816   4.641   4.710   7.745  0.3043  0.1688  0.0001
 3728SOL    HW122817   4.651   4.708   7.650  2.4104  2.1636  0.1762
 3728SOL    HW222818   4.545   4.708   7.750  0.2094  0.3268 -1.9107
 3729SOL     OW22819   3.697   2.501   8.423 -0.3631 -0.3668 -0.7572
 3729SOL    HW122820   3.786   2.521   8.396 -0.3665  1.9585  1.0307
 3729SOL    HW222821   3.664   2.447   8.351 -0.5956 -2.8298  1.2141
 3730SOL     OW22822   1.466   3.859   4.935  0.1020  0.1196 -0.2794
 3730SOL    HW122823   1.419   3.814   5.005  1.3585  1.1807  1.2663
 3730SOL    HW222824   1.483   3.945   4.973  2.1097  0.0238 -0.9311
 3731SOL     OW22825   1.117   2.691  16.976 -0.2608 -0.4765  0.4005
 3731SOL    HW122826   1.154   2.668  16.891  0.2310  2.4384 -0.1508
 3731SOL    HW222827   1.131   2.613  17.031  0.6441 -1.3897 -1.1248
 3732SOL     OW22828   4.637   4.207   3.011  0.6140  0.2043  0.0629
 3732SOL    HW122829   4.641   4.294   2.972 -1.7689 -0.0086 -0.6934
 3732SOL    HW222830   4.698   4.209   3.085  0.8618  0.6767 -0.1609
 3733SOL     OW22831   0.409   3.935   4.562  1.1071  0.0026 -0.1801
 3733SOL    HW122832   0.447   3.955   4.648  0.3616 -0.4170  0.2458
 3733SOL    HW222833   0.459   3.856   4.540 -1.6490 -1.8302  0.1280
 3734SOL     OW22834   2.169   0.670  14.621 -0.7612 -0.3496  0.0390
 3734SOL    HW122835   2.098   0.730  14.643 -0.3287  0.5175 -0.8967
 3734SOL    HW222836   2.166   0.614  14.698 -1.1835  1.5101  1.3726
 3735SOL     OW22837   0.600   3.017   7.171  0.1820 -0.5447 -0.4211
 3735SOL    HW122838   0.507   3.039   7.170  0.5794  1.1397  0.2994
 3735SOL    HW222839   0.640   3.090   7.218 -1.2046  1.1013 -1.7924
 3736SOL     OW22840   1.040   2.220  12.701 -0.4974  0.8299 -0.0551
 3736SOL    HW122841   1.006   2.243  12.787 -0.0148 -0.2578  0.4279
 3736SOL    HW222842   1.052   2.126  12.715 -0.8902  0.3547 -2.8656
 3737SOL     OW22843   1.445   1.994   7.922 -0.4498 -0.2426  0.4539
 3737SOL    HW122844   1.402   1.979   7.838 -0.1679 -2.1978  0.6782
 3737SOL    HW222845   1.416   1.924   7.980 -0.5151  0.8456  1.7518
 3738SOL     OW22846   3.078   1.569   6.951 -0.5230 -0.4697 -0.5549
 3738SOL    HW122847   3.126   1.650   6.935 -1.8705  0.6472  1.0566
 3738SOL    HW222848   3.037   1.559   6.865  0.6789  0.4913 -1.2229
 3739SOL     OW22849   0.206   3.461  15.474 -0.3954  0.4718  0.1938
 3739SOL    HW122850   0.172   3.545  15.444 -0.4258 -0.6445 -2.9020
 3739SOL    HW222851   0.145   3.412  15.418  0.3077 -0.1414 -0.0386
 3740SOL     OW22852   2.035   4.118   7.677 -0.6563  0.0500  0.5546
 3740SOL    HW122853   1.956   4.093   7.629 -0.4804  1.0457 -0.2571
 3740SOL    HW222854   2.034   4.214   7.684 -0.5478 -0.0278  1.6314
 3741SOL     OW22855   1.643   0.696   2.251  0.1314  0.1656  0.0880
 3741SOL    HW122856   1.646   0.665   2.160  0.6869 -2.5861  1.0627
 3741SOL    HW222857   1.735   0.720   2.252  0.8410 -2.5246 -0.0091
 3742SOL     OW22858   1.073   1.683  17.599 -0.6520  0.3111  0.3059
 3742SOL    HW122859   1.083   1.589  17.586  1.1536  0.5486  0.0252
 3742SOL    HW222860   1.152   1.723  17.563 -1.8439  2.1933 -0.2157
 3743SOL     OW22861   3.462   1.737   6.649 -0.0573  0.0016  0.7232
 3743SOL    HW122862   3.433   1.828   6.646 -0.6223 -0.2250 -0.3438
 3743SOL    HW222863   3.523   1.757   6.720 -0.4557  2.5221  0.3516
 3744SOL     OW22864   1.147   4.403   5.197  0.3119  0.6447 -0.2468
 3744SOL    HW122865   1.082   4.390   5.267  0.2867 -0.5579 -0.4916
 3744SOL    HW222866   1.223   4.353   5.228 -0.2324 -0.4338 -0.6536
 3745SOL     OW22867   1.806   1.547   4.104 -0.7137 -0.4751 -0.0358
 3745SOL    HW122868   1.886   1.558   4.156 -1.0239 -1.8548  0.7459
 3745SOL    HW222869   1.827   1.602   4.029  2.6344  1.6089  2.4106
 3746SOL     OW22870   1.359   3.819   6.442 -0.1041 -0.1960  0.0600
 3746SOL    HW122871   1.322   3.759   6.506 -0.0897  0.0090  0.2613
 3746SOL    HW222872   1.282   3.834   6.387 -0.9680 -2.9433  0.5364
 3747SOL     OW22873   3.876   3.453   8.830  0.9791 -0.1302 -0.0204
 3747SOL    HW122874   3.845   3.491   8.747 -0.0253 -0.0800  0.3693
 3747SOL    HW222875   3.795   3.407   8.854  0.5572  0.6599  0.0744
 3748SOL     OW22876   0.584   3.162   4.278 -0.3608 -0.2250  0.1978
 3748SOL    HW122877   0.604   3.254   4.265 -2.7587  0.1219 -1.1491
 3748SOL    HW222878   0.673   3.129   4.263 -0.4439 -1.2658  2.1100
 3749SOL     OW22879   1.370   3.374   5.341 -0.6218 -0.2258  0.3979
 3749SOL    HW122880   1.287   3.380   5.294  0.3384  0.6885 -1.1878
 3749SOL    HW222881   1.344   3.399   5.430  0.1574  1.5878  0.1363
 3750SOL     OW22882   1.813   0.511   4.947  0.0274 -0.4388  0.2836
 3750SOL    HW122883   1.848   0.599   4.932 -1.3718  0.4606  2.3388
 3750SOL    HW222884   1.757   0.520   5.024 -1.1195 -0.4845 -0.5510
 3751SOL     OW22885   0.850   1.787   6.929 -0.3145  0.0598  0.3351
 3751SOL    HW122886   0.760   1.760   6.947  0.1078 -0.3602  1.7942
 3751SOL    HW222887   0.864   1.829   7.014  0.5430  1.0693 -0.3127
 3752SOL     OW22888   2.189   3.761   6.902 -0.4152  0.3101  0.0064
 3752SOL    HW122889   2.269   3.812   6.917 -0.8432  1.1982 -0.7327
 3752SOL    HW222890   2.129   3.830   6.875 -0.2076  0.5576  0.1806
 3753SOL     OW22891   1.085   3.841   5.983 -0.0563  0.5053 -0.1262
 3753SOL    HW122892   1.004   3.862   6.029  0.6716  6.0041 -1.3551
 3753SOL    HW222893   1.060   3.752   5.956 -2.2212  0.5554  1.7411
 3754SOL     OW22894   4.112   0.541  17.203 -0.2758  0.1153  0.3538
 3754SOL    HW122895   4.085   0.456  17.239  2.2053 -1.4939 -1.5711
 3754SOL    HW222896   4.139   0.586  17.282  0.9757  0.3261 -0.1949
 3755SOL     OW22897   3.089   4.687   5.934  0.1508 -0.6840 -0.2946
 3755SOL    HW122898   3.089   0.041   5.945  3.8924 -0.7622  0.0944
 3755SOL    HW222899   3.037   4.654   6.007  1.0946 -0.9756  0.2435
 3756SOL     OW22900   1.797   1.233   8.867 -0.6645 -0.0509  0.5260
 3756SOL    HW122901   1.720   1.276   8.830 -0.7140  1.2452  2.1093
 3756SOL    HW222902   1.856   1.308   8.882  0.5883 -0.5166 -2.0394
 3757SOL     OW22903   0.830   2.072  12.061 -0.2600 -0.7533 -0.1869
 3757SOL    HW122904   0.885   2.142  12.026 -1.0179  0.1018  0.3695
 3757SOL    HW222905   0.788   2.112  12.137  0.4135  0.5327 -0.5012
 3758SOL     OW22906   0.683   2.951  13.426  0.3225  0.8100 -0.2640
 3758SOL    HW122907   0.772   2.933  13.456  1.1761  1.9847 -2.1045
 3758SOL    HW222908   0.705   3.010  13.354  2.8757  0.1092 -0.0666
 3759SOL     OW22909   0.255   1.148   2.887  0.1948 -0.2185  0.2978
 3759SOL    HW122910   0.190   1.174   2.821  0.5068  0.2609  0.1851
 3759SOL    HW222911   0.329   1.198   2.854  0.1458  0.7486  1.6463
 3760SOL     OW22912   4.167   2.288  10.362  0.4435 -0.1417  0.7949
 3760SOL    HW122913   4.252   2.317  10.329  1.2160 -3.2493  0.0078
 3760SOL    HW222914   4.195   2.218  10.420 -1.8159 -0.3288  1.6828
 3761SOL     OW22915   1.875   0.793   5.392  0.0799  0.0561  0.3939
 3761SOL    HW122916   1.816   0.726   5.357  1.1215 -0.8611  0.3576
 3761SOL    HW222917   1.814   0.865   5.403  0.0434  0.4231 -2.3023
 3762SOL     OW22918   4.090   2.334   3.576  0.0624 -0.3146 -0.1311
 3762SOL    HW122919   4.172   2.301   3.611 -0.5154 -0.6834  0.8834
 3762SOL    HW222920   4.112   2.376   3.493 -0.3088  0.2607  0.0602
 3763SOL     OW22921   0.724   2.934   8.080  0.0695  0.0311  0.2606
 3763SOL    HW122922   0.729   2.854   8.132 -0.1664  0.4160  0.8722
 3763SOL    HW222923   0.789   2.998   8.111  0.4632 -1.6438  2.8794
 3764SOL     OW22924   1.638   4.183  14.916  0.1701 -0.1452 -0.2714
 3764SOL    HW122925   1.658   4.229  14.835 -0.7057  0.7864  0.0417
 3764SOL    HW222926   1.663   4.092  14.902  1.0201  0.4579 -2.6566
 3765SOL     OW22927   2.622   1.955   7.871 -0.4846  0.0330  0.0438
 3765SOL    HW122928   2.564   1.994   7.937 -0.9039 -0.9575  0.2515
 3765SOL    HW222929   2.711   1.967   7.905 -0.8330 -0.1625  1.0460
 3766SOL     OW22930   3.732   1.453   1.960  0.3066  0.1447 -0.0088
 3766SOL    HW122931   3.686   1.533   1.984 -0.4492 -0.8371  1.8053
 3766SOL    HW222932   3.690   1.389   2.017 -1.2238 -1.1016 -2.5480
 3767SOL     OW22933   3.516   4.386  17.048  0.6535 -0.1700 -0.4876
 3767SOL    HW122934   3.516   4.423  16.960 -1.4796  0.2628 -0.3243
 3767SOL    HW222935   3.466   4.305  17.031  0.0639 -0.1428  1.1392
 3768SOL     OW22936   1.115   0.571   2.148 -0.0259 -0.0075 -0.4378
 3768SOL    HW122937   1.127   0.502   2.214 -2.3640  0.7675  0.7873
 3768SOL    HW222938   1.187   0.561   2.087  0.5412 -1.8303  0.5178
 3769SOL     OW22939   1.181   3.430  16.171  0.4345  0.0998  0.0228
 3769SOL    HW122940   1.261   3.393  16.206 -1.1874 -1.8895  1.5960
 3769SOL    HW222941   1.211   3.516  16.140 -0.2060  0.1830 -0.3857
 3770SOL     OW22942   1.090   0.452   5.081 -0.1651 -0.0323  0.1443
 3770SOL    HW122943   1.016   0.487   5.130  0.7538  0.6962  1.0224
 3770SOL    HW222944   1.052   0.467   4.995 -0.5652  0.1194  0.3504
 3771SOL     OW22945   2.734   0.718  11.476  0.0723 -0.9049  0.1829
 3771SOL    HW122946   2.645   0.735  11.445  0.1110 -0.5624  0.2525
 3771SOL    HW222947   2.774   0.801  11.450 -1.7354 -0.0702  0.0729
 3772SOL     OW22948   0.922   0.630   7.053 -0.1105  0.6632  0.4195
 3772SOL    HW122949   0.990   0.651   7.118  1.3910  0.0133 -0.9660
 3772SOL    HW222950   0.939   0.539   7.029 -1.7233  0.3995  0.3115
 3773SOL     OW22951   4.159   0.311   7.626 -0.2436  1.0267 -0.2402
 3773SOL    HW122952   4.211   0.250   7.678 -0.9099  0.3164 -0.4081
 3773SOL    HW222953   4.110   0.256   7.565  2.2109 -0.9513 -0.4324
 3774SOL     OW22954   2.649   3.322  17.240 -0.3512 -0.1877 -0.6709
 3774SOL    HW122955   2.663   3.352  17.330 -3.0961 -0.2447 -0.2506
 3774SOL    HW222956   2.664   3.403  17.192  1.0577  0.9188  1.6499
 3775SOL     OW22957   3.587   2.645   3.989  0.2110 -0.6820 -0.1930
 3775SOL    HW122958   3.617   2.562   3.954  1.7102  0.3766 -1.4001
 3775SOL    HW222959   3.599   2.634   4.084  0.7513 -0.8831 -0.2862
 3776SOL     OW22960   2.632   0.980   7.325 -0.3150  0.0972 -0.4506
 3776SOL    HW122961   2.725   0.985   7.350 -0.1560  0.6705 -1.1469
 3776SOL    HW222962   2.595   0.950   7.408  0.5387 -0.8035 -0.3920
 3777SOL     OW22963   0.345   0.031   4.097  0.2091  0.2842  0.2270
 3777SOL    HW122964   0.353   0.092   4.170  0.1331  1.7200 -0.9623
 3777SOL    HW222965   0.410   0.074   4.042  0.4932  0.3119  0.5857
 3778SOL     OW22966   3.525   4.528   7.600  0.4217 -0.1282 -0.2143
 3778SOL    HW122967   3.577   4.479   7.536  0.8105 -0.2384  0.1897
 3778SOL    HW222968   3.505   4.603   7.544  1.2590 -0.7172 -1.3036
 3779SOL     OW22969   1.402   4.026   9.080  0.0675  0.9459 -0.4982
 3779SOL    HW122970   1.430   4.069   8.999 -3.9472  3.2693 -0.6122
 3779SOL    HW222971   1.356   4.095   9.127 -1.3010  0.0562 -0.5212
 3780SOL     OW22972   4.261   0.310  13.666  0.0117 -0.2017  0.1158
 3780SOL    HW122973   4.276   0.396  13.627  1.0121 -0.5067 -0.1751
 3780SOL    HW222974   4.330   0.268  13.614 -0.2427 -1.3538  0.7085
 3781SOL     OW22975   0.614   1.535  10.740  0.2865 -0.3438  0.4705
 3781SOL    HW122976   0.621   1.583  10.658 -0.4693  0.3903  0.8256
 3781SOL    HW222977   0.588   1.609  10.796  3.1738 -0.6563  2.2719
 3782SOL     OW22978   2.838   4.486   2.053 -0.5576 -0.4803  0.6960
 3782SOL    HW122979   2.799   4.404   2.084 -0.3416 -0.9218 -0.2123
 3782SOL    HW222980   2.924   4.473   2.094  0.1066 -1.6558 -1.1066
 3783SOL     OW22981   3.604   1.923   8.106  0.1280 -0.0817  0.1557
 3783SOL    HW122982   3.553   2.004   8.097  2.1358  1.5816  3.7781
 3783SOL    HW222983   3.609   1.898   8.014 -0.0242 -0.0184  0.1304
 3784SOL     OW22984   4.657   2.005   2.896  0.1593 -0.3954 -0.2555
 3784SOL    HW122985   4.667   1.910   2.889  1.4587 -0.1674 -1.4614
 3784SOL    HW222986   4.680   2.044   2.812 -1.5226  1.1758 -0.0028
 3785SOL     OW22987   0.586   2.987   1.196  0.0383 -0.3374  0.0107
 3785SOL    HW122988   0.579   2.922   1.266 -0.0847 -0.6521 -0.2894
 3785SOL    HW222989   0.587   3.068   1.246 -0.7984 -0.4860  0.2636
 3786SOL     OW22990   0.543   1.806   4.242  0.0366 -0.3215 -0.0995
 3786SOL    HW122991   0.615   1.749   4.268  1.1356  0.7989 -0.6955
 3786SOL    HW222992   0.589   1.855   4.174  0.9170 -1.0116  0.0046
 3787SOL     OW22993   4.136   3.350  11.716 -0.2078  0.2919  0.5591
 3787SOL    HW122994   4.087   3.288  11.664  2.1395 -0.2007 -1.0769
 3787SOL    HW222995   4.154   3.299  11.795 -3.0234  0.0534  1.0442
 3788SOL     OW22996   0.168   3.355  11.477  0.3012  0.3173 -0.1138
 3788SOL    HW122997   0.144   3.262  11.472  0.3829  0.3736 -1.6977
 3788SOL    HW222998   0.171   3.389  11.388  0.1303 -1.0260 -0.6378
 3789SOL     OW22999   2.778   3.016  12.249 -0.1272  0.1119 -0.3432
 3789SOL    HW123000   2.684   3.001  12.238 -0.0939  0.3726 -0.9781
 3789SOL    HW223001   2.772   3.028  12.343 -1.9072 -1.8206 -0.2001
 3790SOL     OW23002   1.804   0.290   8.237 -0.1419  0.0989  0.5996
 3790SOL    HW123003   1.872   0.295   8.305 -0.8366 -1.3925  1.4256
 3790SOL    HW223004   1.751   0.221   8.278  1.3043 -2.0968 -1.2122
 3791SOL     OW23005   0.359   0.792   6.506 -0.8003  0.7621  0.1005
 3791SOL    HW123006   0.436   0.736   6.504  0.4376  2.4717 -0.3591
 3791SOL    HW223007   0.295   0.722   6.516 -0.9422  1.0082  0.9407
 3792SOL     OW23008   0.416   3.069  17.512  0.1884 -0.0543 -0.0606
 3792SOL    HW123009   0.502   3.105  17.532 -0.9358  2.8476 -0.4351
 3792SOL    HW223010   0.436   2.997  17.452  1.2199  2.2680 -2.4972
 3793SOL     OW23011   0.863   2.971  15.706  0.2699 -0.1510 -0.2938
 3793SOL    HW123012   0.861   3.028  15.629 -0.2924 -0.4392 -0.4913
 3793SOL    HW223013   0.943   3.000  15.751 -0.6460 -0.4649  1.5126
 3794SOL     OW23014   3.573   2.960   3.637 -0.3702 -0.5607 -0.5836
 3794SOL    HW123015   3.510   2.893   3.610 -1.2005  0.3922 -0.9794
 3794SOL    HW223016   3.579   2.946   3.732  1.2228  1.1006 -0.4529
 3795SOL     OW23017   3.205   4.112   5.199 -0.0529 -0.1693 -0.1057
 3795SOL    HW123018   3.111   4.130   5.196 -0.2402 -1.1324 -0.0054
 3795SOL    HW223019   3.222   4.187   5.256  1.1561 -0.2228 -0.4070
 3796SOL     OW23020   0.173   2.220   5.045 -0.4231  0.6407  0.3676
 3796SOL    HW123021   0.249   2.196   5.097  0.4148 -0.1398 -1.2039
 3796SOL    HW223022   0.171   2.147   4.983 -1.1115  1.3628 -0.4636
 3797SOL     OW23023   0.072   0.396   7.331  0.5151  0.3720 -0.1906
 3797SOL    HW123024   0.161   0.403   7.296 -0.1986  1.7931 -1.7323
 3797SOL    HW223025   0.073   0.412   7.425 -0.2276 -1.5677  0.1692
 3798SOL     OW23026   2.997   1.387  17.163  0.4105  0.0750  0.2824
 3798SOL    HW123027   3.027   1.367  17.074  0.1746 -0.4383  0.3209
 3798SOL    HW223028   3.068   1.449  17.180 -1.1158  2.3886 -1.7375
 3799SOL     OW23029   2.274   4.321  16.360 -0.6276  0.2868 -0.0427
 3799SOL    HW123030   2.363   4.315  16.326  0.0806  1.1544  1.6534
 3799SOL    HW223031   2.228   4.321  16.276  0.0831 -0.7868 -0.4328
 3800SOL     OW23032   0.478   2.814   2.887  0.5217  0.4204  0.0642
 3800SOL    HW123033   0.539   2.777   2.823  2.3827 -0.1373  2.1378
 3800SOL    HW223034   0.541   2.877   2.924  0.9352  1.4266 -2.3958
 3801SOL     OW23035   0.805   1.368   5.592  0.2794 -0.0440 -0.4820
 3801SOL    HW123036   0.737   1.367   5.524  0.2807 -0.5187 -0.4767
 3801SOL    HW223037   0.882   1.406   5.550 -0.1370  1.0940 -0.2124
 3802SOL     OW23038   3.108   3.158   0.614  0.6179  0.4119  0.3770
 3802SOL    HW123039   3.079   3.105   0.688 -0.4968  0.0326 -0.3352
 3802SOL    HW223040   3.186   3.199   0.652  1.6932 -1.4714  0.2143
 3803SOL     OW23041   0.443   2.332   5.264  0.1584  0.0981  1.1442
 3803SOL    HW123042   0.433   2.425   5.243  2.6907 -0.2229 -1.5027
 3803SOL    HW223043   0.493   2.330   5.345  0.0261  1.2702  1.2544
 3804SOL     OW23044   0.709   2.707   8.276 -0.4968 -0.3400 -0.2110
 3804SOL    HW123045   0.634   2.760   8.301 -0.0676  0.6593 -1.0241
 3804SOL    HW223046   0.753   2.705   8.360  0.4646 -0.4537 -0.7151
 3805SOL     OW23047   0.491   0.832  16.334  0.3263 -0.0221 -0.5344
 3805SOL    HW123048   0.444   0.824  16.250  1.0713  2.8977 -1.2286
 3805SOL    HW223049   0.482   0.750  16.382  3.2390  0.2894  0.5357
 3806SOL     OW23050   2.577   4.166  13.142 -0.8905 -0.2169 -0.3157
 3806SOL    HW123051   2.546   4.086  13.099 -0.5512 -0.6878  0.3067
 3806SOL    HW223052   2.628   4.220  13.082 -2.0229  0.6489 -0.4841
 3807SOL     OW23053   0.217   0.472   9.329 -0.0519 -0.3053  0.0834
 3807SOL    HW123054   0.191   0.389   9.288 -0.5957 -0.6541  1.1169
 3807SOL    HW223055   0.163   0.531   9.277 -0.0095  2.2051  2.9426
 3808SOL     OW23056   0.031   3.906  12.097  0.4605 -0.5236 -0.3227
 3808SOL    HW123057   4.733   3.875  12.016 -0.8366  0.4560 -0.0589
 3808SOL    HW223058   0.022   4.001  12.091 -0.0131 -0.5202  0.3873
 3809SOL     OW23059   0.857   4.166   8.593  0.2756 -0.1940 -0.2489
 3809SOL    HW123060   0.952   4.165   8.597  0.2669  2.7564  0.6670
 3809SOL    HW223061   0.846   4.258   8.570  3.5379 -0.0695 -1.2086
 3810SOL     OW23062   0.400   4.097   9.261 -0.0496  0.2472  0.1410
 3810SOL    HW123063   0.314   4.123   9.294  0.3442 -0.2072  1.5505
 3810SOL    HW223064   0.437   4.067   9.344 -0.6667  1.2831  0.7997
 3811SOL     OW23065   2.208   2.190   5.873 -0.4594  0.3593 -0.2516
 3811SOL    HW123066   2.166   2.109   5.845 -0.6054 -0.1207  1.3809
 3811SOL    HW223067   2.278   2.209   5.810  0.2082  1.3716  0.7900
 3812SOL     OW23068   3.843   1.981  14.549 -0.8404  0.0654  0.4446
 3812SOL    HW123069   3.933   1.947  14.544 -0.8920  0.1524 -1.1001
 3812SOL    HW223070   3.800   1.909  14.594 -0.0745 -0.0226  1.0363
 3813SOL     OW23071   3.643   0.637   8.777 -0.7213  0.2921 -0.2808
 3813SOL    HW123072   3.677   0.726   8.767  0.9331 -0.1713  1.1669
 3813SOL    HW223073   3.718   0.596   8.820 -0.0064  0.9616 -0.8714
 3814SOL     OW23074   4.182   3.714   7.326  0.7852 -0.1254  0.2896
 3814SOL    HW123075   4.089   3.712   7.348  0.6357 -0.0432 -0.3287
 3814SOL    HW223076   4.172   3.718   7.231 -2.3327  1.4593  0.6653
 3815SOL     OW23077   2.430   2.503  17.538  0.3247 -0.0446 -0.7232
 3815SOL    HW123078   2.480   2.584  17.549 -0.3785  0.2589  0.2283
 3815SOL    HW223079   2.448   2.487  17.445 -0.3831 -1.4182 -0.6277
 3816SOL     OW23080   0.934   3.376   5.828 -0.0576  0.5366 -0.9107
 3816SOL    HW123081   0.918   3.430   5.750 -4.5784  0.1353 -0.2912
 3816SOL    HW223082   0.910   3.296   5.780 -3.0171 -0.2888  1.8866
 3817SOL     OW23083   1.900   3.689   4.101  0.0454  0.0446 -0.4689
 3817SOL    HW123084   1.810   3.658   4.096  0.6550 -2.1069  1.6310
 3817SOL    HW223085   1.896   3.774   4.145 -0.9338  0.3956 -1.2456
 3818SOL     OW23086   2.951   4.149   3.872  0.3044 -0.4886  0.0878
 3818SOL    HW123087   2.993   4.167   3.956  0.1554 -1.6839  0.4216
 3818SOL    HW223088   2.930   4.237   3.843  1.1086 -0.4496 -0.3627
 3819SOL     OW23089   0.718   2.028   1.635 -0.1820 -0.0781  0.4660
 3819SOL    HW123090   0.637   2.008   1.588 -0.3349 -2.1251  1.5991
 3819SOL    HW223091   0.709   2.123   1.644 -0.9870  0.0323 -1.5534
 3820SOL     OW23092   4.118   3.820  11.783  0.3462  0.4205  0.0716
 3820SOL    HW123093   4.164   3.816  11.699  0.4343  1.2503  0.0746
 3820SOL    HW223094   4.070   3.738  11.791 -0.0458  0.4339 -2.0127
 3821SOL     OW23095   0.891   3.150  15.517  0.6075 -0.2223  0.2846
 3821SOL    HW123096   0.982   3.157  15.490 -0.1254 -0.8740 -2.3243
 3821SOL    HW223097   0.866   3.236  15.483  2.4396 -0.5736 -1.9086
 3822SOL     OW23098   3.800   1.306   4.974 -0.7624 -0.1352 -0.5220
 3822SOL    HW123099   3.710   1.331   4.954 -1.1689 -1.9633 -0.9756
 3822SOL    HW223100   3.829   1.387   5.017 -1.2209 -1.1517  1.7394
 3823SOL     OW23101   0.121   3.567   7.533  1.2506 -0.5444  0.2919
 3823SOL    HW123102   0.125   3.600   7.443 -0.9903 -0.9025  0.0537
 3823SOL    HW223103   0.034   3.527   7.536  2.1669 -2.4744  0.9867
 3824SOL     OW23104   2.695   4.236  11.425  0.0431  0.1308 -0.0908
 3824SOL    HW123105   2.614   4.272  11.463 -0.2930 -1.2535  0.4816
 3824SOL    HW223106   2.759   4.272  11.487  0.1981  0.7821 -0.6239
 3825SOL     OW23107   1.216   1.491  17.097  0.5272  0.1067  0.1605
 3825SOL    HW123108   1.311   1.502  17.089  0.6036  1.2732  2.6865
 3825SOL    HW223109   1.215   1.396  17.089  0.7119  0.0515  0.7816
 3826SOL     OW23110   4.172   4.202  11.321 -0.0192  0.1576 -0.1876
 3826SOL    HW123111   4.106   4.133  11.317  2.7893 -2.5933 -0.0493
 3826SOL    HW223112   4.197   4.211  11.413  1.4781 -0.6235 -0.5051
 3827SOL     OW23113   3.793   3.480   4.090 -0.1865  0.3886  0.0028
 3827SOL    HW123114   3.717   3.430   4.060 -0.3145 -0.2273  1.3473
 3827SOL    HW223115   3.798   3.458   4.183  1.6298  0.3666 -0.1074
 3828SOL     OW23116   2.206   0.984   0.128  0.0361 -0.0816  0.6284
 3828SOL    HW123117   2.160   1.048   0.181  0.7837  0.2491  0.8882
 3828SOL    HW223118   2.296   1.002   0.157  0.2586  1.1863 -0.8146
 3829SOL     OW23119   1.311   4.524   1.282  0.4314 -0.0241 -0.4436
 3829SOL    HW123120   1.337   4.498   1.370  2.6397 -1.5327 -1.5271
 3829SOL    HW223121   1.251   4.596   1.301 -0.8915 -1.1115 -0.4745
 3830SOL     OW23122   2.229   0.999  11.471 -0.0966  0.3471 -0.1886
 3830SOL    HW123123   2.182   0.917  11.458 -0.3302  0.2211  1.5389
 3830SOL    HW223124   2.263   1.013  11.382  0.6366 -0.8088 -0.0910
 3831SOL     OW23125   1.148   0.289   6.743 -0.0790  0.2504 -0.1729
 3831SOL    HW123126   1.204   0.274   6.667  2.2319  0.7518  1.4406
 3831SOL    HW223127   1.137   0.384   6.734 -0.6018  0.2766  0.7593
 3832SOL     OW23128   0.574   2.267  15.473  0.3125  0.1223  0.5337
 3832SOL    HW123129   0.517   2.305  15.541  0.5310  2.2588 -0.4816
 3832SOL    HW223130   0.642   2.333  15.481  0.0385  0.3681  0.8346
 3833SOL     OW23131   0.737   1.308   2.155  0.3044 -0.0361 -0.2444
 3833SOL    HW123132   0.768   1.359   2.230 -0.2301 -0.1118  0.0302
 3833SOL    HW223133   0.813   1.312   2.098 -1.1472 -1.5488 -2.2845
 3834SOL     OW23134   3.055   1.433   6.457  0.1549  0.2139  0.3760
 3834SOL    HW123135   3.026   1.438   6.366  0.0643  2.3597  0.5194
 3834SOL    HW223136   3.126   1.497   6.468  1.8861 -2.0650  2.3530
 3835SOL     OW23137   3.169   1.489   9.067  0.2086  0.5471  0.2976
 3835SOL    HW123138   3.120   1.501   8.986  2.1018  1.4968 -0.6863
 3835SOL    HW223139   3.122   1.413   9.104  0.8010 -0.2306 -0.5675
 3836SOL     OW23140   4.633   0.051   7.180 -0.0033  0.0211 -0.1198
 3836SOL    HW123141   4.724   0.076   7.192  0.5613 -1.6827 -0.8968
 3836SOL    HW223142   4.581   0.130   7.199 -0.5309 -0.8551  2.0443
 3837SOL     OW23143   1.336   3.009   7.284  0.2447 -0.1556  0.3536
 3837SOL    HW123144   1.310   2.936   7.339  3.2755 -0.9253  0.7793
 3837SOL    HW223145   1.277   2.988   7.212 -0.3733  0.0242  0.8067
 3838SOL     OW23146   0.051   1.531   5.030 -0.2266 -0.0392 -0.1143
 3838SOL    HW123147   0.015   1.469   5.094 -2.2346  0.6574 -0.5673
 3838SOL    HW223148   0.063   1.602   5.093  3.7619  1.4389 -2.5512
 3839SOL     OW23149   2.183   2.667   3.734  0.2485 -0.2511 -0.1063
 3839SOL    HW123150   2.217   2.656   3.823  2.5365  0.6834 -0.8651
 3839SOL    HW223151   2.098   2.627   3.754 -0.4425  1.3433  0.1461
 3840SOL     OW23152   0.007   4.304  13.743 -0.0271  0.7126 -0.2010
 3840SOL    HW123153   4.686   4.353  13.688 -0.2902  2.0124  1.2312
 3840SOL    HW223154   0.014   4.227  13.687  0.8112  0.0641  0.8076
 3841SOL     OW23155   3.319   4.092  11.537 -0.1181 -0.1965 -0.0223
 3841SOL    HW123156   3.278   4.178  11.546 -0.6648 -0.4073 -0.4691
 3841SOL    HW223157   3.244   4.037  11.514  0.2068 -1.7748  2.6373
 3842SOL     OW23158   3.004   4.218   4.859  0.6997 -0.2236  0.4288
 3842SOL    HW123159   2.917   4.243   4.828  1.2950 -2.7661 -3.3837
 3842SOL    HW223160   3.059   4.271   4.801 -0.9780 -0.2103 -1.1379
 3843SOL     OW23161   1.246   3.391  11.026 -0.5166 -0.6924  0.0824
 3843SOL    HW123162   1.319   3.386  11.088  1.4228 -0.9902 -2.2711
 3843SOL    HW223163   1.175   3.423  11.083  0.8632  2.6649 -0.0726
 3844SOL     OW23164   1.355   2.620   3.209 -0.9304  0.2184 -0.8253
 3844SOL    HW123165   1.403   2.551   3.163 -1.9872 -1.4357  0.5493
 3844SOL    HW223166   1.391   2.613   3.297 -0.8034 -1.3759 -1.0015
 3845SOL     OW23167   0.524   3.229   8.707 -0.0169 -0.1208 -0.3080
 3845SOL    HW123168   0.577   3.152   8.690 -0.0962 -0.3078  0.2977
 3845SOL    HW223169   0.499   3.252   8.617  2.2312 -0.6362 -1.0532
 3846SOL     OW23170   0.666   0.375   4.597  0.1755 -0.3612 -0.1447
 3846SOL    HW123171   0.744   0.345   4.642  0.2553  4.4426  2.8667
 3846SOL    HW223172   0.705   0.372   4.509 -0.4393  1.8295 -0.4856
 3847SOL     OW23173   2.362   3.649  10.550  0.0953 -0.2143 -0.4458
 3847SOL    HW123174   2.269   3.667  10.564  0.4139 -0.2735  1.7177
 3847SOL    HW223175   2.381   3.602  10.631 -2.2586  0.7189  0.6633
 3848SOL     OW23176   0.447   4.670   6.828 -0.0689  0.5856 -0.0455
 3848SOL    HW123177   0.469   4.578   6.841 -1.7792  0.1492 -0.2320
 3848SOL    HW223178   0.476   4.696   6.740 -0.5446  0.1717 -0.3198
 3849SOL     OW23179   3.640   2.170   4.135 -0.1346 -0.1183 -0.2680
 3849SOL    HW123180   3.632   2.252   4.086 -1.7167  1.2058  2.1745
 3849SOL    HW223181   3.549   2.144   4.121 -0.8875  1.3156  1.9891
 3850SOL     OW23182   3.042   1.521   6.196 -0.1764  0.5222  0.5917
 3850SOL    HW123183   2.989   1.592   6.235  0.8763  2.0333 -0.7197
 3850SOL    HW223184   3.052   1.559   6.109 -1.6936  0.2784  0.3132
 3851SOL     OW23185   0.742   3.955   3.760 -0.2107  0.0659  0.7337
 3851SOL    HW123186   0.680   3.916   3.698  2.2958 -2.2047 -0.3734
 3851SOL    HW223187   0.680   3.938   3.831 -2.5890  1.3571 -1.0602
 3852SOL     OW23188   3.011   3.487   1.484  0.1027 -0.2383 -0.0077
 3852SOL    HW123189   2.956   3.462   1.409  1.2576  0.7312 -1.1711
 3852SOL    HW223190   3.054   3.404   1.504  3.7956  0.9478 -3.0135
 3853SOL     OW23191   0.126   3.979   4.548  0.1581  0.7988  0.2409
 3853SOL    HW123192   0.122   3.943   4.637  1.8003 -0.8674 -0.3567
 3853SOL    HW223193   0.220   3.968   4.531  0.1993 -1.5226  1.9493
 3854SOL     OW23194   0.234   1.568   9.991 -0.4349  0.0186  0.1712
 3854SOL    HW123195   0.160   1.606   9.943 -1.1875  0.1131  1.3850
 3854SOL    HW223196   0.223   1.618  10.072 -1.9816  0.9823 -0.6293
 3855SOL     OW23197   0.440   3.594   3.304  0.0429  0.0093  0.5409
 3855SOL    HW123198   0.472   3.652   3.235  1.3894 -0.4344  0.7880
 3855SOL    HW223199   0.455   3.509   3.261  1.6795 -0.1919  1.4932
 3856SOL     OW23200   1.096   3.206   8.501  0.4251 -0.2715 -0.6977
 3856SOL    HW123201   1.042   3.260   8.442 -1.7412 -2.0902 -0.3884
 3856SOL    HW223202   1.186   3.234   8.485  0.6986 -1.4474 -1.1662
 3857SOL     OW23203   3.027   0.892   8.259  0.8330 -0.1126  0.0508
 3857SOL    HW123204   2.946   0.864   8.301  0.4228  1.5150  0.3720
 3857SOL    HW223205   2.982   0.922   8.180  1.6898  0.9045 -0.0504
 3858SOL     OW23206   3.354   3.629   5.584  0.3139  0.1578  0.1594
 3858SOL    HW123207   3.373   3.722   5.583 -1.8795  0.6287  0.8976
 3858SOL    HW223208   3.311   3.621   5.498  1.4450  2.0192 -0.5712
 3859SOL     OW23209   3.562   4.447  15.510 -0.2240 -0.0293 -0.0010
 3859SOL    HW123210   3.472   4.423  15.533 -0.8202  2.8932  0.7316
 3859SOL    HW223211   3.563   4.433  15.416  0.7946  0.8507 -0.1152
 3860SOL     OW23212   4.046   2.927   7.979 -0.4958  0.4423  0.6938
 3860SOL    HW123213   4.084   2.945   8.065 -0.2796 -0.8083  0.8557
 3860SOL    HW223214   4.108   2.970   7.920  0.6789 -0.4638  1.2834
 3861SOL     OW23215   1.801   3.498   3.515  0.1112  0.2748 -0.0450
 3861SOL    HW123216   1.834   3.573   3.563  1.5091  1.1276 -2.3524
 3861SOL    HW223217   1.836   3.428   3.571 -1.2077  0.6558  1.2580
 3862SOL     OW23218   3.811   1.830   7.566 -0.5463 -0.5992 -0.3312
 3862SOL    HW123219   3.791   1.747   7.609 -3.3743  0.2359 -0.0095
 3862SOL    HW223220   3.782   1.818   7.475  0.3514  0.3732 -0.7383
 3863SOL     OW23221   1.628   4.077   5.705 -0.8722 -0.5456  0.0528
 3863SOL    HW123222   1.627   4.114   5.793 -0.3094 -0.6363  0.0989
 3863SOL    HW223223   1.714   4.117   5.692  0.1582 -1.9261  2.5591
 3864SOL     OW23224   2.722   3.520   5.735 -0.1475 -0.7986 -0.0171
 3864SOL    HW123225   2.724   3.465   5.813  0.4100  1.0495  1.2707
 3864SOL    HW223226   2.663   3.466   5.683 -1.6462  0.3177  0.5189
 3865SOL     OW23227   2.209   0.157  10.031  0.1062  0.7613 -0.3532
 3865SOL    HW123228   2.149   0.085  10.011  1.8969 -1.2334  1.4023
 3865SOL    HW223229   2.283   0.107  10.067 -0.1310  1.3967  1.0222
 3866SOL     OW23230   2.071   0.406   6.932 -0.3966 -0.2832 -0.1716
 3866SOL    HW123231   1.979   0.385   6.916 -0.5840 -1.2682  2.1745
 3866SOL    HW223232   2.077   0.501   6.921  1.1747 -0.0178  2.9088
 3867SOL     OW23233   3.266   1.372  16.453  0.2182 -0.0648  0.5175
 3867SOL    HW123234   3.333   1.344  16.390  0.1316  1.4319 -0.2395
 3867SOL    HW223235   3.227   1.287  16.474 -0.6464  0.5477  1.3784
 3868SOL     OW23236   1.380   3.196   8.411 -0.0077  0.5497 -0.2936
 3868SOL    HW123237   1.389   3.190   8.316 -0.2142 -0.5113 -0.2451
 3868SOL    HW223238   1.460   3.148   8.432  0.1759  0.9477 -0.0884
 3869SOL     OW23239   2.928   0.714  16.498  0.1379  0.5254  0.1407
 3869SOL    HW123240   3.009   0.741  16.539 -0.0421  2.6589 -0.9071
 3869SOL    HW223241   2.892   0.646  16.556 -0.3292 -1.0313 -1.9450
 3870SOL     OW23242   0.131   2.645   2.098 -0.1550 -0.7400 -0.1041
 3870SOL    HW123243   0.041   2.671   2.119 -1.2502 -2.8349 -2.1816
 3870SOL    HW223244   0.120   2.551   2.113 -0.2517 -0.1135  3.7185
 3871SOL     OW23245   0.541   2.912   3.367  0.3722  0.1402  0.3032
 3871SOL    HW123246   0.544   2.879   3.457  0.4273  0.0607  0.2729
 3871SOL    HW223247   0.592   2.851   3.313  0.2094  0.2112  0.0721
 3872SOL     OW23248   3.453   4.077  11.962  0.3132  0.6624  0.7277
 3872SOL    HW123249   3.537   4.119  11.946  0.6561 -0.2239  0.2252
 3872SOL    HW223250   3.457   4.072  12.057 -2.3334 -2.7119  0.6740
 3873SOL     OW23251   0.505   0.183   4.787 -0.4005 -0.0521 -0.2048
 3873SOL    HW123252   0.445   0.158   4.717  0.7686 -0.5520 -1.0417
 3873SOL    HW223253   0.464   0.255   4.836  2.3527  0.3630  1.5418
 3874SOL     OW23254   1.385   4.183   3.702  0.2155  0.1422 -0.2625
 3874SOL    HW123255   1.458   4.155   3.757  1.3441 -0.2510 -1.9551
 3874SOL    HW223256   1.327   4.108   3.719  0.1498 -0.0354 -1.2790
 3875SOL     OW23257   0.081   0.677   9.187  0.1000  0.3775 -0.4446
 3875SOL    HW123258   0.128   0.752   9.150 -0.3071 -0.1706 -2.0755
 3875SOL    HW223259   0.040   0.725   9.259  0.2115 -0.2144  0.0068
 3876SOL     OW23260   3.073   3.495   2.873 -0.0257 -0.6584  0.3218
 3876SOL    HW123261   3.097   3.477   2.782 -2.8599  1.1683 -0.7858
 3876SOL    HW223262   3.071   3.591   2.879  1.6381 -0.4872 -1.7058
 3877SOL     OW23263   1.842   1.245   0.483 -0.4360 -0.1452  0.2912
 3877SOL    HW123264   1.893   1.303   0.428 -1.7725 -0.9604 -1.8086
 3877SOL    HW223265   1.891   1.246   0.565 -1.4998  1.1821  0.9057
 3878SOL     OW23266   1.881   0.322   9.848  0.3365 -0.3689 -0.0604
 3878SOL    HW123267   1.798   0.370   9.858  0.6002  0.0296  0.1785
 3878SOL    HW223268   1.896   0.340   9.755 -0.2193  2.7465  0.4429
 3879SOL     OW23269   4.686   0.656   8.009  0.6758 -0.2891 -0.2233
 3879SOL    HW123270   4.624   0.584   7.999 -1.0003  0.9745  0.8465
 3879SOL    HW223271   4.670   0.699   7.925  1.5613  0.5568  0.0342
 3880SOL     OW23272   4.085   4.182   7.168  0.2951 -0.4413 -0.0018
 3880SOL    HW123273   4.101   4.197   7.261 -1.0010  0.2485  0.1086
 3880SOL    HW223274   4.151   4.114   7.157 -0.1859 -0.5230 -2.4565
 3881SOL     OW23275   0.891   0.643  15.206 -0.0872  0.5333  0.3674
 3881SOL    HW123276   0.842   0.563  15.188  0.2010  0.1439  1.3223
 3881SOL    HW223277   0.868   0.661  15.297 -0.3135 -0.4595  0.5064
 3882SOL     OW23278   1.148   3.186   5.687 -0.7470  0.0589  0.1565
 3882SOL    HW123279   1.120   3.155   5.602 -0.3129 -1.8571  0.7251
 3882SOL    HW223280   1.222   3.244   5.669 -2.1857  2.2106  1.1068
 3883SOL     OW23281   1.799   2.158   4.937 -0.1485 -0.1338  0.0678
 3883SOL    HW123282   1.731   2.093   4.917  0.1296 -0.4606  0.1858
 3883SOL    HW223283   1.770   2.197   5.019  1.0416 -1.0204  0.9071
 3884SOL     OW23284   3.221   1.623  14.998 -0.1801  0.3637  0.3452
 3884SOL    HW123285   3.196   1.710  14.965  1.3549 -0.2705 -2.5239
 3884SOL    HW223286   3.300   1.650  15.044  0.2871 -1.2478  0.4890
 3885SOL     OW23287   0.702   4.460   7.094 -0.1022 -0.0842  0.3378
 3885SOL    HW123288   0.698   4.494   7.004  0.5685  0.8966  0.6834
 3885SOL    HW223289   0.615   4.429   7.116  0.4703 -1.7041  0.3690
 3886SOL     OW23290   0.208   0.140  10.198 -0.7144  1.2559 -0.0174
 3886SOL    HW123291   0.168   0.217  10.158 -1.9640  0.4442 -0.3291
 3886SOL    HW223292   0.205   0.153  10.293  0.6637  3.1222 -0.2238
 3887SOL     OW23293   1.415   0.448   3.286 -0.5993 -0.0744 -0.1465
 3887SOL    HW123294   1.482   0.498   3.334 -1.1399  0.9043 -0.4233
 3887SOL    HW223295   1.403   0.385   3.357  0.6393 -0.5043 -0.3176
 3888SOL     OW23296   2.082   4.382   7.270  0.1302 -0.4190 -0.0119
 3888SOL    HW123297   2.028   4.308   7.243  1.1241 -1.7493  1.6385
 3888SOL    HW223298   2.122   4.330   7.340 -0.4317 -0.4299  0.2996
 3889SOL     OW23299   1.197   2.985   3.497 -0.0943  0.4381  0.6906
 3889SOL    HW123300   1.104   2.989   3.519 -0.6861 -0.6310 -1.6135
 3889SOL    HW223301   1.229   2.927   3.566  1.0730 -0.3566 -0.5347
 3890SOL     OW23302   0.342   1.073   4.280 -0.1190  0.7565  0.0361
 3890SOL    HW123303   0.360   1.108   4.194  1.3812  0.9223  0.4260
 3890SOL    HW223304   0.286   1.146   4.309  1.9734  1.7314  1.6274
 3891SOL     OW23305   1.154   1.967   3.011  0.0175 -0.3633 -0.7019
 3891SOL    HW123306   1.092   1.897   2.993  0.0792 -0.7580  0.6651
 3891SOL    HW223307   1.112   1.996   3.092  0.8342 -0.7182 -0.1492
 3892SOL     OW23308   0.997   0.178  13.537  0.4824 -0.1545  0.3973
 3892SOL    HW123309   0.902   0.180  13.526  0.9672  4.6813 -3.2252
 3892SOL    HW223310   1.020   0.089  13.511 -0.8985 -1.3968  3.5593
 3893SOL     OW23311   0.773   2.748  14.813 -0.0668 -0.7966 -0.7636
 3893SOL    HW123312   0.810   2.833  14.837  1.4290 -1.8295  0.6202
 3893SOL    HW223313   0.804   2.690  14.883  1.6998  0.6812 -0.3009
 3894SOL     OW23314   4.576   3.645   3.154  0.2947  0.0366 -0.0544
 3894SOL    HW123315   4.593   3.576   3.219  0.6987 -0.8407 -1.0818
 3894SOL    HW223316   4.482   3.643   3.138  0.3308  2.1159 -0.5385
 3895SOL     OW23317   2.826   0.669   6.404  0.2428 -0.3865  0.0364
 3895SOL    HW123318   2.843   0.763   6.403 -1.5790 -0.0693 -1.3598
 3895SOL    HW223319   2.870   0.634   6.326  0.9135  2.4033 -0.8310
 3896SOL     OW23320   3.225   3.425   6.432 -0.1383 -0.1120 -0.5981
 3896SOL    HW123321   3.192   3.410   6.343 -1.8016  0.9055 -0.1395
 3896SOL    HW223322   3.302   3.368   6.432 -0.4287 -0.5007  0.7414
 3897SOL     OW23323   4.295   1.443  10.719 -0.1984 -0.1816  1.0320
 3897SOL    HW123324   4.375   1.392  10.717  0.6521  1.3130 -4.0953
 3897SOL    HW223325   4.277   1.478  10.806 -0.6569  0.6522  0.6035
 3898SOL     OW23326   1.818   2.813   2.039 -0.1123 -0.0985 -0.1252
 3898SOL    HW123327   1.910   2.838   2.049  0.6188 -1.8745 -2.4143
 3898SOL    HW223328   1.775   2.881   1.988  1.8800  0.6363 -0.8074
 3899SOL     OW23329   1.385   3.738   4.695  0.9624 -0.5425 -0.1203
 3899SOL    HW123330   1.395   3.826   4.658 -0.0225 -0.4764 -0.2235
 3899SOL    HW223331   1.406   3.760   4.786 -1.7634  0.4068  0.2794
 3900SOL     OW23332   4.651   1.055   5.271  0.8103  0.5938  0.0002
 3900SOL    HW123333   0.003   1.065   5.253  0.6058  2.1075 -0.2342
 3900SOL    HW223334   4.649   0.960   5.264  0.7023  0.4164  2.5405
 3901SOL     OW23335   3.983   0.681   2.641 -0.0847  0.6509 -0.0710
 3901SOL    HW123336   4.045   0.608   2.652 -0.8251  0.5986  3.6330
 3901SOL    HW223337   3.906   0.640   2.680 -0.3216  0.3516 -0.8640
 3902SOL     OW23338   2.658   0.160   9.611 -0.5011 -0.8670 -0.6370
 3902SOL    HW123339   2.731   0.138   9.554  0.3853  0.3697  0.0266
 3902SOL    HW223340   2.694   0.247   9.627 -2.0843 -0.6915  1.9340
 3903SOL     OW23341   1.230   1.601   2.593  0.3555  0.1717  0.2130
 3903SOL    HW123342   1.229   1.688   2.554  0.2630 -0.9701 -2.3771
 3903SOL    HW223343   1.270   1.617   2.678  0.0533 -1.2256  0.6291
 3904SOL     OW23344   1.458   1.484  12.244  0.0848  0.3211 -0.2696
 3904SOL    HW123345   1.444   1.528  12.160 -1.4063  0.5138  0.0859
 3904SOL    HW223346   1.421   1.398  12.225  1.6133 -1.0655  3.0163
 3905SOL     OW23347   2.566   3.076   6.770 -1.1367  0.0157  0.4065
 3905SOL    HW123348   2.541   3.157   6.726  2.9508  1.5981  0.9449
 3905SOL    HW223349   2.589   3.020   6.696 -0.6641  0.2890  0.3499
 3906SOL     OW23350   4.281   2.003   4.088  0.1762 -0.4632 -0.6386
 3906SOL    HW123351   4.281   1.923   4.036 -0.6996  0.0229 -1.3869
 3906SOL    HW223352   4.195   2.043   4.071  1.0175  2.2419  1.5792
 3907SOL     OW23353   4.018   4.640  16.756  0.0275  0.1766 -0.1766
 3907SOL    HW123354   4.043   4.617  16.667  1.1596  0.5050  0.0521
 3907SOL    HW223355   3.983   4.729  16.747 -2.0856 -0.4345  1.8933
 3908SOL     OW23356   3.667   0.527  14.584  0.0379 -0.2956  0.1655
 3908SOL    HW123357   3.737   0.582  14.618 -1.0168  1.5714 -0.6650
 3908SOL    HW223358   3.627   0.588  14.522 -1.5026  0.1230  1.5632
 3909SOL     OW23359   3.696   3.115   2.007  0.6973 -0.0710  0.1490
 3909SOL    HW123360   3.666   3.136   2.096  0.9440 -0.3797  0.3026
 3909SOL    HW223361   3.770   3.060   2.032  0.9361 -0.0538 -0.5334
 3910SOL     OW23362   1.297   2.505   7.107 -0.4942  0.5485 -0.1365
 3910SOL    HW123363   1.387   2.530   7.127 -0.7972  1.0263  0.6359
 3910SOL    HW223364   1.263   2.508   7.196 -1.1353  0.5744 -0.3823
 3911SOL     OW23365   2.638   3.687   4.555  0.3600  0.1417  0.1696
 3911SOL    HW123366   2.672   3.742   4.484 -0.6257  1.4246  0.7167
 3911SOL    HW223367   2.685   3.608   4.526 -0.3856 -0.4311  0.5200
 3912SOL     OW23368   2.900   1.644   9.213 -0.1903 -0.2071 -0.2960
 3912SOL    HW123369   2.849   1.565   9.198 -1.3706  0.7452 -1.2450
 3912SOL    HW223370   2.985   1.628   9.171 -0.6036  0.3074 -1.3183
 3913SOL     OW23371   2.810   2.261   7.412 -0.1224  0.0711  0.3464
 3913SOL    HW123372   2.875   2.284   7.478 -0.3237  0.6101  0.3514
 3913SOL    HW223373   2.746   2.213   7.465  0.5626 -0.8744  0.3245
 3914SOL     OW23374   2.823   2.387   2.544 -0.1899 -0.3953 -0.0020
 3914SOL    HW123375   2.774   2.466   2.568  0.9860  0.5295 -0.6504
 3914SOL    HW223376   2.882   2.426   2.479 -1.1163  0.0612 -0.5796
 3915SOL     OW23377   2.127   2.649   2.768 -0.0415 -0.8819 -0.2248
 3915SOL    HW123378   2.158   2.561   2.790 -1.0151 -0.9972  0.7136
 3915SOL    HW223379   2.209   2.697   2.761 -1.0881  1.1202  1.2013
 3916SOL     OW23380   0.345   1.586   6.436  0.3504 -0.0462  0.5193
 3916SOL    HW123381   0.401   1.544   6.501 -1.3918 -0.6210  1.6451
 3916SOL    HW223382   0.265   1.606   6.484 -1.1886  0.4983 -2.2574
 3917SOL     OW23383   2.915   0.324   0.936  0.2473  0.2839  0.3306
 3917SOL    HW123384   2.994   0.327   0.883  0.2325  0.2117  0.3047
 3917SOL    HW223385   2.845   0.317   0.871 -0.7271 -0.1383  1.4047
 3918SOL     OW23386   2.327   3.141   8.609  0.3433  0.6519  0.1959
 3918SOL    HW123387   2.339   3.074   8.676 -0.2273  1.4216  1.0728
 3918SOL    HW223388   2.233   3.142   8.590  0.2238 -1.4395  0.6639
 3919SOL     OW23389   0.171   3.492  11.237 -0.3068  0.1246  0.0399
 3919SOL    HW123390   0.164   3.582  11.205 -0.3026  1.3174  3.3930
 3919SOL    HW223391   0.182   3.447  11.153 -3.3330 -1.5623  0.5567
 3920SOL     OW23392   4.540   0.726  11.073 -0.0178 -0.3020  0.5577
 3920SOL    HW123393   4.577   0.814  11.086  0.9951 -0.7653  0.8139
 3920SOL    HW223394   4.544   0.722  10.978  3.3844 -1.0666  0.7455
 3921SOL     OW23395   3.965   0.344  14.357 -0.6641 -0.2768 -0.2773
 3921SOL    HW123396   3.879   0.304  14.358 -1.3959  1.2823 -2.7261
 3921SOL    HW223397   3.980   0.333  14.263 -0.0610  2.1199 -0.4795
 3922SOL     OW23398   3.005   1.615   7.875  0.0273  0.4049 -0.1879
 3922SOL    HW123399   2.990   1.667   7.954 -0.1641 -1.1937  0.8334
 3922SOL    HW223400   2.917   1.584   7.853 -0.1769  0.9874 -0.2026
 3923SOL     OW23401   4.733   1.269   6.360  0.2606  0.5210 -0.3879
 3923SOL    HW123402   4.730   1.318   6.278 -0.3302  0.6074 -0.3139
 3923SOL    HW223403   0.017   1.180   6.333 -0.0098  0.7887 -1.5184
 3924SOL     OW23404   2.505   1.322   4.462 -0.5299 -0.3760 -0.1373
 3924SOL    HW123405   2.425   1.342   4.412  0.8628  0.8543 -1.8723
 3924SOL    HW223406   2.532   1.239   4.421  0.7269  0.9666 -2.0089
 3925SOL     OW23407   3.466   4.510   0.911 -0.0706  0.0423 -0.0934
 3925SOL    HW123408   3.408   4.456   0.858  0.2482 -1.3023  0.9489
 3925SOL    HW223409   3.515   4.442   0.958 -1.8857 -1.0866  0.1655
 3926SOL     OW23410   3.072   1.606   4.171  0.3414 -0.1081  0.2025
 3926SOL    HW123411   3.083   1.680   4.232  0.6146  0.6417 -0.7617
 3926SOL    HW223412   3.082   1.538   4.238 -0.6366 -0.1020  0.3607
 3927SOL     OW23413   3.545   2.978  14.830  0.4982 -0.6207 -0.1247
 3927SOL    HW123414   3.477   3.045  14.830  1.0302 -0.0861 -0.4895
 3927SOL    HW223415   3.566   2.989  14.923  1.5478  0.2188 -0.4691
 3928SOL     OW23416   2.182   1.728   6.409  0.0961  0.2438  0.1495
 3928SOL    HW123417   2.165   1.778   6.329 -1.2333  2.4942  1.8489
 3928SOL    HW223418   2.097   1.692   6.435  0.2075 -0.7560 -0.8703
 3929SOL     OW23419   1.413   0.124  10.519  0.1939  0.3983 -0.3319
 3929SOL    HW123420   1.359   0.116  10.440 -0.2404  1.4308 -0.1474
 3929SOL    HW223421   1.366   0.189  10.571 -2.1015 -2.2055  0.8044
 3930SOL     OW23422   3.661   2.616   7.483  0.3673 -0.4597  0.3042
 3930SOL    HW123423   3.642   2.708   7.462 -0.0224 -0.2337  1.6401
 3930SOL    HW223424   3.675   2.619   7.577 -0.7758  1.0204  0.4253
 3931SOL     OW23425   0.186   0.828   7.213  0.5951 -0.1261  0.3284
 3931SOL    HW123426   0.270   0.784   7.198  1.7034  2.2266 -0.2450
 3931SOL    HW223427   0.140   0.800   7.133  1.2734  0.0169 -0.1075
 3932SOL     OW23428   1.282   2.817   6.772 -0.0783 -0.2494  0.3062
 3932SOL    HW123429   1.282   2.847   6.681 -1.2991  1.7977  0.9800
 3932SOL    HW223430   1.192   2.782   6.772 -0.4692  0.7608 -0.3668
 3933SOL     OW23431   2.849   1.901   8.291  0.3499 -0.0886 -0.0860
 3933SOL    HW123432   2.932   1.889   8.338  1.2117  0.1701 -1.5495
 3933SOL    HW223433   2.841   1.995   8.308 -0.1795 -0.1808  0.1777
 3934SOL     OW23434   3.434   4.655  15.697  0.3445  0.7099  0.0707
 3934SOL    HW123435   3.412   4.726  15.637 -1.7889 -1.3708 -1.6098
 3934SOL    HW223436   3.361   4.596  15.681  1.2684  0.1406 -2.0835
 3935SOL     OW23437   3.742   4.045  14.806 -0.1389  0.0253  0.1975
 3935SOL    HW123438   3.712   4.011  14.722 -0.1636  2.7278 -0.8960
 3935SOL    HW223439   3.670   4.103  14.831  0.7566  0.4817  1.7430
 3936SOL     OW23440   3.302   0.757   5.787  0.3236 -0.6413 -0.0241
 3936SOL    HW123441   3.335   0.669   5.803  0.8544 -0.5420 -0.5542
 3936SOL    HW223442   3.234   0.741   5.721  2.7567  2.3398 -3.2308
 3937SOL     OW23443   0.464   1.369   8.137 -0.4026  0.1235 -0.2366
 3937SOL    HW123444   0.414   1.331   8.209 -0.8966 -2.3512 -1.8901
 3937SOL    HW223445   0.399   1.397   8.072 -1.6317 -0.3373  0.8007
 3938SOL     OW23446   1.803   4.361   9.114  0.7372 -0.4082 -0.1606
 3938SOL    HW123447   1.873   4.415   9.150 -0.2894  0.4333  0.5807
 3938SOL    HW223448   1.798   4.397   9.025  0.2925 -1.7274 -0.6710
 3939SOL     OW23449   2.565   1.371   3.643 -0.0620  0.5462  0.1813
 3939SOL    HW123450   2.617   1.296   3.672  1.1767  0.3751 -2.4995
 3939SOL    HW223451   2.607   1.398   3.561 -0.0624 -0.0585 -0.0104
 3940SOL     OW23452   2.896   2.477   0.117  0.0399  0.5779 -0.0383
 3940SOL    HW123453   2.811   2.446   0.087 -0.8820  2.3116  0.8523
 3940SOL    HW223454   2.906   2.563   0.077  1.0800 -0.4481 -2.0062
 3941SOL     OW23455   2.897   3.423   9.321 -0.1923  0.0599  0.2522
 3941SOL    HW123456   2.818   3.418   9.267 -1.8427 -0.8209  2.7063
 3941SOL    HW223457   2.870   3.506   9.361 -0.9359 -0.1315  0.1607
 3942SOL     OW23458   1.077   2.534  11.308  0.2239 -0.3783 -0.1436
 3942SOL    HW123459   1.028   2.524  11.390  1.6859  2.9982  1.1208
 3942SOL    HW223460   1.114   2.622  11.314 -0.9880  0.2515 -1.8501
 3943SOL     OW23461   3.341   2.314   6.110  0.0353  0.0546  0.6974
 3943SOL    HW123462   3.384   2.357   6.184 -0.2030  0.7930  0.4074
 3943SOL    HW223463   3.283   2.248   6.147 -1.3548  0.7431 -0.2868
 3944SOL     OW23464   1.354   2.997  11.557  0.1619 -0.3841  0.0782
 3944SOL    HW123465   1.370   2.989  11.651  0.7797 -1.2287 -0.0940
 3944SOL    HW223466   1.399   2.916  11.534  2.5958  0.8503  0.5582
 3945SOL     OW23467   0.020   1.909   1.464  0.1794  0.1140  0.0815
 3945SOL    HW123468   4.676   1.918   1.506 -1.1074 -0.0132 -2.5355
 3945SOL    HW223469   0.014   1.834   1.406  3.4608 -0.3558  0.3262
 3946SOL     OW23470   0.989   1.626   3.560 -0.2308 -1.0403 -0.3792
 3946SOL    HW123471   0.918   1.598   3.503 -0.6267  0.1442 -0.4811
 3946SOL    HW223472   0.961   1.583   3.641  0.3713  0.4843  0.6474
 3947SOL     OW23473   1.357   4.379   0.093  0.1888  0.2078 -0.3953
 3947SOL    HW123474   1.292   4.438   0.054 -0.2852 -0.5706 -0.7768
 3947SOL    HW223475   1.354   4.304   0.034  0.5718 -2.0820  2.5078
 3948SOL     OW23476   3.473   4.478   5.196  0.1390  0.0514 -0.4165
 3948SOL    HW123477   3.541   4.538   5.165 -1.1751  1.5396 -0.4239
 3948SOL    HW223478   3.490   4.402   5.140  0.9024  0.8421 -1.2519
 3949SOL     OW23479   4.539   1.628   6.213 -0.3447 -0.4494 -0.6047
 3949SOL    HW123480   4.620   1.664   6.249 -0.3793 -0.9784 -0.0039
 3949SOL    HW223481   4.565   1.538   6.193 -2.2507 -0.8189 -1.4454
 3950SOL     OW23482   3.142   4.446   5.822  0.1273  0.3513 -0.2143
 3950SOL    HW123483   3.137   4.533   5.862  1.4531  1.2311 -1.9553
 3950SOL    HW223484   3.132   4.392   5.901  2.1636  0.1757 -0.0726
 3951SOL     OW23485   2.932   0.116   5.725  0.5781 -0.5644 -0.1479
 3951SOL    HW123486   2.953   0.067   5.804  0.5242  1.2507  0.9853
 3951SOL    HW223487   2.949   0.052   5.655  0.5172  1.0925 -1.6826
 3952SOL     OW23488   3.792   3.509   7.259  0.0199  0.3244 -0.3831
 3952SOL    HW123489   3.699   3.527   7.271  0.0891  0.1308  0.4666
 3952SOL    HW223490   3.821   3.599   7.275  2.4457 -0.1921 -1.9760
 3953SOL     OW23491   4.349   1.327   6.234  0.1233  0.2650 -0.7849
 3953SOL    HW123492   4.352   1.240   6.274  2.6735  0.2482 -1.0024
 3953SOL    HW223493   4.298   1.372   6.301  1.0380 -1.3489  0.9907
 3954SOL     OW23494   3.250   1.589   9.978  0.6331  0.2362  0.3376
 3954SOL    HW123495   3.219   1.666   9.930 -2.3921 -0.1635  1.5970
 3954SOL    HW223496   3.163   1.549   9.973  1.2279 -1.2870  2.3192
 3955SOL     OW23497   0.152   1.697  17.464  0.0238  0.6032  0.1301
 3955SOL    HW123498   0.238   1.707  17.504 -0.1287  0.8892  0.3878
 3955SOL    HW223499   0.158   1.743  17.381  1.4265  6.1663  3.2709
 3956SOL     OW23500   3.455   2.682   3.538 -0.3695 -0.5703  0.2872
 3956SOL    HW123501   3.545   2.654   3.519 -0.1420  0.3375  0.0315
 3956SOL    HW223502   3.410   2.598   3.545 -0.8514 -0.2108  1.5766
 3957SOL     OW23503   1.428   3.424   5.858 -0.0401  0.1488  0.3445
 3957SOL    HW123504   1.392   3.467   5.936  3.2138 -1.2708  2.5999
 3957SOL    HW223505   1.495   3.371   5.901  1.0112  1.1017 -0.1219
 3958SOL     OW23506   4.459   0.418   6.155 -0.4546  0.6631  0.5192
 3958SOL    HW123507   4.532   0.393   6.212  0.1626 -1.6130 -1.2622
 3958SOL    HW223508   4.407   0.339   6.137 -1.4095  1.6665 -1.1529
 3959SOL     OW23509   1.330   2.502   1.717  0.1799  0.0954 -0.5940
 3959SOL    HW123510   1.310   2.408   1.723  1.1129 -0.0478  0.2328
 3959SOL    HW223511   1.243   2.534   1.691 -0.1909 -0.9660 -0.6573
 3960SOL     OW23512   1.339   1.675   1.114  0.0818  0.8178 -0.5131
 3960SOL    HW123513   1.252   1.635   1.111  0.1506  0.6428 -0.1754
 3960SOL    HW223514   1.385   1.591   1.123  0.7006  1.0711 -1.3492
 3961SOL     OW23515   4.200   2.549   6.593 -0.0477  0.0427  0.0074
 3961SOL    HW123516   4.141   2.574   6.664  0.2265 -1.2803  0.7061
 3961SOL    HW223517   4.201   2.456   6.615 -1.6077  0.2081  0.8185
 3962SOL     OW23518   4.360   4.064   2.730 -0.2005 -0.0595  0.3185
 3962SOL    HW123519   4.274   4.106   2.727 -0.4756 -0.6188  0.3061
 3962SOL    HW223520   4.360   4.004   2.655 -0.4157  0.5464 -0.1613
 3963SOL     OW23521   2.712   3.586   9.389  0.3511 -0.2725 -0.4276
 3963SOL    HW123522   2.639   3.533   9.358  1.9104 -2.7051  0.0632
 3963SOL    HW223523   2.682   3.675   9.372 -0.3880 -0.7541 -1.6279
 3964SOL     OW23524   0.827   0.342  12.579  0.0910 -0.3614  0.7388
 3964SOL    HW123525   0.812   0.430  12.614 -0.4692 -0.0721 -0.2202
 3964SOL    HW223526   0.774   0.345  12.499  1.6664  2.3058 -0.2290
 3965SOL     OW23527   1.384   2.370   3.657  0.2431  0.0931  0.1775
 3965SOL    HW123528   1.305   2.328   3.692 -0.0825 -0.2959 -1.0128
 3965SOL    HW223529   1.389   2.344   3.565 -0.4409 -0.5904  0.3319
 3966SOL     OW23530   4.023   4.166   6.515  0.1532  0.1287  0.3416
 3966SOL    HW123531   3.975   4.093   6.554 -0.6553  0.8750  0.7410
 3966SOL    HW223532   3.946   4.216   6.489 -0.3718 -0.5116  0.6611
 3967SOL     OW23533   4.283   0.688   2.375  0.2274  0.5115 -0.1933
 3967SOL    HW123534   4.271   0.756   2.441 -2.0850 -0.5206  0.4871
 3967SOL    HW223535   4.373   0.658   2.387  0.3425  0.0178 -2.3258
 3968SOL     OW23536   2.930   4.161   7.604  0.2851 -0.0891 -0.4578
 3968SOL    HW123537   3.014   4.174   7.561 -0.5530  3.5786 -1.0408
 3968SOL    HW223538   2.921   4.227   7.673 -0.9732 -0.9732  0.2390
 3969SOL     OW23539   4.196   0.353   9.483 -0.2228  0.0381  0.1955
 3969SOL    HW123540   4.147   0.433   9.505  1.6001  1.6476 -1.6370
 3969SOL    HW223541   4.213   0.364   9.390  0.2391  1.5968  0.4666
 3970SOL     OW23542   2.140   4.145   8.777 -0.3350  0.6213 -0.2641
 3970SOL    HW123543   2.068   4.189   8.823 -1.4259 -0.2694 -1.1110
 3970SOL    HW223544   2.081   4.087   8.729 -0.6928 -0.8670  2.0145
 3971SOL     OW23545   0.029   4.143   7.363  0.2471  0.2466  0.4564
 3971SOL    HW123546   4.724   4.106   7.438 -0.2360 -0.0874  0.0008
 3971SOL    HW223547   4.702   4.187   7.312  0.5986 -0.1222 -0.3363
 3972SOL     OW23548   3.180   3.825  17.093 -0.1274 -0.1247  0.0509
 3972SOL    HW123549   3.120   3.804  17.164 -2.0988  0.7961 -1.3249
 3972SOL    HW223550   3.121   3.883  17.044 -0.2892  0.8532  1.3993
 3973SOL     OW23551   3.254   3.326   3.452 -0.5385  0.0290 -0.6335
 3973SOL    HW123552   3.331   3.292   3.497  0.5853  3.7169  0.1702
 3973SOL    HW223553   3.239   3.247   3.400 -2.0265  0.0393 -0.2350
 3974SOL     OW23554   4.622   4.404   2.688  0.4285  0.3539  0.0468
 3974SOL    HW123555   4.603   4.497   2.675 -3.1089 -0.3559  0.2373
 3974SOL    HW223556   4.701   4.417   2.740 -0.9541 -0.0513  2.2130
 3975SOL     OW23557   1.162   4.443   5.555 -0.1114  0.4130  0.0191
 3975SOL    HW123558   1.086   4.409   5.508 -0.0065 -0.9168  0.8016
 3975SOL    HW223559   1.138   4.426   5.646  0.8174  1.9258  0.5447
 3976SOL     OW23560   0.058   2.989   0.814  0.2189 -0.3448 -0.1525
 3976SOL    HW123561   4.707   2.962   0.815  0.7860 -2.2138  2.0164
 3976SOL    HW223562   0.092   2.928   0.749 -1.3056  1.1763 -2.3564
 3977SOL     OW23563   2.632   4.341   6.105 -0.4294 -0.0746 -0.0993
 3977SOL    HW123564   2.667   4.412   6.160  0.0940 -1.4688  1.3894
 3977SOL    HW223565   2.589   4.285   6.169 -0.7195 -0.1987 -0.4067
 3978SOL     OW23566   3.663   0.268   7.885 -0.7459  0.1605 -0.2008
 3978SOL    HW123567   3.587   0.308   7.844 -1.6607 -0.6095  0.7228
 3978SOL    HW223568   3.674   0.194   7.826 -0.1985  0.1255 -0.0638
 3979SOL     OW23569   1.078   4.329   4.213 -0.2959 -0.9185  0.5684
 3979SOL    HW123570   1.051   4.361   4.299  0.5363  0.3501  0.3483
 3979SOL    HW223571   0.998   4.352   4.168  0.3222 -0.1791 -0.1496
 3980SOL     OW23572   1.907   4.659   4.148  0.1649 -0.2064  0.5518
 3980SOL    HW123573   1.858   4.692   4.223 -0.9017  0.5002 -0.4463
 3980SOL    HW223574   1.988   4.709   4.150 -0.1112  0.3525 -2.4377
 3981SOL     OW23575   4.542   0.131   9.351  0.3328 -0.0449  0.3640
 3981SOL    HW123576   4.599   0.208   9.352 -0.1361  0.2999  0.5537
 3981SOL    HW223577   4.495   0.151   9.432  0.3077  2.4634 -0.2493
 3982SOL     OW23578   4.108   1.515   5.516  0.0158  0.0481 -0.8109
 3982SOL    HW123579   4.160   1.443   5.552  0.1565 -0.2371 -1.5988
 3982SOL    HW223580   4.178   1.580   5.510 -0.2217  0.3398 -0.4068
 3983SOL     OW23581   1.416   4.619   9.530  0.0645 -0.7263  0.5919
 3983SOL    HW123582   1.483   4.641   9.594 -1.0588  3.4766  0.3465
 3983SOL    HW223583   1.440   4.527   9.534  2.1380 -0.2138 -0.3279
 3984SOL     OW23584   1.419   3.412   1.038  0.1582  0.2815  0.4165
 3984SOL    HW123585   1.387   3.502   1.045  3.3692  1.4229  0.1819
 3984SOL    HW223586   1.370   3.378   1.113 -0.7720  0.4998 -0.0931
 3985SOL     OW23587   4.251   1.530   8.305 -0.4441  0.1105 -0.0970
 3985SOL    HW123588   4.261   1.436   8.322 -0.1244 -0.1304 -1.6191
 3985SOL    HW223589   4.176   1.535   8.246 -0.0079  1.7439 -0.5184
 3986SOL     OW23590   3.687   3.853  11.375 -0.0529 -0.1328  0.6571
 3986SOL    HW123591   3.622   3.826  11.311 -0.9029 -0.0201  1.4808
 3986SOL    HW223592   3.755   3.886  11.317  1.6069 -1.4514  1.8268
 3987SOL     OW23593   0.893   3.761   6.816 -0.2641 -0.3546 -0.6594
 3987SOL    HW123594   0.951   3.834   6.795 -1.6800  1.2071  0.8333
 3987SOL    HW223595   0.819   3.805   6.858 -0.2808 -0.2947 -0.7540
 3988SOL     OW23596   2.289   0.477   0.153 -0.2711  0.2666  0.1737
 3988SOL    HW123597   2.317   0.557   0.109  0.9857  0.5882  1.5541
 3988SOL    HW223598   2.355   0.414   0.122 -0.5158 -0.6202  1.4425
 3989SOL     OW23599   4.254   1.509   3.153  0.1196  0.0520  0.1303
 3989SOL    HW123600   4.237   1.510   3.247 -1.3959  1.5641 -0.1410
 3989SOL    HW223601   4.347   1.490   3.161  0.6734  1.9467 -1.6562
 3990SOL     OW23602   4.433   0.515   7.374  0.1097 -0.4262 -0.4336
 3990SOL    HW123603   4.444   0.551   7.463 -2.6341  0.7195 -0.5605
 3990SOL    HW223604   4.450   0.594   7.323 -1.6119 -0.9792 -1.8587
 3991SOL     OW23605   1.136   2.153  10.448 -0.2111 -0.1170 -0.5720
 3991SOL    HW123606   1.219   2.156  10.496  0.5573  0.8248 -1.9370
 3991SOL    HW223607   1.108   2.062  10.446  0.5985 -0.3216 -3.0852
 3992SOL     OW23608   2.736   0.582   6.137 -0.1586  0.0542  0.2034
 3992SOL    HW123609   2.678   0.658   6.135 -2.1683 -1.4962 -0.6719
 3992SOL    HW223610   2.680   0.511   6.170 -0.8786  0.4087 -0.2508
 3993SOL     OW23611   1.278   4.636   6.901  0.0476  0.2953 -0.2969
 3993SOL    HW123612   1.211   4.599   6.959  0.4424 -0.9674 -0.6356
 3993SOL    HW223613   1.319   4.559   6.862  0.4376 -0.9084  2.4405
 3994SOL     OW23614   2.659   2.390  13.880  0.2365 -0.3842 -0.1622
 3994SOL    HW123615   2.661   2.480  13.913  1.3031 -0.1017 -0.9806
 3994SOL    HW223616   2.569   2.390  13.847 -0.1937 -0.1533  1.0005
 3995SOL     OW23617   2.093   0.139   4.185  0.2899 -0.0465 -0.2716
 3995SOL    HW123618   2.188   0.150   4.190 -0.2952  2.7553  4.0206
 3995SOL    HW223619   2.070   0.186   4.264 -1.9854 -1.5924 -0.0148
 3996SOL     OW23620   3.287   0.217  14.883  0.0058 -0.0964  0.2714
 3996SOL    HW123621   3.202   0.243  14.848 -0.5572 -0.9715  0.9701
 3996SOL    HW223622   3.344   0.294  14.881 -0.4952  0.3256  2.4114
 3997SOL     OW23623   3.114   1.750  13.561 -0.5399  0.3581  0.2266
 3997SOL    HW123624   3.145   1.779  13.647 -0.0819  0.9647 -0.1444
 3997SOL    HW223625   3.130   1.831  13.513  2.8352  0.0846  0.8498
 3998SOL     OW23626   2.446   2.058   8.066 -0.5881 -0.0757  0.1155
 3998SOL    HW123627   2.465   2.113   8.142  0.5498 -0.8248  0.3653
 3998SOL    HW223628   2.385   2.102   8.006  0.8328  1.4569 -0.1706
 3999SOL     OW23629   1.921   2.764   4.015  0.1421  0.1259  0.1301
 3999SOL    HW123630   1.842   2.741   4.064  0.6096 -2.1618 -0.2099
 3999SOL    HW223631   1.976   2.799   4.085  0.2843 -1.3035  0.7116
 4000SOL     OW23632   4.115   1.205  15.833 -0.0853 -0.1445 -0.5374
 4000SOL    HW123633   4.120   1.279  15.773  1.5818  0.6831  0.6417
 4000SOL    HW223634   4.154   1.242  15.912  0.3528  0.9459 -1.2689
 4001SOL     OW23635   0.124   3.823   7.629 -0.2687 -0.1830 -0.5766
 4001SOL    HW123636   0.143   3.731   7.648  0.9729  0.3504  0.7829
 4001SOL    HW223637   0.178   3.820   7.549  0.6803 -0.3827  0.0685
 4002SOL     OW23638   1.354   3.675   8.498 -0.6397  0.8216 -0.0864
 4002SOL    HW123639   1.330   3.728   8.574  0.7744  3.3490 -1.4157
 4002SOL    HW223640   1.355   3.585   8.530 -0.8996  0.8836  0.0961
 4003SOL     OW23641   3.867   4.553  15.700  0.3803 -0.4644  0.3599
 4003SOL    HW123642   3.914   4.572  15.619  0.1160 -1.1577  0.0445
 4003SOL    HW223643   3.939   4.561  15.763  1.2051  0.0945 -0.6427
 4004SOL     OW23644   1.755   1.604   2.463  0.4598 -0.2405 -0.3222
 4004SOL    HW123645   1.691   1.673   2.480  0.5194  0.1523 -1.6460
 4004SOL    HW223646   1.819   1.612   2.534 -3.8319  1.3111  3.3579
 4005SOL     OW23647   0.849   0.620  11.524  0.4593  0.4523 -0.0187
 4005SOL    HW123648   0.831   0.711  11.544 -1.8189 -0.2080  0.9204
 4005SOL    HW223649   0.828   0.584  11.611 -0.6269 -0.2780 -0.5829
 4006SOL     OW23650   3.539   1.012   7.520  0.3019 -0.2896 -0.2432
 4006SOL    HW123651   3.461   1.035   7.570  0.1907 -1.7382  0.2484
 4006SOL    HW223652   3.581   1.099   7.517 -3.4925  1.5609  0.4045
 4007SOL     OW23653   0.401   0.674   8.924 -0.2023  0.5169 -0.8610
 4007SOL    HW123654   0.419   0.596   8.871  0.1202  1.0035 -1.4509
 4007SOL    HW223655   0.316   0.646   8.959 -0.7731  1.9042 -1.1588
 4008SOL     OW23656   4.500   1.121   3.301  0.2500  0.4945  0.3617
 4008SOL    HW123657   4.593   1.131   3.319  0.3978 -0.8745  0.3490
 4008SOL    HW223658   4.491   1.178   3.224  2.3842 -2.0574 -1.7775
 4009SOL     OW23659   4.035   1.681   2.186 -0.2458  0.0892 -0.2771
 4009SOL    HW123660   3.991   1.701   2.103 -1.6360 -1.5376  0.0592
 4009SOL    HW223661   3.955   1.668   2.237 -0.8773 -1.2168 -1.5932
 4010SOL     OW23662   4.084   4.176  11.632  0.0974  0.3885  0.1443
 4010SOL    HW123663   3.992   4.163  11.609  0.4825  0.7831 -1.6094
 4010SOL    HW223664   4.091   4.270  11.650 -1.3651  0.1103  2.2221
 4011SOL     OW23665   0.822   1.848  17.648  0.0339  0.5290 -0.0094
 4011SOL    HW123666   0.883   1.789  17.692  1.5891  0.8683 -1.7640
 4011SOL    HW223667   0.882   1.920  17.635  1.8540 -0.8347  0.8153
 4012SOL     OW23668   2.341   0.998  11.238  0.3836  0.7966 -0.4073
 4012SOL    HW123669   2.433   1.016  11.258 -0.1689  3.1039 -0.0109
 4012SOL    HW223670   2.318   1.057  11.166  1.7121  0.1682 -1.3401
 4013SOL     OW23671   4.443   1.334   6.971  0.2292  0.2804  0.4852
 4013SOL    HW123672   4.503   1.259   6.978 -1.7881 -1.5958 -2.1708
 4013SOL    HW223673   4.477   1.393   7.038  2.0400 -1.4423  1.1106
 4014SOL     OW23674   0.556   1.673   6.272 -0.2541 -0.4025  0.0226
 4014SOL    HW123675   0.472   1.658   6.317 -0.5101  0.1833 -0.2602
 4014SOL    HW223676   0.607   1.693   6.351 -0.1885  0.0614 -0.1377
 4015SOL     OW23677   1.246   1.571   3.795  0.2983 -0.0045  0.3855
 4015SOL    HW123678   1.201   1.545   3.876  3.6618 -1.2748  1.8359
 4015SOL    HW223679   1.182   1.625   3.750 -1.5926 -0.5734  2.3258
 4016SOL     OW23680   3.627   4.713   5.077 -0.4278  0.4478  0.3903
 4016SOL    HW123681   3.671   0.050   5.043 -1.9120  1.3943  0.6250
 4016SOL    HW223682   3.537   4.738   5.052 -0.9710 -2.1417 -0.2841
 4017SOL     OW23683   3.504   2.430   7.306 -0.8630  0.0696  0.4703
 4017SOL    HW123684   3.562   2.496   7.344  0.9704 -1.5218  0.4189
 4017SOL    HW223685   3.513   2.359   7.369  0.3448  0.2483  0.4993
 4018SOL     OW23686   0.777   0.266   7.792  0.0199  0.1900 -0.1110
 4018SOL    HW123687   0.701   0.300   7.840 -0.9646 -0.3999 -1.2386
 4018SOL    HW223688   0.751   0.179   7.761 -1.7712  0.3165  1.0571
 4019SOL     OW23689   2.628   3.639   4.970  0.1509 -0.1614  0.1694
 4019SOL    HW123690   2.603   3.684   4.890  0.0052 -0.1125  0.2446
 4019SOL    HW223691   2.555   3.656   5.028 -0.8875 -1.7059 -0.6644
 4020SOL     OW23692   1.130   2.813   3.970  0.0784 -0.3976 -0.2838
 4020SOL    HW123693   1.145   2.867   4.048  2.5530  0.3933 -1.3190
 4020SOL    HW223694   1.085   2.742   4.017 -0.1894 -1.3083 -1.9163
 4021SOL     OW23695   3.901   2.292   0.900 -0.1752 -0.2264 -0.5132
 4021SOL    HW123696   3.928   2.270   0.811 -0.0845 -1.8675 -0.0798
 4021SOL    HW223697   3.837   2.221   0.897  1.7893 -1.9818 -1.2646
 4022SOL     OW23698   4.350   3.307   3.089  0.7241  0.4167 -0.2061
 4022SOL    HW123699   4.336   3.397   3.117  1.5856  0.7003 -0.6870
 4022SOL    HW223700   4.395   3.312   3.004  0.8481 -1.4452 -0.2593
 4023SOL     OW23701   2.928   2.325   8.684 -0.3739 -0.5441 -0.2761
 4023SOL    HW123702   2.942   2.365   8.770  0.3817  2.6279 -1.8686
 4023SOL    HW223703   2.853   2.267   8.697 -0.8938  0.0869 -0.4354
 4024SOL     OW23704   4.694   3.438   3.296 -0.4084  0.0091 -0.4116
 4024SOL    HW123705   0.042   3.472   3.297 -0.7010  0.7778  0.3038
 4024SOL    HW223706   4.697   3.380   3.220  0.9746 -1.6740  0.9248
 4025SOL     OW23707   3.452   0.952   2.328 -0.4659 -0.4066  0.0985
 4025SOL    HW123708   3.445   0.858   2.345 -2.0817  0.1766  2.7104
 4025SOL    HW223709   3.481   0.984   2.414 -0.8301 -2.0603  0.8382
 4026SOL     OW23710   0.987   3.403   9.014  0.2718  0.6498  0.1708
 4026SOL    HW123711   0.902   3.363   9.032  1.3756 -0.7432  2.2982
 4026SOL    HW223712   0.992   3.392   8.919  0.6503 -0.7582  0.3559
 4027SOL     OW23713   3.899   3.226  14.075  0.1391 -0.0275 -0.2982
 4027SOL    HW123714   3.913   3.150  14.132  0.0258 -0.4029 -0.7723
 4027SOL    HW223715   3.892   3.182  13.991  0.7465  1.9381 -1.3763
 4028SOL     OW23716   4.427   0.181  13.921 -0.2066 -0.1735  0.3624
 4028SOL    HW123717   4.477   0.131  13.857 -2.6063 -2.1153  0.0190
 4028SOL    HW223718   4.341   0.194  13.883 -0.4606  1.7078  1.5685
 4029SOL     OW23719   3.234   2.080  15.279  0.4983  0.3035  0.0305
 4029SOL    HW123720   3.191   2.011  15.227 -1.4789  1.3009  0.3463
 4029SOL    HW223721   3.287   2.137  15.223 -0.4050  1.4757  0.3767
 4030SOL     OW23722   3.776   4.246   5.266  0.1537  0.2340  0.2006
 4030SOL    HW123723   3.723   4.249   5.187 -0.7253  0.2000  0.7878
 4030SOL    HW223724   3.830   4.171   5.243  0.0124  0.6530 -1.4850
 4031SOL     OW23725   2.418   0.289  11.060 -0.1883 -0.0788 -0.1737
 4031SOL    HW123726   2.372   0.373  11.065  1.4085  0.7768  0.3321
 4031SOL    HW223727   2.397   0.244  10.978 -0.2931 -0.6762  0.1823
 4032SOL     OW23728   4.453   2.427   9.430  0.1748 -0.6997 -0.1988
 4032SOL    HW123729   4.538   2.382   9.429  0.4312 -0.2349  0.8312
 4032SOL    HW223730   4.460   2.489   9.358 -0.3164 -0.5978 -0.1618
 4033SOL     OW23731   4.132   3.772   2.044 -0.5004  0.3961  0.0061
 4033SOL    HW123732   4.189   3.701   2.016 -2.4046 -1.1952  0.1077
 4033SOL    HW223733   4.048   3.742   2.008 -0.5563 -1.3323  1.5849
 4034SOL     OW23734   4.064   0.954   2.632  0.3600  0.1273 -0.1241
 4034SOL    HW123735   4.061   0.860   2.615  1.4750 -0.0505  0.6592
 4034SOL    HW223736   4.009   0.962   2.710  0.9466  0.3008  0.2685
 4035SOL     OW23737   3.981   2.100   0.258  0.0060 -0.6697 -0.5164
 4035SOL    HW123738   4.067   2.130   0.230 -0.8578  1.3391 -1.0073
 4035SOL    HW223739   3.915   2.154   0.215 -2.4404 -3.4151 -0.2291
 4036SOL     OW23740   4.059   3.058  15.203 -0.0371  0.2880 -0.0527
 4036SOL    HW123741   4.077   3.130  15.142  0.0877  0.4646  0.1963
 4036SOL    HW223742   3.964   3.048  15.192  0.5199 -3.5311 -1.3949
 4037SOL     OW23743   3.746   1.238   9.121 -0.2751 -0.4630 -0.5893
 4037SOL    HW123744   3.744   1.326   9.084  0.2445 -0.6182 -0.9863
 4037SOL    HW223745   3.839   1.225   9.103  0.5436  4.2626  0.1150
 4038SOL     OW23746   4.100   2.146   3.939  0.8072  0.1151 -0.0578
 4038SOL    HW123747   4.057   2.116   3.859 -1.2492 -1.9589  1.8474
 4038SOL    HW223748   4.181   2.185   3.905  1.9803 -2.6309 -0.4352
 4039SOL     OW23749   1.114   4.529   7.347 -0.2218  0.2632 -0.2783
 4039SOL    HW123750   1.148   4.519   7.436  1.6445 -0.8926 -1.1299
 4039SOL    HW223751   1.031   4.569   7.374  0.0175  1.0146 -0.6761
 4040SOL     OW23752   3.015   4.226  15.442 -0.1262 -0.7119 -0.4009
 4040SOL    HW123753   2.973   4.291  15.385  1.2759  0.7316  0.2173
 4040SOL    HW223754   3.099   4.211  15.399 -0.3212 -1.3528 -0.5675
 4041SOL     OW23755   0.743   2.836  13.725  0.3488  0.0168  0.0119
 4041SOL    HW123756   0.731   2.906  13.789 -2.5062  0.4392 -0.9559
 4041SOL    HW223757   0.786   2.768  13.776 -0.1162  0.4914  1.0346
 4042SOL     OW23758   0.282   3.424   6.990 -0.3201 -0.4725  0.0837
 4042SOL    HW123759   0.228   3.380   7.057 -1.0620 -1.2309 -1.0186
 4042SOL    HW223760   0.297   3.342   6.943  3.0438  0.2570 -0.1068
 4043SOL     OW23761   2.244   3.737   7.691 -0.2332 -0.4330 -0.0044
 4043SOL    HW123762   2.286   3.816   7.657 -0.3245 -0.6368 -0.5833
 4043SOL    HW223763   2.201   3.774   7.768  0.8258  1.5227 -0.3541
 4044SOL     OW23764   3.057   2.176   8.509 -0.2295  0.0583 -0.4236
 4044SOL    HW123765   3.028   2.230   8.583 -0.2064  1.9750 -1.8337
 4044SOL    HW223766   2.988   2.186   8.444  0.1235  3.4962 -0.2384
 4045SOL     OW23767   1.994   4.164   4.240  0.0291  0.4342 -0.2442
 4045SOL    HW123768   2.004   4.159   4.145  3.0337  0.7705  0.0407
 4045SOL    HW223769   1.984   4.257   4.256 -2.4567  0.6061 -2.7683
 4046SOL     OW23770   3.102   1.765   3.515 -0.2766 -0.2325 -0.2615
 4046SOL    HW123771   3.022   1.813   3.536 -0.3655 -0.4190 -0.1706
 4046SOL    HW223772   3.093   1.758   3.420  0.3905  1.0942 -0.4226
 4047SOL     OW23773   1.549   2.101  13.162 -0.2919  0.0004  0.2109
 4047SOL    HW123774   1.584   2.145  13.239 -0.0286 -1.7185  1.0731
 4047SOL    HW223775   1.611   2.028  13.161 -0.2330  0.0690 -1.5685
 4048SOL     OW23776   0.598   4.536   3.170 -0.0216  0.1296 -0.0826
 4048SOL    HW123777   0.687   4.538   3.134  0.1383 -1.5280  0.2116
 4048SOL    HW223778   0.566   4.613   3.122 -1.3322  0.0211  0.6224
 4049SOL     OW23779   1.337   1.462   6.242  0.1063  0.1997 -0.0435
 4049SOL    HW123780   1.363   1.380   6.200  1.1517  1.1047 -1.1468
 4049SOL    HW223781   1.304   1.508   6.164 -0.8910  1.4992  1.1478
 4050SOL     OW23782   3.767   3.124  17.232 -0.1116 -0.4961  0.4073
 4050SOL    HW123783   3.841   3.137  17.291  1.0929 -1.8731 -0.7801
 4050SOL    HW223784   3.709   3.196  17.258 -1.7373 -1.5484 -0.2988
 4051SOL     OW23785   0.873   4.305   6.326 -0.0929 -0.3034  0.4495
 4051SOL    HW123786   0.862   4.210   6.322  0.3011 -0.3257 -0.0532
 4051SOL    HW223787   0.966   4.318   6.311 -0.1930 -0.3050 -0.2041
 4052SOL     OW23788   2.769   1.836   3.262 -0.3741 -0.0681 -0.9119
 4052SOL    HW123789   2.806   1.923   3.246 -0.6406 -0.2789 -2.5917
 4052SOL    HW223790   2.837   1.779   3.226  0.2100 -0.5798  0.9861
 4053SOL     OW23791   1.875   3.449   2.020  0.6056  0.0334  0.1127
 4053SOL    HW123792   1.826   3.460   2.102  0.8820  0.9040  0.1622
 4053SOL    HW223793   1.944   3.392   2.052 -0.7525 -0.8919  1.3863
 4054SOL     OW23794   2.973   1.999  15.990  0.9510  0.1328 -0.3483
 4054SOL    HW123795   3.053   1.962  16.028  0.1500  0.3119  1.5182
 4054SOL    HW223796   2.913   1.994  16.064 -1.4169  3.3841 -2.0707
 4055SOL     OW23797   1.284   4.161  12.893  0.4153 -0.3263 -0.2299
 4055SOL    HW123798   1.349   4.230  12.899 -0.2294  0.4229 -1.6550
 4055SOL    HW223799   1.210   4.221  12.882  1.1545  0.7474  0.6639
 4056SOL     OW23800   1.930   1.437  11.979  0.1126  0.1546  0.0102
 4056SOL    HW123801   1.888   1.375  12.038 -0.1415  0.6784  0.3862
 4056SOL    HW223802   1.950   1.379  11.905 -1.7206 -0.8444  0.3007
 4057SOL     OW23803   3.216   3.670   0.437 -0.8917  0.5185  0.1410
 4057SOL    HW123804   3.124   3.673   0.413 -0.4290  0.2324 -1.6839
 4057SOL    HW223805   3.252   3.728   0.371 -0.4482 -0.4027 -0.4252
 4058SOL     OW23806   2.347   0.412   6.029 -0.3030 -0.2155 -0.2642
 4058SOL    HW123807   2.268   0.392   6.077  0.3507 -1.5783  0.2389
 4058SOL    HW223808   2.413   0.367   6.082  0.7156 -0.1851 -1.5051
 4059SOL     OW23809   4.153   4.357   2.432  0.1853 -0.1718  0.2712
 4059SOL    HW123810   4.173   4.448   2.413 -1.1716  0.1233  0.2646
 4059SOL    HW223811   4.209   4.348   2.509  3.4523 -0.3622 -2.0973
 4060SOL     OW23812   1.073   0.165   7.916  0.6725  0.3634  0.0469
 4060SOL    HW123813   1.008   0.231   7.889  1.3690  1.1332  0.2360
 4060SOL    HW223814   1.113   0.140   7.833 -0.5979 -1.2864 -0.0540
 4061SOL     OW23815   1.183   0.077   1.378  0.7330 -0.4444  0.2013
 4061SOL    HW123816   1.221   0.146   1.432 -1.5573  0.6646  0.4030
 4061SOL    HW223817   1.158   0.129   1.302 -1.8180 -0.2779  1.1546
 4062SOL     OW23818   1.769   3.463   7.388  0.3945 -0.3694  0.1832
 4062SOL    HW123819   1.757   3.368   7.390 -1.2964 -0.1600  0.1868
 4062SOL    HW223820   1.863   3.475   7.377  0.5478  0.3068  2.2223
 4063SOL     OW23821   0.066   3.110  14.415 -1.0083 -0.7430  0.4456
 4063SOL    HW123822   0.052   3.198  14.382  0.6838 -0.0635  1.5503
 4063SOL    HW223823   0.153   3.091  14.381 -1.9717  1.1667 -3.0797
 4064SOL     OW23824   1.664   2.992   2.964  0.0497 -0.4278  0.4520
 4064SOL    HW123825   1.733   2.950   2.913 -1.5446 -0.7077 -1.4703
 4064SOL    HW223826   1.591   2.932   2.948 -0.3558  0.5404 -1.3578
 4065SOL     OW23827   2.868   4.009   8.965 -0.2958  0.4995 -0.6338
 4065SOL    HW123828   2.811   4.085   8.972 -0.8707  0.0365 -0.2340
 4065SOL    HW223829   2.811   3.942   8.927  0.7342  0.2425 -1.7014
 4066SOL     OW23830   3.683   2.411   9.817  0.7198  0.3089 -0.0457
 4066SOL    HW123831   3.657   2.423   9.908  0.3449  0.7665 -0.2140
 4066SOL    HW223832   3.688   2.499   9.780 -1.0221  0.5932  0.4145
 4067SOL     OW23833   1.094   2.261   6.181  0.3358  0.1509  0.2174
 4067SOL    HW123834   1.043   2.183   6.162  2.2216 -0.9964 -0.0106
 4067SOL    HW223835   1.072   2.281   6.272  0.4566 -0.7596  0.4463
 4068SOL     OW23836   0.469   2.055   5.476 -0.1443 -0.1726 -0.1115
 4068SOL    HW123837   0.389   2.107   5.482 -0.9751 -1.3196 -1.1222
 4068SOL    HW223838   0.437   1.966   5.486 -0.0119 -0.1767  0.2814
 4069SOL     OW23839   0.537   0.092   7.564  0.2566  0.2279 -0.0187
 4069SOL    HW123840   0.559   0.064   7.475 -2.1248  0.0783 -0.5749
 4069SOL    HW223841   0.602   0.052   7.622  1.0087 -0.1123 -1.0975
 4070SOL     OW23842   0.086   3.278  16.925  0.1821  0.0707 -0.4010
 4070SOL    HW123843   0.147   3.305  16.857 -1.5936 -0.5599 -2.2094
 4070SOL    HW223844   0.097   3.183  16.922  0.0157 -0.0330  2.3073
 4071SOL     OW23845   0.550   4.035   3.369 -0.0548  0.3539  0.1894
 4071SOL    HW123846   0.472   4.052   3.317  0.1075  0.3477 -0.0605
 4071SOL    HW223847   0.524   3.951   3.405  0.3737  1.7868  3.7993
 4072SOL     OW23848   3.977   0.850  11.944 -0.4871 -0.4392 -0.9312
 4072SOL    HW123849   3.954   0.760  11.921  0.7109 -0.8509 -0.5531
 4072SOL    HW223850   3.946   0.854  12.034 -1.1708 -0.7951 -1.1509
 4073SOL     OW23851   0.586   1.752   5.384 -0.2738 -0.4259  0.6935
 4073SOL    HW123852   0.578   1.744   5.479  0.7877  0.1569  0.8257
 4073SOL    HW223853   0.519   1.688   5.359 -0.4014 -0.4172  1.0066
 4074SOL     OW23854   1.568   2.436   8.161  0.6119  0.9231  0.3007
 4074SOL    HW123855   1.497   2.466   8.218  0.2155  2.0195 -0.7674
 4074SOL    HW223856   1.550   2.344   8.141 -0.4556  1.1857  0.0351
 4075SOL     OW23857   3.381   1.191   5.043  0.3715  0.9589  0.3089
 4075SOL    HW123858   3.407   1.099   5.046 -0.1011  0.8731  1.9390
 4075SOL    HW223859   3.460   1.221   5.089  0.3952  1.2130  0.1026
 4076SOL     OW23860   1.662   0.084   5.212  0.3257 -0.7114 -0.5268
 4076SOL    HW123861   1.730   0.150   5.197  1.5387 -2.0563 -0.9671
 4076SOL    HW223862   1.648   0.090   5.306  0.4871  1.2728 -0.6283
 4077SOL     OW23863   1.083   1.909  14.014 -0.1763 -0.0561  0.0456
 4077SOL    HW123864   1.048   1.841  13.957 -1.1870  1.0908 -0.7113
 4077SOL    HW223865   1.176   1.890  14.000 -0.1839  0.4598 -0.7381
 4078SOL     OW23866   2.476   1.543   7.824  0.2049 -0.0231  0.4508
 4078SOL    HW123867   2.416   1.545   7.749  0.6628 -0.6865  0.0691
 4078SOL    HW223868   2.428   1.488   7.887 -0.7742 -0.1808 -0.4285
 4079SOL     OW23869   3.180   0.741   2.084  0.0328  0.4515  0.3910
 4079SOL    HW123870   3.157   0.732   2.176  1.3840 -0.1242  0.6582
 4079SOL    HW223871   3.175   0.652   2.049 -0.6905  0.1197  1.3567
 4080SOL     OW23872   1.026   1.145   5.144 -0.1814 -0.2188  0.6307
 4080SOL    HW123873   1.022   1.240   5.132  1.4341 -0.0831  1.1833
 4080SOL    HW223874   0.963   1.134   5.215 -1.2027  1.6522  0.0173
 4081SOL     OW23875   1.773   0.128   7.611 -0.4819 -0.0355 -0.0229
 4081SOL    HW123876   1.789   0.145   7.518  1.4392 -0.7147  0.1844
 4081SOL    HW223877   1.758   0.218   7.641 -1.9522 -0.9190  1.8897
 4082SOL     OW23878   1.978   1.419  13.073  0.0015  0.1252  0.7951
 4082SOL    HW123879   1.992   1.339  13.023  3.0852  1.3552 -0.2873
 4082SOL    HW223880   2.053   1.410  13.132  1.5794  1.0977 -1.0748
 4083SOL     OW23881   2.240   0.531   3.946  0.3367 -0.0236  0.2537
 4083SOL    HW123882   2.160   0.480   3.934 -0.8026  1.6525  0.5930
 4083SOL    HW223883   2.266   0.513   4.036  1.4264  4.3172  0.8368
 4084SOL     OW23884   1.085   3.732   9.895  0.2209  0.1891  0.2676
 4084SOL    HW123885   1.177   3.711   9.876  0.4923 -0.0180  1.8376
 4084SOL    HW223886   1.092   3.775   9.980  0.3069  0.5456  0.0839
 4085SOL     OW23887   4.239   2.271   6.673 -0.3452  0.1557 -0.0313
 4085SOL    HW123888   4.235   2.278   6.768  1.1121 -1.3096  0.1356
 4085SOL    HW223889   4.188   2.198   6.639 -0.1807  0.6937 -1.4810
 4086SOL     OW23890   4.261   0.025   6.121  0.1684 -0.0287 -0.3343
 4086SOL    HW123891   4.213   4.716   6.187 -1.2264  0.6945 -0.8094
 4086SOL    HW223892   4.254   0.110   6.164 -0.7843  0.0127 -0.5661
 4087SOL     OW23893   4.424   2.623  12.720 -0.4287 -0.0512  0.2939
 4087SOL    HW123894   4.491   2.634  12.652  0.0439 -0.9418  0.6203
 4087SOL    HW223895   4.384   2.710  12.715 -4.0160 -1.6174  1.8153
 4088SOL     OW23896   4.079   3.699  16.267 -0.7498  0.4638 -0.5617
 4088SOL    HW123897   4.051   3.765  16.204 -0.5703  0.0947 -1.0279
 4088SOL    HW223898   4.003   3.649  16.298  0.1408 -0.4548  0.1488
 4089SOL     OW23899   2.648   1.532   1.048 -0.0014 -0.1105 -0.1817
 4089SOL    HW123900   2.586   1.561   0.981  1.0259  3.7585  0.5778
 4089SOL    HW223901   2.608   1.455   1.088  1.1537 -0.9390 -0.6277
 4090SOL     OW23902   4.098   1.094   8.611  0.0102  0.1879 -0.5825
 4090SOL    HW123903   4.071   1.007   8.582  1.8564 -0.8309  0.7386
 4090SOL    HW223904   4.190   1.079   8.632  0.3796  2.0448 -0.8193
 4091SOL     OW23905   0.063   3.252  10.359 -0.3231 -0.2807 -0.1052
 4091SOL    HW123906   4.721   3.288  10.389 -0.2349 -0.0084 -0.1841
 4091SOL    HW223907   0.032   3.164  10.341  1.1803 -0.4985 -1.6615
 4092SOL     OW23908   1.795   3.658   3.078  0.4560  0.2762 -0.0151
 4092SOL    HW123909   1.753   3.618   3.155 -0.1626 -0.9540 -0.9853
 4092SOL    HW223910   1.720   3.668   3.020  0.5341 -0.8340 -0.3198
 4093SOL     OW23911   4.301   2.288   0.385 -0.0403  0.5327 -0.1900
 4093SOL    HW123912   4.242   2.363   0.393  1.1457  1.1430  2.6465
 4093SOL    HW223913   4.259   2.248   0.309  1.9410  0.0078 -1.0041
 4094SOL     OW23914   0.455   2.044   8.560  0.6954  0.4228  0.7414
 4094SOL    HW123915   0.452   1.951   8.580 -0.6241  0.2928 -0.0681
 4094SOL    HW223916   0.547   2.061   8.579  0.7292 -0.0837  1.0249
 4095SOL     OW23917   2.935   3.324   8.839  0.2762 -0.6488  0.6778
 4095SOL    HW123918   2.941   3.286   8.752  0.7826  1.3199 -0.1580
 4095SOL    HW223919   2.919   3.417   8.825  0.9332 -0.7580 -0.7850
 4096SOL     OW23920   0.071   1.872   4.334  0.0299 -0.9775  0.3396
 4096SOL    HW123921   0.057   1.829   4.250 -1.1287 -0.4445  0.2530
 4096SOL    HW223922   0.106   1.958   4.312 -2.4081  0.1736  0.8710
 4097SOL     OW23923   3.394   3.323   1.716  0.3870  0.1347  0.1082
 4097SOL    HW123924   3.484   3.320   1.749 -0.2667 -0.1385  1.8276
 4097SOL    HW223925   3.347   3.341   1.797  1.8795  0.4492  0.8951
 4098SOL     OW23926   2.872   4.515   4.512  0.2235 -0.2827  0.0489
 4098SOL    HW123927   2.956   4.548   4.542  1.3530 -2.0020 -1.2595
 4098SOL    HW223928   2.903   4.444   4.457 -0.6517 -0.9269  0.3907
 4099SOL     OW23929   2.148   0.688  12.701 -0.2767 -0.4477 -0.3273
 4099SOL    HW123930   2.075   0.628  12.717  1.2195 -1.8810  1.1114
 4099SOL    HW223931   2.208   0.643  12.760 -0.6575 -0.7832 -0.1905
 4100SOL     OW23932   2.690   1.041  12.408  0.0297 -0.1757 -0.0479
 4100SOL    HW123933   2.667   0.984  12.335 -0.6859 -0.4983  0.4239
 4100SOL    HW223934   2.785   1.051  12.398 -0.0200  1.9195  1.4174
 4101SOL     OW23935   1.310   2.790   2.843 -0.0475  0.2989  0.7195
 4101SOL    HW123936   1.341   2.820   2.757  0.7893 -2.1567  0.1637
 4101SOL    HW223937   1.386   2.741   2.877 -1.5950 -2.2850  0.4366
 4102SOL     OW23938   0.918   3.284  12.055  0.4711 -0.4338  0.1304
 4102SOL    HW123939   0.912   3.297  12.149 -5.4684 -0.2837 -0.3012
 4102SOL    HW223940   0.827   3.263  12.033  0.1637 -0.9292  1.8979
 4103SOL     OW23941   1.533   1.039  17.741  0.2645  0.4800 -0.7146
 4103SOL    HW123942   1.567   0.955   0.010 -0.1414 -0.6060 -3.2897
 4103SOL    HW223943   1.474   0.998  17.679  1.7574 -0.6506 -1.3907
 4104SOL     OW23944   3.174   0.278   7.686  0.9564  0.4441  0.4230
 4104SOL    HW123945   3.163   0.257   7.779 -0.6398 -0.7422 -0.0177
 4104SOL    HW223946   3.208   0.195   7.651  0.7919  0.4689  0.2028
 4105SOL     OW23947   0.166   1.682   0.761 -0.0776  0.1811  0.2236
 4105SOL    HW123948   0.206   1.769   0.758  1.9263 -0.7666 -0.9109
 4105SOL    HW223949   0.099   1.691   0.694 -1.5461  2.1687  1.9884
 4106SOL     OW23950   1.097   3.678  11.950 -0.5038 -0.1729  0.6080
 4106SOL    HW123951   1.125   3.599  11.996 -2.4273 -2.1498 -1.5926
 4106SOL    HW223952   1.024   3.705  12.006 -0.0167  0.7294  0.8170
 4107SOL     OW23953   4.086   3.299   7.506 -0.5543 -0.1485  0.0221
 4107SOL    HW123954   4.003   3.312   7.552 -0.2643 -1.4313  0.8889
 4107SOL    HW223955   4.074   3.351   7.427  1.2193  1.0692  0.5476
 4108SOL     OW23956   4.044   1.414   6.687  0.2845  0.1166  0.2711
 4108SOL    HW123957   4.016   1.380   6.772 -3.0954  0.5558 -0.6618
 4108SOL    HW223958   4.111   1.479   6.707  0.0203  0.1727  0.9711
 4109SOL     OW23959   3.343   2.846  17.635  0.1959 -0.1396 -0.1678
 4109SOL    HW123960   3.377   2.918  17.580  1.5628  0.3326  1.3071
 4109SOL    HW223961   3.248   2.848  17.622  0.1370 -0.2939  0.2384
 4110SOL     OW23962   3.955   2.979   2.796  0.2538  0.1519  0.1234
 4110SOL    HW123963   4.009   3.035   2.740  0.2872  0.0687  0.0723
 4110SOL    HW223964   4.025   2.935   2.844  0.3181  0.6763  0.5088
 4111SOL     OW23965   0.296   4.286   6.157  0.4119  0.2179  0.0932
 4111SOL    HW123966   0.322   4.199   6.127 -1.5101 -0.4387  0.3397
 4111SOL    HW223967   0.344   4.301   6.239  0.2423  2.0439 -0.1429
 4112SOL     OW23968   1.991   3.928  11.993  0.4216  0.2169 -0.5639
 4112SOL    HW123969   1.985   3.966  12.080  0.9066  0.2455 -0.5406
 4112SOL    HW223970   1.918   3.868  12.007  0.4188 -0.3257 -2.8228
 4113SOL     OW23971   4.158   0.761   7.050 -0.1223  0.1040 -0.2085
 4113SOL    HW123972   4.175   0.852   7.029  0.5330 -0.6266 -2.9246
 4113SOL    HW223973   4.219   0.723   6.986  0.7632 -1.5400  1.6054
 4114SOL     OW23974   0.276   3.583   8.845  0.0869 -0.4164  0.3252
 4114SOL    HW123975   0.227   3.570   8.764 -0.8038  1.1920  0.5983
 4114SOL    HW223976   0.368   3.565   8.829 -0.2848 -1.8787 -0.2006
 4115SOL     OW23977   1.299   0.032   9.111 -0.5538 -0.3364  0.0332
 4115SOL    HW123978   1.341   4.711   9.171  0.9069  1.6379  1.0685
 4115SOL    HW223979   1.207   0.010   9.128 -0.1694 -2.9366 -1.1986
 4116SOL     OW23980   4.036   3.049   9.273 -0.7921 -0.0712 -0.0762
 4116SOL    HW123981   3.978   2.999   9.216 -1.4706  0.0839  0.4737
 4116SOL    HW223982   3.988   3.060   9.355  1.5865  1.5237  1.0958
 4117SOL     OW23983   3.935   1.019   9.935  0.1516  0.0546 -0.0569
 4117SOL    HW123984   4.016   0.969   9.949 -1.1358 -1.0236  3.5445
 4117SOL    HW223985   3.971   1.094   9.887  0.6332  0.9376  1.6834
 4118SOL     OW23986   3.070   1.958  14.092 -0.0645 -0.3299 -0.1639
 4118SOL    HW123987   2.983   1.941  14.129 -0.5410 -1.4582 -1.7938
 4118SOL    HW223988   3.075   2.052  14.076 -0.2110 -0.2010  0.5453
 4119SOL     OW23989   4.207   2.837   6.621 -1.5244 -0.5915 -0.0878
 4119SOL    HW123990   4.292   2.849   6.663 -1.8132  0.0331  0.3179
 4119SOL    HW223991   4.211   2.742   6.612 -1.8232 -0.7921  1.8804
 4120SOL     OW23992   2.826   2.340   9.190  0.4456  0.3833 -0.1345
 4120SOL    HW123993   2.780   2.402   9.247  1.0044  0.2282  0.4935
 4120SOL    HW223994   2.901   2.328   9.249  0.3506 -0.5544 -0.2036
 4121SOL     OW23995   4.116   4.113  16.858  0.1677  0.4853 -0.2074
 4121SOL    HW123996   4.045   4.131  16.796 -2.1990 -2.3123  1.6640
 4121SOL    HW223997   4.095   4.174  16.929 -1.0731  1.1576 -1.1349
 4122SOL     OW23998   1.729   2.999   4.084 -0.0015  0.0628 -0.3272
 4122SOL    HW123999   1.644   2.958   4.100 -0.2233  0.7775  0.3915
 4122SOL    HW224000   1.744   2.975   3.993 -0.7586 -0.1613 -0.3993
 4123SOL     OW24001   1.868   0.357   2.722 -0.4456  0.8680  0.2817
 4123SOL    HW124002   1.862   0.389   2.812 -1.9386 -2.4838  1.3808
 4123SOL    HW224003   1.840   0.440   2.684 -1.8906  0.3902  0.3044
 4124SOL     OW24004   0.257   1.347   4.747  0.3372  0.2772 -0.1065
 4124SOL    HW124005   0.220   1.303   4.824  0.9437 -0.4104 -0.2173
 4124SOL    HW224006   0.243   1.289   4.672 -0.5551  2.3550 -1.5764
 4125SOL     OW24007   4.286   1.951  11.989 -0.3682  0.4813  0.1703
 4125SOL    HW124008   4.272   1.859  11.963 -1.6890  1.4801 -2.6418
 4125SOL    HW224009   4.376   1.950  12.019 -0.7512 -0.4937  1.2981
 4126SOL     OW24010   4.452   1.716   8.896 -0.1516  0.0019  0.3175
 4126SOL    HW124011   4.363   1.749   8.906  0.4594  2.0115 -0.8888
 4126SOL    HW224012   4.477   1.708   8.988 -0.6095 -1.2269  0.3284
 4127SOL     OW24013   0.465   2.421  11.401 -0.0381  0.1209 -0.4053
 4127SOL    HW124014   0.406   2.394  11.473  1.2305 -0.9897  0.2275
 4127SOL    HW224015   0.506   2.342  11.367 -2.2950 -0.4457 -1.8569
 4128SOL     OW24016   3.048   2.230  14.047  0.2068  0.0920 -0.0735
 4128SOL    HW124017   2.968   2.206  14.001 -0.4756  1.2242  0.5260
 4128SOL    HW224018   3.013   2.303  14.096  1.3068  0.7605 -0.2717
 4129SOL     OW24019   2.565   1.275   8.692  0.3369  0.2744  0.1796
 4129SOL    HW124020   2.635   1.228   8.648 -0.0590  0.3070 -0.4935
 4129SOL    HW224021   2.489   1.244   8.642  1.0468 -0.2618 -0.5661
 4130SOL     OW24022   0.815   0.450  11.754  0.0720  0.7498  0.9447
 4130SOL    HW124023   0.827   0.487  11.842  2.3817  0.1644  0.8844
 4130SOL    HW224024   0.777   0.365  11.776 -0.6992  1.1813  1.2769
 4131SOL     OW24025   2.905   3.148   2.032  0.7764  0.0644 -0.2258
 4131SOL    HW124026   2.986   3.198   2.037  0.0356  0.9027  3.0798
 4131SOL    HW224027   2.890   3.130   2.125 -1.0733 -2.8493 -1.0908
 4132SOL     OW24028   0.923   1.795   4.140 -0.0092  0.0016  0.1475
 4132SOL    HW124029   0.842   1.811   4.093 -0.8037  3.0465  2.6137
 4132SOL    HW224030   0.901   1.795   4.233  0.4939  0.3268  0.2642
 4133SOL     OW24031   4.484   1.656   6.553  0.0422  0.1580 -0.5737
 4133SOL    HW124032   4.474   1.744   6.590 -1.8121  0.1561 -1.0303
 4133SOL    HW224033   4.392   1.648   6.526  0.2801 -0.4725 -1.1789
 4134SOL     OW24034   2.084   2.808   3.504 -0.0390  0.0256  0.0983
 4134SOL    HW124035   2.140   2.756   3.562  0.1456  0.1771  0.0558
 4134SOL    HW224036   2.107   2.898   3.528 -2.0476  0.4272  0.5222
 4135SOL     OW24037   4.622   2.241   4.677 -0.2568  1.0423  0.4900
 4135SOL    HW124038   4.554   2.210   4.736  0.6039 -2.1752 -0.2377
 4135SOL    HW224039   4.652   2.162   4.632 -1.0462  0.7276  0.5218
 4136SOL     OW24040   2.491   0.296   0.055  0.3352  0.4725  1.0059
 4136SOL    HW124041   2.556   0.245   0.104  2.3669  2.8994  0.8346
 4136SOL    HW224042   2.524   0.280  17.729 -0.3327  2.3293  0.4247
 4137SOL     OW24043   1.549   0.147  14.891  0.0463 -0.2082 -0.2569
 4137SOL    HW124044   1.636   0.120  14.921  1.0606 -0.5049 -3.4060
 4137SOL    HW224045   1.500   0.068  14.915  0.2418 -0.4531 -0.6544
 4138SOL     OW24046   1.802   2.697  11.644  0.1355 -0.5436 -0.0928
 4138SOL    HW124047   1.879   2.753  11.660  0.9133 -1.0354 -2.0686
 4138SOL    HW224048   1.815   2.625  11.706  0.5891  0.0922  0.5489
 4139SOL     OW24049   3.104   4.625   8.024 -0.0172  0.1032  0.6812
 4139SOL    HW124050   3.198   4.635   8.009 -0.3115 -0.4706 -1.4839
 4139SOL    HW224051   3.070   4.699   7.973 -0.3208 -1.3630 -1.2171
 4140SOL     OW24052   2.410   4.524   7.892 -0.5237 -0.1635  0.3912
 4140SOL    HW124053   2.403   4.581   7.816 -0.0911 -0.4211  0.1538
 4140SOL    HW224054   2.441   4.588   7.956  2.1533  1.1215 -2.1968
 4141SOL     OW24055   0.041   1.744   6.263  0.2925  0.3414 -0.3464
 4141SOL    HW124056   0.107   1.678   6.242  0.5533  0.6370 -0.4502
 4141SOL    HW224057   0.052   1.818   6.204  1.2125  0.2957 -0.2271
 4142SOL     OW24058   0.988   0.634  12.518 -0.0834  0.2028 -0.5962
 4142SOL    HW124059   0.901   0.630  12.559  0.1859  1.3483  0.0782
 4142SOL    HW224060   1.011   0.726  12.527  2.4010 -0.4781 -0.0274
 4143SOL     OW24061   1.886   1.186   1.932  0.4990 -0.5811 -0.5080
 4143SOL    HW124062   1.816   1.231   1.886 -0.1526 -0.8222  0.2412
 4143SOL    HW224063   1.860   1.097   1.908 -0.7822 -0.0546 -1.1007
 4144SOL     OW24064   2.771   1.848   4.167  0.9176 -0.3977  0.6586
 4144SOL    HW124065   2.840   1.854   4.233  0.7274  0.4067  0.7873
 4144SOL    HW224066   2.708   1.797   4.218  1.0365 -1.8969 -0.6777
 4145SOL     OW24067   2.005   1.907   6.672  0.1310  0.4102  0.0352
 4145SOL    HW124068   1.918   1.932   6.705  0.7815  1.7617  0.7186
 4145SOL    HW224069   2.041   1.841   6.731 -1.8099 -0.6802  0.0189
 4146SOL     OW24070   1.016   1.617   8.683  0.4553  0.3616  0.0440
 4146SOL    HW124071   0.982   1.561   8.753  0.9530 -0.9747 -0.7819
 4146SOL    HW224072   1.091   1.665   8.717  0.8390  0.7334 -1.3391
 4147SOL     OW24073   3.455   4.053   4.364  0.0261  1.2167 -0.3951
 4147SOL    HW124074   3.447   3.973   4.311  3.4347  1.3490 -1.1773
 4147SOL    HW224075   3.540   4.083   4.331 -0.2118  0.2842 -1.8551
 4148SOL     OW24076   2.180   0.779  10.438 -0.1687 -0.0077  0.2196
 4148SOL    HW124077   2.106   0.723  10.462  1.2181 -2.3973 -1.1367
 4148SOL    HW224078   2.245   0.768  10.507 -2.7581  1.4949  2.8702
 4149SOL     OW24079   4.318   0.816   5.672 -0.7365  0.3836 -0.1437
 4149SOL    HW124080   4.353   0.811   5.761  1.4309  0.0660 -1.0213
 4149SOL    HW224081   4.273   0.900   5.670 -0.6571  0.4797  1.8534
 4150SOL     OW24082   3.975   1.615   0.745 -0.3223 -0.1490  0.1943
 4150SOL    HW124083   3.980   1.710   0.739  0.8476 -0.2382 -0.2684
 4150SOL    HW224084   4.067   1.606   0.768 -0.1126  1.0455 -0.1981
 4151SOL     OW24085   2.121   0.022   8.902 -0.3510 -0.0262  0.3419
 4151SOL    HW124086   2.168   0.011   8.819  1.3960 -4.7489  1.9939
 4151SOL    HW224087   2.174   0.080   8.956  1.7570 -0.7200 -0.9722
 4152SOL     OW24088   0.365   2.028   7.357 -0.4950  0.3164  0.3304
 4152SOL    HW124089   0.361   2.007   7.263 -2.4875  1.7052  0.1088
 4152SOL    HW224090   0.422   2.105   7.362 -0.6229  0.5023 -0.8928
 4153SOL     OW24091   2.051   4.185  11.495 -0.2736  0.2404 -0.3233
 4153SOL    HW124092   2.066   4.223  11.582 -0.0080  1.9628 -1.1427
 4153SOL    HW224093   2.079   4.093  11.495  1.7059  0.8446  0.3542
 4154SOL     OW24094   4.627   0.258   3.355 -0.2439 -0.4538 -0.2140
 4154SOL    HW124095   4.664   0.314   3.423  0.6763 -1.6628  0.2858
 4154SOL    HW224096   4.705   0.207   3.332 -0.2057 -0.7484  0.5752
 4155SOL     OW24097   4.619   3.190   4.798  0.1270  0.0628 -0.1177
 4155SOL    HW124098   4.572   3.271   4.818 -0.6646 -0.6239  0.7345
 4155SOL    HW224099   4.677   3.213   4.724  0.8682 -1.9687 -0.1745
 4156SOL     OW24100   0.740   3.304   8.974 -0.7245  0.5559 -0.5379
 4156SOL    HW124101   0.761   3.215   8.947  1.8343  0.4109  1.9710
 4156SOL    HW224102   0.647   3.299   8.998 -0.1216 -1.0172  1.4166
 4157SOL     OW24103   1.876   0.019   9.340 -0.6392  0.7054 -0.0943
 4157SOL    HW124104   1.875   4.702   9.416 -4.8882  0.4598 -0.3629
 4157SOL    HW224105   1.785   0.046   9.330 -1.1540 -0.7702  0.7150
 4158SOL     OW24106   0.323   1.412   4.351  0.1164  0.0018 -0.8888
 4158SOL    HW124107   0.409   1.452   4.355 -0.8779  2.1106 -0.5689
 4158SOL    HW224108   0.292   1.461   4.427  0.5233 -0.8080 -0.2024
 4159SOL     OW24109   1.511   4.349   1.144  0.3775 -0.0598  0.1507
 4159SOL    HW124110   1.588   4.373   1.195 -0.6558  0.7686  1.3022
 4159SOL    HW224111   1.459   4.420   1.182  0.5067 -0.6338  1.3787
 4160SOL     OW24112   2.028   2.543   3.046  0.8552 -0.2806 -0.0639
 4160SOL    HW124113   1.977   2.624   3.051 -2.2231 -2.2663  0.9517
 4160SOL    HW224114   2.115   2.572   3.073 -0.7781  2.4759  2.1972
 4161SOL     OW24115   2.459   2.882   3.980 -0.7011  0.4323 -0.7885
 4161SOL    HW124116   2.393   2.813   3.977 -0.2853  0.0584 -1.4253
 4161SOL    HW224117   2.533   2.844   3.933 -0.1789 -0.9480  1.1571
 4162SOL     OW24118   3.149   4.225   8.485  0.8535 -0.4963  0.2775
 4162SOL    HW124119   3.153   4.294   8.418 -0.4917  0.7185  1.4509
 4162SOL    HW224120   3.117   4.154   8.429  0.0874  0.6563 -0.7757
 4163SOL     OW24121   0.019   2.894   5.829 -0.5870  0.4340  0.3005
 4163SOL    HW124122   0.042   2.981   5.863  0.7156 -0.1221  0.8682
 4163SOL    HW224123   0.103   2.855   5.804 -0.5341  0.3345  0.6229
 4164SOL     OW24124   1.464   2.811  15.746 -0.1859  0.7192  0.6118
 4164SOL    HW124125   1.538   2.753  15.727  0.8249  2.2495 -0.1233
 4164SOL    HW224126   1.433   2.837  15.659 -1.1657 -0.4035  0.6330
 4165SOL     OW24127   1.600   0.822  12.060  0.0258  0.4662 -0.4896
 4165SOL    HW124128   1.604   0.917  12.051 -0.0338  0.5672  0.5708
 4165SOL    HW224129   1.567   0.794  11.975 -0.0337 -0.1336 -0.2689
 4166SOL     OW24130   1.745   3.343   5.510  0.0274 -0.0782 -0.0850
 4166SOL    HW124131   1.686   3.357   5.437 -1.7445  0.4541  1.4546
 4166SOL    HW224132   1.719   3.422   5.558  0.0731  0.0504 -0.2742
 4167SOL     OW24133   4.524   1.418   0.873 -0.7107  0.2165  0.1308
 4167SOL    HW124134   4.578   1.346   0.905 -0.9901  0.3218  0.8297
 4167SOL    HW224135   4.474   1.446   0.950 -0.0996  1.0019  0.2371
 4168SOL     OW24136   0.919   0.441   2.801 -0.1504  0.2829  0.5610
 4168SOL    HW124137   0.912   0.347   2.821  2.1471  0.2732  1.3110
 4168SOL    HW224138   0.954   0.438   2.712 -2.5309  1.3790 -0.4021
 4169SOL     OW24139   3.602   1.034   2.700 -0.4882 -0.0331 -1.0144
 4169SOL    HW124140   3.510   1.028   2.675 -1.2718  1.4525  1.5474
 4169SOL    HW224141   3.630   0.948   2.668 -2.3511 -1.7428  1.9779
 4170SOL     OW24142   3.415   1.485   6.561  0.3920 -0.1361  0.0152
 4170SOL    HW124143   3.481   1.510   6.496  1.7138 -0.3151  1.2969
 4170SOL    HW224144   3.434   1.562   6.615  0.3428 -1.3294  1.7060
 4171SOL     OW24145   4.239   1.249   2.219  0.1066  0.7848  0.3155
 4171SOL    HW124146   4.186   1.189   2.167 -1.4607 -0.6210  3.5433
 4171SOL    HW224147   4.174   1.301   2.266 -0.4468 -1.6900  2.2501
 4172SOL     OW24148   0.276   3.279   4.464 -0.0740 -0.2875 -0.0997
 4172SOL    HW124149   0.282   3.374   4.471 -2.3499 -0.1643 -0.0023
 4172SOL    HW224150   0.294   3.254   4.555  0.6676 -0.2190 -0.2219
 4173SOL     OW24151   3.686   1.419   7.468 -0.2987 -0.0402  0.0337
 4173SOL    HW124152   3.712   1.341   7.517  0.8766  0.9016  0.9297
 4173SOL    HW224153   3.756   1.442   7.406  0.9349  1.2117  1.8751
 4174SOL     OW24154   4.471   1.053   7.975  0.3650 -0.5898  0.1530
 4174SOL    HW124155   4.415   1.039   7.899 -0.0746  0.2213  0.3307
 4174SOL    HW224156   4.557   1.076   7.939 -0.4918  1.1506 -0.7994
 4175SOL     OW24157   3.668   1.540   8.675  0.0018  0.1694 -0.1525
 4175SOL    HW124158   3.596   1.531   8.738  1.1843  3.1962  1.6535
 4175SOL    HW224159   3.686   1.634   8.679 -2.1296  0.4605  2.7884
 4176SOL     OW24160   4.307   3.714   8.802  0.0317  0.2350  0.2713
 4176SOL    HW124161   4.335   3.788   8.856 -1.6859  0.2685  1.0890
 4176SOL    HW224162   4.220   3.698   8.838  0.0844  0.3746  0.4624
 4177SOL     OW24163   1.747   3.047   4.365 -0.0794 -0.5699  0.0548
 4177SOL    HW124164   1.793   3.122   4.326 -3.3759  0.8884 -1.0701
 4177SOL    HW224165   1.721   2.990   4.293 -0.4585  1.8312 -1.7340
 4178SOL     OW24166   1.738   1.422   8.369 -0.4079 -0.4071  0.0050
 4178SOL    HW124167   1.705   1.466   8.290  2.2378 -1.4568 -1.6909
 4178SOL    HW224168   1.773   1.348   8.320  1.0785  0.7845 -0.7424
 4179SOL     OW24169   3.234   2.972  12.372  0.2402 -0.2807  0.0928
 4179SOL    HW124170   3.193   2.983  12.457 -1.4134  0.3997 -0.7853
 4179SOL    HW224171   3.298   2.903  12.387  0.2061 -0.7858 -2.0962
 4180SOL     OW24172   3.973   1.501   8.318 -0.2302  0.1506  0.1235
 4180SOL    HW124173   3.962   1.444   8.395 -0.8771 -0.3960 -0.3677
 4180SOL    HW224174   3.887   1.487   8.278 -0.2129 -0.9083  0.4393
 4181SOL     OW24175   1.260   4.224   7.543 -0.4618  0.4314  0.2432
 4181SOL    HW124176   1.309   4.241   7.462  0.2388  0.1839  0.6191
 4181SOL    HW224177   1.297   4.300   7.588 -1.5842  0.7778  0.5671
 4182SOL     OW24178   4.665   1.887   3.227  0.1601 -0.0891  0.3136
 4182SOL    HW124179   4.652   1.970   3.181  2.1617 -0.3598 -0.7318
 4182SOL    HW224180   4.731   1.902   3.294  0.5693 -0.8195  0.0721
 4183SOL     OW24181   1.030   1.658  17.229 -0.4341  0.2425 -0.2902
 4183SOL    HW124182   0.947   1.671  17.182 -1.1683  0.5432  1.0783
 4183SOL    HW224183   1.077   1.594  17.176 -1.6065 -0.6571 -0.2415
 4184SOL     OW24184   3.649   2.194   6.174  0.5239 -0.5062 -0.0497
 4184SOL    HW124185   3.707   2.239   6.236 -1.1636 -1.4518  2.1943
 4184SOL    HW224186   3.594   2.140   6.230 -0.0372 -2.1441 -2.1656
 4185SOL     OW24187   3.352   4.266   7.307 -0.3558  0.3447  0.2694
 4185SOL    HW124188   3.304   4.273   7.224  2.0071  0.0834 -1.1087
 4185SOL    HW224189   3.438   4.240   7.275 -0.1664 -0.6827  1.5954
 4186SOL     OW24190   3.886   3.661   7.872 -0.1593 -0.2629  0.1739
 4186SOL    HW124191   3.926   3.713   7.801  0.2890 -1.6701 -0.6059
 4186SOL    HW224192   3.942   3.584   7.882 -0.3014 -0.3868  0.0037
 4187SOL     OW24193   3.747   2.968   7.863 -0.3035 -0.6219  0.6123
 4187SOL    HW124194   3.797   3.018   7.798 -0.8753 -3.7360 -2.2097
 4187SOL    HW224195   3.785   3.001   7.945 -0.3616 -1.5836  1.0258
 4188SOL     OW24196   2.334   0.148  10.608  0.3324 -0.5245 -0.2155
 4188SOL    HW124197   2.284   0.183  10.682 -1.6465 -0.3954 -1.6163
 4188SOL    HW224198   2.318   0.219  10.546  0.2784 -1.5427 -1.3571
 4189SOL     OW24199   1.862   1.438   0.281  0.4444 -0.2797 -0.0820
 4189SOL    HW124200   1.797   1.497   0.319  1.7103  1.4295 -0.5708
 4189SOL    HW224201   1.811   1.372   0.235  1.4222 -1.1691  0.1314
 4190SOL     OW24202   0.764   0.145  13.399  0.3097 -0.6559 -0.4687
 4190SOL    HW124203   0.672   0.153  13.375  0.3518 -1.1271 -0.7889
 4190SOL    HW224204   0.760   0.057  13.437  1.6590 -1.1927 -1.5484
 4191SOL     OW24205   0.529   0.480   2.340 -0.2653 -0.4319  0.3989
 4191SOL    HW124206   0.515   0.386   2.352 -1.1590 -0.2378  0.8282
 4191SOL    HW224207   0.439   0.504   2.316 -1.1354 -2.4917  1.6088
 4192SOL     OW24208   3.348   1.860   9.090 -0.6118 -0.3859  0.4903
 4192SOL    HW124209   3.265   1.899   9.062  0.3526  1.5827  0.3384
 4192SOL    HW224210   3.416   1.928   9.090 -1.7419  0.7379 -0.3148
 4193SOL     OW24211   4.158   4.396   6.562 -0.1115  0.2014 -0.4213
 4193SOL    HW124212   4.148   4.462   6.494  0.3106  0.9089  0.2027
 4193SOL    HW224213   4.101   4.326   6.530 -0.0770 -0.0036 -0.0395
 4194SOL     OW24214   0.131   4.420   9.155  0.1836  0.4156 -0.0259
 4194SOL    HW124215   0.124   4.510   9.123  0.4299  1.1941  2.1256
 4194SOL    HW224216   0.106   4.373   9.075 -0.5574 -0.6395  0.8349
 4195SOL     OW24217   3.450   3.438   5.311  0.4119 -0.2687  0.2023
 4195SOL    HW124218   3.446   3.374   5.240 -2.1475  2.1925 -1.9234
 4195SOL    HW224219   3.398   3.509   5.271 -0.7959  0.7950  3.6904
 4196SOL     OW24220   2.125   4.019   0.170  0.1143 -0.2817 -0.5247
 4196SOL    HW124221   2.034   4.026   0.141  0.3079 -1.7701 -1.4913
 4196SOL    HW224222   2.172   4.091   0.128  0.6278 -0.6128 -0.5179
 4197SOL     OW24223   1.652   1.043  16.086  0.1961  0.5532 -0.0116
 4197SOL    HW124224   1.624   1.023  15.997 -0.5429 -0.0792  0.3716
 4197SOL    HW224225   1.676   1.136  16.079 -1.4634  0.9192 -0.7695
 4198SOL     OW24226   2.017   0.847  14.406  0.1721 -0.0834  0.4033
 4198SOL    HW124227   1.937   0.806  14.439  0.5833  0.4867  2.1040
 4198SOL    HW224228   2.055   0.889  14.483 -0.3990  1.0092  0.0869
 4199SOL     OW24229   0.660   3.022   2.951 -0.3247  0.2051 -0.1612
 4199SOL    HW124230   0.697   3.081   3.017  1.9674 -0.0502 -1.2343
 4199SOL    HW224231   0.743   2.983   2.924 -0.9411 -1.0515 -0.2407
 4200SOL     OW24232   4.352   1.724   4.555  0.3005  0.2208 -0.0636
 4200SOL    HW124233   4.386   1.634   4.550  1.0781  0.5015  0.1917
 4200SOL    HW224234   4.420   1.763   4.609  2.7407 -2.6409 -1.0349
 4201SOL     OW24235   1.155   3.141  17.759  0.1560  0.6335  0.3879
 4201SOL    HW124236   1.244   3.108  17.745  0.3477 -0.2736  3.8909
 4201SOL    HW224237   1.127   3.154  17.668 -1.1402 -0.0824  0.6796
 4202SOL     OW24238   3.734   4.154   9.199  0.7238 -0.0147 -0.2309
 4202SOL    HW124239   3.801   4.093   9.167 -0.5403 -0.4572 -2.0157
 4202SOL    HW224240   3.751   4.131   9.290 -1.5660 -0.2059  0.1417
 4203SOL     OW24241   4.101   1.423   7.149 -0.3259 -0.1294 -0.3850
 4203SOL    HW124242   4.145   1.495   7.102  2.2506 -1.6052 -0.2243
 4203SOL    HW224243   4.176   1.368   7.172  0.6095  0.7772 -1.2788
 4204SOL     OW24244   1.541   1.298  14.159 -0.1776  0.8832 -0.5362
 4204SOL    HW124245   1.535   1.259  14.072  1.4464  0.3979 -0.4401
 4204SOL    HW224246   1.571   1.389  14.148 -1.4750  1.2952 -0.5860
 4205SOL     OW24247   4.591   0.438   9.300 -0.2950  0.1616 -0.3994
 4205SOL    HW124248   4.668   0.423   9.355  0.5012  1.3624 -1.1709
 4205SOL    HW224249   4.628   0.502   9.238 -2.3295  2.1564  0.4713
 4206SOL     OW24250   3.251   4.491  17.220 -0.5330 -0.1819  0.2560
 4206SOL    HW124251   3.317   4.437  17.177 -3.5470 -3.5570 -0.1625
 4206SOL    HW224252   3.179   4.428  17.225 -0.1152 -0.5769  1.4364
 4207SOL     OW24253   0.084   0.640   6.177  0.0266  0.5240  0.5331
 4207SOL    HW124254   0.147   0.711   6.172  0.3967  0.3917  3.2448
 4207SOL    HW224255   0.129   0.569   6.132  0.8941  2.0737 -1.0240
 4208SOL     OW24256   4.572   2.479   3.760 -0.1150 -0.0749 -0.4416
 4208SOL    HW124257   4.562   2.384   3.762 -2.5696  0.2555  2.1597
 4208SOL    HW224258   4.510   2.487   3.687 -0.2970  1.2370 -0.1317
 4209SOL     OW24259   2.443   1.426   1.201 -0.2857 -0.2124 -0.3849
 4209SOL    HW124260   2.451   1.331   1.194 -2.5288 -0.4002 -0.2814
 4209SOL    HW224261   2.356   1.448   1.170 -0.0562 -3.4893 -3.3165
 4210SOL     OW24262   0.755   1.382  12.337  0.3871 -0.3619 -0.3323
 4210SOL    HW124263   0.829   1.324  12.322  0.7127 -0.5176  1.8383
 4210SOL    HW224264   0.792   1.464  12.371 -0.9420  0.1278 -0.0500
 4211SOL     OW24265   3.169   2.418   6.468  1.1099  0.6292 -0.1020
 4211SOL    HW124266   3.088   2.376   6.437  1.9368 -0.5607 -0.6357
 4211SOL    HW224267   3.236   2.386   6.408  0.9905  0.4319 -0.1298
 4212SOL     OW24268   0.512   4.412  15.116 -0.3618 -0.4401 -0.1917
 4212SOL    HW124269   0.563   4.407  15.035 -1.2335  1.7501 -0.8798
 4212SOL    HW224270   0.426   4.427  15.076  0.4099  1.2336 -1.2095
 4213SOL     OW24271   0.401   2.512   7.549  0.1804  0.2827 -0.1778
 4213SOL    HW124272   0.484   2.499   7.594  0.1218 -0.6520 -0.3346
 4213SOL    HW224273   0.349   2.447   7.596 -0.8495 -1.2904 -3.4808
 4214SOL     OW24274   0.041   2.258   5.637 -0.1157  0.0250 -0.0512
 4214SOL    HW124275   0.050   2.236   5.729  0.9089  0.1447 -0.1241
 4214SOL    HW224276   0.008   2.347   5.648 -0.8564  0.1059 -2.7757
 4215SOL     OW24277   4.024   3.705  12.968 -0.0924  0.4660  0.5096
 4215SOL    HW124278   4.021   3.640  12.898  0.4260  0.1691  0.7664
 4215SOL    HW224279   3.998   3.787  12.927  1.8890 -0.7758 -3.1989
 4216SOL     OW24280   2.108   4.028   6.556  0.5143  0.3570 -0.3154
 4216SOL    HW124281   2.029   4.032   6.501  0.5051  0.7173 -0.2758
 4216SOL    HW224282   2.075   4.003   6.642 -1.4665  0.2405 -1.0994
 4217SOL     OW24283   0.400   0.482   5.065 -0.2998  0.5429 -0.2104
 4217SOL    HW124284   0.327   0.525   5.020 -0.7962 -0.6093 -0.5149
 4217SOL    HW224285   0.407   0.540   5.141  6.2581  1.1699 -1.3321
 4218SOL     OW24286   3.643   1.816   5.323  0.0403 -0.5694 -0.0129
 4218SOL    HW124287   3.733   1.806   5.353 -0.9863 -0.5068  3.0354
 4218SOL    HW224288   3.640   1.799   5.229 -0.6715 -0.1975 -0.0542
 4219SOL     OW24289   2.063   4.508   8.950  0.2963 -0.0533 -0.6221
 4219SOL    HW124290   2.078   4.602   8.937 -1.5286  0.4265  0.6183
 4219SOL    HW224291   2.041   4.506   9.043  2.4278 -0.6750 -0.1209
 4220SOL     OW24292   4.631   2.427   7.600 -0.2470 -0.1418 -0.5398
 4220SOL    HW124293   4.630   2.447   7.694  2.0188  1.0072 -0.7565
 4220SOL    HW224294   4.674   2.503   7.560 -0.5116  0.5125  0.4065
 4221SOL     OW24295   1.041   1.452   5.115 -0.0888 -0.2138 -0.1518
 4221SOL    HW124296   1.000   1.507   5.182  0.6114 -0.1470  0.2260
 4221SOL    HW224297   0.993   1.477   5.036  2.5073 -1.4510 -2.1369
 4222SOL     OW24298   4.013   3.105  12.646 -0.4799 -0.6028 -0.0145
 4222SOL    HW124299   4.033   3.110  12.740 -0.7069 -0.8831  0.0475
 4222SOL    HW224300   4.069   3.033  12.617  2.2427  1.0775  1.1184
 4223SOL     OW24301   1.730   2.968   4.621  0.2893 -0.0816 -0.8590
 4223SOL    HW124302   1.763   3.006   4.539  2.0138  4.4500  1.9761
 4223SOL    HW224303   1.793   2.896   4.629  0.0019 -0.0954  1.2311
 4224SOL     OW24304   4.379   2.820   6.944 -0.2105 -0.0981  0.1176
 4224SOL    HW124305   4.291   2.795   6.972 -0.3071  0.6089  0.4473
 4224SOL    HW224306   4.403   2.875   7.019 -0.8595 -0.4232  0.5658
 4225SOL     OW24307   4.136   1.210  14.103  0.2367 -0.0478 -0.4485
 4225SOL    HW124308   4.112   1.273  14.172 -0.4954 -0.0895 -0.6682
 4225SOL    HW224309   4.050   1.170  14.090 -0.9092  2.4216 -0.5565
 4226SOL     OW24310   2.759   2.126   2.291 -0.6665 -0.0611 -0.2110
 4226SOL    HW124311   2.833   2.150   2.347  0.8124 -1.6829 -1.4654
 4226SOL    HW224312   2.802   2.138   2.206 -1.9302  1.9546 -0.5645
 4227SOL     OW24313   0.510   4.356  14.581 -0.4215 -1.1658 -0.2556
 4227SOL    HW124314   0.600   4.355  14.612 -1.6015  1.2728  3.2610
 4227SOL    HW224315   0.523   4.442  14.540  0.2491 -1.1246  0.0451
 4228SOL     OW24316   0.950   0.648   5.243 -0.0330  0.0668 -0.0282
 4228SOL    HW124317   0.865   0.656   5.201 -0.2372  0.5868  0.4773
 4228SOL    HW224318   0.923   0.620   5.330 -1.7292 -1.1376 -0.9477
 4229SOL     OW24319   4.190   1.658  14.886  0.5338  0.5119 -0.1941
 4229SOL    HW124320   4.149   1.588  14.937  2.7403 -1.1926 -0.7459
 4229SOL    HW224321   4.273   1.656  14.933  0.8335 -1.4974 -0.8145
 4230SOL     OW24322   4.304   2.371  11.529 -0.0270 -0.5247  0.2638
 4230SOL    HW124323   4.321   2.278  11.542  1.9014 -0.2203 -0.1117
 4230SOL    HW224324   4.226   2.374  11.584 -0.7811 -1.3375 -0.7596
 4231SOL     OW24325   1.245   3.675  16.058  0.2176  0.1165 -0.6538
 4231SOL    HW124326   1.302   3.738  16.102 -0.0769 -3.0732  4.2862
 4231SOL    HW224327   1.294   3.663  15.976  0.6483 -0.9534 -0.2474
 4232SOL     OW24328   1.088   4.114   0.915 -0.4169 -0.2115 -0.0890
 4232SOL    HW124329   1.171   4.158   0.931 -1.0396  0.6112  0.8731
 4232SOL    HW224330   1.095   4.107   0.820  0.0555  2.3372 -0.2316
 4233SOL     OW24331   2.413   3.962   5.003 -0.0653 -0.1611  0.0724
 4233SOL    HW124332   2.369   3.944   4.920 -0.4628 -2.8107  0.8327
 4233SOL    HW224333   2.415   3.870   5.032  2.0772  0.4394  1.8390
 4234SOL     OW24334   0.028   4.190  13.468 -0.2362 -0.2238  0.6368
 4234SOL    HW124335   0.089   4.260  13.444  1.9542 -2.4510 -0.4198
 4234SOL    HW224336   0.075   4.131  13.527 -1.1578  0.1194  1.7003
 4235SOL     OW24337   2.249   3.139   9.899 -0.0123  0.1569 -0.4353
 4235SOL    HW124338   2.159   3.107   9.900 -1.0671  3.1119 -0.6670
 4235SOL    HW224339   2.294   3.083   9.835 -1.9476 -2.3081  0.3378
 4236SOL     OW24340   1.330   3.859  17.111  0.1751  0.4468  0.3776
 4236SOL    HW124341   1.325   3.832  17.203  0.4781  1.4030  0.6696
 4236SOL    HW224342   1.421   3.887  17.106  0.6286 -1.2506 -0.9988
 4237SOL     OW24343   0.089   2.105   9.216  0.5230  0.0617 -0.1012
 4237SOL    HW124344   0.057   2.163   9.147 -0.4592  0.3851  0.6280
 4237SOL    HW224345   0.057   2.023   9.178  0.3192  0.9677 -1.8919
 4238SOL     OW24346   4.278   2.988   8.515  0.5659 -0.1954  0.5042
 4238SOL    HW124347   4.292   2.902   8.554  0.0810 -0.2955  0.4635
 4238SOL    HW224348   4.208   3.029   8.567 -0.1174  0.4347 -0.9237
 4239SOL     OW24349   4.461   0.247   4.368  0.0100  0.2441 -0.4365
 4239SOL    HW124350   4.409   0.284   4.439 -0.0941 -1.0163  0.1362
 4239SOL    HW224351   4.547   0.288   4.376  1.5281 -2.6272 -2.1099
 4240SOL     OW24352   3.123   0.613   4.750 -0.2315  0.0354  0.1614
 4240SOL    HW124353   3.042   0.564   4.766  0.0266  0.5975  3.1584
 4240SOL    HW224354   3.124   0.623   4.655  0.0786 -0.2988  0.1276
 4241SOL     OW24355   0.458   0.499   1.837 -0.4545 -0.2858  0.3962
 4241SOL    HW124356   0.433   0.496   1.929 -0.9138 -0.8950  0.2530
 4241SOL    HW224357   0.551   0.484   1.852 -0.0990  0.8915 -0.6793
 4242SOL     OW24358   1.373   2.092   9.540 -0.3684 -0.4058 -0.2019
 4242SOL    HW124359   1.419   2.016   9.577 -0.5641 -1.0154 -1.2268
 4242SOL    HW224360   1.434   2.127   9.475  0.3679  0.5470  1.0009
 4243SOL     OW24361   0.328   2.080   2.599  0.0238  0.5193  0.3375
 4243SOL    HW124362   0.376   2.147   2.550  1.8021  0.2922  1.7604
 4243SOL    HW224363   0.386   2.073   2.675 -2.1695 -1.7064  1.7747
 4244SOL     OW24364   4.675   1.698   0.191  0.5257 -0.0120  0.7025
 4244SOL    HW124365   4.682   1.654   0.106 -2.0754 -1.7200  1.3383
 4244SOL    HW224366   4.649   1.622   0.244 -0.5914  0.4380  0.7900
 4245SOL     OW24367   4.497   1.549   2.312 -0.4430 -0.0388  0.9295
 4245SOL    HW124368   4.540   1.599   2.243 -1.0630  0.5106  0.9481
 4245SOL    HW224369   4.406   1.552   2.284 -1.1631 -1.9793  3.0486
 4246SOL     OW24370   2.382   0.449   5.351 -0.0656  0.0264  0.5599
 4246SOL    HW124371   2.449   0.511   5.380 -0.1212  0.6713 -0.7147
 4246SOL    HW224372   2.302   0.490   5.384  0.1583 -0.9573  2.3446
 4247SOL     OW24373   2.013   1.876   5.964  0.3770 -0.3833 -0.3383
 4247SOL    HW124374   2.041   1.823   5.889 -0.1577  0.8633 -1.4153
 4247SOL    HW224375   1.918   1.877   5.961  0.3521 -0.1744  0.5149
 4248SOL     OW24376   0.747   3.011   8.954 -0.5561  0.1950  0.3369
 4248SOL    HW124377   0.752   3.024   9.049 -1.0606  1.0817  0.2446
 4248SOL    HW224378   0.830   2.968   8.936  0.1870  1.4612  0.7661
 4249SOL     OW24379   1.423   1.876   7.665 -0.6329  0.5525 -0.3560
 4249SOL    HW124380   1.512   1.856   7.694 -1.0967  0.3685  0.9142
 4249SOL    HW224381   1.414   1.809   7.597 -0.4833 -0.6619  0.8145
 4250SOL     OW24382   2.251   0.957   4.140  0.0709  0.0892 -0.4349
 4250SOL    HW124383   2.187   1.027   4.130 -0.9455 -0.5203  1.7547
 4250SOL    HW224384   2.190   0.885   4.156  0.1718  0.2569  0.6973
 4251SOL     OW24385   3.197   1.993   8.736 -0.1578 -0.3463 -0.0009
 4251SOL    HW124386   3.181   1.970   8.644 -0.0111  0.2941 -0.1860
 4251SOL    HW224387   3.279   1.946   8.750  0.2479  0.6605  1.0051
 4252SOL     OW24388   3.134   3.128   4.418 -0.1175  0.1635  0.4574
 4252SOL    HW124389   3.146   3.150   4.326  0.7865 -0.3433  0.4512
 4252SOL    HW224390   3.080   3.049   4.410  1.0033 -0.8503  2.8903
 4253SOL     OW24391   2.778   1.258   7.052 -0.1167  0.3905 -0.4183
 4253SOL    HW124392   2.833   1.335   7.066 -1.7348  1.8445 -2.0129
 4253SOL    HW224393   2.706   1.288   7.107 -0.8824 -0.6576 -0.8509
 4254SOL     OW24394   2.879   2.964   6.542 -0.6596  0.2802 -0.0155
 4254SOL    HW124395   2.956   2.989   6.592 -1.4024  0.9949  0.7687
 4254SOL    HW224396   2.914   2.885   6.502  0.2114  0.9129 -0.4944
 4255SOL     OW24397   4.331   2.574   5.889 -0.6173  0.3960  0.6106
 4255SOL    HW124398   4.279   2.653   5.898 -1.5110 -0.0890 -0.3291
 4255SOL    HW224399   4.419   2.611   5.898  0.3448 -1.6138 -0.2760
 4256SOL     OW24400   3.993   4.479   5.575  0.3046  0.0382  0.0442
 4256SOL    HW124401   3.919   4.516   5.527 -0.3509  1.0239  1.8057
 4256SOL    HW224402   4.072   4.495   5.522  0.2539 -1.9172 -0.6225
 4257SOL     OW24403   1.113   4.339  16.669 -0.3233  0.1879 -0.2266
 4257SOL    HW124404   1.054   4.339  16.594 -0.2292  0.0899 -0.2999
 4257SOL    HW224405   1.048   4.324  16.738 -0.7592 -0.2426 -0.7286
 4258SOL     OW24406   4.540   3.350   2.893 -0.3229 -0.2462 -0.1301
 4258SOL    HW124407   4.555   3.431   2.845  0.8315 -0.7216 -0.5635
 4258SOL    HW224408   4.610   3.347   2.959  0.9679 -0.4938 -1.5180
 4259SOL     OW24409   1.398   4.276   8.416  0.2613  0.4109 -0.1449
 4259SOL    HW124410   1.388   4.199   8.473 -1.1433  0.1092 -0.7890
 4259SOL    HW224411   1.462   4.240   8.355  1.0243  1.4079  0.0744
 4260SOL     OW24412   2.955   1.874   1.473 -0.2260  0.3401 -0.7806
 4260SOL    HW124413   3.049   1.893   1.470  0.2802 -2.1519 -0.4388
 4260SOL    HW224414   2.935   1.853   1.382  1.0041 -0.8064 -0.7939
 4261SOL     OW24415   4.731   2.887  14.925  0.6226  0.6368 -0.0978
 4261SOL    HW124416   4.646   2.845  14.916  0.2435  0.9221  2.2273
 4261SOL    HW224417   4.736   2.941  14.847  0.1030 -0.5028 -0.9252
 4262SOL     OW24418   2.291   1.537   2.243 -0.5148 -0.3796  0.2791
 4262SOL    HW124419   2.305   1.570   2.331 -0.2818  1.3440 -0.4038
 4262SOL    HW224420   2.376   1.497   2.228  0.2125  1.3197 -0.1783
 4263SOL     OW24421   0.002   3.993   3.555  0.0622 -0.1135  0.1543
 4263SOL    HW124422   0.016   3.917   3.499 -0.2596  0.9543 -1.3614
 4263SOL    HW224423   4.649   4.004   3.564 -0.2096 -1.8609 -0.5938
 4264SOL     OW24424   1.096   3.966  10.051  0.5116 -0.3509 -0.1617
 4264SOL    HW124425   1.064   4.024   9.982 -1.1561 -2.3268 -1.0552
 4264SOL    HW224426   1.159   4.018  10.101  1.3910 -1.3378 -0.2500
 4265SOL     OW24427   2.071   3.967   2.513 -0.2175 -0.4140  0.0860
 4265SOL    HW124428   2.068   3.892   2.455 -0.0640  0.6079 -1.2435
 4265SOL    HW224429   2.098   4.035   2.451 -2.2322 -1.6223 -2.0799
 4266SOL     OW24430   2.430   3.883   2.831  0.1418  0.4442  0.3286
 4266SOL    HW124431   2.466   3.943   2.767 -2.1310  0.8554 -0.5565
 4266SOL    HW224432   2.398   3.807   2.783  1.9020 -0.5664  0.7176
 4267SOL     OW24433   2.794   3.452  17.505  0.5175  0.0160 -0.7866
 4267SOL    HW124434   2.767   3.543  17.521 -0.7290 -0.4664 -0.0899
 4267SOL    HW224435   2.887   3.456  17.523  0.3809 -0.5473  0.0572
 4268SOL     OW24436   4.143   3.333   7.021 -0.7560 -0.4438  0.4210
 4268SOL    HW124437   4.099   3.316   7.104  1.6489  0.2603  1.8660
 4268SOL    HW224438   4.065   3.324   6.966  0.9755 -0.1558 -2.1094
 4269SOL     OW24439   1.227   0.806   7.571 -0.2360  0.1227  0.1919
 4269SOL    HW124440   1.134   0.823   7.587 -0.3632 -0.8928  0.5329
 4269SOL    HW224441   1.267   0.885   7.607 -2.5197  0.3070  2.3278
 4270SOL     OW24442   0.380   3.765   5.031  0.0390 -0.3479 -0.0917
 4270SOL    HW124443   0.439   3.775   5.106  0.2051  0.0446 -0.2745
 4270SOL    HW224444   0.301   3.779   5.084  1.6721  3.5597  1.3446
 4271SOL     OW24445   2.888   2.508   4.414  0.0151 -0.1231  0.0277
 4271SOL    HW124446   2.927   2.459   4.486 -1.8707 -0.8462  0.5658
 4271SOL    HW224447   2.835   2.565   4.469  1.3815  0.3497  0.8451
 4272SOL     OW24448   3.143   2.251   1.699  0.1377 -0.0611  0.0292
 4272SOL    HW124449   3.080   2.266   1.628  0.7568  0.5721 -0.3940
 4272SOL    HW224450   3.096   2.205   1.768 -0.9616  0.2291 -0.5332
 4273SOL     OW24451   0.816   4.339   2.331 -0.2763 -0.0939 -0.2589
 4273SOL    HW124452   0.779   4.331   2.419  2.4135  0.0793  0.8814
 4273SOL    HW224453   0.903   4.369   2.358 -0.6700 -1.4096  2.4345
 4274SOL     OW24454   2.904   4.650   7.118  0.7243  0.2633  0.1710
 4274SOL    HW124455   2.984   4.648   7.064 -0.6955 -0.2458 -1.9195
 4274SOL    HW224456   2.836   4.666   7.053 -0.2676  3.1131  1.9408
 4275SOL     OW24457   0.537   3.988  16.248  0.5384  0.0003 -0.0455
 4275SOL    HW124458   0.625   3.964  16.279  0.4465 -0.2457  0.0207
 4275SOL    HW224459   0.568   4.051  16.183  0.8672 -0.3895 -0.2620
 4276SOL     OW24460   2.975   4.528   6.169  0.2912 -0.3464 -0.2648
 4276SOL    HW124461   2.883   4.546   6.186  0.4008  1.7321 -1.8256
 4276SOL    HW224462   3.010   4.613   6.195 -2.3767  0.3483  1.0541
 4277SOL     OW24463   2.090   2.395   1.771 -0.2985 -0.1640  0.8007
 4277SOL    HW124464   2.086   2.431   1.859  0.0701  0.9505  0.3644
 4277SOL    HW224465   1.996   2.398   1.749 -0.6812 -2.0108  2.2373
 4278SOL     OW24466   0.421   3.432   8.492 -0.1567  0.0747  0.0011
 4278SOL    HW124467   0.337   3.443   8.537  0.6509  2.2444  0.9716
 4278SOL    HW224468   0.400   3.465   8.405 -0.0860  0.2147  0.0380
 4279SOL     OW24469   4.233   1.541   8.626 -0.4104 -0.7858  0.3013
 4279SOL    HW124470   4.229   1.453   8.589 -0.8370 -1.5994  2.2687
 4279SOL    HW224471   4.181   1.522   8.704 -0.1633  1.1730  0.9537
 4280SOL     OW24472   2.335   3.529  12.409  0.4176  0.2509 -0.4311
 4280SOL    HW124473   2.293   3.453  12.368 -3.8112  2.2336  0.2902
 4280SOL    HW224474   2.268   3.595  12.392  0.5163  0.4768  0.0740
 4281SOL     OW24475   1.362   4.395  14.289  0.3997  0.4542 -0.2109
 4281SOL    HW124476   1.407   4.436  14.215  0.6471 -0.7856 -0.7559
 4281SOL    HW224477   1.271   4.415  14.265 -0.0017  0.2206  1.1021
 4282SOL     OW24478   3.109   3.611   1.760  0.2857  0.1613 -0.2902
 4282SOL    HW124479   3.134   3.607   1.668 -2.4420 -2.3522 -0.9366
 4282SOL    HW224480   3.051   3.687   1.766 -0.7573 -0.3686 -3.4030
 4283SOL     OW24481   1.435   0.539  16.777  0.1485 -1.3248 -0.5433
 4283SOL    HW124482   1.342   0.539  16.753  0.1300 -3.0741 -0.4531
 4283SOL    HW224483   1.454   0.446  16.778  1.2251 -1.0843  1.2287
 4284SOL     OW24484   4.728   1.957   7.358  0.2324  0.3382  0.4323
 4284SOL    HW124485   0.053   2.019   7.327 -0.4101  0.8120  0.0052
 4284SOL    HW224486   4.650   1.972   7.304  0.3023 -1.2757 -0.1211
 4285SOL     OW24487   2.185   2.367   7.369 -0.0339 -0.6127 -0.5439
 4285SOL    HW124488   2.090   2.364   7.378  0.1213  2.6207  2.0870
 4285SOL    HW224489   2.205   2.446   7.419 -0.5637 -1.6621  1.3272
 4286SOL     OW24490   3.050   2.885   3.017  0.4173  0.4992 -0.3868
 4286SOL    HW124491   3.092   2.970   3.029  0.4297  0.1933  1.8752
 4286SOL    HW224492   3.131   2.834   3.013  0.7781  1.0874 -0.5422
 4287SOL     OW24493   2.106   3.614  15.774 -0.6787  0.3111  0.1756
 4287SOL    HW124494   2.181   3.624  15.833 -0.9296  0.3483  0.4905
 4287SOL    HW224495   2.043   3.675  15.813 -0.5463  0.0209  0.8401
 4288SOL     OW24496   0.371   4.366   7.948 -0.5887  0.0635  0.1003
 4288SOL    HW124497   0.325   4.302   7.894  0.5643  0.6797 -1.6017
 4288SOL    HW224498   0.433   4.304   7.987  0.2661  1.6435  1.2495
 4289SOL     OW24499   2.386   1.333   4.705 -0.2718 -0.4072  0.1380
 4289SOL    HW124500   2.420   1.402   4.762 -0.1225  0.3733 -0.8957
 4289SOL    HW224501   2.434   1.353   4.625  0.4713  2.6062  1.3317
 4290SOL     OW24502   4.129   2.003   4.578 -0.0933  0.5622  0.3478
 4290SOL    HW124503   4.128   1.944   4.502  0.6825  1.6273 -0.5007
 4290SOL    HW224504   4.223   2.005   4.598 -0.3142  1.1156  1.3125
 4291SOL     OW24505   2.270   2.933  15.039  0.3930  0.0012 -0.2073
 4291SOL    HW124506   2.280   2.846  15.001  0.4020 -0.3856  0.6944
 4291SOL    HW224507   2.321   2.912  15.117 -0.4381 -1.1092  0.0376
 4292SOL     OW24508   2.838   3.039   2.538 -0.2372 -0.0592  0.5533
 4292SOL    HW124509   2.793   3.123   2.537 -1.4000 -0.6711  1.6915
 4292SOL    HW224510   2.859   3.023   2.630  1.4093  0.4029  0.2568
 4293SOL     OW24511   2.998   0.097   2.868 -0.2186  0.1854  0.0793
 4293SOL    HW124512   2.916   0.144   2.885 -1.2087 -0.7579 -1.9870
 4293SOL    HW224513   2.961   0.023   2.819 -0.3058  0.7324 -0.6749
 4294SOL     OW24514   1.902   4.129   8.921 -0.6258  0.0086  0.4765
 4294SOL    HW124515   1.890   4.047   8.968  0.9316  0.1234  1.0926
 4294SOL    HW224516   1.853   4.187   8.979 -2.2332  1.4020 -2.2785
 4295SOL     OW24517   4.197   2.020   5.422 -0.2380 -0.6510 -0.3864
 4295SOL    HW124518   4.129   2.010   5.490  0.6180 -0.3557  0.5147
 4295SOL    HW224519   4.228   2.105   5.453 -2.7474  0.7847 -1.8124
 4296SOL     OW24520   0.201   1.890   4.919 -0.0585 -0.3132  0.0792
 4296SOL    HW124521   0.206   1.803   4.878  0.6893 -1.1886  1.9807
 4296SOL    HW224522   0.201   1.950   4.845 -1.7737  2.3362  2.2301
 4297SOL     OW24523   4.393   2.877  12.662  0.0907 -0.0352  0.6376
 4297SOL    HW124524   4.305   2.872  12.626 -0.3608  0.8796  1.5934
 4297SOL    HW224525   4.372   2.948  12.724  0.4140  0.0606  0.6381
 4298SOL     OW24526   3.389   2.698   2.373 -0.2699 -0.5285  0.1504
 4298SOL    HW124527   3.368   2.781   2.331 -0.5406 -1.2645 -1.1785
 4298SOL    HW224528   3.429   2.640   2.307  0.8729  0.9593 -0.4463
 4299SOL     OW24529   1.131   4.721  13.768  0.0241 -0.3285  0.4699
 4299SOL    HW124530   1.182   0.029  13.833  1.9735 -2.3842  0.4940
 4299SOL    HW224531   1.157   0.028  13.689  0.7565 -1.5535 -0.0359
 4300SOL     OW24532   3.467   4.694   6.648  0.3935  0.0741 -0.7336
 4300SOL    HW124533   3.381   4.652   6.651  0.6257 -0.4217 -0.9867
 4300SOL    HW224534   3.438   0.033   6.604  4.3612  1.3639 -1.0146
 4301SOL     OW24535   2.292   1.639  12.409  0.4775  0.4295  0.1503
 4301SOL    HW124536   2.208   1.652  12.454  1.7059 -0.1465  2.6090
 4301SOL    HW224537   2.337   1.576  12.465 -1.7594 -0.9176  0.4599
 4302SOL     OW24538   4.132   2.280   7.891 -0.3509  0.3576  0.2188
 4302SOL    HW124539   4.206   2.232   7.928  0.2094  0.5974 -0.5919
 4302SOL    HW224540   4.076   2.298   7.966 -0.3379 -0.4101  0.4088
 4303SOL     OW24541   1.354   0.354  10.991  0.0137 -0.1371  0.0518
 4303SOL    HW124542   1.343   0.267  10.951 -2.0010  0.3662 -0.4895
 4303SOL    HW224543   1.443   0.353  11.025  0.1310 -0.4619 -0.2637
 4304SOL     OW24544   0.961   3.905   5.617 -0.6456  0.7543 -0.0093
 4304SOL    HW124545   0.904   3.855   5.674  1.0789 -1.3734 -0.1472
 4304SOL    HW224546   0.924   3.887   5.531  1.5355 -1.5734 -0.4687
 4305SOL     OW24547   3.842   2.591   5.302  0.0401  0.1192 -0.0447
 4305SOL    HW124548   3.915   2.536   5.331  0.9413  0.7121 -1.2216
 4305SOL    HW224549   3.782   2.586   5.377 -1.0283 -0.8940 -0.9767
 4306SOL     OW24550   0.145   3.185   1.354  0.1202 -0.2819  0.0173
 4306SOL    HW124551   0.148   3.089   1.353 -0.1380 -0.3005  1.0817
 4306SOL    HW224552   0.209   3.218   1.291 -1.6758  0.2420 -1.4942
 4307SOL     OW24553   1.887   4.225   2.736 -0.1493 -0.3506 -0.2295
 4307SOL    HW124554   1.887   4.320   2.725  1.4007 -0.3829 -0.5702
 4307SOL    HW224555   1.836   4.203   2.659 -2.6822 -1.3754  1.7460
 4308SOL     OW24556   1.792   2.832   3.534  0.1282 -0.1832 -0.2592
 4308SOL    HW124557   1.886   2.830   3.552  0.3606  0.8831 -1.3297
 4308SOL    HW224558   1.794   2.905   3.471  0.5904 -0.2426 -0.3161
 4309SOL     OW24559   2.354   4.046  12.648 -0.0031  0.2255 -0.5045
 4309SOL    HW124560   2.320   3.969  12.604 -2.3692 -0.1148  1.9339
 4309SOL    HW224561   2.437   4.017  12.687 -1.2719  0.2617  2.1822
 4310SOL     OW24562   0.385   0.418   8.786 -0.1224  0.2187  0.2888
 4310SOL    HW124563   0.444   0.343   8.774 -0.2916  0.2535 -0.6991
 4310SOL    HW224564   0.309   0.381   8.742  0.1537  1.9199 -1.6209
 4311SOL     OW24565   0.171   1.737  11.080  0.1389  0.0519 -0.1766
 4311SOL    HW124566   0.209   1.781  11.004  0.2764  1.5793  0.7692
 4311SOL    HW224567   0.180   1.651  11.038 -0.5963 -1.3382  2.5059
 4312SOL     OW24568   0.038   1.092   7.190  0.2967 -0.3989 -0.4131
 4312SOL    HW124569   0.096   1.026   7.228  1.4527  1.5856  1.2852
 4312SOL    HW224570   4.708   1.033   7.165 -0.5811 -0.0541  1.2430
 4313SOL     OW24571   1.110   0.875   9.681  0.4716  0.1547 -0.0395
 4313SOL    HW124572   1.116   0.780   9.665  0.4295 -0.2229  2.1957
 4313SOL    HW224573   1.177   0.904   9.744  1.0534  0.2855 -0.7175
 4314SOL     OW24574   4.693   2.597   4.004  0.1271 -0.3414 -0.0333
 4314SOL    HW124575   4.622   2.563   4.059 -1.1308 -0.0065 -1.4456
 4314SOL    HW224576   4.667   2.542   3.930  3.2616 -0.5834 -0.9481
 4315SOL     OW24577   1.583   2.895   8.581  0.4665  0.2454  0.4786
 4315SOL    HW124578   1.538   2.854   8.507  1.4414 -1.6231  0.9196
 4315SOL    HW224579   1.507   2.891   8.639  0.5730  0.1047  0.6122
 4316SOL     OW24580   2.158   0.751  17.243 -0.5601 -0.7544 -0.0509
 4316SOL    HW124581   2.137   0.691  17.172 -0.7301  1.6844 -2.0279
 4316SOL    HW224582   2.142   0.836  17.202 -3.2758  0.0010  2.5600
 4317SOL     OW24583   3.182   3.663   8.007  0.2011 -0.5025 -0.2197
 4317SOL    HW124584   3.109   3.694   7.953 -0.0786 -1.5531 -0.4326
 4317SOL    HW224585   3.182   3.568   7.996 -2.6782 -0.7766  2.1518
 4318SOL     OW24586   3.477   3.867   3.443  0.3041 -0.2309  0.5979
 4318SOL    HW124587   3.389   3.835   3.461 -0.5474  1.9063  0.3230
 4318SOL    HW224588   3.525   3.830   3.517  0.3010  0.0659  0.7504
 4319SOL     OW24589   4.544   2.980   4.112  0.2536 -0.2443 -0.1209
 4319SOL    HW124590   4.636   2.973   4.139  0.1534  3.1715  1.1158
 4319SOL    HW224591   4.513   2.925   4.184  0.4994  2.4220  2.0204
 4320SOL     OW24592   3.985   2.411   1.591  0.4992  0.1855  0.0758
 4320SOL    HW124593   3.977   2.356   1.668  2.2522 -0.5150 -0.2276
 4320SOL    HW224594   4.080   2.408   1.579  0.5343  1.4293  0.0063
 4321SOL     OW24595   0.164   0.652   3.279  0.4769 -0.0031  0.4237
 4321SOL    HW124596   0.235   0.666   3.341  1.2486 -1.1880 -0.1910
 4321SOL    HW224597   0.097   0.714   3.308 -0.4098 -0.1968 -1.2267
 4322SOL     OW24598   0.889   0.329  16.474 -0.5762  0.3286 -0.0686
 4322SOL    HW124599   0.946   0.253  16.462  1.4223  1.7964  0.2139
 4322SOL    HW224600   0.825   0.287  16.532  0.7606 -1.6291  0.0066
 4323SOL     OW24601   4.474   2.436   4.040  0.5088  0.2723 -0.4038
 4323SOL    HW124602   4.466   2.342   4.026  1.9698  0.4571 -2.4637
 4323SOL    HW224603   4.417   2.444   4.117 -1.5188 -1.2851 -1.7447
 4324SOL     OW24604   4.200   1.848   8.381  0.0621  0.0959  0.1716
 4324SOL    HW124605   4.212   1.928   8.330 -1.7945 -0.1213 -0.6021
 4324SOL    HW224606   4.111   1.826   8.354 -0.2694  1.5527  0.1157
 4325SOL     OW24607   1.721   0.182  10.671  0.4302  0.0871  0.1296
 4325SOL    HW124608   1.711   0.158  10.579  1.1092  0.2237  0.0194
 4325SOL    HW224609   1.632   0.165  10.702 -0.1567  3.3671  0.1900
 4326SOL     OW24610   0.574   0.833  10.797 -0.2123  0.0351  0.1607
 4326SOL    HW124611   0.560   0.758  10.740 -0.4375  2.4984 -3.0354
 4326SOL    HW224612   0.650   0.875  10.757 -0.2819 -1.6659 -1.7313
 4327SOL     OW24613   2.289   3.684   3.595 -0.0210 -0.0225 -0.5864
 4327SOL    HW124614   2.214   3.723   3.638  0.7208  1.0609 -0.2651
 4327SOL    HW224615   2.282   3.592   3.621  0.3438 -0.6091 -2.5042
 4328SOL     OW24616   0.281   1.177   1.170  0.2970 -0.3077 -0.6118
 4328SOL    HW124617   0.346   1.227   1.119  0.9644 -1.6726 -1.1103
 4328SOL    HW224618   0.251   1.238   1.237  0.3374  0.1174 -0.9720
 4329SOL     OW24619   3.327   0.837   1.067 -0.0306 -0.2269  0.4312
 4329SOL    HW124620   3.352   0.926   1.044  2.2263 -1.9880 -3.8145
 4329SOL    HW224621   3.383   0.819   1.143 -0.8703 -1.5645  0.7436
 4330SOL     OW24622   1.308   3.532   8.002  0.5146 -0.3056 -1.2163
 4330SOL    HW124623   1.306   3.610   8.058  1.1026 -0.6151 -0.7629
 4330SOL    HW224624   1.378   3.554   7.940  0.6410  2.5421 -0.0734
 4331SOL     OW24625   2.664   2.419  17.752 -0.2006 -0.1402 -0.0353
 4331SOL    HW124626   2.705   2.415  17.665 -2.4013 -0.7074 -1.0506
 4331SOL    HW224627   2.588   2.473  17.730  0.6598  0.4415 -1.6071
 4332SOL     OW24628   2.882   1.469   0.773  0.3399 -0.2311  0.1529
 4332SOL    HW124629   2.917   1.381   0.766 -0.4948 -0.5955  0.5775
 4332SOL    HW224630   2.853   1.472   0.865 -2.3384 -3.7832 -0.6217
 4333SOL     OW24631   4.126   4.339   4.169  0.2342  0.2863  0.3898
 4333SOL    HW124632   4.033   4.340   4.146 -0.1197 -2.9582  1.6221
 4333SOL    HW224633   4.158   4.429   4.171 -1.3847  0.8157  1.9690
 4334SOL     OW24634   1.727   4.094  13.208 -0.5453 -0.0301 -0.0277
 4334SOL    HW124635   1.719   4.118  13.300  1.4373  0.3558  0.0389
 4334SOL    HW224636   1.635   4.073  13.192 -0.9399  1.2085  0.6532
 4335SOL     OW24637   3.165   2.390  13.534 -0.1922  0.4911  0.0056
 4335SOL    HW124638   3.245   2.353  13.572 -0.4088  1.4887  1.4103
 4335SOL    HW224639   3.100   2.326  13.564  2.1824 -0.4313  3.2073
 4336SOL     OW24640   1.943   0.056  13.750 -0.5257  0.2521  0.5573
 4336SOL    HW124641   1.926   0.057  13.656 -0.4188 -1.6855  0.5115
 4336SOL    HW224642   1.912   0.145  13.761 -0.4221  0.2492  0.8746
 4337SOL     OW24643   4.131   3.008   8.204 -0.4085  0.2203 -0.0330
 4337SOL    HW124644   4.127   3.090   8.253 -0.3795 -1.1672  2.2883
 4337SOL    HW224645   4.159   2.949   8.274 -0.1664  0.6885  0.2639
 4338SOL     OW24646   2.748   0.773   2.727 -0.7027  0.0295  0.9611
 4338SOL    HW124647   2.715   0.802   2.811 -0.6842 -0.7791  1.2427
 4338SOL    HW224648   2.791   0.856   2.706 -1.7666  0.8378  2.0207
 4339SOL     OW24649   3.120   0.499  11.019  0.5713  0.3593 -0.2672
 4339SOL    HW124650   3.103   0.408  10.995 -0.1271  0.3207  0.3736
 4339SOL    HW224651   3.115   0.499  11.115  0.0951  1.2959 -0.2934
 4340SOL     OW24652   0.365   3.202  15.738  0.3158 -0.0955 -0.3271
 4340SOL    HW124653   0.337   3.233  15.824 -0.8003  1.4714 -1.2568
 4340SOL    HW224654   0.331   3.113  15.742  1.0138 -0.3450  0.1503
 4341SOL     OW24655   1.703   2.858  11.295 -0.0994 -0.1597  0.3103
 4341SOL    HW124656   1.734   2.786  11.350  0.8388 -0.9966 -1.3234
 4341SOL    HW224657   1.608   2.849  11.302 -0.1965 -0.4907 -1.3789
 4342SOL     OW24658   1.803   0.243   6.079 -0.4710  0.0200 -0.3143
 4342SOL    HW124659   1.716   0.213   6.105 -0.4710  0.8264  0.6020
 4342SOL    HW224660   1.835   0.276   6.163 -0.6103 -0.8502  0.0818
 4343SOL     OW24661   4.401   2.859   8.313  0.4308  0.1452 -0.1769
 4343SOL    HW124662   4.361   2.782   8.353  0.7172 -0.3901 -0.9210
 4343SOL    HW224663   4.375   2.929   8.372  0.7319  1.8953 -2.1091
 4344SOL     OW24664   0.124   2.239   2.957  0.1865 -0.2030 -0.0809
 4344SOL    HW124665   0.138   2.239   3.052  0.1325  1.0853 -0.0813
 4344SOL    HW224666   0.068   2.161   2.950 -0.9560  0.6320 -0.2334
 4345SOL     OW24667   0.711   0.431   0.916 -0.2487 -0.0488 -0.1964
 4345SOL    HW124668   0.714   0.340   0.885 -0.6463  0.2198 -1.0236
 4345SOL    HW224669   0.660   0.416   0.995 -0.2382  0.7276 -0.0433
 4346SOL     OW24670   1.992   3.787   8.786 -0.5454  0.1822 -0.2749
 4346SOL    HW124671   1.917   3.755   8.735 -1.6363 -0.6922  1.8795
 4346SOL    HW224672   1.957   3.840   8.858 -0.8800  0.1049 -0.3786
 4347SOL     OW24673   3.574   4.170   7.196  0.5837 -0.3848  0.3572
 4347SOL    HW124674   3.542   4.146   7.109  1.7088  0.1928 -0.2298
 4347SOL    HW224675   3.646   4.226   7.166  3.3987 -2.3920  3.4319
 4348SOL     OW24676   2.842   3.987   3.672 -0.1362  0.7059 -0.2286
 4348SOL    HW124677   2.864   4.052   3.738  0.2645 -1.0788  1.3749
 4348SOL    HW224678   2.747   3.995   3.663 -0.4212 -0.7532  1.4298
 4349SOL     OW24679   2.897   3.232   3.807  0.3953 -0.3691  0.4181
 4349SOL    HW124680   2.887   3.276   3.891 -0.4178  1.1711 -0.4707
 4349SOL    HW224681   2.977   3.182   3.820  0.4912 -0.0729  0.9626
 4350SOL     OW24682   2.281   1.101  17.296 -0.3662 -0.2534 -0.1418
 4350SOL    HW124683   2.254   1.152  17.373 -1.0535 -2.3951  1.0226
 4350SOL    HW224684   2.334   1.167  17.253 -0.2598  0.1091  0.5352
 4351SOL     OW24685   3.033   3.993   0.592 -0.1440  0.0452  0.1570
 4351SOL    HW124686   3.118   4.006   0.633 -0.6355  0.0171  1.1712
 4351SOL    HW224687   3.049   4.000   0.498 -1.0664  3.2102  0.2452
 4352SOL     OW24688   2.119   0.298   2.639 -0.2064  0.3028 -0.2168
 4352SOL    HW124689   2.035   0.309   2.683 -0.0839 -1.0344  0.3665
 4352SOL    HW224690   2.093   0.249   2.562 -1.7190 -0.3259  0.6824
 4353SOL     OW24691   1.478   3.530  15.108  0.0501  0.0672 -0.3862
 4353SOL    HW124692   1.401   3.586  15.096  0.4842  1.0001  1.1490
 4353SOL    HW224693   1.483   3.482  15.025  2.5166 -1.5014  0.6892
 4354SOL     OW24694   4.639   0.130   3.954 -0.0391 -0.4729  0.1738
 4354SOL    HW124695   4.656   0.214   3.996  1.2734 -0.6374 -0.0329
 4354SOL    HW224696   4.694   0.077   4.012  0.0976  0.2025  0.6570
 4355SOL     OW24697   1.373   1.061   3.076  0.4719 -0.3983  0.7080
 4355SOL    HW124698   1.346   1.007   3.150  1.6992 -1.2945  0.5104
 4355SOL    HW224699   1.380   1.005   2.999  0.4175  1.7757 -0.8808
 4356SOL     OW24700   0.267   3.087   4.947  0.3519 -0.1713 -0.0255
 4356SOL    HW124701   0.276   3.166   5.000  0.1253  0.6174 -1.1473
 4356SOL    HW224702   0.344   3.032   4.962 -0.5889 -1.7136 -0.8030
 4357SOL     OW24703   0.393   1.402   5.217 -0.3570  0.0634  0.3789
 4357SOL    HW124704   0.352   1.468   5.272  2.2334  0.0382  2.3393
 4357SOL    HW224705   0.354   1.425   5.132  2.6109 -1.1372 -1.2901
 4358SOL     OW24706   3.818   3.188   8.642 -0.0343 -0.2186  0.3466
 4358SOL    HW124707   3.847   3.108   8.598  2.0673  0.6016  0.2582
 4358SOL    HW224708   3.804   3.254   8.574  1.1538 -1.3506 -0.9889
 4359SOL     OW24709   2.382   3.972   7.648  0.3181  0.0186  0.0153
 4359SOL    HW124710   2.393   4.063   7.674  3.1267 -0.8325  1.7289
 4359SOL    HW224711   2.451   3.958   7.584  0.3979 -3.1911  0.8168
 4360SOL     OW24712   2.918   3.582  15.960 -0.3392  0.4108  0.0955
 4360SOL    HW124713   2.884   3.561  15.873  0.6982  0.7981 -0.4009
 4360SOL    HW224714   2.976   3.654  15.935 -0.6710  0.6706  0.0769
 4361SOL     OW24715   1.218   2.113   2.371  0.1687 -0.0290 -0.5574
 4361SOL    HW124716   1.149   2.093   2.309 -0.0755 -0.5923 -0.1040
 4361SOL    HW224717   1.281   2.159   2.316 -1.4340  1.7996 -0.8564
 4362SOL     OW24718   0.431   0.322   3.345  0.1461 -0.3817 -0.0788
 4362SOL    HW124719   0.349   0.311   3.296 -1.4663  0.3535  2.4708
 4362SOL    HW224720   0.395   0.341   3.432  1.5217  0.7066  0.2550
 4363SOL     OW24721   2.029   2.841  11.701  0.1106 -0.5756 -0.6018
 4363SOL    HW124722   2.011   2.896  11.777  2.0726  1.1252 -1.3615
 4363SOL    HW224723   2.031   2.913  11.638 -1.4490 -0.1677 -0.1953
 4364SOL     OW24724   0.939   3.191   5.146  0.7578 -0.2618 -0.3801
 4364SOL    HW124725   0.894   3.121   5.194  0.1839  1.2585  1.2844
 4364SOL    HW224726   0.902   3.172   5.060  0.9359  0.5452 -0.6300
 4365SOL     OW24727   0.792   4.477   8.782  0.2567  0.0245  0.4207
 4365SOL    HW124728   0.755   4.396   8.817  0.4177  0.1289  0.8306
 4365SOL    HW224729   0.713   4.531   8.784 -0.3328 -1.0814  6.0114
 4366SOL     OW24730   3.658   1.478   4.452  0.2116  0.0512  0.5273
 4366SOL    HW124731   3.656   1.556   4.398  0.2563  1.5637  2.6840
 4366SOL    HW224732   3.714   1.505   4.525  0.3825  0.8287  0.1026
 4367SOL     OW24733   3.114   1.677   8.598  0.3516 -0.3286 -0.2245
 4367SOL    HW124734   3.198   1.638   8.572 -0.3180  0.2319 -3.1817
 4367SOL    HW224735   3.120   1.764   8.561 -1.6594  0.6814  1.8088
 4368SOL     OW24736   3.661   4.696  12.973  0.3229  0.2767  0.2164
 4368SOL    HW124737   3.643   0.019  12.905  0.4607 -0.7223 -0.7661
 4368SOL    HW224738   3.624   4.615  12.938  1.8211  0.1691 -1.0936
 4369SOL     OW24739   3.553   2.810   5.393 -0.4930  0.3678  0.0092
 4369SOL    HW124740   3.556   2.848   5.481  0.2684 -0.7848  0.4839
 4369SOL    HW224741   3.646   2.807   5.372 -0.5271  1.3515 -0.3183
 4370SOL     OW24742   3.254   4.538   7.687  0.1740 -0.1770  0.2454
 4370SOL    HW124743   3.247   4.448   7.717  0.4920  0.5621  2.5983
 4370SOL    HW224744   3.332   4.523   7.634 -0.2783  1.8076 -0.9920
 4371SOL     OW24745   3.400   3.616   3.865  0.4403 -0.0463 -0.8979
 4371SOL    HW124746   3.493   3.600   3.855  0.8569  2.1496 -0.5910
 4371SOL    HW224747   3.388   3.685   3.799 -2.5063  0.0182 -0.3142
 4372SOL     OW24748   2.679   3.886   6.047  0.5160  0.2469  0.3296
 4372SOL    HW124749   2.590   3.854   6.035  0.5766 -0.3853  1.5423
 4372SOL    HW224750   2.689   3.927   5.962 -0.4260  0.3707  0.2840
 4373SOL     OW24751   4.021   1.985   3.726  0.1825 -0.2138  0.2880
 4373SOL    HW124752   4.009   2.021   3.638 -0.5710 -0.8715  0.1171
 4373SOL    HW224753   3.953   1.918   3.717 -0.1337  0.3950 -1.9141
 4374SOL     OW24754   0.854   3.714   4.001  0.1290 -0.0205 -0.0526
 4374SOL    HW124755   0.887   3.795   3.964  0.3388 -0.7167 -1.3842
 4374SOL    HW224756   0.758   3.720   3.999  0.2853  1.3052 -3.4559
 4375SOL     OW24757   1.466   0.146   8.652 -1.0242 -0.1303  0.1173
 4375SOL    HW124758   1.560   0.165   8.649 -0.7883 -0.9427  2.8324
 4375SOL    HW224759   1.428   0.233   8.643  0.2483  0.4330  0.1123
 4376SOL     OW24760   0.784   4.444   4.101  0.3697 -0.3488  0.3609
 4376SOL    HW124761   0.711   4.488   4.057  0.1735 -1.0543 -0.0156
 4376SOL    HW224762   0.829   4.403   4.028  1.8053 -0.2837  1.2044
 4377SOL     OW24763   2.487   1.157   2.125  0.1236 -0.4318  0.4237
 4377SOL    HW124764   2.405   1.177   2.079 -0.2817  3.4407  2.8420
 4377SOL    HW224765   2.540   1.228   2.090  0.7416 -0.6374  0.9352
 4378SOL     OW24766   1.702   1.459  12.949  0.3608  0.3168  0.0623
 4378SOL    HW124767   1.697   1.492  13.039 -1.6798  2.2990 -0.7857
 4378SOL    HW224768   1.778   1.507  12.916  0.3281  0.3267  0.0025
 4379SOL     OW24769   0.526   2.482   2.651 -0.4648 -0.4890 -0.0555
 4379SOL    HW124770   0.438   2.491   2.614  0.6163  0.1012 -2.4936
 4379SOL    HW224771   0.547   2.567   2.690  0.3362  0.1810 -1.9514
 4380SOL     OW24772   3.073   3.738   9.016 -0.3845 -0.8999  0.4068
 4380SOL    HW124773   3.136   3.735   9.088 -0.1344  1.7626  0.2936
 4380SOL    HW224774   3.120   3.779   8.944 -0.6970 -0.8672  0.2233
 4381SOL     OW24775   0.866   2.704  14.550  0.6386 -0.0155 -0.3392
 4381SOL    HW124776   0.951   2.663  14.536  0.5943 -1.2767  3.2673
 4381SOL    HW224777   0.841   2.688  14.640  0.2338  0.3544 -0.3852
 4382SOL     OW24778   0.397   2.207   6.802 -0.0226 -0.0654  0.1065
 4382SOL    HW124779   0.332   2.233   6.867 -0.6105  0.0135 -0.5247
 4382SOL    HW224780   0.353   2.167   6.727  1.4437 -0.6799 -0.4446
 4383SOL     OW24781   0.562   4.405   8.430  0.4225 -0.2489 -0.2624
 4383SOL    HW124782   0.634   4.363   8.383  1.2595  0.5486  0.2818
 4383SOL    HW224783   0.534   4.469   8.365 -0.4190  0.6886  1.0132
 4384SOL     OW24784   3.873   4.055  14.409 -0.2018  0.6221 -0.6945
 4384SOL    HW124785   3.948   4.011  14.370 -0.3624 -0.2583 -0.0054
 4384SOL    HW224786   3.807   3.987  14.395 -0.3441  0.2231  1.8012
 4385SOL     OW24787   4.273   4.669   7.122  0.7801  0.3163  0.0130
 4385SOL    HW124788   4.309   4.678   7.210 -0.7742  0.5526  0.6398
 4385SOL    HW224789   4.192   4.718   7.135 -0.4108 -1.5621 -0.2466
 4386SOL     OW24790   3.861   1.688  10.848 -0.2409  0.2451 -0.3041
 4386SOL    HW124791   3.823   1.709  10.933 -0.5255  1.1215 -0.6424
 4386SOL    HW224792   3.790   1.737  10.806 -0.5023  0.5531  0.5064
 4387SOL     OW24793   0.536   2.146   0.639  0.3687 -0.7540 -0.5780
 4387SOL    HW124794   0.574   2.178   0.720 -1.4777  2.1500 -0.8566
 4387SOL    HW224795   0.602   2.078   0.628  0.4838 -0.4789 -1.6039
 4388SOL     OW24796   4.212   1.156   4.436  0.0735  0.0669  0.4148
 4388SOL    HW124797   4.184   1.068   4.459  0.1610 -0.0797 -0.0325
 4388SOL    HW224798   4.304   1.158   4.462 -0.4035  5.3749  1.8341
 4389SOL     OW24799   3.931   0.243   4.438 -0.1316  0.2086  0.1259
 4389SOL    HW124800   3.899   0.162   4.398  1.1656  0.4171 -1.3425
 4389SOL    HW224801   3.855   0.268   4.489 -0.2631  1.1785 -0.5579
 4390SOL     OW24802   3.027   3.200   9.243 -0.5597  0.1421  0.7547
 4390SOL    HW124803   2.963   3.265   9.273  1.0498  2.3816 -0.5943
 4390SOL    HW224804   3.059   3.248   9.167  0.6487 -0.3847  0.9363
 4391SOL     OW24805   2.424   1.475   2.742 -0.2158 -0.0677  0.5148
 4391SOL    HW124806   2.438   1.393   2.694  0.6191 -1.2953  2.8557
 4391SOL    HW224807   2.354   1.449   2.802 -1.2157  0.9312 -0.2040
 4392SOL     OW24808   4.549   2.706   1.484 -0.0540 -0.0576  0.3616
 4392SOL    HW124809   4.558   2.800   1.498 -0.5781 -0.2442  1.9640
 4392SOL    HW224810   4.635   2.664   1.489 -0.7290 -1.7585 -2.2527
 4393SOL     OW24811   4.450   0.397   5.163  0.5234  0.3058  0.1117
 4393SOL    HW124812   4.381   0.463   5.176  2.3961  2.5167 -1.2013
 4393SOL    HW224813   4.454   0.365   5.253  3.5260 -1.2886 -0.6174
 4394SOL     OW24814   1.306   2.210   1.736  0.2245  0.0101 -0.6642
 4394SOL    HW124815   1.353   2.220   1.819  0.9714 -2.4107 -0.8067
 4394SOL    HW224816   1.377   2.193   1.675 -0.2542  1.0689 -1.5066
 4395SOL     OW24817   3.299   0.908   4.863  0.6747  0.2956 -0.7633
 4395SOL    HW124818   3.377   0.859   4.837  0.2699 -0.1556 -1.1230
 4395SOL    HW224819   3.327   0.917   4.954 -2.6643  2.0083  0.1024
 4396SOL     OW24820   4.518   0.953   1.890 -0.0821 -0.2935 -0.5298
 4396SOL    HW124821   4.602   0.946   1.935 -0.2189  2.7786  0.1783
 4396SOL    HW224822   4.452   0.968   1.958  0.0389  2.2602 -0.9937
 4397SOL     OW24823   2.511   0.021   4.737 -0.0343  0.5095 -0.1434
 4397SOL    HW124824   2.463   0.048   4.815  0.1634  0.4619 -0.0075
 4397SOL    HW224825   2.544   0.098   4.691  1.7776 -0.0870  0.1598
 4398SOL     OW24826   0.203   3.520   5.752  0.1607  0.5270 -0.5751
 4398SOL    HW124827   0.174   3.475   5.831 -0.7003  0.4043 -0.9674
 4398SOL    HW224828   0.252   3.448   5.712  2.8520  1.7378  0.4961
 4399SOL     OW24829   1.435   1.636   4.459  0.7378  0.4534 -0.5849
 4399SOL    HW124830   1.468   1.617   4.371  2.3949 -1.4387  0.4382
 4399SOL    HW224831   1.347   1.668   4.442  0.7864  1.0887  0.3321
 4400SOL     OW24832   4.711   1.221   3.703  0.3780 -0.0891  0.3334
 4400SOL    HW124833   0.055   1.212   3.660  1.1772  1.1893  1.6424
 4400SOL    HW224834   4.672   1.134   3.694  2.4563 -0.7667 -2.0738
 4401SOL     OW24835   2.743   4.333  11.909 -0.6579 -0.1522  0.5573
 4401SOL    HW124836   2.813   4.305  11.968 -2.1313  0.2705  2.5406
 4401SOL    HW224837   2.699   4.248  11.912  2.1412 -1.5923  0.4681
 4402SOL     OW24838   0.358   0.906   7.398 -0.4661  0.1099  0.7275
 4402SOL    HW124839   0.302   0.932   7.471  0.4433  0.7197  1.1998
 4402SOL    HW224840   0.285   0.890   7.338 -0.1992 -0.2014  0.4841
 4403SOL     OW24841   0.866   3.534   7.667 -0.5673  0.0628 -0.2830
 4403SOL    HW124842   0.880   3.466   7.733  1.2483 -0.7545 -1.4990
 4403SOL    HW224843   0.887   3.613   7.716  1.9592  0.2756 -1.6847
 4404SOL     OW24844   3.660   0.005   8.034  0.2260 -0.5247 -0.3984
 4404SOL    HW124845   3.653   4.674   7.972  0.0701  0.7196 -1.8371
 4404SOL    HW224846   3.749   0.036   8.018 -0.9004  0.9908 -3.8661
 4405SOL     OW24847   2.429   1.132   3.846 -1.0192 -0.2802  0.3506
 4405SOL    HW124848   2.414   1.081   3.767  1.6111 -1.1913  0.4265
 4405SOL    HW224849   2.501   1.189   3.818 -1.5050 -0.3105 -0.9388
 4406SOL     OW24850   1.943   3.133   5.102  0.1226  0.3731 -0.1196
 4406SOL    HW124851   1.871   3.078   5.132  0.7649 -0.8749 -0.8703
 4406SOL    HW224852   1.910   3.172   5.020 -0.1664 -0.8015 -0.5577
 4407SOL     OW24853   1.243   2.389  13.702  0.4462 -0.0528 -0.7798
 4407SOL    HW124854   1.252   2.477  13.739  2.1219 -0.1270 -0.9890
 4407SOL    HW224855   1.153   2.392  13.669 -0.3955  1.6803  1.7075
 4408SOL     OW24856   0.022   3.227   6.929  0.0582  0.3414  0.3547
 4408SOL    HW124857   0.011   3.321   6.922  0.4259  0.4855  1.7455
 4408SOL    HW224858   0.022   3.225   7.025 -0.6376 -0.6883  0.3394
 4409SOL     OW24859   2.393   1.113   3.265  0.3303  0.0855 -0.3890
 4409SOL    HW124860   2.308   1.142   3.298 -0.2367 -0.4985 -1.3380
 4409SOL    HW224861   2.418   1.171   3.193 -1.1466  0.7370 -0.3689
 4410SOL     OW24862   0.148   4.723  14.967 -0.8263  0.5655 -0.3496
 4410SOL    HW124863   0.161   0.068  15.007  2.0106 -0.3942  0.8025
 4410SOL    HW224864   0.072   4.685  15.011 -1.8407  0.3705 -2.2377
 4411SOL     OW24865   1.829   2.426   4.836  0.0511  0.5517  0.0676
 4411SOL    HW124866   1.745   2.431   4.791 -0.8262 -0.0226  1.6539
 4411SOL    HW224867   1.817   2.354   4.897 -3.3739  1.5220  0.5549
 4412SOL     OW24868   4.578   2.165   7.897  0.0136  0.1221  0.6479
 4412SOL    HW124869   4.564   2.260   7.896 -0.2227  0.0721 -1.0556
 4412SOL    HW224870   4.667   2.163   7.861  0.7151 -0.7647  2.4184
 4413SOL     OW24871   1.832   2.167   4.645 -0.3670  0.7639  0.4484
 4413SOL    HW124872   1.919   2.198   4.622 -1.0439  0.6443 -2.2903
 4413SOL    HW224873   1.829   2.161   4.740  2.9393  1.3732  0.5731
 4414SOL     OW24874   4.610   1.951   3.757  0.4232 -0.2663  0.0764
 4414SOL    HW124875   4.597   1.909   3.842 -0.1736  0.9790  0.6075
 4414SOL    HW224876   4.568   1.883   3.705  0.7807 -0.8090  0.4872
 4415SOL     OW24877   0.459   4.437   7.238 -0.0322  0.4181  0.3399
 4415SOL    HW124878   0.365   4.437   7.255  0.5466  0.0582  3.6224
 4415SOL    HW224879   0.486   4.391   7.318  1.2696  0.3753 -0.1206
 4416SOL     OW24880   2.639   1.285   3.131 -0.0003 -0.1807 -0.3059
 4416SOL    HW124881   2.659   1.367   3.086  2.3834 -0.5056  0.1334
 4416SOL    HW224882   2.721   1.281   3.181 -0.7792 -1.1203  0.8784
 4417SOL     OW24883   0.174   3.146   7.790 -0.0871  0.0928 -0.1209
 4417SOL    HW124884   0.201   3.210   7.724 -0.4706  2.7549  2.2990
 4417SOL    HW224885   0.237   3.074   7.785 -1.6883 -1.1903 -2.3384
 4418SOL     OW24886   3.158   2.117   4.264  0.4473  0.3395 -0.0548
 4418SOL    HW124887   3.156   2.204   4.224  1.5316  0.3232 -0.1288
 4418SOL    HW224888   3.154   2.132   4.358 -1.2143  0.5084 -0.1412
 4419SOL     OW24889   4.246   3.022   2.971  0.2183  0.3847 -0.8246
 4419SOL    HW124890   4.225   3.103   2.924 -1.8767  0.5510  0.3924
 4419SOL    HW224891   4.330   3.000   2.932  0.0802 -0.4212 -0.6672
 4420SOL     OW24892   1.986   1.912  13.705 -0.3557 -0.3443 -0.7181
 4420SOL    HW124893   1.926   1.964  13.759  0.2706  1.7339 -2.0134
 4420SOL    HW224894   2.001   1.970  13.630  0.4833 -1.2926 -1.2904
 4421SOL     OW24895   2.573   2.329   7.825  0.0631 -0.3515 -1.0164
 4421SOL    HW124896   2.580   2.270   7.750  0.0683 -1.9824  0.2788
 4421SOL    HW224897   2.661   2.364   7.835 -0.6618  0.8234  1.2578
 4422SOL     OW24898   1.991   0.266   9.217  0.2982 -0.1868  0.4713
 4422SOL    HW124899   1.968   0.184   9.261 -1.6478 -0.7311 -1.5529
 4422SOL    HW224900   2.049   0.303   9.283 -1.4697  1.5923  1.0144
 4423SOL     OW24901   3.205   1.852  10.368 -0.0614  0.6681 -0.0016
 4423SOL    HW124902   3.241   1.933  10.329  0.9135 -1.2530 -3.1381
 4423SOL    HW224903   3.134   1.894  10.416 -2.1791 -0.7363 -1.9220
 4424SOL     OW24904   3.984   2.989   5.953  0.1238 -0.8372 -0.6592
 4424SOL    HW124905   4.015   3.025   6.036  0.2635 -0.7396 -0.7514
 4424SOL    HW224906   3.895   3.023   5.948  0.4623  0.1421 -0.1205
 4425SOL     OW24907   1.414   3.353  16.283 -0.6202  0.3357 -0.1250
 4425SOL    HW124908   1.459   3.328  16.364 -0.3814 -0.8482 -0.6341
 4425SOL    HW224909   1.448   3.303  16.209 -1.2095  1.0660 -0.8887
 4426SOL     OW24910   2.834   4.028   5.637  0.0525 -0.1692  0.4065
 4426SOL    HW124911   2.853   4.121   5.629 -0.0626 -0.3481 -1.8526
 4426SOL    HW224912   2.894   4.002   5.567 -0.0513  1.1107 -0.1597
 4427SOL     OW24913   0.756   0.745   5.046  0.3780  0.1643  0.4152
 4427SOL    HW124914   0.840   0.782   5.020  1.0418 -0.8178  1.1508
 4427SOL    HW224915   0.752   0.687   4.971 -1.8332  0.2793  0.4395
 4428SOL     OW24916   0.906   3.773   7.824 -0.5693  0.2194 -0.3812
 4428SOL    HW124917   0.998   3.788   7.843 -0.3851  1.0573 -1.9629
 4428SOL    HW224918   0.886   3.829   7.749 -1.5976  1.4566  0.8262
 4429SOL     OW24919   3.573   2.364   8.204  0.4037 -0.6897 -0.2028
 4429SOL    HW124920   3.486   2.403   8.192  0.9384  0.6561  0.2567
 4429SOL    HW224921   3.576   2.317   8.121  1.3852 -1.9836  0.5581
 4430SOL     OW24922   2.490   1.573  11.983  0.1609 -0.0466 -1.3857
 4430SOL    HW124923   2.504   1.668  11.979 -0.2010  0.0718  0.0986
 4430SOL    HW224924   2.417   1.570  12.044 -0.2010  0.5842 -1.7928
 4431SOL     OW24925   1.269   1.394   2.277 -0.1973  0.2324 -0.5269
 4431SOL    HW124926   1.342   1.389   2.339 -1.5609 -0.0740  1.0546
 4431SOL    HW224927   1.274   1.311   2.229 -0.6226  0.1089 -0.3555
 4432SOL     OW24928   3.913   3.755  16.815  0.0365  0.4959  0.4594
 4432SOL    HW124929   3.872   3.708  16.742  0.6508 -0.6123  0.8331
 4432SOL    HW224930   3.841   3.773  16.875 -1.3523 -0.0704 -1.0233
 4433SOL     OW24931   1.811   1.939  15.060  0.1263 -0.0164 -0.6804
 4433SOL    HW124932   1.810   2.033  15.080  0.1015 -0.1160 -0.2220
 4433SOL    HW224933   1.757   1.908  15.133 -3.3958  4.2332 -1.4542
 4434SOL     OW24934   4.741   2.772  10.785  0.5106 -0.0541  0.9817
 4434SOL    HW124935   4.733   2.794  10.878  0.4802  0.4551  0.8611
 4434SOL    HW224936   0.087   2.802  10.760  1.7342 -2.3772  2.4482
 4435SOL     OW24937   1.554   0.193   4.963 -0.0803  0.3532 -0.1408
 4435SOL    HW124938   1.586   0.160   5.047 -0.3782 -0.5992 -0.3927
 4435SOL    HW224939   1.572   0.114   4.912  0.2293  0.1486  0.2877
 4436SOL     OW24940   0.082   4.557   3.295 -0.1332  0.5004 -0.0343
 4436SOL    HW124941   0.138   4.490   3.256 -1.1126  1.0005 -2.2574
 4436SOL    HW224942   0.003   4.535   3.246 -0.0676 -0.7261  0.4100
 4437SOL     OW24943   1.027   3.129   8.746  0.1221 -0.3026  0.3820
 4437SOL    HW124944   1.046   3.155   8.656 -1.9572 -0.8824 -0.2180
 4437SOL    HW224945   1.111   3.146   8.790  1.3779 -0.1083 -2.0758
 4438SOL     OW24946   2.560   3.716   6.789  0.0463 -0.0830  0.1105
 4438SOL    HW124947   2.470   3.720   6.756 -0.6064 -2.5300  1.5993
 4438SOL    HW224948   2.549   3.651   6.858  0.7661  1.7150  1.9342
 4439SOL     OW24949   2.633   1.979  13.033 -0.0162 -0.2505 -0.0096
 4439SOL    HW124950   2.546   1.957  13.067 -1.3687 -2.2028 -4.7439
 4439SOL    HW224951   2.693   1.905  13.045 -0.7376 -0.5761  1.6913
 4440SOL     OW24952   1.307   4.007  10.592 -0.4289 -0.0994 -0.6098
 4440SOL    HW124953   1.289   4.003  10.498  2.8102  3.4949 -1.3674
 4440SOL    HW224954   1.278   3.917  10.610  0.5364  0.0338  1.5872
 4441SOL     OW24955   2.940   1.079  12.333 -0.4796 -0.0417  0.0319
 4441SOL    HW124956   3.014   1.066  12.392 -0.3809 -0.0276 -0.0898
 4441SOL    HW224957   2.986   1.093  12.250 -1.7278 -0.1546 -0.6790
 4442SOL     OW24958   1.064   2.855  17.753 -0.2882  0.2510 -0.2510
 4442SOL    HW124959   1.060   2.944   0.025 -0.0458  0.0667  0.2619
 4442SOL    HW224960   1.100   2.870  17.665 -0.9145 -1.8538 -0.8702
 4443SOL     OW24961   1.178   1.000   7.023 -0.1188  0.5869  0.6211
 4443SOL    HW124962   1.112   0.945   6.981 -0.5091  1.0050  0.6828
 4443SOL    HW224963   1.230   0.930   7.062 -1.0268 -0.2468  0.3502
 4444SOL     OW24964   0.377   4.307   0.973 -0.1671  0.2785 -0.1712
 4444SOL    HW124965   0.415   4.329   0.888  0.7193  0.1226  0.1880
 4444SOL    HW224966   0.407   4.381   1.025 -0.7301  0.8863 -0.7003
 4445SOL     OW24967   4.239   1.603   6.788  0.6674  0.3349  0.0921
 4445SOL    HW124968   4.329   1.634   6.794  0.8591 -0.0743 -0.6565
 4445SOL    HW224969   4.223   1.601   6.882 -1.7142  0.4706 -0.3210
 4446SOL     OW24970   4.106   4.607  12.171 -0.1945  0.0324  0.1888
 4446SOL    HW124971   4.115   4.672  12.240  0.7128  0.3948 -0.2809
 4446SOL    HW224972   4.098   4.530  12.228 -1.9297  1.2349  1.5494
 4447SOL     OW24973   1.268   2.000   2.627 -0.0323 -0.0660 -0.0244
 4447SOL    HW124974   1.238   1.935   2.563 -0.2473 -0.4642  0.4767
 4447SOL    HW224975   1.271   2.079   2.573  0.1288 -1.8716 -2.6702
 4448SOL     OW24976   0.218   4.154   3.504 -0.9259 -0.4427 -0.2225
 4448SOL    HW124977   0.214   4.240   3.545 -0.8628 -0.2034 -0.7184
 4448SOL    HW224978   0.132   4.118   3.526 -1.0530  1.1427  1.7998
 4449SOL     OW24979   0.074   0.436  10.067 -0.4055  0.1120  0.1170
 4449SOL    HW124980   0.142   0.499  10.089 -0.1900  0.2856 -1.0398
 4449SOL    HW224981   0.036   0.426  10.154  1.9920  0.4508  1.2074
 4450SOL     OW24982   2.218   2.136  16.741 -0.6910  0.1103 -0.0898
 4450SOL    HW124983   2.180   2.145  16.829  0.8274 -1.4026  0.7222
 4450SOL    HW224984   2.175   2.202  16.687 -0.3785 -0.4420 -1.0237
 4451SOL     OW24985   0.478   3.503   2.848 -0.1550 -0.2504 -0.7179
 4451SOL    HW124986   0.469   3.414   2.812 -2.4277  0.3413 -1.6194
 4451SOL    HW224987   0.394   3.540   2.822  0.0178  0.1417 -0.7044
 4452SOL     OW24988   0.906   3.995   8.042  0.4535 -0.2562 -0.1372
 4452SOL    HW124989   0.971   3.977   8.110 -1.7552 -1.9635  1.5305
 4452SOL    HW224990   0.929   3.934   7.973  1.6780  0.1320 -0.0750
 4453SOL     OW24991   4.195   3.322   5.888  0.1482 -0.4526  0.3224
 4453SOL    HW124992   4.228   3.342   5.800  2.0304 -0.9684  0.9034
 4453SOL    HW224993   4.104   3.308   5.864 -0.6630 -0.2338  3.3150
 4454SOL     OW24994   0.829   2.929   9.651  0.2544 -0.4694  0.1005
 4454SOL    HW124995   0.763   2.861   9.648  1.0421 -1.1499 -1.9581
 4454SOL    HW224996   0.790   2.989   9.587  2.1021  1.7272  1.0022
 4455SOL     OW24997   2.705   1.576  14.607 -0.8143 -0.0615 -0.1698
 4455SOL    HW124998   2.645   1.630  14.659 -1.1711 -0.4839 -0.1453
 4455SOL    HW224999   2.767   1.641  14.576 -1.6583  0.7441 -0.1718
 4456SOL     OW25000   1.684   1.491  10.547 -0.3155 -0.2932 -0.2869
 4456SOL    HW125001   1.608   1.548  10.535  0.2624  0.2182 -1.5322
 4456SOL    HW225002   1.721   1.491  10.458 -1.2318 -2.7592 -0.6742
 4457SOL     OW25003   2.706   0.310  13.855  0.1169  0.0421  0.5277
 4457SOL    HW125004   2.745   0.397  13.848  0.3888 -0.1789 -0.6752
 4457SOL    HW225005   2.615   0.335  13.874 -0.1354 -0.8088  0.4470
 4458SOL     OW25006   2.119   3.561  12.160 -0.0369  0.0234  1.0289
 4458SOL    HW125007   2.100   3.484  12.107  0.2866  0.3300  0.4668
 4458SOL    HW225008   2.036   3.608  12.155 -2.0133 -3.6387 -0.3526
 4459SOL     OW25009   2.723   3.810   1.241 -0.2466  0.0617 -0.6911
 4459SOL    HW125010   2.648   3.750   1.239  0.0292 -0.3800  2.3059
 4459SOL    HW225011   2.800   3.753   1.229  1.3446  1.1866  4.1316
 4460SOL     OW25012   3.776   0.323   5.778  0.3017 -0.3875  0.3770
 4460SOL    HW125013   3.781   0.387   5.707  1.2306 -1.7541 -0.7849
 4460SOL    HW225014   3.725   0.250   5.743  0.5159 -0.9174  1.1506
 4461SOL     OW25015   1.979   0.038  10.341  0.0141  0.4759 -0.5046
 4461SOL    HW125016   2.070   0.033  10.369  0.1356  1.2369 -0.7857
 4461SOL    HW225017   1.964   0.132  10.352 -0.1177  0.2259  1.4958
 4462SOL     OW25018   3.174   3.978   4.868  0.0876 -0.0768 -0.5386
 4462SOL    HW125019   3.152   4.071   4.858  1.8097  0.3652 -0.2509
 4462SOL    HW225020   3.195   3.953   4.779  2.7027  0.8895 -0.1790
 4463SOL     OW25021   4.223   2.131   3.357 -0.0225 -0.1326  0.3853
 4463SOL    HW125022   4.223   2.212   3.307 -0.2268 -0.3925 -0.0310
 4463SOL    HW225023   4.314   2.127   3.386  0.7830  1.1391 -1.9842
 4464SOL     OW25024   2.490   3.355   8.829 -0.0681 -0.9863  0.0702
 4464SOL    HW125025   2.405   3.316   8.848 -0.2648 -0.6633 -0.1593
 4464SOL    HW225026   2.491   3.371   8.735 -1.3962  0.0403  0.2338
 4465SOL     OW25027   4.230   2.846  11.990  0.0357  0.2958 -0.4394
 4465SOL    HW125028   4.249   2.775  11.928 -3.9398 -2.2107  1.2150
 4465SOL    HW225029   4.135   2.849  11.987 -0.0461 -1.4733  0.2991
 4466SOL     OW25030   0.710   3.020   1.706  0.4749  0.1901 -0.1655
 4466SOL    HW125031   0.729   3.107   1.740  0.1758 -1.1612  3.4274
 4466SOL    HW225032   0.798   2.987   1.692  0.3827  0.0607 -0.4457
 4467SOL     OW25033   4.561   1.414   3.528 -0.3049 -0.3239 -0.3275
 4467SOL    HW125034   4.607   1.346   3.577  0.1220  0.7274  0.7345
 4467SOL    HW225035   4.502   1.452   3.593  0.4218 -0.2504  0.2890
 4468SOL     OW25036   0.271   0.656  16.274  0.2772 -0.0455  0.0312
 4468SOL    HW125037   0.202   0.710  16.235  2.0134  0.5579 -2.2053
 4468SOL    HW225038   0.278   0.580  16.216  2.0609  0.0989  0.0536
 4469SOL     OW25039   2.077   0.455  17.406  0.0833 -0.3166 -0.1503
 4469SOL    HW125040   2.074   0.481  17.314  1.2800 -1.4561 -0.5104
 4469SOL    HW225041   2.047   0.533  17.453 -0.5382  0.9409 -2.6394
 4470SOL     OW25042   2.768   2.317   5.649 -0.2036  0.2054  0.6293
 4470SOL    HW125043   2.835   2.257   5.680 -0.1251 -0.2325 -0.3869
 4470SOL    HW225044   2.728   2.272   5.574  1.4225 -1.3871  0.7069
 4471SOL     OW25045   1.685   1.593  16.731 -0.3828  0.6233  0.2313
 4471SOL    HW125046   1.643   1.679  16.727  1.4184  1.5318  0.7078
 4471SOL    HW225047   1.753   1.593  16.663 -1.6795  1.5602 -1.0661
 4472SOL     OW25048   0.652   1.053  16.398  0.2695  0.0600  0.1365
 4472SOL    HW125049   0.607   0.969  16.393 -0.1073  0.3020 -0.5402
 4472SOL    HW225050   0.721   1.047  16.332 -0.8492 -1.5415 -0.8773
 4473SOL     OW25051   4.175   2.206  13.152  0.3273  0.1142 -0.0790
 4473SOL    HW125052   4.228   2.220  13.074  0.9798  2.0658  0.7240
 4473SOL    HW225053   4.153   2.114  13.137 -0.9802 -0.4513  5.2764
 4474SOL     OW25054   4.240   3.142   6.492 -0.7174  0.0508 -0.4433
 4474SOL    HW125055   4.217   3.050   6.480 -0.0571 -0.0261 -1.1580
 4474SOL    HW225056   4.160   3.176   6.532  1.1064  0.0119  3.2273
 4475SOL     OW25057   1.683   4.312   7.715  0.3866  0.3800  0.2060
 4475SOL    HW125058   1.746   4.247   7.685  0.9932  0.7060  0.7894
 4475SOL    HW225059   1.722   4.344   7.796 -0.2065 -2.5699  1.6637
 4476SOL     OW25060   4.317   4.220   4.313 -0.0279  0.1576 -0.2579
 4476SOL    HW125061   4.239   4.274   4.298  1.6809  2.5356 -0.5928
 4476SOL    HW225062   4.390   4.282   4.318  0.4587 -0.4713  0.5130
 4477SOL     OW25063   3.434   0.238   6.542 -0.3044 -0.0674 -0.1667
 4477SOL    HW125064   3.472   0.303   6.601 -3.0268 -0.3119  1.8572
 4477SOL    HW225065   3.341   0.261   6.535  0.0834  2.1248  1.6446
 4478SOL     OW25066   1.802   3.519   7.724  0.5198  0.0591  0.8932
 4478SOL    HW125067   1.883   3.482   7.690 -0.0952 -0.7615  0.3274
 4478SOL    HW225068   1.836   3.573   7.795  1.6804  0.3845  0.0908
 4479SOL     OW25069   3.044   3.115   7.774  0.1686 -0.2041 -0.1449
 4479SOL    HW125070   3.000   3.095   7.691 -1.0101 -2.4857  1.0242
 4479SOL    HW225071   3.069   3.023   7.784  2.7263  0.4055 -1.0440
 4480SOL     OW25072   3.520   2.596   7.952 -0.2423  0.1371  0.1897
 4480SOL    HW125073   3.546   2.672   8.005  0.4648 -0.6519  0.9890
 4480SOL    HW225074   3.456   2.549   8.005 -0.7629  1.3623  0.6597
 4481SOL     OW25075   3.349   0.921   1.996  0.5187  0.3194 -0.5899
 4481SOL    HW125076   3.360   0.877   1.911  0.9548 -2.7196  1.0213
 4481SOL    HW225077   3.297   0.850   2.035 -1.3368  2.9643  1.7518
 4482SOL     OW25078   1.140   0.667  12.158  0.4572  0.3707  0.8401
 4482SOL    HW125079   1.181   0.635  12.078  0.3588 -3.3750  2.2884
 4482SOL    HW225080   1.206   0.638  12.221  1.4805 -1.0993 -0.8994
 4483SOL     OW25081   2.257   1.795   2.145  0.0973  0.4154  0.0477
 4483SOL    HW125082   2.241   1.702   2.128  1.0315  0.0817  1.0133
 4483SOL    HW225083   2.347   1.787   2.175 -0.9224 -1.4172  2.6044
 4484SOL     OW25084   2.962   1.256   0.972  0.5403 -0.0994  0.5644
 4484SOL    HW125085   2.994   1.246   1.061  0.8924 -0.7006  0.3675
 4484SOL    HW225086   2.945   1.164   0.949 -1.7565  0.1211  1.3634
 4485SOL     OW25087   0.003   0.493  16.961  0.8533 -0.7862 -0.3051
 4485SOL    HW125088   0.068   0.500  16.891  0.5323 -1.4980 -0.6742
 4485SOL    HW225089   0.004   0.581  16.999  1.6892 -0.7852 -0.3332
 4486SOL     OW25090   0.137   1.986   5.340  0.2483  0.3948  0.3677
 4486SOL    HW125091   0.174   2.070   5.364  0.6383  0.1784  0.5189
 4486SOL    HW225092   0.091   2.024   5.265  1.6001 -0.9324 -1.1408
 4487SOL     OW25093   4.582   0.637   6.030 -0.0958 -0.4291 -0.3383
 4487SOL    HW125094   4.653   0.654   6.092  0.9485 -0.1715 -1.6119
 4487SOL    HW225095   4.536   0.566   6.076 -1.1267  0.8096  0.5401
 4488SOL     OW25096   2.741   0.953  14.936  0.0545 -0.5438  0.0820
 4488SOL    HW125097   2.768   0.861  14.940  0.4879 -0.4541 -0.7977
 4488SOL    HW225098   2.676   0.952  14.866  0.7179  0.7166 -0.5430
 4489SOL     OW25099   3.253   1.307   8.102  0.1011 -0.4258  0.1135
 4489SOL    HW125100   3.228   1.354   8.182 -1.9196 -1.7350  0.2538
 4489SOL    HW225101   3.253   1.374   8.033  1.0894 -0.5342  0.0145
 4490SOL     OW25102   3.681   2.241   9.608  0.4572 -1.1016 -0.5057
 4490SOL    HW125103   3.663   2.293   9.687  0.9543 -0.8133 -0.5865
 4490SOL    HW225104   3.622   2.167   9.623  0.1376 -0.8811 -0.6869
 4491SOL     OW25105   0.603   4.676  11.407  0.7770  0.1136 -0.0968
 4491SOL    HW125106   0.698   4.676  11.395  0.9098 -1.8576  1.0782
 4491SOL    HW225107   0.584   0.029  11.397  1.0284  0.1399 -0.3167
 4492SOL     OW25108   2.250   1.485   5.247  0.1825 -0.0755 -0.3335
 4492SOL    HW125109   2.257   1.399   5.288 -0.1868  0.2074  0.3271
 4492SOL    HW225110   2.264   1.545   5.321 -0.4365  1.5213 -1.5164
 4493SOL     OW25111   2.462   0.600   7.477 -0.1853 -1.0553 -0.4018
 4493SOL    HW125112   2.377   0.581   7.438 -0.9431  2.8762 -0.6238
 4493SOL    HW225113   2.501   0.514   7.463  1.1917 -0.4508 -0.3699
 4494SOL     OW25114   0.237   2.665  11.077  0.3140 -0.1055 -0.1112
 4494SOL    HW125115   0.296   2.641  11.006 -2.2877 -0.5316 -2.1114
 4494SOL    HW225116   0.247   2.593  11.140  0.6387 -0.2859 -0.3688
 4495SOL     OW25117   4.272   3.290  17.424 -0.0886  0.2538 -0.1546
 4495SOL    HW125118   4.278   3.382  17.397 -1.0512  0.7560  1.3022
 4495SOL    HW225119   4.305   3.250  17.344 -0.3839  1.5350 -0.9217
 4496SOL     OW25120   4.271   2.628   3.160  0.3367 -0.7298 -0.2680
 4496SOL    HW125121   4.308   2.651   3.075  2.6173  1.7374  1.3306
 4496SOL    HW225122   4.239   2.714   3.189  1.7025 -0.6491  1.0109
 4497SOL     OW25123   3.053   0.375  13.349 -0.8260  0.2811  0.3165
 4497SOL    HW125124   3.004   0.416  13.278  1.7590  1.8121 -0.5828
 4497SOL    HW225125   3.015   0.414  13.428 -1.0916 -0.2056  0.4277
 4498SOL     OW25126   4.735   0.056   3.027 -0.2528  0.4700  0.2801
 4498SOL    HW125127   4.698   0.124   2.971 -1.6379  0.5438  1.3093
 4498SOL    HW225128   4.656   0.036   3.076 -1.1790  2.1036 -0.5848
 4499SOL     OW25129   0.532   4.251   8.649  0.4894  0.3346 -0.4031
 4499SOL    HW125130   0.541   4.297   8.566 -0.0862 -1.4823 -1.4400
 4499SOL    HW225131   0.498   4.318   8.709 -1.0513 -1.3649  0.6050
 4500SOL     OW25132   4.364   3.067  11.913  0.2655  0.5024  0.0138
 4500SOL    HW125133   4.377   3.042  11.821 -0.7932  1.0833 -0.2934
 4500SOL    HW225134   4.326   2.983  11.940 -0.1468  0.8856  0.5982
 4501SOL     OW25135   4.345   2.856  17.155 -0.7661 -0.1297  0.1773
 4501SOL    HW125136   4.343   2.786  17.089 -2.3836 -0.3686  0.4631
 4501SOL    HW225137   4.271   2.912  17.132 -2.1390 -1.3195  1.6427
 4502SOL     OW25138   3.684   1.170   3.481 -0.4179 -0.5713 -0.0441
 4502SOL    HW125139   3.667   1.248   3.534 -0.3691 -0.0508 -0.7909
 4502SOL    HW225140   3.671   1.094   3.538  0.0612 -0.2219  0.5301
 4503SOL     OW25141   4.656   1.368   5.692  0.5481  0.5767 -0.1614
 4503SOL    HW125142   4.733   1.329   5.733  0.3055  0.0293 -0.2290
 4503SOL    HW225143   4.639   1.422   5.769  0.1514  1.5278 -0.9198
 4504SOL     OW25144   2.817   3.387  11.461 -0.2969  0.2484  0.0294
 4504SOL    HW125145   2.763   3.388  11.540  0.5331 -0.1386  0.5965
 4504SOL    HW225146   2.779   3.462  11.414 -1.7916  1.5875  3.3795
 4505SOL     OW25147   4.057   4.724   3.828  0.8511 -0.6092 -0.5092
 4505SOL    HW125148   4.099   0.006   3.911 -1.0497 -2.0610  0.8450
 4505SOL    HW225149   4.047   0.072   3.795  1.7773  0.0220  0.9313
 4506SOL     OW25150   3.608   4.535   7.874  0.2615  0.3161 -0.2504
 4506SOL    HW125151   3.587   4.520   7.782 -0.2724 -1.0565  0.0993
 4506SOL    HW225152   3.636   4.449   7.906  1.7678  0.0873 -2.2323
 4507SOL     OW25153   3.413   2.052   7.586 -0.3947  0.0234  0.0346
 4507SOL    HW125154   3.468   2.070   7.662 -1.9508 -2.0808  1.6615
 4507SOL    HW225155   3.329   2.090   7.608  0.2735  0.2675  2.1132
 4508SOL     OW25156   2.599   4.376  13.999  0.1376  0.5024 -0.2135
 4508SOL    HW125157   2.595   4.453  13.942 -2.0691  0.2266 -0.4284
 4508SOL    HW225158   2.692   4.360  14.014  0.1722 -0.2730 -1.2416
 4509SOL     OW25159   2.722   2.816   5.090  0.2814  0.1947  0.2099
 4509SOL    HW125160   2.807   2.861   5.090 -0.2385  1.2054  2.1177
 4509SOL    HW225161   2.674   2.868   5.026 -1.0401 -2.1108 -0.6562
 4510SOL     OW25162   1.682   4.010  16.950  0.1440 -0.6097  0.1859
 4510SOL    HW125163   1.609   4.065  16.921 -0.3463  0.3328  3.1920
 4510SOL    HW225164   1.646   3.947  17.013 -3.8605  0.4329 -1.0914
 4511SOL     OW25165   4.504   1.751   8.642 -0.2444  0.6151 -0.0579
 4511SOL    HW125166   4.510   1.727   8.735  1.5046  1.7175  0.1181
 4511SOL    HW225167   4.595   1.761   8.615  0.1134  1.5433  1.4529
 4512SOL     OW25168   1.450   4.537  14.070 -0.1572 -0.1929  0.4902
 4512SOL    HW125169   1.541   4.519  14.095 -0.0566  0.9098  0.9201
 4512SOL    HW225170   1.445   4.633  14.070 -1.4964 -0.2591  0.3922
 4513SOL     OW25171   1.630   3.421   5.257  0.2084  0.2230  0.7175
 4513SOL    HW125172   1.539   3.403   5.283  1.3000 -2.7585  2.4247
 4513SOL    HW225173   1.622   3.429   5.162 -2.2967 -3.9312  0.5667
 4514SOL     OW25174   1.775   4.611   7.530  1.1818 -0.1166 -0.2641
 4514SOL    HW125175   1.770   4.699   7.567  0.7959 -0.1258 -0.2909
 4514SOL    HW225176   1.826   4.633   7.452  2.6393 -0.9505  0.4487
 4515SOL     OW25177   1.080   3.445   2.923  0.1494 -0.1132 -0.4538
 4515SOL    HW125178   1.016   3.390   2.878 -1.1572 -1.2041  2.7613
 4515SOL    HW225179   1.102   3.515   2.862  0.2419 -0.4749 -0.8377
 4516SOL     OW25180   0.752   4.136   2.687  0.1121 -0.4579  0.0747
 4516SOL    HW125181   0.738   4.098   2.600 -2.0043  1.5750 -0.4409
 4516SOL    HW225182   0.697   4.077   2.739  0.1545 -1.9729 -1.5903
 4517SOL     OW25183   0.212   0.950   3.908  0.6992 -0.3436 -0.1576
 4517SOL    HW125184   0.130   0.910   3.879  0.2869 -2.0261  3.3446
 4517SOL    HW225185   0.267   0.931   3.832  2.0334  0.1405  0.6908
 4518SOL     OW25186   0.190   3.566   3.375 -0.1534 -0.0748  0.4338
 4518SOL    HW125187   0.221   3.511   3.447  0.4095 -0.2843  0.0294
 4518SOL    HW225188   0.266   3.582   3.320 -1.0422  2.1292 -0.1432
 4519SOL     OW25189   0.580   3.205   5.813  0.0109  0.2238 -0.0349
 4519SOL    HW125190   0.657   3.231   5.761 -1.4337 -0.3323 -2.4704
 4519SOL    HW225191   0.538   3.145   5.751 -1.0442 -0.0668  0.9767
 4520SOL     OW25192   1.433   4.406  12.655 -0.6909 -0.1562  0.1728
 4520SOL    HW125193   1.497   4.359  12.708  1.4821  1.8232 -0.6721
 4520SOL    HW225194   1.381   4.451  12.722  1.5773  1.2360  0.9948
 4521SOL     OW25195   1.057   4.559   2.860  0.8585  0.0606 -0.3630
 4521SOL    HW125196   0.989   4.499   2.829  0.4428  0.8387 -0.9759
 4521SOL    HW225197   1.127   4.540   2.796 -0.4483  0.5107 -1.9309
 4522SOL     OW25198   2.935   3.097  16.136 -0.7558  0.3921  0.0082
 4522SOL    HW125199   2.997   3.167  16.155 -1.4580  1.1514 -0.4523
 4522SOL    HW225200   2.866   3.112  16.202 -2.5000 -1.7061 -1.3537
 4523SOL     OW25201   3.033   3.736  10.929 -0.0840 -0.3531  0.3897
 4523SOL    HW125202   3.052   3.764  11.019 -0.8754 -0.7337  0.6747
 4523SOL    HW225203   3.027   3.817  10.880  0.7398 -0.9004 -0.6204
 4524SOL     OW25204   1.534   4.736   6.948 -0.0154  0.4944  0.4986
 4524SOL    HW125205   1.529   0.007   6.853 -0.1542 -0.9363  0.3266
 4524SOL    HW225206   1.447   4.713   6.980 -0.3124  0.0486 -0.6184
 4525SOL     OW25207   1.604   3.404  10.809  0.4253  0.2563  0.0084
 4525SOL    HW125208   1.667   3.409  10.736  1.5786 -1.1838  0.9175
 4525SOL    HW225209   1.658   3.369  10.879  1.2016 -0.7060 -1.0639
 4526SOL     OW25210   3.176   4.280   9.562  0.4905  0.3250 -0.9217
 4526SOL    HW125211   3.235   4.242   9.627 -1.6541  0.0517  0.8575
 4526SOL    HW225212   3.193   4.375   9.564  2.8014 -0.1022  0.6298
 4527SOL     OW25213   4.726   2.692   8.986  0.2857  0.2375 -0.5429
 4527SOL    HW125214   4.698   2.766   9.041  2.1412 -0.7397  1.7278
 4527SOL    HW225215   0.065   2.729   8.947  1.2715  0.5482  1.7216
 4528SOL     OW25216   2.896   2.330   6.437  0.6088  0.0696 -0.5616
 4528SOL    HW125217   2.881   2.318   6.343 -0.7507 -0.2501 -0.3038
 4528SOL    HW225218   2.888   2.241   6.470 -0.1528  0.5545  0.5429
 4529SOL     OW25219   1.572   0.642   5.804  0.1833 -0.1899 -0.4999
 4529SOL    HW125220   1.497   0.585   5.823  0.2078  0.1028  0.4460
 4529SOL    HW225221   1.526   0.710   5.755  1.2390 -0.3016 -1.6469
 4530SOL     OW25222   0.112   0.772   2.203 -0.8525 -0.1633 -0.0364
 4530SOL    HW125223   0.207   0.783   2.203 -1.2174  3.0980  1.2817
 4530SOL    HW225224   0.084   0.851   2.249 -3.1883 -0.4113 -1.0647
 4531SOL     OW25225   4.419   0.746   9.780 -0.0558  0.0934 -0.4843
 4531SOL    HW125226   4.505   0.711   9.755  0.7499 -0.6925  3.4203
 4531SOL    HW225227   4.382   0.658   9.790 -2.4120  1.2277  0.7172
 4532SOL     OW25228   0.084   3.597  16.927  0.5976 -0.0970  0.1265
 4532SOL    HW125229   0.153   3.551  16.879  1.3305  0.5550  0.5458
 4532SOL    HW225230   0.006   3.549  16.898 -0.2693  1.1162  0.4283
 4533SOL     OW25231   4.100   2.005  17.475 -0.5789 -0.0462  0.3497
 4533SOL    HW125232   4.061   1.970  17.555  0.5461 -0.8306  0.5647
 4533SOL    HW225233   4.127   2.092  17.505 -0.9009  0.8264 -1.8185
 4534SOL     OW25234   2.950   0.305   5.397 -0.1928  0.6089  0.2045
 4534SOL    HW125235   3.039   0.336   5.416 -0.3862  1.2470  0.0595
 4534SOL    HW225236   2.902   0.382   5.427 -0.2672  0.9077 -0.6891
 4535SOL     OW25237   0.292   4.156   8.575 -0.0789  0.7618 -0.3376
 4535SOL    HW125238   0.264   4.191   8.660  0.0562 -1.3969  0.6097
 4535SOL    HW225239   0.386   4.172   8.588 -0.2072  1.1700  0.1009
 4536SOL     OW25240   1.664   3.627  11.489  0.2925  0.0283 -0.1983
 4536SOL    HW125241   1.630   3.715  11.471 -0.5501 -0.1883  0.3586
 4536SOL    HW225242   1.593   3.608  11.550 -0.7892  1.2410 -1.0662
 4537SOL     OW25243   3.488   2.536   2.835  0.0297  0.0597 -0.5316
 4537SOL    HW125244   3.479   2.610   2.774  2.4314 -1.5305 -2.8334
 4537SOL    HW225245   3.565   2.572   2.880  1.2269 -1.6794 -1.1993
 4538SOL     OW25246   3.237   1.709   8.024  0.0372  1.1510 -0.0015
 4538SOL    HW125247   3.249   1.650   8.098 -0.2586 -1.0112 -1.6809
 4538SOL    HW225248   3.207   1.650   7.954  1.0325 -0.4790  0.9627
 4539SOL     OW25249   3.382   2.723  12.657  0.5594  0.4567 -0.0334
 4539SOL    HW125250   3.453   2.782  12.680  0.8580  0.2654 -0.4735
 4539SOL    HW225251   3.373   2.665  12.732  1.0693  0.1944 -0.1803
 4540SOL     OW25252   3.426   2.428   6.345  0.0579  0.3214 -0.3781
 4540SOL    HW125253   3.465   2.383   6.420 -1.4904  0.9513  0.8001
 4540SOL    HW225254   3.428   2.521   6.366  1.1281 -0.1942  1.6823
 4541SOL     OW25255   1.567   0.598   3.436  0.1531 -0.1457  0.2358
 4541SOL    HW125256   1.647   0.565   3.475  0.8910  0.9130 -0.3750
 4541SOL    HW225257   1.506   0.615   3.508 -1.0893 -1.3405 -0.5267
 4542SOL     OW25258   1.581   2.047   6.370 -0.1208 -0.2797  0.0413
 4542SOL    HW125259   1.487   2.033   6.358 -0.5926  2.5279  0.5210
 4542SOL    HW225260   1.590   2.054   6.465 -0.1477  0.1165  0.0128
 4543SOL     OW25261   3.892   4.217  15.240 -0.4350 -0.0085 -0.4200
 4543SOL    HW125262   3.845   4.207  15.156 -0.9087  1.7105 -0.3582
 4543SOL    HW225263   3.893   4.313  15.245  0.6205 -0.1276  1.4559
 4544SOL     OW25264   0.616   3.344  10.370 -0.2571 -0.9117  0.2488
 4544SOL    HW125265   0.534   3.294  10.371 -0.1836 -1.0186  0.9591
 4544SOL    HW225266   0.625   3.377  10.459 -1.6485  0.5039 -0.1403
 4545SOL     OW25267   1.590   4.574   6.080 -0.6069  0.1393 -0.3964
 4545SOL    HW125268   1.624   4.589   5.991  1.8299  3.9170  1.1602
 4545SOL    HW225269   1.664   4.586   6.139  1.4044 -1.5094 -2.6013
 4546SOL     OW25270   1.051   2.240  12.377 -0.2546 -0.0343  0.2649
 4546SOL    HW125271   1.093   2.281  12.453  2.1014 -2.4829  0.2773
 4546SOL    HW225272   1.017   2.316  12.329  0.2501  0.3925  0.5789
 4547SOL     OW25273   0.320   2.324   6.352  0.3218  0.3129  0.0521
 4547SOL    HW125274   0.368   2.243   6.368  1.2540  0.8084 -0.2229
 4547SOL    HW225275   0.309   2.368   6.436 -1.3657 -1.6864  0.8857
 4548SOL     OW25276   0.418   2.925  16.878  0.8865 -0.3890  0.1281
 4548SOL    HW125277   0.483   2.894  16.941  1.7464 -0.1645 -0.6409
 4548SOL    HW225278   0.385   2.844  16.841 -0.5343 -0.0767  0.7272
 4549SOL     OW25279   2.421   4.150   8.706  0.6618  0.2539  0.1294
 4549SOL    HW125280   2.399   4.197   8.786 -2.1712 -2.4161  0.9268
 4549SOL    HW225281   2.332   4.134   8.676  0.5445  1.0829  0.0379
 4550SOL     OW25282   2.755   4.556  13.006 -0.4302 -0.0443 -0.2713
 4550SOL    HW125283   2.668   4.594  12.991  0.0951  1.1635 -0.3119
 4550SOL    HW225284   2.763   4.572  13.100  0.5109  1.9012 -0.6781
 4551SOL     OW25285   1.297   2.009   5.635  0.4115 -0.0132  0.2350
 4551SOL    HW125286   1.254   1.997   5.551 -1.7289 -1.8827  1.5701
 4551SOL    HW225287   1.386   2.024   5.605  1.3053 -0.8661  2.4471
 4552SOL     OW25288   2.464   0.604   7.756  0.3465  0.7527 -0.1707
 4552SOL    HW125289   2.467   0.510   7.776 -0.3562  0.1798 -2.7950
 4552SOL    HW225290   2.466   0.599   7.660  0.0185  3.5375 -0.3184
 4553SOL     OW25291   0.762   2.225   5.686  0.2234  0.5082 -0.9193
 4553SOL    HW125292   0.858   2.225   5.687  0.2123  0.9973  0.3729
 4553SOL    HW225293   0.751   2.259   5.775  0.4305  0.6835 -0.9589
 4554SOL     OW25294   4.088   0.425   5.959  0.1036  0.0693 -0.1066
 4554SOL    HW125295   4.059   0.506   6.001  2.3489 -0.0711  1.6703
 4554SOL    HW225296   4.152   0.452   5.893  0.4251 -1.3180 -0.3704
 4555SOL     OW25297   0.063   1.243  17.719 -0.4082 -0.3012  0.1518
 4555SOL    HW125298   0.085   1.154  17.694 -0.8771 -0.2888 -0.3071
 4555SOL    HW225299   4.709   1.240  17.711 -0.4519 -0.8232  0.8461
 4556SOL     OW25300   1.829   0.804   9.059 -0.2836 -0.2742 -0.1977
 4556SOL    HW125301   1.819   0.897   9.076 -0.2378 -0.4841  0.9387
 4556SOL    HW225302   1.899   0.786   9.121  0.3132  0.3936 -0.6786
 4557SOL     OW25303   0.713   2.614   7.073 -0.1214  0.4509  0.4544
 4557SOL    HW125304   0.645   2.666   7.116 -0.3205 -0.4087  1.1649
 4557SOL    HW225305   0.700   2.528   7.112 -1.9867  1.1746  1.3995
 4558SOL     OW25306   3.539   3.501   7.585 -0.2475  0.2278 -0.0245
 4558SOL    HW125307   3.537   3.417   7.539 -0.8828 -0.3923  1.1411
 4558SOL    HW225308   3.547   3.575   7.525  2.7858  1.7920  2.2754
 4559SOL     OW25309   2.546   0.429   6.282 -0.1070  0.7257 -0.8562
 4559SOL    HW125310   2.533   0.341   6.319 -0.9324  1.1028 -0.2412
 4559SOL    HW225311   2.484   0.478   6.337  1.5466 -0.0321  1.6748
 4560SOL     OW25312   0.439   1.453   5.624  0.3837  0.1252 -0.2230
 4560SOL    HW125313   0.389   1.454   5.543  2.8843  0.2977 -1.7730
 4560SOL    HW225314   0.385   1.400   5.683  1.0979 -0.5832 -0.2205
 4561SOL     OW25315   2.380   2.659   8.838  0.4494  0.0909  0.0762
 4561SOL    HW125316   2.358   2.660   8.932 -0.8868  0.2743 -0.2315
 4561SOL    HW225317   2.460   2.608   8.831 -0.8996 -1.7415 -1.6897
 4562SOL     OW25318   0.013   2.086   6.280 -0.3049 -0.3289  0.5754
 4562SOL    HW125319   4.688   2.070   6.212 -1.1695  0.8796  1.1170
 4562SOL    HW225320   0.008   2.182   6.288 -0.3216 -0.2863  0.0589
 4563SOL     OW25321   0.688   4.053   5.897 -0.1540  0.4566  0.1435
 4563SOL    HW125322   0.623   4.012   5.840 -0.3122  1.4422 -0.3838
 4563SOL    HW225323   0.748   3.983   5.924  1.1024  1.0110 -1.2436
 4564SOL     OW25324   0.326   0.986   1.369  0.2679  0.1186 -0.2512
 4564SOL    HW125325   0.289   1.052   1.311  2.2643  0.5084 -1.0363
 4564SOL    HW225326   0.261   0.916   1.359  0.3311  0.2461 -1.4949
 4565SOL     OW25327   0.541   4.129   2.294 -0.5892 -0.0283 -0.1271
 4565SOL    HW125328   0.585   4.187   2.232 -0.6375  0.8778  0.6763
 4565SOL    HW225329   0.614   4.091   2.344 -1.4379 -1.0342  0.3598
 4566SOL     OW25330   1.598   2.178  15.777  0.4927 -0.0835 -0.2352
 4566SOL    HW125331   1.623   2.159  15.867  1.5430 -0.5793 -0.6298
 4566SOL    HW225332   1.538   2.253  15.781 -0.5269 -1.0011  1.3841
 4567SOL     OW25333   1.894   1.566   5.212 -0.2707  0.1120  0.0414
 4567SOL    HW125334   1.927   1.477   5.223  0.6552  0.8460  3.3919
 4567SOL    HW225335   1.902   1.607   5.298  3.5773 -0.3861 -0.1004
 4568SOL     OW25336   1.283   4.181  13.481  0.2854  0.4251 -0.3132
 4568SOL    HW125337   1.297   4.190  13.575 -3.0319 -1.3269  0.3605
 4568SOL    HW225338   1.208   4.122  13.474  1.2271 -0.6679 -1.2477
 4569SOL     OW25339   1.188   1.404   0.322  0.0304  0.6604  1.0387
 4569SOL    HW125340   1.282   1.398   0.303 -0.4349 -0.3746 -0.8440
 4569SOL    HW225341   1.162   1.476   0.264  1.9427 -0.1710 -0.8498
 4570SOL     OW25342   1.126   2.124   7.069  0.1172 -0.2701 -0.3168
 4570SOL    HW125343   1.060   2.192   7.058  1.5523  0.8470 -1.9460
 4570SOL    HW225344   1.195   2.151   7.009 -2.0332  0.0206 -2.6259
 4571SOL     OW25345   1.642   0.005  14.250  0.1755 -0.0953 -0.0199
 4571SOL    HW125346   1.720   0.014  14.304  0.6135 -0.8244 -0.5429
 4571SOL    HW225347   1.639   4.651  14.245  0.5534 -0.0585 -1.0873
 4572SOL     OW25348   1.653   4.684   4.309 -0.9898  0.0491  0.3541
 4572SOL    HW125349   1.661   0.038   4.308  0.4699 -0.0717  0.7718
 4572SOL    HW225350   1.584   4.676   4.375  0.0042  0.0631  1.3927
 4573SOL     OW25351   0.621   0.408   6.796 -0.1021 -0.4488  0.0173
 4573SOL    HW125352   0.576   0.374   6.718 -0.5448  0.3532 -0.0801
 4573SOL    HW225353   0.634   0.496   6.760  2.2520 -0.1527  1.6035
 4574SOL     OW25354   2.828   4.632   2.750 -0.9527  0.1421  0.1547
 4574SOL    HW125355   2.743   4.649   2.709 -0.7763  1.6620  0.4178
 4574SOL    HW225356   2.853   4.546   2.716 -0.3031  1.0695 -1.7004
 4575SOL     OW25357   1.714   0.235   4.231 -0.5846 -0.2027 -0.1573
 4575SOL    HW125358   1.751   0.281   4.306  0.9616  1.0780 -1.7132
 4575SOL    HW225359   1.780   0.235   4.161 -0.7302  0.9269 -0.2975
 4576SOL     OW25360   3.159   1.820  16.105 -0.2213 -0.2225  0.0897
 4576SOL    HW125361   3.208   1.792  16.182  2.1164 -0.9184 -1.6310
 4576SOL    HW225362   3.226   1.817  16.036  2.5653  2.5914  2.6667
 4577SOL     OW25363   1.693   1.033   7.404 -0.2816  0.1946 -0.4253
 4577SOL    HW125364   1.729   1.022   7.316 -1.1836  1.7885 -0.9881
 4577SOL    HW225365   1.767   1.033   7.465 -0.4878 -0.1913 -0.1709
 4578SOL     OW25366   1.192   3.670   1.331 -0.3518 -0.2519 -0.3453
 4578SOL    HW125367   1.280   3.667   1.292 -0.1164  0.1995  0.1371
 4578SOL    HW225368   1.145   3.724   1.268  0.0179 -0.6170 -0.9325
 4579SOL     OW25369   2.001   0.520   8.384  0.1274 -0.6607 -0.0757
 4579SOL    HW125370   1.996   0.446   8.443  2.6193 -0.0051  0.9469
 4579SOL    HW225371   1.917   0.564   8.396 -0.7852 -1.6227 -2.8102
 4580SOL     OW25372   4.195   3.087   7.764 -0.2048 -0.2387 -0.0821
 4580SOL    HW125373   4.193   3.171   7.717  0.4744 -0.6581 -0.8546
 4580SOL    HW225374   4.236   3.114   7.846 -0.2277 -1.1301  0.2159
 4581SOL     OW25375   2.617   1.076   3.449  0.8425 -0.0270 -0.1263
 4581SOL    HW125376   2.555   1.044   3.514  0.6755  2.4950  0.9622
 4581SOL    HW225377   2.559   1.084   3.373 -2.3057  1.1509  2.3854
 4582SOL     OW25378   0.705   3.819  14.331 -0.0827 -0.2599 -0.2485
 4582SOL    HW125379   0.638   3.772  14.281 -0.3580  0.1801 -0.2885
 4582SOL    HW225380   0.706   3.903  14.285  3.0991 -0.1585  0.0083
 4583SOL     OW25381   2.590   3.862   9.295 -0.0876  0.2453 -0.4383
 4583SOL    HW125382   2.543   3.928   9.346 -2.2778  0.0741 -2.2457
 4583SOL    HW225383   2.678   3.898   9.285 -0.1624  1.3622  2.7538
 4584SOL     OW25384   4.540   1.024   8.251 -0.0849  0.1755  0.2157
 4584SOL    HW125385   4.538   0.929   8.242 -0.5026  0.2714 -0.7678
 4584SOL    HW225386   4.493   1.046   8.170  1.5343  1.9126 -0.2501
 4585SOL     OW25387   4.127   3.614   7.050  0.2560  0.5524 -0.2198
 4585SOL    HW125388   4.128   3.523   7.018 -1.3486 -0.4076  2.5351
 4585SOL    HW225389   4.045   3.646   7.013 -0.2811 -0.4695  0.0872
 4586SOL     OW25390   4.728   2.687   8.088 -0.1720 -0.5849 -0.0951
 4586SOL    HW125391   4.741   2.751   8.158  0.6001  2.5280 -3.0879
 4586SOL    HW225392   4.645   2.647   8.113  0.7473 -1.9085  0.8160
 4587SOL     OW25393   3.190   2.987  13.997  0.5583  0.1783  0.1443
 4587SOL    HW125394   3.269   3.029  13.963 -0.2228  0.8740 -0.8196
 4587SOL    HW225395   3.151   2.937  13.925  1.5779 -0.4027 -0.0054
 4588SOL     OW25396   3.687   3.582   5.323 -0.8650  1.0756 -0.3408
 4588SOL    HW125397   3.604   3.535   5.316  0.9825 -2.1614 -0.7644
 4588SOL    HW225398   3.752   3.511   5.317 -1.1374  0.8223 -0.2609
 4589SOL     OW25399   1.399   1.273   5.333  0.3642  0.5808 -0.6226
 4589SOL    HW125400   1.370   1.323   5.257  4.4588 -1.5252 -3.5824
 4589SOL    HW225401   1.318   1.233   5.366  1.2512 -0.5952  0.1265
 4590SOL     OW25402   1.137   3.248  11.863 -0.8573  0.0087 -0.8055
 4590SOL    HW125403   1.053   3.231  11.905  0.2183  1.6798  2.0002
 4590SOL    HW225404   1.192   3.258  11.941 -1.3709  1.9399 -0.6751
 4591SOL     OW25405   2.652   1.009  10.041 -0.1687 -0.1951 -0.3195
 4591SOL    HW125406   2.592   1.018  10.115  1.6624  3.1750  0.7331
 4591SOL    HW225407   2.736   1.019  10.085 -1.6074  0.2932  2.3626
 4592SOL     OW25408   0.634   4.192   3.851 -0.4475  0.2777  0.1162
 4592SOL    HW125409   0.550   4.237   3.837  0.8414  2.1332 -1.7079
 4592SOL    HW225410   0.641   4.124   3.784  0.1352  0.2735  0.1830
 4593SOL     OW25411   2.584   0.056  12.346  0.2092 -0.0002  0.3596
 4593SOL    HW125412   2.662   0.058  12.291 -0.7573 -1.7467 -1.0621
 4593SOL    HW225413   2.534   0.006  12.282  1.1209  1.0043 -1.1412
 4594SOL     OW25414   3.957   1.400   4.671  0.2752  0.7776 -0.6153
 4594SOL    HW125415   3.982   1.346   4.596 -0.7019 -1.6721  0.8370
 4594SOL    HW225416   4.020   1.362   4.732 -0.6004  1.4054  0.6764
 4595SOL     OW25417   0.784   0.428   3.653  0.1372  0.3024 -0.5403
 4595SOL    HW125418   0.744   0.341   3.665 -0.0216  0.6477  1.4475
 4595SOL    HW225419   0.832   0.409   3.573 -0.4720 -0.7225 -0.6694
 4596SOL     OW25420   2.462   2.255   8.237 -0.3325  0.3352  0.2773
 4596SOL    HW125421   2.400   2.270   8.308 -1.3162  1.5722 -0.8680
 4596SOL    HW225422   2.544   2.284   8.279  0.0407 -1.6869  0.9365
 4597SOL     OW25423   3.268   2.494  10.576  0.3369  0.5039  0.0949
 4597SOL    HW125424   3.179   2.468  10.598  0.7199 -2.3665 -1.7215
 4597SOL    HW225425   3.276   2.585  10.605  0.9320  1.5112 -3.2391
 4598SOL     OW25426   0.957   0.715   7.639 -0.0818  1.0373 -0.1905
 4598SOL    HW125427   0.896   0.641   7.640  1.5923 -0.3749 -2.4690
 4598SOL    HW225428   0.892   0.785   7.631  0.0342  1.1676  0.0095
 4599SOL     OW25429   1.963   3.773   2.910 -0.1412  0.1061 -0.3020
 4599SOL    HW125430   1.886   3.748   2.960  0.8378 -1.2366  0.5107
 4599SOL    HW225431   1.928   3.787   2.822  0.0184 -0.2565 -0.4225
 4600SOL     OW25432   2.629   4.667   5.836 -0.3420  0.0082 -0.7013
 4600SOL    HW125433   2.578   4.606   5.890  1.0725 -1.1849 -0.6862
 4600SOL    HW225434   2.615   4.631   5.748 -0.7590 -0.6648 -0.3601
 4601SOL     OW25435   4.728   1.965   9.517 -0.1339 -0.5520 -0.5576
 4601SOL    HW125436   4.656   1.986   9.458  0.5577  1.1178 -0.7983
 4601SOL    HW225437   4.719   2.031   9.585 -2.2479 -3.2792  1.8252
 4602SOL     OW25438   3.257   4.434  15.634  0.4698 -0.7808 -0.4971
 4602SOL    HW125439   3.219   4.378  15.702 -0.8003  1.4146  0.5793
 4602SOL    HW225440   3.218   4.395  15.556 -2.5005  2.3649 -0.5783
 4603SOL     OW25441   4.286   1.727   1.537  0.1990  1.3796 -0.2117
 4603SOL    HW125442   4.248   1.692   1.617  2.0903 -0.0116  0.0611
 4603SOL    HW225443   4.209   1.695   1.490  0.8438  1.2617 -1.1844
 4604SOL     OW25444   1.420   1.824   3.517  0.1154  0.0790  0.0977
 4604SOL    HW125445   1.471   1.859   3.444  1.0714 -1.4834 -0.0027
 4604SOL    HW225446   1.487   1.827   3.585 -1.8327 -1.8259  2.1140
 4605SOL     OW25447   3.876   3.942   6.564 -0.2197  0.1159 -0.1762
 4605SOL    HW125448   3.784   3.917   6.573  0.1790 -1.5136 -0.5277
 4605SOL    HW225449   3.913   3.856   6.544  0.1392  0.6540 -1.8613
 4606SOL     OW25450   4.064   0.354   7.881  0.2743  0.3976 -0.1229
 4606SOL    HW125451   4.013   0.433   7.896 -0.5569  0.4036 -3.0057
 4606SOL    HW225452   4.094   0.379   7.793  0.0942 -0.3665 -0.4094
 4607SOL     OW25453   4.180   0.266   5.610  0.7070 -0.0002 -0.1871
 4607SOL    HW125454   4.121   0.335   5.640  0.0118 -0.1243 -1.2991
 4607SOL    HW225455   4.214   0.239   5.695  1.6489  1.6102 -0.0468
 4608SOL     OW25456   2.537   1.159   6.673  0.0533 -1.2028  0.7152
 4608SOL    HW125457   2.572   1.075   6.703  2.2810 -0.4004  0.3651
 4608SOL    HW225458   2.497   1.195   6.751  1.1854  1.3952  0.1033
 4609SOL     OW25459   3.879   0.263  14.917  0.2038  0.5417 -0.3252
 4609SOL    HW125460   3.944   0.198  14.892  1.5521  1.6391  0.3500
 4609SOL    HW225461   3.932   0.342  14.916 -0.7392  1.1304 -2.2222
 4610SOL     OW25462   2.467   3.889  11.744 -0.3892  0.4743 -0.5067
 4610SOL    HW125463   2.394   3.881  11.805  1.1122  2.0558  1.5269
 4610SOL    HW225464   2.461   3.802  11.705  2.7696  1.2699 -2.7913
 4611SOL     OW25465   3.729   1.226   9.637 -0.1055  0.4786  0.2239
 4611SOL    HW125466   3.746   1.141   9.678 -1.3830  0.2940  0.3736
 4611SOL    HW225467   3.703   1.282   9.710 -1.0399 -1.0885  1.0837
 4612SOL     OW25468   0.891   3.624  11.299 -0.0676  0.4827  0.4299
 4612SOL    HW125469   0.817   3.674  11.265 -0.1554  1.3064  1.8181
 4612SOL    HW225470   0.971   3.675  11.284  0.1352 -0.4676 -1.7233
 4613SOL     OW25471   0.193   0.928   6.220  0.4373 -0.6854 -0.1299
 4613SOL    HW125472   0.189   1.022   6.204 -2.4658 -0.8894 -0.4814
 4613SOL    HW225473   0.280   0.921   6.260 -0.3983 -1.5059  1.5431
 4614SOL     OW25474   4.493   2.171  12.987  0.3886 -0.0494  0.0708
 4614SOL    HW125475   4.572   2.180  12.934  0.0885  0.8591 -0.2257
 4614SOL    HW225476   4.424   2.184  12.922 -0.0194 -0.4043  0.4398
 4615SOL     OW25477   4.461   1.784  17.628  0.2663 -0.1587 -0.0732
 4615SOL    HW125478   4.537   1.729  17.647 -0.0297  0.4072  2.8812
 4615SOL    HW225479   4.505   1.856  17.583  0.4229 -2.5540 -3.7240
 4616SOL     OW25480   4.410   1.859   6.297  0.2281 -0.0495 -0.0898
 4616SOL    HW125481   4.460   1.788   6.258  0.8158  0.1480  0.3106
 4616SOL    HW225482   4.477   1.905   6.348 -1.8851  2.2895  0.5828
 4617SOL     OW25483   0.554   2.392  10.578 -0.0566  0.0326  0.1983
 4617SOL    HW125484   0.632   2.415  10.528  0.5384 -0.3763  0.9478
 4617SOL    HW225485   0.573   2.443  10.656  1.2984  0.1729 -0.2199
 4618SOL     OW25486   2.083   0.407   1.513 -0.2849  0.4479  0.3863
 4618SOL    HW125487   2.105   0.499   1.530  0.5147  0.1824  0.8180
 4618SOL    HW225488   2.029   0.382   1.588  1.2188 -0.5891  1.1438
 4619SOL     OW25489   3.132   3.472   4.972 -0.2321 -0.3012 -0.0111
 4619SOL    HW125490   3.051   3.472   4.920  0.3821  0.1389 -0.9691
 4619SOL    HW225491   3.122   3.549   5.027 -1.6846 -0.4357 -0.0927
 4620SOL     OW25492   0.948   4.393   9.012  1.1471 -0.1792 -0.7481
 4620SOL    HW125493   0.923   4.444   8.935  0.5787 -0.2286 -0.5954
 4620SOL    HW225494   0.873   4.339   9.034  0.3738  1.2052 -0.0288
 4621SOL     OW25495   0.417   2.914   3.806  0.3360  0.2339 -0.2283
 4621SOL    HW125496   0.438   2.846   3.869 -3.9233 -1.0822 -0.2468
 4621SOL    HW225497   0.335   2.954   3.834  0.7259 -0.4583  1.8583
 4622SOL     OW25498   2.748   1.443   5.827 -0.1040  0.6004 -0.4296
 4622SOL    HW125499   2.802   1.386   5.882 -2.3082 -0.0407  1.0662
 4622SOL    HW225500   2.666   1.426   5.873  0.2435 -0.9148 -0.3466
 4623SOL     OW25501   0.468   4.024   4.079 -0.0888  0.3093 -0.1480
 4623SOL    HW125502   0.376   4.000   4.064  0.8912 -2.5780 -1.4988
 4623SOL    HW225503   0.469   4.110   4.120 -2.5456  0.7012 -0.8624
 4624SOL     OW25504   0.597   4.428   5.016  0.0002 -0.1083  0.0787
 4624SOL    HW125505   0.563   4.459   4.932  1.1997  0.2726 -0.2681
 4624SOL    HW225506   0.691   4.419   4.996  0.2862  1.0863  0.9170
 4625SOL     OW25507   1.308   3.193  12.370 -0.3086  0.3023 -0.2853
 4625SOL    HW125508   1.237   3.254  12.386 -0.0624  0.7671 -1.0124
 4625SOL    HW225509   1.368   3.213  12.443 -0.3117  0.9798 -0.4730
 4626SOL     OW25510   0.942   0.302  13.267  0.6361  0.1762 -0.0043
 4626SOL    HW125511   0.999   0.326  13.340 -0.6097  0.3738  0.9035
 4626SOL    HW225512   0.877   0.252  13.317  1.4301 -0.8475 -0.0124
 4627SOL     OW25513   3.736   2.009   0.366  0.2153  0.0856 -0.9228
 4627SOL    HW125514   3.827   2.040   0.372 -0.2342  1.1249  0.4543
 4627SOL    HW225515   3.681   2.086   0.379  0.0415 -0.0518 -0.8562
 4628SOL     OW25516   3.840   2.762   1.290  0.3586 -0.0638 -0.1619
 4628SOL    HW125517   3.909   2.725   1.345  1.6211  2.9784  0.3018
 4628SOL    HW225518   3.790   2.681   1.275  0.3054  0.0709 -0.7004
 4629SOL     OW25519   0.363   3.517   0.965 -0.0918  0.2703  0.2622
 4629SOL    HW125520   0.296   3.500   0.899  0.3133  3.4966 -0.9830
 4629SOL    HW225521   0.387   3.608   0.948  0.8441  0.3998  2.3217
 4630SOL     OW25522   0.798   4.287   8.309 -0.6967  0.0792 -0.3840
 4630SOL    HW125523   0.806   4.337   8.228 -0.0172  1.1859  0.3670
 4630SOL    HW225524   0.889   4.257   8.317 -0.2626  0.9070 -2.4576
 4631SOL     OW25525   0.016   4.369  13.998 -0.1222  0.3995 -0.4767
 4631SOL    HW125526   4.674   4.417  13.994 -0.1550  0.5847  2.5898
 4631SOL    HW225527   0.013   4.328  13.911  1.9266  2.5191 -1.5698
 4632SOL     OW25528   2.840   1.949  14.261  0.0550  0.3328  0.6265
 4632SOL    HW125529   2.901   1.925  14.331  2.7773 -1.4927 -2.3779
 4632SOL    HW225530   2.758   1.906  14.285 -0.9999  2.2040  0.3444
 4633SOL     OW25531   0.702   0.382   1.554 -0.3919  0.4149 -0.0414
 4633SOL    HW125532   0.722   0.414   1.642 -1.1210  0.8819 -0.0515
 4633SOL    HW225533   0.789   0.372   1.517  0.2695  1.2007  1.2736
 4634SOL     OW25534   2.774   2.559   3.520  0.4332 -0.2506 -0.3697
 4634SOL    HW125535   2.744   2.650   3.521  1.5869  0.1357 -1.5008
 4634SOL    HW225536   2.739   2.519   3.441 -0.8853 -0.0935  0.1428
 4635SOL     OW25537   4.306   1.174   9.925 -0.5114 -0.4610  0.4263
 4635SOL    HW125538   4.349   1.259   9.933 -2.0221  0.2974  0.3000
 4635SOL    HW225539   4.382   1.123   9.895 -0.2837 -0.4633  1.0121
 4636SOL     OW25540   2.293   4.193   5.981  0.0954 -0.1857 -0.0933
 4636SOL    HW125541   2.356   4.125   5.960  0.7742  0.6314 -0.7094
 4636SOL    HW225542   2.231   4.168   5.913  0.2590 -1.3282  0.1778
 4637SOL     OW25543   2.470   0.473   7.130  0.3183  0.0547  0.4977
 4637SOL    HW125544   2.495   0.565   7.123  1.6007 -0.3993 -0.9536
 4637SOL    HW225545   2.375   0.480   7.137  0.2564 -0.9871  0.7460
 4638SOL     OW25546   0.176   4.713   0.460 -0.2970  0.0977  0.0936
 4638SOL    HW125547   0.093   4.677   0.430 -0.1756  0.6727 -0.9338
 4638SOL    HW225548   0.157   4.737   0.551 -1.0715 -2.7447  0.6866
 4639SOL     OW25549   2.115   1.663  14.423  0.2232  0.0346  0.1272
 4639SOL    HW125550   2.115   1.677  14.518 -2.0081  3.8815 -0.4454
 4639SOL    HW225551   2.154   1.576  14.411 -1.2623 -0.5195 -0.6615
 4640SOL     OW25552   3.373   1.483   3.795  0.1916 -0.7717  0.1022
 4640SOL    HW125553   3.316   1.556   3.772  4.0409  1.9849 -0.7180
 4640SOL    HW225554   3.353   1.423   3.723 -0.5148 -1.4798  0.8905
 4641SOL     OW25555   1.364   1.355   2.543 -0.4609 -0.2292 -0.3984
 4641SOL    HW125556   1.321   1.441   2.543 -2.1253 -1.0735  0.5324
 4641SOL    HW225557   1.443   1.375   2.594  0.3287 -2.8455 -0.5911
 4642SOL     OW25558   3.660   1.742   6.854 -0.8978  0.2721 -0.0973
 4642SOL    HW125559   3.676   1.659   6.811 -0.3750  0.6782 -0.6838
 4642SOL    HW225560   3.694   1.716   6.940  0.1315 -2.9006 -1.4921
 4643SOL     OW25561   2.590   4.397   4.401  0.4456 -0.1697  0.2219
 4643SOL    HW125562   2.521   4.460   4.422  1.2504  0.1262  1.9171
 4643SOL    HW225563   2.664   4.429   4.452 -0.6995 -0.7320  2.2251
 4644SOL     OW25564   4.541   2.957   9.970  0.4662  0.2163 -0.0150
 4644SOL    HW125565   4.635   2.944   9.957  0.2476 -1.1015 -0.3328
 4644SOL    HW225566   4.505   2.899   9.903 -0.1789  1.0776 -0.4067
 4645SOL     OW25567   3.813   3.075   4.408 -0.3417  0.0860 -0.1552
 4645SOL    HW125568   3.756   3.079   4.485 -0.6551  0.0589 -0.3819
 4645SOL    HW225569   3.787   3.160   4.372 -1.7513  0.4913  1.8451
 4646SOL     OW25570   0.299   1.799   6.743 -0.4059 -0.0759 -0.4729
 4646SOL    HW125571   0.367   1.736   6.716 -0.7799 -0.0746 -1.4222
 4646SOL    HW225572   0.228   1.753   6.697  0.9266 -1.8241 -0.7975
 4647SOL     OW25573   4.498   2.241   5.049  0.5863 -0.5249  0.0687
 4647SOL    HW125574   4.481   2.335   5.042  1.3977 -0.4665 -1.1439
 4647SOL    HW225575   4.453   2.210   4.971  2.1864  0.3390 -1.2039
 4648SOL     OW25576   1.953   0.375   9.600 -0.2783  0.2711 -0.4113
 4648SOL    HW125577   1.994   0.427   9.531  0.5373 -0.5349 -0.5279
 4648SOL    HW225578   1.992   0.290   9.583  2.0448  1.6639 -2.1518
 4649SOL     OW25579   3.278   3.637   5.215 -0.3193  0.1288  0.1779
 4649SOL    HW125580   3.201   3.596   5.255  0.5876 -1.0185  0.7523
 4649SOL    HW225581   3.243   3.700   5.152 -0.2180  0.0091  0.0054
 4650SOL     OW25582   3.002   1.266   7.612  0.2557  0.4684  0.1732
 4650SOL    HW125583   3.001   1.263   7.516 -0.0965 -0.9558  0.2184
 4650SOL    HW225584   2.952   1.347   7.619  0.7498  0.8098 -0.2993
 4651SOL     OW25585   4.459   3.072   6.324  0.1943  0.0111 -0.2458
 4651SOL    HW125586   4.403   3.005   6.284 -3.1561  1.7461  1.4888
 4651SOL    HW225587   4.405   3.100   6.398 -0.6334  2.2360 -1.6562
 4652SOL     OW25588   2.585   2.208  11.293  0.4308 -0.1480  0.5548
 4652SOL    HW125589   2.585   2.115  11.314 -1.1466 -0.5116 -1.0669
 4652SOL    HW225590   2.510   2.239  11.343  0.7180  2.0931 -0.3800
 4653SOL     OW25591   0.322   0.687   4.089 -0.3979 -0.2194  0.2472
 4653SOL    HW125592   0.380   0.714   4.017 -1.4573  1.8333  0.1732
 4653SOL    HW225593   0.257   0.638   4.039  2.1405 -2.5161 -0.8050
 4654SOL     OW25594   1.273   3.713   6.691  0.3794  0.4985 -0.3422
 4654SOL    HW125595   1.306   3.645   6.749  1.9534  1.9569  0.4911
 4654SOL    HW225596   1.189   3.673   6.669  0.2078  1.8841 -2.2012
 4655SOL     OW25597   1.310   3.167   8.732 -0.1136 -0.2845 -0.6039
 4655SOL    HW125598   1.327   3.167   8.826 -1.6303  1.1745 -0.3513
 4655SOL    HW225599   1.352   3.086   8.702 -0.3343 -0.3780 -0.6596
 4656SOL     OW25600   2.075   2.433  11.891  0.1087 -0.3251  0.2797
 4656SOL    HW125601   2.041   2.348  11.922 -0.8262  0.2532  0.8646
 4656SOL    HW225602   2.056   2.477  11.974  1.5445  0.4832  0.1653
 4657SOL     OW25603   0.304   3.859  16.229 -0.2058  0.2840 -0.4687
 4657SOL    HW125604   0.310   3.834  16.137 -2.4930  0.3448 -0.6197
 4657SOL    HW225605   0.389   3.902  16.235  0.6196 -1.2549 -1.0507
 4658SOL     OW25606   2.933   2.724   4.210  0.5046  0.5965  0.4515
 4658SOL    HW125607   2.958   2.700   4.121 -0.2345  0.6386  0.2382
 4658SOL    HW225608   2.930   2.642   4.260 -3.0126  0.2346 -0.3517
 4659SOL     OW25609   4.317   3.122   5.020 -0.6710 -0.5107 -0.0259
 4659SOL    HW125610   4.269   3.056   4.968 -0.1306 -1.8014  1.1193
 4659SOL    HW225611   4.249   3.138   5.085 -0.0006  0.7807  0.3392
 4660SOL     OW25612   4.676   2.276  10.393  0.3266  0.0865  0.4379
 4660SOL    HW125613   4.717   2.341  10.450 -0.5034  2.0059 -1.1776
 4660SOL    HW225614   4.731   2.269  10.315 -1.9047  0.9946 -1.2053
 4661SOL     OW25615   3.302   4.263   4.462 -0.0638 -0.6037 -0.2126
 4661SOL    HW125616   3.357   4.189   4.436  1.0604 -0.0005  0.4519
 4661SOL    HW225617   3.252   4.277   4.382 -0.8145  1.1188  0.5538
 4662SOL     OW25618   1.006   0.826   6.868  0.5135 -0.5701 -0.0002
 4662SOL    HW125619   0.928   0.864   6.909  0.4032 -0.7030 -0.0891
 4662SOL    HW225620   0.993   0.741   6.911  0.9531 -1.5686 -1.8732
 4663SOL     OW25621   2.011   2.804   8.804 -0.3596  0.0363  0.1476
 4663SOL    HW125622   1.976   2.754   8.730  0.3338 -1.0417  0.5389
 4663SOL    HW225623   2.031   2.734   8.867  3.2378 -0.2351 -1.3091
 4664SOL     OW25624   2.104   1.007   6.915 -0.1185  0.1942 -0.3330
 4664SOL    HW125625   2.072   1.097   6.915 -0.2990  0.1300  3.9762
 4664SOL    HW225626   2.126   0.998   7.008  0.7560 -2.5978 -0.8078
 4665SOL     OW25627   0.938   3.412   8.668 -0.0768  0.1897 -0.4035
 4665SOL    HW125628   0.945   3.317   8.672  0.8898  0.2355 -1.0003
 4665SOL    HW225629   0.858   3.430   8.618  0.4690  2.6293 -0.4303
 4666SOL     OW25630   0.654   0.688   4.435 -0.3997  0.4800 -0.0451
 4666SOL    HW125631   0.694   0.714   4.352  0.5037  2.7461  1.0976
 4666SOL    HW225632   0.727   0.663   4.492 -2.4753  1.7777  3.1491
 4667SOL     OW25633   1.188   1.870   4.124 -0.3247  0.2017 -0.2223
 4667SOL    HW125634   1.179   1.965   4.114 -1.6613  0.0526 -0.3928
 4667SOL    HW225635   1.101   1.831   4.115 -0.8188  1.5331 -1.2707
 4668SOL     OW25636   4.703   3.624   8.438 -0.4491  0.5190 -0.2164
 4668SOL    HW125637   4.674   3.696   8.493  0.2060  1.1339 -0.6823
 4668SOL    HW225638   4.682   3.656   8.351  1.8746  1.1483 -0.5465
 4669SOL     OW25639   2.925   3.578   7.868  0.6197  0.0957  0.2793
 4669SOL    HW125640   2.916   3.495   7.823 -0.5010  0.2070  0.3024
 4669SOL    HW225641   2.924   3.540   7.956 -0.6883 -1.1073 -0.2673
 4670SOL     OW25642   3.122   3.052   7.319 -0.2187 -0.2306  0.2728
 4670SOL    HW125643   3.167   2.981   7.273  0.1086 -0.1261  0.4249
 4670SOL    HW225644   3.055   3.063   7.253 -2.5231 -1.3715  2.4279
 4671SOL     OW25645   3.578   4.599   2.930  0.3157  0.0593 -0.4116
 4671SOL    HW125646   3.617   4.682   2.959 -2.6993  1.1218  0.5969
 4671SOL    HW225647   3.659   4.552   2.912  1.4671  1.3521  1.3390
 4672SOL     OW25648   2.130   2.280   4.536 -0.6721  0.1569  0.8828
 4672SOL    HW125649   2.224   2.287   4.520 -1.0131  0.8710 -0.6963
 4672SOL    HW225650   2.116   2.349   4.601 -0.0239  0.0890  1.1018
 4673SOL     OW25651   4.661   0.558   8.984  0.3246 -1.0779 -0.4216
 4673SOL    HW125652   4.658   0.590   8.894 -0.1403  0.1158  0.0134
 4673SOL    HW225653   4.736   0.612   9.009 -0.2834  0.9106 -2.9640
 4674SOL     OW25654   2.083   3.939  11.600  0.4838 -0.0087  0.2787
 4674SOL    HW125655   2.100   3.900  11.685  0.0101 -0.8401 -0.0129
 4674SOL    HW225656   2.173   3.959  11.573  0.5156  1.1713  1.2535
 4675SOL     OW25657   0.202   1.922   1.916  0.0021  0.4160  0.3797
 4675SOL    HW125658   0.207   1.894   1.825  0.8891  0.5692  0.3881
 4675SOL    HW225659   0.268   1.860   1.945 -0.4473 -0.0620  0.3894
 4676SOL     OW25660   1.608   4.156  17.488 -0.5714  0.0529  0.1804
 4676SOL    HW125661   1.688   4.107  17.471 -0.2815  1.1101 -1.5786
 4676SOL    HW225662   1.575   4.151  17.398  0.2551  1.0345 -0.1845
 4677SOL     OW25663   3.310   3.054   4.675 -0.6192 -0.4852  0.1220
 4677SOL    HW125664   3.264   3.138   4.670  0.2883  0.1596  2.8051
 4677SOL    HW225665   3.347   3.040   4.762 -1.0370 -4.1702 -0.2989
 4678SOL     OW25666   3.380   3.314   8.093  0.3785  0.1360  0.1364
 4678SOL    HW125667   3.399   3.222   8.074 -1.6426 -0.7665  2.5146
 4678SOL    HW225668   3.379   3.353   8.006  1.3744 -2.3234 -0.9769
 4679SOL     OW25669   3.314   0.471  12.960  0.0799 -0.2753 -0.5842
 4679SOL    HW125670   3.298   0.438  12.871 -2.5562  1.4569 -0.7777
 4679SOL    HW225671   3.288   0.563  12.949  0.2615 -0.0737  0.6822
 4680SOL     OW25672   1.870   4.065   5.022  0.3909 -0.8390  0.1102
 4680SOL    HW125673   1.794   4.022   5.063 -0.1644  1.0698  1.0977
 4680SOL    HW225674   1.855   4.157   5.042 -0.7900 -0.8845 -0.5650
 4681SOL     OW25675   3.644   2.583   9.402  0.5432  0.4230 -0.3463
 4681SOL    HW125676   3.564   2.589   9.454  0.0510  0.1351 -1.0620
 4681SOL    HW225677   3.679   2.671   9.385  2.5304 -0.7221 -2.1481
 4682SOL     OW25678   1.811   2.693   8.578 -0.6408  0.3389 -0.7124
 4682SOL    HW125679   1.722   2.718   8.553 -1.4733 -0.0824  1.8468
 4682SOL    HW225680   1.799   2.602   8.604  0.0047  0.5663  0.3767
 4683SOL     OW25681   1.385   0.825   7.085  0.4602  0.3774 -0.1998
 4683SOL    HW125682   1.449   0.785   7.026  0.8280 -0.8346  1.0218
 4683SOL    HW225683   1.405   0.787   7.170 -0.9286  0.4776  0.1727
 4684SOL     OW25684   3.913   1.064   7.217  0.1204 -0.3438  0.1433
 4684SOL    HW125685   3.896   1.017   7.136 -0.2942 -0.7968  0.4905
 4684SOL    HW225686   4.004   1.092   7.209  0.0677  0.0187  0.7958
 4685SOL     OW25687   2.344   4.487   9.960  0.3375 -0.1555 -0.5043
 4685SOL    HW125688   2.332   4.397   9.932  0.1189  0.1899 -1.5193
 4685SOL    HW225689   2.266   4.500  10.014 -0.3364  0.3235 -1.5771
 4686SOL     OW25690   3.220   3.424  11.370  0.2749  0.1434  0.2289
 4686SOL    HW125691   3.237   3.476  11.292 -1.0893  0.7092  0.3049
 4686SOL    HW225692   3.159   3.480  11.419  2.1030  1.1294  1.3724
 4687SOL     OW25693   1.570   0.624   2.845 -0.2383  0.7062  0.0564
 4687SOL    HW125694   1.525   0.559   2.899  0.5884 -0.1743 -0.3293
 4687SOL    HW225695   1.504   0.654   2.782 -3.2948 -1.3775  2.2199
 4688SOL     OW25696   2.264   2.137  11.535  0.6501 -0.1694  0.1785
 4688SOL    HW125697   2.271   2.062  11.594  1.7049  1.5938  2.3099
 4688SOL    HW225698   2.349   2.180  11.531  0.3339  0.5427  0.9742
 4689SOL     OW25699   3.038   0.203  15.106  0.3229  0.3890 -0.5448
 4689SOL    HW125700   3.020   0.211  15.013 -2.4978 -2.6916 -0.2937
 4689SOL    HW225701   2.954   0.219  15.150  1.9293  0.3589  2.5099
 4690SOL     OW25702   0.398   0.966   3.049 -0.5862 -0.4332 -0.3029
 4690SOL    HW125703   0.359   0.883   3.022 -2.9047  0.0256  1.6529
 4690SOL    HW225704   0.329   1.019   3.008 -0.4165  0.4706  0.5846
 4691SOL     OW25705   2.062   3.585   7.898  0.2276 -0.1457  0.1627
 4691SOL    HW125706   2.065   3.673   7.859 -3.9034 -0.3772 -0.6818
 4691SOL    HW225707   2.088   3.529   7.825  3.4655 -0.3296  1.4511
 4692SOL     OW25708   0.952   0.063  13.124 -0.4975 -0.6545 -0.1768
 4692SOL    HW125709   0.926   0.147  13.162 -0.7287 -0.4169 -0.8770
 4692SOL    HW225710   1.034   0.052  13.173  0.2995  0.8444 -1.1615
 4693SOL     OW25711   3.427   2.493   2.140  0.0078  0.5022 -0.3934
 4693SOL    HW125712   3.388   2.447   2.214  1.1563  0.0689 -0.0573
 4693SOL    HW225713   3.363   2.467   2.074 -1.3629 -0.8031  1.4634
 4694SOL     OW25714   0.962   2.278  11.940 -0.4054 -0.3148 -0.2260
 4694SOL    HW125715   0.931   2.283  11.850 -0.2020 -1.5345 -0.3545
 4694SOL    HW225716   1.049   2.318  11.929 -0.0500 -1.1205 -0.3212
 4695SOL     OW25717   3.966   3.579  11.776 -0.0971  0.4330 -0.1010
 4695SOL    HW125718   3.932   3.609  11.692  1.3121  2.1246 -0.0695
 4695SOL    HW225719   3.997   3.490  11.757  0.3107  0.2201  1.5233
 4696SOL     OW25720   3.757   2.432  17.379  0.0862 -0.3802  0.1624
 4696SOL    HW125721   3.842   2.441  17.337  0.9120  0.4887  2.0018
 4696SOL    HW225722   3.694   2.421  17.308 -1.6570  0.7649  1.5275
 4697SOL     OW25723   2.895   0.630   8.755 -0.2174 -0.0534  0.5542
 4697SOL    HW125724   2.978   0.611   8.799  0.7133  1.4411 -0.5936
 4697SOL    HW225725   2.927   0.668   8.673  1.6761 -1.7213  0.5146
 4698SOL     OW25726   2.415   1.843   1.787 -0.1498  0.6785  0.1626
 4698SOL    HW125727   2.430   1.767   1.731 -0.9129  0.8823 -0.3306
 4698SOL    HW225728   2.448   1.916   1.736  0.3229  1.7042  1.9456
 4699SOL     OW25729   1.848   1.037   6.459 -0.4495 -0.0996 -0.5121
 4699SOL    HW125730   1.890   1.096   6.522 -0.4397  0.3653 -0.9498
 4699SOL    HW225731   1.756   1.037   6.486 -0.4515  0.1181 -0.5177
 4700SOL     OW25732   0.433   2.842   5.905  0.0018  0.2952  0.2003
 4700SOL    HW125733   0.486   2.899   5.960  2.7226 -0.3970 -1.7239
 4700SOL    HW225734   0.356   2.835   5.961 -0.2748 -1.1286 -0.3485
 4701SOL     OW25735   1.130   1.420  15.942  0.3030  0.7881  0.6022
 4701SOL    HW125736   1.088   1.501  15.914 -1.5210 -0.4763 -0.3348
 4701SOL    HW225737   1.223   1.441  15.945  0.3981  0.0571  3.1802
 4702SOL     OW25738   0.963   0.208   6.092 -0.3916 -0.0698  0.6659
 4702SOL    HW125739   1.033   0.151   6.060  1.0455  1.6226  0.8344
 4702SOL    HW225740   0.892   0.171   6.039 -0.4502  3.2983 -1.5848
 4703SOL     OW25741   1.954   0.576   2.004 -0.2078  0.0255  0.0005
 4703SOL    HW125742   2.021   0.510   1.986 -0.7893 -0.1700 -1.5097
 4703SOL    HW225743   1.886   0.542   1.946  2.0381 -0.5227 -2.3290
 4704SOL     OW25744   2.335   4.675   6.676 -0.5057 -0.6634 -0.5240
 4704SOL    HW125745   2.384   4.645   6.752  0.2605  0.0870 -0.7183
 4704SOL    HW225746   2.385   0.009   6.644  1.7131 -1.2807  1.5163
 4705SOL     OW25747   4.155   1.391   6.017 -0.2834  0.4881  0.1902
 4705SOL    HW125748   4.213   1.337   6.070  0.6045  0.6485 -0.5994
 4705SOL    HW225749   4.124   1.439   6.093  0.3426  0.1248  0.6755
 4706SOL     OW25750   4.206   1.678   6.474 -0.0789 -0.4435 -0.0147
 4706SOL    HW125751   4.149   1.732   6.529 -2.1050 -0.4427 -2.1083
 4706SOL    HW225752   4.208   1.738   6.399 -1.4157 -1.8178 -1.1562
 4707SOL     OW25753   1.574   4.330   4.522 -0.4083 -0.3682  0.3642
 4707SOL    HW125754   1.521   4.261   4.561 -2.0229 -0.7087 -2.4630
 4707SOL    HW225755   1.577   4.406   4.580  2.0142 -0.3335  0.2219
 4708SOL     OW25756   3.696   0.449   3.128  0.8289 -0.2907 -0.1687
 4708SOL    HW125757   3.774   0.475   3.177  0.2644  0.8986  0.0946
 4708SOL    HW225758   3.628   0.425   3.192  0.7394 -1.8931 -0.8694
 4709SOL     OW25759   0.769   3.768   1.781 -0.4663 -0.4589  0.0337
 4709SOL    HW125760   0.689   3.756   1.730 -1.3157 -0.6908  1.4369
 4709SOL    HW225761   0.738   3.763   1.871  1.1871  2.0631  0.7161
 4710SOL     OW25762   2.519   2.318  16.358  0.0754  0.0915 -0.1574
 4710SOL    HW125763   2.493   2.326  16.266  2.2573  2.0603 -0.5958
 4710SOL    HW225764   2.495   2.226  16.367  4.2636 -0.9386  0.1239
 4711SOL     OW25765   2.862   2.714   8.840  0.2898 -0.0630 -0.9938
 4711SOL    HW125766   2.767   2.723   8.845  0.5676  2.4634 -0.1105
 4711SOL    HW225767   2.879   2.794   8.789  1.7208  0.0642 -0.3283
 4712SOL     OW25768   0.737   4.185   2.077 -0.8726  0.0124  0.0715
 4712SOL    HW125769   0.689   4.260   2.040  0.7555  1.6687  1.2957
 4712SOL    HW225770   0.792   4.225   2.144 -0.9891  0.4987 -0.1232
 4713SOL     OW25771   3.438   3.395   8.781 -0.2421 -0.1648 -0.1218
 4713SOL    HW125772   3.417   3.303   8.801 -0.7881 -0.3470 -1.5113
 4713SOL    HW225773   3.528   3.401   8.814 -0.4148 -0.0358  0.3225
 4714SOL     OW25774   4.641   1.887  11.039  0.2204 -0.4253 -0.0690
 4714SOL    HW125775   4.683   1.802  11.049  0.3591 -0.3002  0.4135
 4714SOL    HW225776   4.694   1.944  11.095  0.1983  0.2065 -0.6906
 4715SOL     OW25777   0.928   1.531   0.819  0.2568  0.0429 -0.6303
 4715SOL    HW125778   0.956   1.452   0.773 -0.6437 -1.0232  0.6799
 4715SOL    HW225779   0.836   1.521   0.841  1.0147 -2.1767  1.4503
 4716SOL     OW25780   2.707   3.941   2.978 -0.5157 -0.3415  0.1901
 4716SOL    HW125781   2.681   3.898   2.896  0.0343 -0.0459 -0.1441
 4716SOL    HW225782   2.793   3.901   2.994 -1.3558 -1.3068  2.1735
 4717SOL     OW25783   4.580   4.266   4.979  0.3804  0.3058  0.2072
 4717SOL    HW125784   4.643   4.307   5.039  0.7629 -0.8328  0.5850
 4717SOL    HW225785   4.504   4.324   4.979  0.8145  0.8803  1.5609
 4718SOL     OW25786   0.882   0.231  15.907  0.3729  0.3026 -0.0827
 4718SOL    HW125787   0.796   0.242  15.865 -0.6327 -2.7513  1.1704
 4718SOL    HW225788   0.869   0.254  15.999  1.3697  0.2902  0.0523
 4719SOL     OW25789   3.017   4.106   2.127  0.1078 -0.1823 -0.1735
 4719SOL    HW125790   3.034   4.016   2.155  0.0175  0.3417  1.5839
 4719SOL    HW225791   2.933   4.087   2.087 -0.5983  2.2348  0.1340
 4720SOL     OW25792   1.547   0.299  15.492  0.2356  0.3015  0.0408
 4720SOL    HW125793   1.488   0.290  15.567  2.4103 -0.0335  1.7061
 4720SOL    HW225794   1.523   0.213  15.457 -0.4513  0.1375  0.9174
 4721SOL     OW25795   2.828   3.706   9.098 -0.0119 -0.3001  0.6203
 4721SOL    HW125796   2.912   3.712   9.052  0.6398 -1.6257  1.6470
 4721SOL    HW225797   2.843   3.775   9.163  2.4629  0.0795 -0.3375
 4722SOL     OW25798   2.873   3.497   2.074 -0.1252 -0.6537  0.4454
 4722SOL    HW125799   2.895   3.438   2.146 -0.9300 -1.6178 -0.1157
 4722SOL    HW225800   2.860   3.579   2.123  3.8830 -0.3162  0.9849
 4723SOL     OW25801   2.621   0.122   2.616  0.0775 -0.4096  0.2593
 4723SOL    HW125802   2.552   0.186   2.631 -0.5286 -0.5118 -2.1187
 4723SOL    HW225803   2.563   0.051   2.587 -0.7461 -0.3543  1.7740
 4724SOL     OW25804   3.498   4.508   3.347 -0.2362  0.1015  0.2992
 4724SOL    HW125805   3.411   4.467   3.347 -0.2600  0.1529  0.1018
 4724SOL    HW225806   3.528   4.467   3.266  2.6431  1.6476  0.5790
 4725SOL     OW25807   2.559   0.036   7.255 -0.4723 -0.0474 -0.8744
 4725SOL    HW125808   2.532   4.687   7.272  1.2879 -0.8338 -2.1455
 4725SOL    HW225809   2.594   0.049   7.343 -1.7078  1.7976 -0.6570
 4726SOL     OW25810   0.617   2.670   9.185 -0.3612 -0.1394 -0.0538
 4726SOL    HW125811   0.708   2.694   9.167  0.6708 -3.2053  1.1115
 4726SOL    HW225812   0.573   2.755   9.191 -1.9860 -0.9131 -1.0647
 4727SOL     OW25813   3.835   1.114   4.523  0.5255  1.1886  0.5765
 4727SOL    HW125814   3.740   1.119   4.530  0.4568  0.8701 -0.1207
 4727SOL    HW225815   3.861   1.038   4.574 -0.4491  2.2433  2.6321
 4728SOL     OW25816   4.467   0.383  10.678  0.1633 -0.0386 -0.1530
 4728SOL    HW125817   4.463   0.334  10.760  2.1322  0.8024  0.4664
 4728SOL    HW225818   4.380   0.422  10.679  0.3559  0.3860 -0.0707
 4729SOL     OW25819   0.998   1.456   2.514 -0.1245  0.2380  0.3748
 4729SOL    HW125820   1.056   1.514   2.564  0.7653 -0.2999 -0.0498
 4729SOL    HW225821   1.062   1.434   2.446 -1.0284  0.2578 -0.4761
 4730SOL     OW25822   1.990   0.793   8.802 -0.4134  0.2493  0.1155
 4730SOL    HW125823   1.941   0.795   8.884  0.7409  1.0258  0.7842
 4730SOL    HW225824   2.052   0.864   8.818 -0.6063  0.1664  1.2294
 4731SOL     OW25825   0.794   1.282   1.472 -0.1854  0.4974  0.1273
 4731SOL    HW125826   0.796   1.187   1.468 -0.5309  0.4815  0.3926
 4731SOL    HW225827   0.705   1.298   1.440 -0.9095 -1.8535  1.0085
 4732SOL     OW25828   3.866   2.714   6.947 -0.1326  0.7948  0.3569
 4732SOL    HW125829   3.815   2.727   7.027 -0.6384  1.2655 -0.0436
 4732SOL    HW225830   3.824   2.780   6.892  2.0517  0.5507 -1.6291
 4733SOL     OW25831   1.460   0.061   3.219  0.5620 -0.9841  0.0226
 4733SOL    HW125832   1.528   0.052   3.286  0.6690  1.3968  0.2221
 4733SOL    HW225833   1.394   0.063   3.288 -0.7322  0.8315 -1.2610
 4734SOL     OW25834   3.397   3.407   4.860 -0.5300 -0.1552 -0.1558
 4734SOL    HW125835   3.357   3.491   4.880 -0.0934 -0.4006  1.7891
 4734SOL    HW225836   3.325   3.377   4.805 -0.3069  0.4870 -0.8003
 4735SOL     OW25837   2.860   2.398   7.853 -0.2830 -0.0413  0.4243
 4735SOL    HW125838   2.905   2.346   7.786 -0.2210  0.7554 -0.1564
 4735SOL    HW225839   2.879   2.484   7.816 -1.4705  0.9296  2.0669
 4736SOL     OW25840   1.558   1.359  16.032  0.0857 -0.1151  0.0564
 4736SOL    HW125841   1.543   1.372  15.939  0.9224  1.2820  0.1111
 4736SOL    HW225842   1.497   1.288  16.051 -0.2541 -0.0565 -0.8530
 4737SOL     OW25843   0.161   2.049  11.835  0.0184  0.0292  0.3731
 4737SOL    HW125844   0.098   2.089  11.895 -3.6649 -0.8838 -2.8264
 4737SOL    HW225845   0.101   1.996  11.782  1.0692 -2.1067  1.3365
 4738SOL     OW25846   0.527   0.763   6.157 -0.1363 -0.1880  0.0000
 4738SOL    HW125847   0.488   0.842   6.193 -1.7788 -0.3376 -1.4584
 4738SOL    HW225848   0.521   0.708   6.235  1.6886 -1.1202 -0.4957
 4739SOL     OW25849   1.836   2.405   0.470  0.3054 -0.1865 -0.1662
 4739SOL    HW125850   1.783   2.467   0.419 -0.5035 -0.6677  0.0795
 4739SOL    HW225851   1.912   2.448   0.509  0.4311 -1.4710  1.0072
 4740SOL     OW25852   3.607   3.817   3.206 -0.2229 -0.1643  0.0635
 4740SOL    HW125853   3.693   3.856   3.220 -0.7866  0.9954  0.4055
 4740SOL    HW225854   3.572   3.828   3.295 -2.9387 -0.1612 -0.9936
 4741SOL     OW25855   0.428   3.122   0.260  0.0268  0.3636  0.2371
 4741SOL    HW125856   0.401   3.086   0.175  0.1248 -3.2668  1.7169
 4741SOL    HW225857   0.524   3.124   0.261 -0.0182  2.4974 -1.2215
 4742SOL     OW25858   1.238   0.372  10.340  0.3889  0.1089 -0.0730
 4742SOL    HW125859   1.158   0.357  10.290  0.1446  2.5522 -0.4314
 4742SOL    HW225860   1.273   0.283  10.333  1.1035  0.4555 -0.8888
 4743SOL     OW25861   1.936   0.039   5.511  0.0306  0.2923  0.3746
 4743SOL    HW125862   1.982   0.086   5.442  0.6298 -0.8881 -0.0364
 4743SOL    HW225863   2.002   4.726   5.555  0.5906  0.8495  0.2171
 4744SOL     OW25864   4.394   0.973   6.662 -0.1673  0.3581  0.4140
 4744SOL    HW125865   4.403   1.069   6.660 -1.1550  0.4989  2.1112
 4744SOL    HW225866   4.312   0.965   6.711 -0.2174  3.6613  0.9248
 4745SOL     OW25867   4.083   4.057   4.090 -0.1364 -0.4569 -0.3851
 4745SOL    HW125868   4.095   4.011   4.173 -2.0077  1.3791  0.9293
 4745SOL    HW225869   4.105   4.148   4.109  0.5467 -0.1917 -2.4545
 4746SOL     OW25870   3.719   4.670  17.525  0.4702 -0.3231 -0.2038
 4746SOL    HW125871   3.685   4.624  17.449  1.4726  0.1187 -0.9068
 4746SOL    HW225872   3.753   4.597  17.577  1.9408  0.8997  0.5559
 4747SOL     OW25873   3.364   0.065  12.680  0.3266  0.5000  0.5053
 4747SOL    HW125874   3.355   0.044  12.587  0.3400  1.8000  0.2126
 4747SOL    HW225875   3.305   0.007  12.728 -1.1201  0.6352 -1.1472
 4748SOL     OW25876   2.436   3.772  15.707  0.1315  0.3444  0.7222
 4748SOL    HW125877   2.490   3.820  15.644 -2.1526  0.7520 -0.8917
 4748SOL    HW225878   2.396   3.852  15.742 -0.7969  0.3840 -0.4503
 4749SOL     OW25879   2.405   3.578   0.555  0.0229  0.1779 -0.3704
 4749SOL    HW125880   2.315   3.611   0.557 -0.0386  0.0191 -0.5832
 4749SOL    HW225881   2.407   3.569   0.460 -0.4254 -0.4994 -0.3159
 4750SOL     OW25882   3.101   1.977   0.560 -0.2183 -0.3872  0.0424
 4750SOL    HW125883   3.069   1.936   0.479  0.4715  1.9641 -1.4201
 4750SOL    HW225884   3.190   1.940   0.567 -0.2389 -0.7720 -1.7179
 4751SOL     OW25885   0.275   1.343   0.447 -0.0354 -0.1014 -0.4695
 4751SOL    HW125886   0.265   1.437   0.460 -0.7943 -0.1689 -0.5831
 4751SOL    HW225887   0.339   1.353   0.376  0.8749  0.9587  0.5090
 4752SOL     OW25888   0.140   2.369   4.783  0.2448  0.0117  0.1350
 4752SOL    HW125889   0.075   2.332   4.723 -0.3479 -0.4607  1.0611
 4752SOL    HW225890   0.142   2.301   4.849 -0.5764 -1.3981 -1.2997
 4753SOL     OW25891   0.731   4.564   6.012 -0.4401 -0.9830  0.4900
 4753SOL    HW125892   0.801   4.542   5.951 -1.4910  2.5695 -1.9744
 4753SOL    HW225893   0.730   4.484   6.065 -1.4323 -2.0657 -1.1410
 4754SOL     OW25894   3.649   3.212   9.466  0.3599 -0.5586 -0.1354
 4754SOL    HW125895   3.674   3.151   9.535  0.8405  0.5985  0.6881
 4754SOL    HW225896   3.623   3.289   9.516  1.5767  0.9155 -1.7756
 4755SOL     OW25897   1.521   1.946   0.511 -0.0284  0.0688 -0.3496
 4755SOL    HW125898   1.581   1.871   0.517 -1.6194 -1.0883  1.2100
 4755SOL    HW225899   1.518   1.982   0.600 -0.5353 -1.1237  0.1171
 4756SOL     OW25900   1.658   1.083  11.959  0.2207 -0.2324 -0.0288
 4756SOL    HW125901   1.597   1.154  11.937  0.2862 -0.3136 -0.4675
 4756SOL    HW225902   1.690   1.048  11.876  0.7725  0.9138 -0.3079
 4757SOL     OW25903   1.431   2.488   4.133 -0.7275 -0.2432  0.8099
 4757SOL    HW125904   1.382   2.537   4.199  0.2784  1.4011  0.3191
 4757SOL    HW225905   1.411   2.546   4.060  1.1132  0.6031  0.9870
 4758SOL     OW25906   0.884   4.295  13.849 -0.2948 -0.1949  0.1719
 4758SOL    HW125907   0.965   4.346  13.853  0.2056 -0.8735 -1.4685
 4758SOL    HW225908   0.865   4.295  13.755 -1.7790  2.8325  0.4793
 4759SOL     OW25909   1.303   3.029   3.858 -0.3877  0.2337  0.3037
 4759SOL    HW125910   1.269   3.092   3.922 -1.3074  2.8067 -2.7037
 4759SOL    HW225911   1.230   3.032   3.796  0.2144 -0.9110 -0.4674
 4760SOL     OW25912   0.678   0.893  15.278 -0.6476 -0.2017 -0.0894
 4760SOL    HW125913   0.591   0.931  15.276 -0.7431 -0.4076  0.0823
 4760SOL    HW225914   0.733   0.936  15.213  1.1305 -0.4225  1.2295
 4761SOL     OW25915   4.346   2.646   2.254  0.3095 -0.3603  0.6410
 4761SOL    HW125916   4.375   2.653   2.345  0.1154 -1.7891  0.8151
 4761SOL    HW225917   4.382   2.562   2.227  1.7123  0.3975  0.1609
 4762SOL     OW25918   0.556   1.367   4.719 -0.3585  0.4340  0.0956
 4762SOL    HW125919   0.468   1.374   4.756 -0.6743 -0.8991 -0.3724
 4762SOL    HW225920   0.612   1.336   4.790 -0.4244 -0.1522 -0.1050
 4763SOL     OW25921   4.641   3.437   8.757 -0.3162  0.1271  0.1697
 4763SOL    HW125922   4.643   3.350   8.797  0.6650  0.2749  0.4586
 4763SOL    HW225923   4.547   3.452   8.747 -0.3995  0.0665  0.8683
 4764SOL     OW25924   3.843   1.928   6.827 -0.5403  0.5833 -0.6272
 4764SOL    HW125925   3.808   1.991   6.763 -0.3903 -0.2670 -1.5349
 4764SOL    HW225926   3.782   1.855   6.817  2.1858 -1.6496 -0.9279
 4765SOL     OW25927   0.376   1.401   2.973 -0.0092 -0.1316  0.6462
 4765SOL    HW125928   0.434   1.361   2.908  0.0172 -2.1648  1.9013
 4765SOL    HW225929   0.298   1.423   2.923 -0.3266 -1.4506  0.5545
 4766SOL     OW25930   3.135   1.788  11.610  0.0133  0.6295 -0.2510
 4766SOL    HW125931   3.139   1.873  11.565  0.2994 -0.0107 -1.4369
 4766SOL    HW225932   3.097   1.737  11.538 -2.9871  0.3972  1.5126
 4767SOL     OW25933   4.365   4.165   7.903  0.0139 -0.2493 -0.0620
 4767SOL    HW125934   4.412   4.106   7.845 -1.3484 -0.1523 -1.2694
 4767SOL    HW225935   4.350   4.105   7.976 -0.1279 -0.6215 -0.4013
 4768SOL     OW25936   3.377   4.314   0.160  0.9154  0.1880  0.0890
 4768SOL    HW125937   3.413   4.399   0.188  0.9570 -1.1310  3.8904
 4768SOL    HW225938   3.436   4.254   0.205 -0.2028 -0.4668  0.6704
 4769SOL     OW25939   2.785   0.969  16.563  0.2913 -0.3970 -0.3658
 4769SOL    HW125940   2.858   0.923  16.520  2.2399  1.0934  1.3101
 4769SOL    HW225941   2.724   0.896  16.570  0.8327 -0.9031 -0.8023
 4770SOL     OW25942   0.353   3.079   8.005 -0.4314  0.7645 -0.0247
 4770SOL    HW125943   0.318   3.150   7.951  0.7428 -0.0130 -1.7890
 4770SOL    HW225944   0.410   3.133   8.060  1.4910 -1.7557  0.4551
 4771SOL     OW25945   2.612   1.160   8.252  0.4729  0.4545 -0.0198
 4771SOL    HW125946   2.625   1.184   8.344 -1.6061 -1.0532  0.6685
 4771SOL    HW225947   2.581   1.069   8.251  0.6633  0.4047 -1.4072
 4772SOL     OW25948   4.436   2.597  10.401 -0.2789  0.2547 -0.1792
 4772SOL    HW125949   4.431   2.510  10.361  0.3858 -0.6412  1.7375
 4772SOL    HW225950   4.400   2.654  10.332  1.4235  0.1726 -1.1442
 4773SOL     OW25951   1.643   0.924   8.256 -0.2077  0.0903  0.0962
 4773SOL    HW125952   1.670   0.859   8.191 -0.6136  0.2993 -0.2741
 4773SOL    HW225953   1.693   0.896   8.333  0.7997  0.7339 -0.3265
 4774SOL     OW25954   4.200   1.484   7.995 -0.4554  0.5121  0.0529
 4774SOL    HW125955   4.292   1.459   7.997 -0.3463  0.8993 -0.1723
 4774SOL    HW225956   4.201   1.521   7.906 -0.0155  1.5554  0.4924
 4775SOL     OW25957   0.014   0.456   8.307  0.0780  0.2509  0.5175
 4775SOL    HW125958   4.711   0.441   8.224  0.9363 -1.1846  0.3107
 4775SOL    HW225959   0.103   0.441   8.275 -0.1735  1.0999 -0.5865
 4776SOL     OW25960   3.339   2.045   2.372 -0.6417  0.3503  0.0762
 4776SOL    HW125961   3.433   2.025   2.379 -0.2036  2.8025  1.1727
 4776SOL    HW225962   3.323   2.070   2.463 -1.2762 -1.2473  0.3909
 4777SOL     OW25963   2.774   0.438   2.837  0.6318  0.0157 -0.0595
 4777SOL    HW125964   2.782   0.343   2.830  1.0690  0.1071 -0.7535
 4777SOL    HW225965   2.749   0.443   2.929 -1.0349 -0.1489 -0.5006
 4778SOL     OW25966   1.045   4.430   4.487 -0.3062  0.2078  0.2053
 4778SOL    HW125967   0.976   4.480   4.532 -1.0595  0.3640 -1.1218
 4778SOL    HW225968   1.014   4.340   4.495  1.4126 -0.3663  0.3054
 4779SOL     OW25969   0.688   1.222   4.340 -0.0883  0.3703 -0.3172
 4779SOL    HW125970   0.647   1.153   4.288 -0.1952 -0.9533  1.5263
 4779SOL    HW225971   0.781   1.197   4.343  0.5324  2.5092 -1.4271
 4780SOL     OW25972   3.002   2.405   4.644 -0.1808 -0.6383  0.3033
 4780SOL    HW125973   3.085   2.361   4.626 -0.5739 -1.8631  1.5555
 4780SOL    HW225974   3.026   2.467   4.713  0.8076 -0.5092 -0.1514
 4781SOL     OW25975   1.744   1.279   6.863 -0.2285 -0.9676  0.3353
 4781SOL    HW125976   1.721   1.198   6.908 -0.1264 -0.8127  0.6648
 4781SOL    HW225977   1.677   1.276   6.795 -2.0237  0.3782  2.0403
 4782SOL     OW25978   4.247   0.878   8.325  0.1490 -0.4107 -0.1285
 4782SOL    HW125979   4.206   0.871   8.412  0.0222  0.3524 -0.1281
 4782SOL    HW225980   4.177   0.873   8.260 -1.0651  0.0897  1.1268
 4783SOL     OW25981   1.391   0.156   7.716  0.0828  0.5699 -0.5058
 4783SOL    HW125982   1.388   0.087   7.649  0.7169  1.8890 -1.8869
 4783SOL    HW225983   1.473   0.199   7.692  0.1881  1.0731  0.7305
 4784SOL     OW25984   3.049   1.848   0.801  0.4816 -0.1229 -0.2928
 4784SOL    HW125985   3.076   1.873   0.890  0.4275  1.8993 -0.8425
 4784SOL    HW225986   3.083   1.918   0.745 -1.4101  0.5540 -0.5867
 4785SOL     OW25987   2.989   1.328   8.503 -0.4064 -0.2568 -0.3023
 4785SOL    HW125988   3.009   1.268   8.575  0.2551 -0.1948 -0.4327
 4785SOL    HW225989   3.078   1.351   8.475 -0.5353 -0.4278 -0.8632
 4786SOL     OW25990   1.105   0.498   5.950  0.0810 -0.3116 -0.3178
 4786SOL    HW125991   1.071   0.410   5.936  1.1294 -0.6075 -1.0676
 4786SOL    HW225992   1.031   0.552   5.923  0.0610 -1.2431 -2.1481
 4787SOL     OW25993   0.050   1.428   3.047 -0.0963  0.3353 -0.8129
 4787SOL    HW125994   0.017   1.495   2.988  3.0473  2.7064  0.1541
 4787SOL    HW225995   4.721   1.438   3.112  1.0070  2.4167  0.0412
 4788SOL     OW25996   0.172   1.262   7.669  0.0481 -0.1006 -0.0880
 4788SOL    HW125997   0.252   1.212   7.687  0.7037  0.7585 -0.5966
 4788SOL    HW225998   0.212   1.349   7.670 -1.8424  0.7362  2.3140
 4789SOL     OW25999   2.089   1.369   3.692 -0.0241  0.3018 -0.5536
 4789SOL    HW126000   2.142   1.335   3.763  0.9460 -0.2686 -1.5541
 4789SOL    HW226001   2.023   1.303   3.671 -0.6753  0.9872 -0.6912
 4790SOL     OW26002   1.048   0.440   1.828 -0.0634 -0.5139  0.4790
 4790SOL    HW126003   1.063   0.525   1.870  0.4896 -1.0839  1.4340
 4790SOL    HW226004   1.133   0.438   1.785 -1.7094  0.7550 -2.8571
 4791SOL     OW26005   3.214   0.993  14.159 -0.5891  0.2606 -0.0958
 4791SOL    HW126006   3.192   0.918  14.215 -0.2435  1.7944  2.0557
 4791SOL    HW226007   3.289   0.962  14.109  0.4751  0.4967  1.3795
 4792SOL     OW26008   2.116   2.433   6.027 -0.4201 -0.6714  0.1831
 4792SOL    HW126009   2.150   2.343   6.032  0.6281 -0.2937 -0.1260
 4792SOL    HW226010   2.108   2.435   5.932 -0.3639 -0.6576  0.1787
 4793SOL     OW26011   3.919   1.764   1.962  0.0672  0.1563  0.4391
 4793SOL    HW126012   3.917   1.757   1.866  2.3557  1.7831  0.2623
 4793SOL    HW226013   3.857   1.696   1.990  2.2253 -2.3211 -0.7235
 4794SOL     OW26014   1.278   3.415   3.360  0.2085  0.1239  0.6232
 4794SOL    HW126015   1.221   3.479   3.317 -0.8535  1.3035  3.7836
 4794SOL    HW226016   1.304   3.368   3.281 -0.7544  0.0069  0.3795
 4795SOL     OW26017   4.270   2.376   1.573 -0.4131 -0.7861 -0.1968
 4795SOL    HW126018   4.271   2.470   1.592  0.7203 -0.4955 -1.6941
 4795SOL    HW226019   4.351   2.367   1.523 -0.3670  0.6040 -0.4013
 4796SOL     OW26020   3.934   4.085  15.844  0.0355  0.1041  0.0200
 4796SOL    HW126021   3.950   3.991  15.849  2.2104  0.4935  0.3844
 4796SOL    HW226022   4.003   4.122  15.899 -0.3224  0.3029  0.3388
 4797SOL     OW26023   0.525   1.036   2.063 -0.0758 -0.0930 -0.5316
 4797SOL    HW126024   0.508   1.122   2.023 -1.9661 -0.7817 -1.2103
 4797SOL    HW226025   0.621   1.035   2.065 -0.1120 -0.1205  0.9297
 4798SOL     OW26026   3.693   3.802   7.583  0.0525 -0.0804  0.0743
 4798SOL    HW126027   3.598   3.794   7.580  0.1212 -1.5324  1.6655
 4798SOL    HW226028   3.705   3.854   7.662 -0.9904  1.6607 -0.9150
 4799SOL     OW26029   2.432   0.747   1.362  0.2504 -0.1509 -0.6202
 4799SOL    HW126030   2.519   0.709   1.351 -0.0165 -1.5037  1.9484
 4799SOL    HW226031   2.430   0.747   1.457  1.1214  1.9041 -0.5959
 4800SOL     OW26032   4.200   0.993   3.935 -0.0964  0.2687 -0.3015
 4800SOL    HW126033   4.238   0.990   3.847  0.9040 -0.7049  0.1566
 4800SOL    HW226034   4.160   1.079   3.943  2.7877  1.7011 -1.0111
 4801SOL     OW26035   1.542   0.595   6.339  0.2404 -0.3090 -0.2474
 4801SOL    HW126036   1.516   0.508   6.309  2.7244 -1.1219 -0.0768
 4801SOL    HW226037   1.597   0.624   6.266  1.1053 -0.0989  0.4861
 4802SOL     OW26038   3.284   3.081   3.346 -0.9422 -0.7106 -0.3253
 4802SOL    HW126039   3.368   3.037   3.336  0.7910  2.3188  1.0950
 4802SOL    HW226040   3.236   3.077   3.263  0.6951 -0.7586 -1.2551
 4803SOL     OW26041   4.209   0.101   3.019  0.6185 -0.6289 -0.3872
 4803SOL    HW126042   4.119   0.117   3.047  0.9257 -1.0375  0.8330
 4803SOL    HW226043   4.217   0.022   3.072  4.2067 -0.6679 -0.9462
 4804SOL     OW26044   4.670   1.408   4.169 -0.0822  0.7544 -0.4347
 4804SOL    HW126045   0.009   1.395   4.118  0.8636  0.5382  1.1354
 4804SOL    HW226046   4.693   1.469   4.239 -1.3522  0.9858 -0.2257
 4805SOL     OW26047   0.197   0.946   5.617  0.4115  0.3590 -0.4282
 4805SOL    HW126048   0.222   0.979   5.704  0.3074  0.0970 -0.2996
 4805SOL    HW226049   0.133   0.878   5.638 -0.0129  0.8127 -0.2453
 4806SOL     OW26050   1.387   3.664   1.138 -0.3860 -0.0492  0.5079
 4806SOL    HW126051   1.471   3.698   1.168  1.9933 -1.6712 -4.3730
 4806SOL    HW226052   1.353   3.739   1.091 -1.4212 -0.4851  0.5564
 4807SOL     OW26053   3.798   0.461   5.288  0.2560 -0.2709 -0.2046
 4807SOL    HW126054   3.830   0.551   5.293  0.0928 -0.1196 -1.9987
 4807SOL    HW226055   3.878   0.409   5.294  1.1750  1.4160  2.3815
 4808SOL     OW26056   3.079   3.445  17.459 -0.2467 -0.0684  0.7680
 4808SOL    HW126057   3.051   3.441  17.367  3.7457 -0.9457 -0.4391
 4808SOL    HW226058   3.151   3.507  17.454  0.2106 -0.6014  0.6622
 4809SOL     OW26059   0.811   2.442  14.402  0.6932  0.4059  0.6463
 4809SOL    HW126060   0.767   2.426  14.485 -0.2155  0.8266  0.2384
 4809SOL    HW226061   0.827   2.535  14.413 -3.3784  0.8789  2.2049
 4810SOL     OW26062   1.482   0.569  15.518  0.5064 -0.3252 -0.4329
 4810SOL    HW126063   1.528   0.489  15.490 -1.0789 -1.7956  1.1852
 4810SOL    HW226064   1.393   0.561  15.485  0.5834  1.1391 -0.9691
 4811SOL     OW26065   3.386   0.585   4.317 -0.0832 -0.1130 -0.1137
 4811SOL    HW126066   3.361   0.535   4.240 -0.5728  1.1036 -0.7358
 4811SOL    HW226067   3.400   0.667   4.270  2.7699 -0.6552 -0.2175
 4812SOL     OW26068   3.868   4.337   3.564 -0.0798 -0.4069 -0.5392
 4812SOL    HW126069   3.817   4.292   3.631  0.4694 -1.4154 -0.7916
 4812SOL    HW226070   3.859   4.427   3.595 -1.0700 -0.7198  0.0579
 4813SOL     OW26071   1.376   2.880  16.859 -0.0253  0.3077  0.4071
 4813SOL    HW126072   1.334   2.818  16.918 -0.5083  0.0886 -0.1677
 4813SOL    HW226073   1.445   2.822  16.827  0.7633  0.0555  2.6043
 4814SOL     OW26074   2.119   1.842   4.442  0.5653 -0.2855  0.1059
 4814SOL    HW126075   2.119   1.885   4.527  0.6842  0.2306 -0.1539
 4814SOL    HW226076   2.135   1.909   4.375  0.9661 -0.3499  0.1391
 4815SOL     OW26077   3.593   4.709   3.500  0.4358  0.7777 -0.2003
 4815SOL    HW126078   3.558   4.638   3.446  1.0346  0.4711 -0.1814
 4815SOL    HW226079   3.554   4.689   3.585 -2.1614 -0.1639 -1.6277
 4816SOL     OW26080   1.480   2.618   1.925 -0.1427  0.2404 -0.3336
 4816SOL    HW126081   1.569   2.588   1.904 -0.7562 -1.7609 -0.1054
 4816SOL    HW226082   1.427   2.564   1.866  1.4718 -0.9126 -0.7347
 4817SOL     OW26083   0.706   3.639   7.492  0.1430  0.4318 -0.1256
 4817SOL    HW126084   0.772   3.606   7.553 -3.0718 -3.6671  1.0552
 4817SOL    HW226085   0.743   3.626   7.404 -0.7990 -1.2952 -0.2478
 4818SOL     OW26086   4.658   0.642   8.736  0.4244 -0.4957 -0.1439
 4818SOL    HW126087   4.680   0.692   8.658  1.6777 -1.6908 -0.5508
 4818SOL    HW226088   4.572   0.617   8.701 -0.0472 -0.1862  0.7863
 4819SOL     OW26089   2.991   0.079  11.959 -0.2511  0.4440 -0.2719
 4819SOL    HW126090   3.055   0.141  11.924 -0.9286  1.1812 -0.2021
 4819SOL    HW226091   2.909   0.127  11.945 -0.8472 -1.0258 -1.8423
 4820SOL     OW26092   1.250   0.783   6.707  0.0903 -0.4438  0.1078
 4820SOL    HW126093   1.180   0.785   6.771  1.8596  0.6998  1.9860
 4820SOL    HW226094   1.247   0.872   6.673  0.1105 -0.9396 -1.2279
 4821SOL     OW26095   3.311   0.373   8.244 -0.3406 -0.4270 -0.5697
 4821SOL    HW126096   3.247   0.420   8.190 -1.0608  0.4215  1.0139
 4821SOL    HW226097   3.390   0.404   8.201  2.0643 -2.9130  2.0856
 4822SOL     OW26098   1.055   1.268   1.466 -0.3642  0.5300  0.3065
 4822SOL    HW126099   0.959   1.271   1.459 -0.5286  1.9488  3.0190
 4822SOL    HW226100   1.080   1.360   1.460 -0.9513  0.4690 -3.2529
 4823SOL     OW26101   1.850   3.567   5.056 -0.1920 -0.3083 -0.3723
 4823SOL    HW126102   1.758   3.547   5.037 -0.0280 -1.4839  0.0260
 4823SOL    HW226103   1.845   3.605   5.144 -0.8545 -1.7553  0.2244
 4824SOL     OW26104   1.268   4.547   4.434  0.3323  0.5900  0.1025
 4824SOL    HW126105   1.288   4.568   4.526 -0.6685  0.1464  0.4211
 4824SOL    HW226106   1.181   4.508   4.442 -0.7469  2.9608 -0.4460
 4825SOL     OW26107   3.287   3.817   1.969  0.1652 -0.3740  0.3459
 4825SOL    HW126108   3.357   3.780   2.024 -0.6317 -1.1918  0.8010
 4825SOL    HW226109   3.223   3.835   2.038  0.0557  1.2897 -0.2052
 4826SOL     OW26110   2.860   3.246   5.909 -0.1395 -0.4928  0.0323
 4826SOL    HW126111   2.827   3.156   5.900  3.5096 -1.8001 -0.3714
 4826SOL    HW226112   2.948   3.246   5.872  0.2821 -0.3610  1.0247
 4827SOL     OW26113   2.980   3.721   0.317 -0.5040  0.1204 -0.2933
 4827SOL    HW126114   2.945   3.641   0.279 -1.3053 -0.5519  1.8173
 4827SOL    HW226115   2.913   3.780   0.283  0.1675 -0.2088 -2.1765
 4828SOL     OW26116   4.027   4.370  10.778 -0.3070  0.5774 -0.3991
 4828SOL    HW126117   4.045   4.440  10.715  1.3231  0.5801  0.0612
 4828SOL    HW226118   4.114   4.329  10.776 -0.3168  0.6220 -1.6227
 4829SOL     OW26119   4.360   3.522  11.815  0.5342 -0.3367  0.2322
 4829SOL    HW126120   4.334   3.508  11.906  0.3832 -3.0529 -0.2287
 4829SOL    HW226121   4.277   3.501  11.771  1.6555  0.3858 -2.2187
 4830SOL     OW26122   2.078   3.783  14.995 -0.3503 -0.2056 -0.1438
 4830SOL    HW126123   2.110   3.761  14.908 -0.0445  1.4323 -0.4511
 4830SOL    HW226124   2.078   3.697  15.036 -0.0817  0.2772  0.8642
 4831SOL     OW26125   1.522   2.315  15.288 -0.4716  0.2075  0.6514
 4831SOL    HW126126   1.571   2.279  15.213  0.9660 -0.2061  1.8024
 4831SOL    HW226127   1.589   2.321  15.355  0.2731  0.5691 -0.1219
 4832SOL     OW26128   0.875   0.492   9.063  0.5045  0.0177  0.3202
 4832SOL    HW126129   0.856   0.536   9.146  1.4091 -0.6811  0.9086
 4832SOL    HW226130   0.804   0.506   9.001 -1.9413 -1.9260  2.6665
 4833SOL     OW26131   1.895   3.362   2.759  0.2882 -0.4096 -0.1268
 4833SOL    HW126132   1.847   3.443   2.776  1.1940 -0.2083  1.3959
 4833SOL    HW226133   1.932   3.342   2.845  1.5924  1.3679 -0.2729
 4834SOL     OW26134   1.339   0.663   3.588  0.2616 -0.5602 -0.5326
 4834SOL    HW126135   1.347   0.711   3.670  1.1141 -0.3934 -0.7242
 4834SOL    HW226136   1.275   0.720   3.546  0.4725  0.3544  0.3769
 4835SOL     OW26137   4.624   3.402   5.647  0.0438 -0.0797 -0.0130
 4835SOL    HW126138   4.676   3.469   5.602  0.1896 -0.2482 -0.0947
 4835SOL    HW226139   4.628   3.326   5.589 -1.6429  0.6099 -1.0530
 4836SOL     OW26140   0.208   3.020  12.060  0.1243  0.2912 -0.8061
 4836SOL    HW126141   0.122   3.016  12.102  0.8165 -0.1114  0.5503
 4836SOL    HW226142   0.237   3.105  12.094  0.6797 -0.2270  0.0189
 4837SOL     OW26143   4.144   3.333   2.509 -0.2300 -0.8728 -0.0140
 4837SOL    HW126144   4.175   3.415   2.469 -0.7281 -1.2155 -1.0942
 4837SOL    HW226145   4.214   3.271   2.490  0.8670  0.7512 -1.2895
 4838SOL     OW26146   4.353   1.589   1.915  0.3120 -0.1469  0.7367
 4838SOL    HW126147   4.279   1.635   1.874  0.6462  0.1364  0.4484
 4838SOL    HW226148   4.326   1.589   2.007 -2.5627 -1.0987 -0.1023
 4839SOL     OW26149   0.618   2.546   4.296 -0.3102  0.1484 -0.0818
 4839SOL    HW126150   0.578   2.461   4.277  2.0373 -1.2005  0.9739
 4839SOL    HW226151   0.560   2.602   4.348 -0.6191  0.2137 -0.4966
 4840SOL     OW26152   0.686   2.949   6.431 -0.7720  0.2669  0.1762
 4840SOL    HW126153   0.754   3.016   6.424 -0.0298 -0.3668  1.2122
 4840SOL    HW226154   0.644   2.970   6.515  1.7984  1.6120  1.1448
 4841SOL     OW26155   3.096   2.537   2.915  0.5521  0.2739 -0.0539
 4841SOL    HW126156   3.148   2.613   2.938  0.9995  0.0692 -0.4050
 4841SOL    HW226157   3.150   2.488   2.853 -3.5327 -0.3977 -3.0827
 4842SOL     OW26158   1.218   1.730   7.184 -0.0929 -0.4815  0.0501
 4842SOL    HW126159   1.140   1.786   7.177 -0.5990 -1.5199 -2.5154
 4842SOL    HW226160   1.179   1.643   7.175 -2.2695  0.1997  2.7138
 4843SOL     OW26161   0.031   1.940   6.517 -0.4994 -0.8626  0.0251
 4843SOL    HW126162   0.051   1.852   6.486 -0.3182 -1.7737  2.7574
 4843SOL    HW226163   0.035   1.998   6.440  1.3929  0.0548  0.8149
 4844SOL     OW26164   1.714   4.397   1.356 -0.0095  0.5069  0.1102
 4844SOL    HW126165   1.738   4.469   1.414 -1.3515  0.3339  0.8841
 4844SOL    HW226166   1.784   4.338   1.381 -1.3204  0.4767  3.6831
 4845SOL     OW26167   4.524   4.535  13.971 -0.0081 -0.1775 -0.1485
 4845SOL    HW126168   4.546   4.572  13.886  0.0279  2.4653  0.9867
 4845SOL    HW226169   4.443   4.491  13.947 -0.0433 -0.4477  0.4655
 4846SOL     OW26170   2.103   3.091   3.508 -0.9194  0.1268  0.1086
 4846SOL    HW126171   2.026   3.108   3.454  0.2157 -1.0123 -1.8572
 4846SOL    HW226172   2.056   3.089   3.592  0.1381 -2.1779  0.6301
 4847SOL     OW26173   3.168   3.254  12.310 -0.2446 -0.2669  0.3241
 4847SOL    HW126174   3.228   3.294  12.247 -0.3506 -2.2024 -0.9848
 4847SOL    HW226175   3.180   3.162  12.287  2.4628  0.3849 -0.8440
 4848SOL     OW26176   2.439   4.290   7.709 -0.1687  0.1496  0.4358
 4848SOL    HW126177   2.440   4.375   7.752 -2.7687 -0.1437  1.0714
 4848SOL    HW226178   2.528   4.269   7.735  0.3443  0.7369 -0.8142
 4849SOL     OW26179   4.471   3.795   5.393  0.4278 -0.6372 -0.6399
 4849SOL    HW126180   4.376   3.799   5.392  0.4089 -0.7156  0.2864
 4849SOL    HW226181   4.485   3.739   5.470 -1.4145  0.0698  0.1970
 4850SOL     OW26182   2.476   0.189   6.673  0.2523  0.8087 -0.3335
 4850SOL    HW126183   2.402   0.233   6.716  1.5597  1.1988  1.4962
 4850SOL    HW226184   2.525   0.269   6.655  3.0078 -0.9785 -0.6998
 4851SOL     OW26185   0.889   1.207   2.494  0.2490  0.0679  0.3029
 4851SOL    HW126186   0.907   1.301   2.503 -0.1788  0.2053 -0.3413
 4851SOL    HW226187   0.874   1.181   2.585  1.6583 -1.5619  0.0699
 4852SOL     OW26188   3.222   0.845  11.356 -0.5002  0.4396 -0.1502
 4852SOL    HW126189   3.140   0.831  11.308  0.0595  0.8247 -1.2163
 4852SOL    HW226190   3.207   0.939  11.367  0.6714  0.5165  0.7573
 4853SOL     OW26191   4.657   3.847  11.849 -0.5990 -0.0506  0.5516
 4853SOL    HW126192   4.575   3.854  11.801  0.1220  0.5105 -0.5676
 4853SOL    HW226193   4.647   3.752  11.863  1.4799 -1.0574 -4.8957
 4854SOL     OW26194   2.731   2.527   6.929  0.5247 -0.0732  0.0500
 4854SOL    HW126195   2.794   2.471   6.882 -0.0847  1.0779 -2.1581
 4854SOL    HW226196   2.797   2.581   6.971  0.3449  0.2612 -0.0969
 4855SOL     OW26197   3.182   2.199   7.671  0.1109 -0.4406  0.1362
 4855SOL    HW126198   3.189   2.283   7.625 -1.2309 -0.5917 -0.3513
 4855SOL    HW226199   3.089   2.207   7.691  0.3546 -0.2203  1.1839
 4856SOL     OW26200   2.124   1.448   5.898  0.2591 -0.8282  0.2391
 4856SOL    HW126201   2.091   1.537   5.886  2.2676 -0.1670 -0.4385
 4856SOL    HW226202   2.050   1.404   5.940 -0.8898  1.0316  0.1865
 4857SOL     OW26203   1.938   3.179   4.188  0.3347 -0.3837 -0.1351
 4857SOL    HW126204   1.871   3.119   4.156  0.3539 -0.7535  0.5249
 4857SOL    HW226205   1.939   3.244   4.118 -1.1341  0.5880  0.7443
 4858SOL     OW26206   3.701   2.469  10.126  0.2767  0.5290 -0.0261
 4858SOL    HW126207   3.673   2.394  10.179 -2.0716  0.4193 -1.4187
 4858SOL    HW226208   3.783   2.501  10.162  0.5614 -1.1856  0.8641
 4859SOL     OW26209   0.297   1.267   6.570 -0.1762 -0.1278  0.4347
 4859SOL    HW126210   0.246   1.321   6.631 -1.1566  0.6758 -1.0988
 4859SOL    HW226211   0.243   1.191   6.549 -0.3109  0.4350 -1.2413
 4860SOL     OW26212   0.677   4.735  16.288 -0.2697  0.1731  0.2813
 4860SOL    HW126213   0.684   4.679  16.210  2.0303  1.1236 -0.2042
 4860SOL    HW226214   0.752   4.715  16.345 -0.5038  1.0581  0.8921
 4861SOL     OW26215   3.991   0.517  14.891  0.0111  0.1176 -0.3424
 4861SOL    HW126216   3.961   0.603  14.919  0.2646  1.2657 -3.5741
 4861SOL    HW226217   4.083   0.530  14.867  0.0937 -0.7544 -0.4857
 4862SOL     OW26218   3.843   4.207  12.718 -0.3754  0.6187  0.2664
 4862SOL    HW126219   3.799   4.288  12.744  2.0382  2.5737 -1.7649
 4862SOL    HW226220   3.826   4.215  12.624  0.3166  1.5601  0.2178
 4863SOL     OW26221   4.091   0.166   5.154  1.0169  0.1283  0.0278
 4863SOL    HW126222   4.060   0.240   5.207  0.0467  1.6754 -2.6654
 4863SOL    HW226223   4.130   0.113   5.223 -2.7431 -0.0813  1.9941
 4864SOL     OW26224   3.285   0.524   6.436 -0.0482 -0.1077  0.3092
 4864SOL    HW126225   3.275   0.429   6.426  0.8003 -0.1156 -0.5151
 4864SOL    HW226226   3.208   0.553   6.387  0.0093  0.1781  0.3864
 4865SOL     OW26227   3.278   2.563  15.687 -0.7397 -0.2934 -0.0196
 4865SOL    HW126228   3.240   2.478  15.667 -1.0073 -0.7454  2.3868
 4865SOL    HW226229   3.278   2.594  15.596 -0.0162  0.1415  0.1284
 4866SOL     OW26230   0.465   2.530   5.610 -0.1711 -0.0014  0.0567
 4866SOL    HW126231   0.524   2.477   5.556  0.9201  0.3186  0.9358
 4866SOL    HW226232   0.514   2.598   5.656 -1.0664  1.0027 -0.4783
 4867SOL     OW26233   0.383   4.530   5.998  0.0590 -0.0576  0.2370
 4867SOL    HW126234   0.346   4.470   6.063 -0.1427 -0.2337 -0.0403
 4867SOL    HW226235   0.410   4.602   6.055  2.1431  0.4324 -1.3947
 4868SOL     OW26236   0.450   0.681   1.167 -0.1779  0.1045  0.9063
 4868SOL    HW126237   0.440   0.715   1.078 -1.5525  0.8295  1.3350
 4868SOL    HW226238   0.466   0.761   1.218  0.4629  0.2472  0.4804
 4869SOL     OW26239   3.116   0.904   4.421  0.7232 -0.5628  0.8447
 4869SOL    HW126240   3.027   0.933   4.440 -0.0337 -0.4291 -2.9948
 4869SOL    HW226241   3.142   0.965   4.352  0.9239 -0.9011  0.6196
 4870SOL     OW26242   1.847   4.637  13.940 -0.1227 -0.0354  0.2893
 4870SOL    HW126243   1.774   4.601  13.889  1.0215 -1.1872 -0.5355
 4870SOL    HW226244   1.886   4.701  13.880  0.9555 -1.1951 -0.2438
 4871SOL     OW26245   3.388   4.571   2.231  0.3015 -0.4728 -0.7491
 4871SOL    HW126246   3.317   4.635   2.223 -0.3145 -0.9358  1.1812
 4871SOL    HW226247   3.405   4.567   2.325 -0.2149  1.9875 -0.5360
 4872SOL     OW26248   3.954   0.563  14.591  0.9540 -0.0701 -0.1927
 4872SOL    HW126249   3.994   0.519  14.666  2.7278 -0.5352 -1.4020
 4872SOL    HW226250   3.963   0.498  14.521  3.3357 -3.9826  3.7821
 4873SOL     OW26251   1.257   1.817   4.406  0.2508 -0.7372 -0.2150
 4873SOL    HW126252   1.279   1.907   4.431  0.1094 -0.9524  0.7016
 4873SOL    HW226253   1.261   1.825   4.311  3.9660  2.0969  0.2031
 4874SOL     OW26254   2.812   3.701   3.114  0.0574 -0.3297 -0.2819
 4874SOL    HW126255   2.851   3.669   3.195 -0.2499 -0.4353 -0.1769
 4874SOL    HW226256   2.717   3.710   3.123 -0.0945  0.0711 -2.1447
 4875SOL     OW26257   3.992   0.278   1.653 -0.1965  0.2350  0.6138
 4875SOL    HW126258   4.037   0.289   1.737  2.3415  0.3824 -0.7408
 4875SOL    HW226259   3.930   0.350   1.664 -0.9201 -0.1186 -1.2351
 4876SOL     OW26260   1.315   0.906   8.604  1.1881 -0.5902  0.1517
 4876SOL    HW126261   1.397   0.954   8.612  1.4255 -0.8483 -0.7682
 4876SOL    HW226262   1.326   0.857   8.523  0.5551 -1.9084  0.8523
 4877SOL     OW26263   1.670   0.760   6.994 -0.0956 -0.4650 -0.5030
 4877SOL    HW126264   1.609   0.694   6.963  0.3649 -1.0297 -0.1963
 4877SOL    HW226265   1.694   0.723   7.078 -1.6492  0.0581  0.1685
 4878SOL     OW26266   2.921   2.056   3.323 -0.6743 -0.3633  0.4465
 4878SOL    HW126267   2.994   2.053   3.261  0.0947 -0.6776  1.3646
 4878SOL    HW226268   2.944   2.144   3.355  0.7059 -0.1070 -1.2407
 4879SOL     OW26269   4.595   3.087   8.544 -0.4511 -0.6976 -0.0959
 4879SOL    HW126270   4.615   3.156   8.481  1.2218 -0.5409  0.6094
 4879SOL    HW226271   4.500   3.094   8.545 -0.4005  0.0374 -0.3394
 4880SOL     OW26272   1.816   3.768   7.543 -0.2966  0.0982 -0.0350
 4880SOL    HW126273   1.812   3.811   7.628  0.0981  1.9085 -0.9257
 4880SOL    HW226274   1.765   3.688   7.550 -0.1279  0.0358  0.4987
 4881SOL     OW26275   1.485   2.283  12.788 -0.1212 -0.1538 -0.0484
 4881SOL    HW126276   1.564   2.234  12.770 -0.1418 -0.7589  1.5536
 4881SOL    HW226277   1.444   2.236  12.860 -0.0282 -1.9287 -1.1608
 4882SOL     OW26278   1.303   1.419   5.045 -0.1737 -0.5146 -0.0805
 4882SOL    HW126279   1.210   1.430   5.066  0.3254  1.7530  0.9711
 4882SOL    HW226280   1.294   1.344   4.987 -1.1127  0.5061 -1.2436
 4883SOL     OW26281   0.579   1.631   8.808  0.0348 -0.4452 -0.1425
 4883SOL    HW126282   0.613   1.578   8.735 -2.1400 -1.3772 -0.4671
 4883SOL    HW226283   0.566   1.568   8.879 -2.1772 -1.2715 -1.2969
 4884SOL     OW26284   1.377   0.471  16.462 -0.1486 -0.5651  0.1521
 4884SOL    HW126285   1.346   0.551  16.419  0.6900 -0.6041 -0.5325
 4884SOL    HW226286   1.468   0.493  16.479 -0.6516  2.4891 -1.0621
 4885SOL     OW26287   2.455   1.619  16.281 -0.1428 -0.0742 -0.0319
 4885SOL    HW126288   2.368   1.618  16.320 -0.1282 -0.2466 -0.0057
 4885SOL    HW226289   2.417   1.604  16.195 -1.4099  1.8838  0.1957
 4886SOL     OW26290   3.446   1.807   3.763  0.2461  0.5714 -0.3210
 4886SOL    HW126291   3.439   1.801   3.668 -1.5730  1.9527 -0.2668
 4886SOL    HW226292   3.366   1.765   3.795 -0.0581 -0.2051 -2.1353
 4887SOL     OW26293   1.627   3.429   3.817 -0.3328 -0.6635 -0.2002
 4887SOL    HW126294   1.540   3.390   3.821  0.1768 -1.8923 -0.9058
 4887SOL    HW226295   1.674   3.352   3.784 -1.9102 -0.6566 -2.4331
 4888SOL     OW26296   3.786   0.214  12.598 -0.2133  0.6278  0.5718
 4888SOL    HW126297   3.855   0.249  12.655  3.2016 -1.6781 -2.0805
 4888SOL    HW226298   3.717   0.198  12.662 -1.1123  4.1495  0.4649
 4889SOL     OW26299   1.766   1.600   7.632  0.6444  0.0613 -0.1758
 4889SOL    HW126300   1.856   1.619   7.606  0.0418  2.1106 -0.8013
 4889SOL    HW226301   1.739   1.568   7.546 -0.2131 -1.8252  0.7887
 4890SOL     OW26302   4.224   4.179   7.453 -0.2071 -0.5797 -0.8647
 4890SOL    HW126303   4.318   4.184   7.436 -0.0436  0.4250  0.3635
 4890SOL    HW226304   4.214   4.270   7.479  0.7394 -0.5137 -0.7359
 4891SOL     OW26305   0.208   0.192   5.495 -0.3231  0.7882 -1.0881
 4891SOL    HW126306   0.147   0.124   5.523 -0.6796  0.7886 -1.8818
 4891SOL    HW226307   0.147   0.264   5.483 -0.0840  0.9114 -1.5514
 4892SOL     OW26308   0.840   0.795  15.480  0.5544  0.1524 -0.1112
 4892SOL    HW126309   0.807   0.837  15.400  0.7321 -0.1548 -0.3433
 4892SOL    HW226310   0.900   0.856  15.523 -1.6558  0.2349  2.9228
 4893SOL     OW26311   1.096   0.725   5.613  0.4582  0.0313  0.0140
 4893SOL    HW126312   1.014   0.678   5.630 -0.4289  1.5735  0.0563
 4893SOL    HW226313   1.071   0.817   5.623 -0.6161  0.0530 -2.7085
 4894SOL     OW26314   1.326   3.635  10.890  0.1959  0.2927 -0.2167
 4894SOL    HW126315   1.340   3.551  10.935  0.7158  2.1939  3.1707
 4894SOL    HW226316   1.295   3.694  10.958 -0.3995 -1.1478  0.7739
 4895SOL     OW26317   2.911   3.456   6.268  0.3145  0.0094  0.1507
 4895SOL    HW126318   2.973   3.402   6.218 -0.3254 -2.9481  2.5036
 4895SOL    HW226319   2.913   3.533   6.212 -0.9771 -0.1947 -0.1765
 4896SOL     OW26320   2.180   3.640   2.981  0.1657  0.1398  0.1932
 4896SOL    HW126321   2.120   3.698   2.935  2.2841  0.7253 -1.8031
 4896SOL    HW226322   2.142   3.643   3.069 -0.8255 -0.5042 -0.2030
 4897SOL     OW26323   4.101   1.390   0.976 -0.3674 -0.5030 -0.4031
 4897SOL    HW126324   4.025   1.342   1.008 -1.7260  1.3432 -0.8922
 4897SOL    HW226325   4.129   1.338   0.900  1.4432 -1.3670  0.8567
 4898SOL     OW26326   1.760   4.531   6.849  0.0395  0.0597 -0.0435
 4898SOL    HW126327   1.730   4.575   6.928 -2.2502 -1.0488 -0.3036
 4898SOL    HW226328   1.746   4.603   6.786 -0.7658  0.8008  0.9894
 4899SOL     OW26329   0.662   2.299   6.691 -0.1497  0.2205 -0.5748
 4899SOL    HW126330   0.591   2.265   6.746 -0.1096  0.8891 -0.1124
 4899SOL    HW226331   0.625   2.383   6.665  1.8906  1.6502  1.1566
 4900SOL     OW26332   0.909   2.066  14.150  0.3946  0.0944 -0.1537
 4900SOL    HW126333   0.827   2.024  14.124 -1.2256  2.4505  1.1363
 4900SOL    HW226334   0.971   2.012  14.101 -0.5251 -1.7471  0.7289
 4901SOL     OW26335   1.500   1.221   3.920  0.7499 -0.2358 -0.3350
 4901SOL    HW126336   1.577   1.247   3.970 -0.3038  3.3305 -0.5718
 4901SOL    HW226337   1.487   1.287   3.852 -1.6020 -1.3983 -1.0218
 4902SOL     OW26338   1.122   4.219   3.874 -0.0299  0.0763  0.2008
 4902SOL    HW126339   1.079   4.290   3.826  1.6654 -0.1429 -1.6606
 4902SOL    HW226340   1.205   4.263   3.894 -0.3117 -0.6297  2.9343
 4903SOL     OW26341   2.796   2.888   9.369 -0.3896  0.2739  0.3169
 4903SOL    HW126342   2.837   2.880   9.283 -0.5904  2.4277  0.0201
 4903SOL    HW226343   2.733   2.956   9.347  1.0281  1.1227 -1.0578
 4904SOL     OW26344   3.557   4.424  11.787 -0.4542  0.0642 -0.1267
 4904SOL    HW126345   3.587   4.467  11.867  0.9555 -0.5279 -0.3319
 4904SOL    HW226346   3.608   4.343  11.788 -0.3847  0.0989 -0.8020
 4905SOL     OW26347   3.825   1.977   3.942 -0.0433  0.4839  0.1138
 4905SOL    HW126348   3.774   1.988   3.861  0.5527  0.2708 -0.2868
 4905SOL    HW226349   3.810   2.063   3.980 -0.5670  0.0381  0.9026
 4906SOL     OW26350   1.775   1.319   5.116 -0.1462 -0.0323  0.7462
 4906SOL    HW126351   1.720   1.332   5.194  0.4553  2.4337  0.7571
 4906SOL    HW226352   1.805   1.410   5.111  1.4879 -0.5147  1.6774
 4907SOL     OW26353   3.912   3.013  10.886 -0.4762  0.1325  0.2045
 4907SOL    HW126354   3.931   3.092  10.835 -1.1472  0.3687  0.3157
 4907SOL    HW226355   3.992   2.993  10.934  0.1802 -0.4771 -1.1176
 4908SOL     OW26356   0.908   3.407   6.106  0.0201 -0.2274 -0.0906
 4908SOL    HW126357   0.817   3.390   6.128  0.4222  0.0284  1.7850
 4908SOL    HW226358   0.919   3.362   6.023  1.4749  0.1147 -0.0819
 4909SOL     OW26359   2.538   4.692  10.602  0.1004 -0.2472  0.5166
 4909SOL    HW126360   2.469   0.011  10.630 -1.2503 -1.0573 -1.1074
 4909SOL    HW226361   2.594   0.016  10.560  1.5996 -0.9074  1.4883
 4910SOL     OW26362   2.960   0.473   6.507 -0.1592  0.4910  0.4209
 4910SOL    HW126363   2.891   0.537   6.490  0.6252  1.3454  0.4688
 4910SOL    HW226364   3.004   0.508   6.584  0.4261  1.8936 -0.5349
 4911SOL     OW26365   3.271   1.314   7.624  0.2529  0.3315  0.8312
 4911SOL    HW126366   3.175   1.314   7.628  0.1975  2.9836 -0.0687
 4911SOL    HW226367   3.291   1.226   7.654 -1.2175  0.4934  2.2893
 4912SOL     OW26368   0.509   0.262   9.163  0.1895 -0.3443 -0.1515
 4912SOL    HW126369   0.534   0.282   9.253 -0.6280  0.3136 -0.0655
 4912SOL    HW226370   0.543   0.335   9.112 -2.3042  1.8185  1.2420
 4913SOL     OW26371   0.182   1.432   2.782 -0.6228  0.1754  0.2975
 4913SOL    HW126372   0.164   1.522   2.755  0.4560  0.2437 -0.2051
 4913SOL    HW226373   0.244   1.412   2.711 -0.5675  1.8102 -0.1202
 4914SOL     OW26374   1.869   4.218   8.597 -0.0391 -0.3790  0.3156
 4914SOL    HW126375   1.887   4.159   8.525 -0.2746  0.0705 -0.1111
 4914SOL    HW226376   1.788   4.176   8.627  0.3654 -0.8777  0.7049
 4915SOL     OW26377   3.245   3.988   7.552  0.4525 -0.1605 -0.0665
 4915SOL    HW126378   3.221   4.018   7.639  0.4078 -0.0340 -0.1234
 4915SOL    HW226379   3.159   3.953   7.529  0.8585 -0.7122 -0.7638
 4916SOL     OW26380   1.766   1.326  13.544 -0.4991 -0.1360 -0.8645
 4916SOL    HW126381   1.813   1.396  13.498 -0.6571 -0.9540 -2.2752
 4916SOL    HW226382   1.674   1.335  13.520 -0.4652 -1.9969 -1.7379
 4917SOL     OW26383   1.730   1.327   3.720 -0.8178  0.0977  0.6280
 4917SOL    HW126384   1.766   1.388   3.783  3.8243 -1.0901 -0.8553
 4917SOL    HW226385   1.638   1.350   3.732 -1.8339 -3.1963 -0.7869
 4918SOL     OW26386   3.481   4.604  16.465  0.5204 -0.0843 -0.5034
 4918SOL    HW126387   3.469   4.544  16.539  2.6328 -0.3209 -0.3531
 4918SOL    HW226388   3.563   4.649  16.485 -0.2797  0.5534  1.2980
 4919SOL     OW26389   0.702   2.214  10.923 -0.0242 -0.3307 -0.3316
 4919SOL    HW126390   0.607   2.203  10.926  0.1445 -1.3031  1.4785
 4919SOL    HW226391   0.740   2.173  10.845 -1.6501  2.3440 -2.5202
 4920SOL     OW26392   2.892   4.373   6.877  0.1743 -0.4158 -0.5812
 4920SOL    HW126393   2.852   4.443   6.826  2.1641 -0.4506 -2.1622
 4920SOL    HW226394   2.911   4.309   6.809  2.3363  0.3192 -0.6644
 4921SOL     OW26395   0.774   3.886  12.500  0.4056  0.4050  0.6156
 4921SOL    HW126396   0.856   3.857  12.459 -0.0245 -2.1058  1.5184
 4921SOL    HW226397   0.810   3.951  12.561  0.3134  0.9690  0.0713
 4922SOL     OW26398   4.134   0.656   6.718 -0.0546  1.1291 -0.2099
 4922SOL    HW126399   4.128   0.690   6.628  0.3117 -0.3782 -0.8167
 4922SOL    HW226400   4.051   0.690   6.750 -0.5393 -1.8608  1.7034
 4923SOL     OW26401   4.531   4.293   1.675  0.0769 -0.5260 -0.1133
 4923SOL    HW126402   4.464   4.234   1.709  1.1425 -0.9532  1.2361
 4923SOL    HW226403   4.525   4.373   1.728 -2.1505 -0.3505 -0.6358
 4924SOL     OW26404   0.407   4.113  13.838  0.0835  0.1532 -0.2532
 4924SOL    HW126405   0.492   4.149  13.863  0.2744 -0.5608  0.1179
 4924SOL    HW226406   0.390   4.189  13.782 -2.3956 -0.1618  0.0739
 4925SOL     OW26407   0.682   1.940   5.797  0.4396 -0.0774 -0.2811
 4925SOL    HW126408   0.732   2.004   5.747 -0.4878  2.7480  2.4238
 4925SOL    HW226409   0.656   1.883   5.724 -0.2317  0.8850 -0.8010
 4926SOL     OW26410   1.589   2.061   9.083 -0.2396  0.2337 -0.1116
 4926SOL    HW126411   1.583   1.967   9.063 -2.8526  0.8294 -2.1446
 4926SOL    HW226412   1.672   2.078   9.128  0.3655  0.4715 -1.3248
 4927SOL     OW26413   2.284   4.639   6.053  0.4205 -0.0926  0.0720
 4927SOL    HW126414   2.259   4.670   5.966 -1.7300 -1.4054  0.2445
 4927SOL    HW226415   2.337   4.562   6.032 -0.8877 -1.1141  0.5548
 4928SOL     OW26416   3.628   1.691   4.274  0.4537  0.1418  0.2563
 4928SOL    HW126417   3.716   1.728   4.267  0.1328  0.9896  0.6452
 4928SOL    HW226418   3.607   1.701   4.181 -0.2650 -1.5590  0.2385
 4929SOL     OW26419   3.416   0.181   3.051  0.0972 -0.3725  0.3458
 4929SOL    HW126420   3.355   0.135   2.993  2.1404 -0.7040 -1.5677
 4929SOL    HW226421   3.358   0.218   3.117 -0.6637 -2.8279  1.0700
 4930SOL     OW26422   0.563   2.659   0.564 -0.3688 -0.0157 -0.0433
 4930SOL    HW126423   0.602   2.599   0.628 -1.7110 -1.5499 -0.6849
 4930SOL    HW226424   0.624   2.730   0.584 -0.3770 -0.2187  0.6900
 4931SOL     OW26425   2.774   3.839   7.301 -0.3413  0.1625  0.2072
 4931SOL    HW126426   2.764   3.753   7.260 -1.1421  0.5711 -0.4444
 4931SOL    HW226427   2.783   3.901   7.229 -0.9287 -0.6049 -0.5313
 4932SOL     OW26428   1.337   4.323   2.991  1.1097 -0.6839  0.2063
 4932SOL    HW126429   1.342   4.402   3.044 -0.1326 -1.8276  2.0092
 4932SOL    HW226430   1.345   4.356   2.901  2.4218 -1.8619 -0.1061
 4933SOL     OW26431   1.108   1.005  11.636  0.7068  0.2936 -0.5622
 4933SOL    HW126432   1.050   0.932  11.618 -0.4169  0.6041  1.7063
 4933SOL    HW226433   1.114   1.007  11.732 -2.3443 -1.0940 -0.3533
 4934SOL     OW26434   3.999   3.737   3.166  0.3609  0.3106  0.2721
 4934SOL    HW126435   3.968   3.806   3.224 -0.2471 -0.0609  0.4019
 4934SOL    HW226436   4.042   3.786   3.096 -0.3174 -2.1089 -1.8546
 4935SOL     OW26437   1.187   3.718  11.555 -0.1664 -0.4394 -0.6774
 4935SOL    HW126438   1.237   3.657  11.501  0.0110 -0.4239 -0.5322
 4935SOL    HW226439   1.101   3.678  11.570 -0.2473  0.2460  0.6603
 4936SOL     OW26440   4.231   2.468  15.188 -0.1616  0.2139 -0.2618
 4936SOL    HW126441   4.165   2.531  15.214  0.6492  0.3163  1.5762
 4936SOL    HW226442   4.250   2.513  15.106  0.2213  0.0599 -0.2595
 4937SOL     OW26443   3.382   3.103   9.097  0.1886 -0.5229  0.8218
 4937SOL    HW126444   3.472   3.105   9.129  0.5530 -2.6919 -0.0535
 4937SOL    HW226445   3.344   3.169   9.154 -0.6914 -0.8651  0.6363
 4938SOL     OW26446   1.889   1.131  17.038  0.0559 -1.0324  0.1540
 4938SOL    HW126447   1.824   1.069  17.006  0.6615 -3.6225  3.9090
 4938SOL    HW226448   1.932   1.077  17.105  0.6394  0.1557  0.7373
 4939SOL     OW26449   4.397   4.301   3.191  0.1531  0.4335  0.0560
 4939SOL    HW126450   4.342   4.297   3.113 -0.4093  1.9019  0.3737
 4939SOL    HW226451   4.471   4.246   3.164 -0.2031 -0.0260  0.0077
 4940SOL     OW26452   0.041   1.565   3.444  0.2563  0.3851  0.2816
 4940SOL    HW126453   0.015   1.652   3.414 -2.6370 -0.1675  1.1732
 4940SOL    HW226454   4.696   1.523   3.448  0.4611 -0.3885 -3.1283
 4941SOL     OW26455   2.791   1.332   2.701 -0.3318 -0.1599  0.3526
 4941SOL    HW126456   2.836   1.397   2.755  1.7818 -2.2504  1.1208
 4941SOL    HW226457   2.796   1.373   2.614  0.8283  0.3257  0.6593
 4942SOL     OW26458   2.116   0.779   5.278 -0.3745 -0.2296  0.1144
 4942SOL    HW126459   2.033   0.780   5.326 -0.8409 -0.3132 -0.6954
 4942SOL    HW226460   2.119   0.863   5.233 -0.3618  0.2740  1.0606
 4943SOL     OW26461   4.354   4.202   5.879 -0.1666  0.4390 -0.1838
 4943SOL    HW126462   4.297   4.275   5.857  0.9041  1.6296  0.9650
 4943SOL    HW226463   4.345   4.156   5.796 -2.7260 -0.0995  0.4027
 4944SOL     OW26464   2.950   3.664  12.438 -0.1031  0.0160  0.3268
 4944SOL    HW126465   3.018   3.626  12.382 -1.8115 -0.3922 -1.4967
 4944SOL    HW226466   2.883   3.595  12.445 -0.6780  0.3806 -1.5355
 4945SOL     OW26467   3.489   2.309   2.980 -0.5980 -0.1667  0.2420
 4945SOL    HW126468   3.491   2.386   2.923 -0.9262  0.7597  1.4883
 4945SOL    HW226469   3.574   2.268   2.963 -1.1568 -1.5094  0.6514
 4946SOL     OW26470   3.414   4.466   5.462  0.0159 -0.1660 -0.2732
 4946SOL    HW126471   3.426   4.431   5.373  2.3913 -0.8438  0.3273
 4946SOL    HW226472   3.475   4.538   5.450  0.1164 -0.0358  1.1017
 4947SOL     OW26473   1.147   1.347   4.423 -0.4288  0.4584 -0.7803
 4947SOL    HW126474   1.186   1.260   4.427  2.1034  1.7265  1.7539
 4947SOL    HW226475   1.200   1.373   4.347  0.4318 -0.1841 -0.3870
 4948SOL     OW26476   0.986   1.093   6.652  0.3495 -0.6175  0.5836
 4948SOL    HW126477   1.005   1.139   6.734 -0.4962 -1.3700  1.2051
 4948SOL    HW226478   0.949   1.156   6.591  1.3809  1.3699  2.0080
 4949SOL     OW26479   2.428   1.709  16.904  0.3263 -0.1564 -0.4329
 4949SOL    HW126480   2.500   1.672  16.953 -1.1139 -1.1784  0.9052
 4949SOL    HW226481   2.472   1.768  16.843  0.1687  1.2237  0.7811
 4950SOL     OW26482   1.986   3.509   6.367 -0.5168 -0.6116 -0.4716
 4950SOL    HW126483   2.079   3.527   6.358  0.0734 -2.3072  2.4124
 4950SOL    HW226484   1.998   3.430   6.420 -0.3959  0.3016  0.8232
 4951SOL     OW26485   0.445   1.196   2.297 -0.8499 -0.3370  0.3511
 4951SOL    HW126486   0.472   1.146   2.220  1.1073  2.1231 -0.5809
 4951SOL    HW226487   0.524   1.190   2.352 -0.6877 -0.4012  0.1127
 4952SOL     OW26488   4.206   1.046   5.589 -0.3860  0.2512  0.0486
 4952SOL    HW126489   4.238   1.136   5.589 -0.7734  0.4037 -2.8645
 4952SOL    HW226490   4.161   1.051   5.504 -0.3340  0.1992  0.0179
 4953SOL     OW26491   1.544   2.855   5.446  0.8834  0.2436 -0.1432
 4953SOL    HW126492   1.570   2.925   5.506  1.0310 -0.9367  1.1691
 4953SOL    HW226493   1.509   2.905   5.372  1.3213 -2.3333 -2.0709
 4954SOL     OW26494   0.970   0.625   9.861  0.2594  0.0612 -0.2795
 4954SOL    HW126495   1.032   0.662   9.924  1.9512 -1.3719 -1.1112
 4954SOL    HW226496   1.028   0.603   9.789 -0.3675 -0.9883 -0.4613
 4955SOL     OW26497   0.501   1.374   0.635  0.0462 -0.0089 -0.6600
 4955SOL    HW126498   0.492   1.292   0.586  0.5041 -1.2325  1.2963
 4955SOL    HW226499   0.465   1.438   0.574  1.0233  2.4502  1.3200
 4956SOL     OW26500   3.602   0.115   7.641 -0.8556 -0.1586 -0.6758
 4956SOL    HW126501   3.530   0.071   7.597  0.8658 -3.4691 -0.1456
 4956SOL    HW226502   3.660   0.045   7.671  0.0268  0.9707  0.2460
 4957SOL     OW26503   1.173   1.250   2.769 -0.5186  0.0334  0.4255
 4957SOL    HW126504   1.222   1.168   2.764 -0.7581 -0.1720  1.5693
 4957SOL    HW226505   1.198   1.301   2.691  0.6765 -2.7830 -1.0025
 4958SOL     OW26506   0.889   0.349   5.316  0.3681 -0.7641 -0.3034
 4958SOL    HW126507   0.946   0.286   5.361  1.5151  0.0655 -0.6278
 4958SOL    HW226508   0.826   0.374   5.384  0.6390  0.8289 -0.6499
 4959SOL     OW26509   2.403   2.621   9.369  0.0464 -0.1207  0.1623
 4959SOL    HW126510   2.377   2.711   9.347  2.1370 -0.0131 -1.8888
 4959SOL    HW226511   2.374   2.610   9.459  0.3290 -1.3721  0.1065
 4960SOL     OW26512   4.033   4.533   3.385  0.1942 -0.2123  0.4315
 4960SOL    HW126513   3.961   4.587   3.354  0.4590 -0.9007 -1.4078
 4960SOL    HW226514   3.996   4.506   3.469 -1.5149  0.6111 -0.0757
 4961SOL     OW26515   4.238   1.899   1.916  0.2110  0.0083  0.0451
 4961SOL    HW126516   4.291   1.955   1.859  0.2450 -2.6606 -2.5432
 4961SOL    HW226517   4.169   1.870   1.856  0.8012 -0.9327 -0.1752
 4962SOL     OW26518   3.908   0.257  14.093 -0.6569  0.2235  0.2293
 4962SOL    HW126519   3.973   0.270  14.023 -1.9909  1.3322 -0.8085
 4962SOL    HW226520   3.870   0.172  14.073  0.0756  0.4204 -2.0318
 4963SOL     OW26521   1.836   0.614   4.628 -0.2564 -0.3110 -1.1332
 4963SOL    HW126522   1.857   0.661   4.709  0.9408 -0.5412 -1.3040
 4963SOL    HW226523   1.747   0.641   4.609 -0.2525 -0.4091 -1.2901
 4964SOL     OW26524   2.410   0.978   9.503 -0.2301  0.3159  0.8465
 4964SOL    HW126525   2.448   1.065   9.488 -0.3783 -0.1550 -2.1325
 4964SOL    HW226526   2.478   0.942   9.560  1.2414  1.9799  0.1588
 4965SOL     OW26527   0.855   0.451   0.236 -0.1480 -0.5883 -0.3020
 4965SOL    HW126528   0.856   0.364   0.197  2.6651 -1.2572  1.2989
 4965SOL    HW226529   0.941   0.476   0.268 -1.1318 -0.1664  1.9947
 4966SOL     OW26530   3.142   1.571   5.126  0.0503 -0.1314 -0.2181
 4966SOL    HW126531   3.220   1.516   5.137  0.9975  1.5220  1.4410
 4966SOL    HW226532   3.179   1.658   5.143 -1.3425  0.0789  1.7148
 4967SOL     OW26533   2.165   0.914   9.380 -0.1448 -0.3734  0.1522
 4967SOL    HW126534   2.123   0.999   9.377  1.1441  0.2856  0.7313
 4967SOL    HW226535   2.243   0.931   9.432 -1.1167  1.6688  0.9135
 4968SOL     OW26536   0.309   2.533   8.787 -0.7124 -0.1360 -0.4540
 4968SOL    HW126537   0.339   2.598   8.723  0.7638 -0.7432 -0.3790
 4968SOL    HW226538   0.339   2.576   8.866  0.6995 -2.0138  0.0410
 4969SOL     OW26539   4.660   3.221  15.952  0.6529 -0.2012  0.1161
 4969SOL    HW126540   4.612   3.209  16.034  1.0154  0.0285  0.3610
 4969SOL    HW226541   4.595   3.219  15.882 -0.2623 -0.2590  0.9670
 4970SOL     OW26542   1.671   3.180   8.581 -0.3242  0.0555  0.6856
 4970SOL    HW126543   1.745   3.202   8.638 -0.0385 -2.0446  1.1334
 4970SOL    HW226544   1.621   3.133   8.648  2.2436 -0.7063  2.0456
 4971SOL     OW26545   3.281   4.639   4.841  0.6634 -0.5167 -0.5205
 4971SOL    HW126546   3.186   4.627   4.843  0.7202 -1.1061 -1.2378
 4971SOL    HW226547   3.306   4.574   4.775 -0.0514  0.6962 -1.9887
 4972SOL     OW26548   4.616   2.667  12.479  0.3577 -0.2477  0.2257
 4972SOL    HW126549   4.703   2.693  12.509 -0.4321  0.3396  1.9872
 4972SOL    HW226550   4.639   2.582  12.441 -0.5224 -0.1410 -0.5431
 4973SOL     OW26551   1.425   1.951   3.033  0.3684 -0.2963  0.0287
 4973SOL    HW126552   1.333   1.925   3.033  1.3288 -3.6150 -0.0244
 4973SOL    HW226553   1.419   2.035   2.988 -0.7852 -0.1635  0.4229
 4974SOL     OW26554   3.174   0.022   7.551 -0.0166  0.9036 -0.0172
 4974SOL    HW126555   3.204   4.693   7.608 -2.8678 -0.5569 -0.2993
 4974SOL    HW226556   3.108   4.720   7.497  0.9432 -0.1621 -0.3424
 4975SOL     OW26557   3.751   4.161   8.906  0.2525  0.4183  0.2495
 4975SOL    HW126558   3.660   4.157   8.878 -0.0398  0.6921  1.1539
 4975SOL    HW226559   3.737   4.202   8.991 -1.8307  2.7018 -1.1803
 4976SOL     OW26560   0.353   0.714   7.602 -0.3793  0.6419  0.3625
 4976SOL    HW126561   0.358   0.744   7.511  1.8886 -0.9086 -0.0266
 4976SOL    HW226562   0.341   0.619   7.598  1.5942  0.4850 -2.5327
 4977SOL     OW26563   2.668   3.665  16.674 -0.3205  0.1485 -0.2301
 4977SOL    HW126564   2.619   3.635  16.751  1.3871  1.7572  1.4775
 4977SOL    HW226565   2.616   3.624  16.604  1.2506 -1.7503 -0.2632
 4978SOL     OW26566   0.082   3.251   3.667  0.4051 -0.3250  0.6768
 4978SOL    HW126567   4.728   3.254   3.680  0.5097 -1.2865  1.6227
 4978SOL    HW226568   0.084   3.331   3.615  1.0554  0.0597  1.3004
 4979SOL     OW26569   1.917   3.126   7.113  0.0691  0.4779  0.5245
 4979SOL    HW126570   1.894   3.047   7.064  1.3776 -0.0618  0.7749
 4979SOL    HW226571   1.913   3.188   7.039  2.0377 -1.4394 -1.1899
 4980SOL     OW26572   1.178   0.562   7.851 -0.1358  0.6112  0.2382
 4980SOL    HW126573   1.226   0.641   7.829  0.9760 -0.4343 -1.0949
 4980SOL    HW226574   1.127   0.550   7.770 -1.1426  0.9898  0.8273
 4981SOL     OW26575   4.280   3.655  15.291 -0.3105  0.3161 -0.1173
 4981SOL    HW126576   4.322   3.733  15.253  0.8195 -0.2111  0.0531
 4981SOL    HW226577   4.358   3.605  15.314 -1.8482 -2.0519 -0.1022
 4982SOL     OW26578   0.711   0.008   2.359 -0.0842  0.9024 -0.0630
 4982SOL    HW126579   0.718   4.700   2.440 -2.1180  1.9996  0.7820
 4982SOL    HW226580   0.731   4.679   2.297  1.6322  0.6900  0.7457
 4983SOL     OW26581   3.203   3.342  12.046  0.2146 -0.5743 -0.2715
 4983SOL    HW126582   3.239   3.272  11.991  0.1866  0.1261 -1.1886
 4983SOL    HW226583   3.153   3.388  11.978 -2.1632 -1.1172  1.1200
 4984SOL     OW26584   3.576   0.987  16.088 -0.3362 -0.0419  0.2311
 4984SOL    HW126585   3.665   1.009  16.116  0.8065 -1.2358 -2.4125
 4984SOL    HW226586   3.593   0.945  16.003  2.1260 -0.3722  0.8815
 4985SOL     OW26587   4.548   4.157  10.790 -0.2020  0.1548  0.1964
 4985SOL    HW126588   4.599   4.077  10.804  3.1476  1.8319 -2.3903
 4985SOL    HW226589   4.620   4.220  10.794 -0.7553  0.7482  0.9259
 4986SOL     OW26590   2.598   0.446   6.620 -0.5565 -0.6131  0.0143
 4986SOL    HW126591   2.648   0.491   6.688  0.6608  2.5329 -2.9234
 4986SOL    HW226592   2.563   0.519   6.568  1.3407  1.6226  1.8799
 4987SOL     OW26593   3.758   2.720   3.500 -0.3618 -0.1156  0.1870
 4987SOL    HW126594   3.715   2.804   3.483 -2.2807 -0.8580  1.4334
 4987SOL    HW226595   3.827   2.741   3.562 -0.4028 -1.8742  0.8379
 4988SOL     OW26596   0.956   0.845   6.511  0.0273  0.2636  0.0946
 4988SOL    HW126597   0.933   0.909   6.578  0.4281 -1.7851  2.1641
 4988SOL    HW226598   0.887   0.870   6.449 -0.4082 -0.4268  0.3007
 4989SOL     OW26599   4.694   4.649   8.076  0.1304  0.1104 -0.3648
 4989SOL    HW126600   4.705   4.599   7.995  2.0836  0.1438 -0.1440
 4989SOL    HW226601   4.634   4.590   8.120  0.0241  1.2026  0.9610
 4990SOL     OW26602   0.769   4.585   2.588  0.4214  0.1055  0.3158
 4990SOL    HW126603   0.843   4.524   2.581  0.3422  0.0736 -0.2769
 4990SOL    HW226604   0.703   4.543   2.643 -0.6927  1.4427  0.0172
 4991SOL     OW26605   4.419   2.252   6.328  0.5374  0.0375  0.0643
 4991SOL    HW126606   4.333   2.275   6.292  0.0137  0.4657  1.5708
 4991SOL    HW226607   4.458   2.329   6.288 -1.0711  1.1263  0.6060
 4992SOL     OW26608   2.997   3.533   3.798  0.5437 -0.7116 -0.0378
 4992SOL    HW126609   2.908   3.508   3.824  0.1659  1.3139  0.6446
 4992SOL    HW226610   3.006   3.509   3.705 -0.4712  0.5797 -0.4791
 4993SOL     OW26611   1.104   3.017  15.835  0.2705 -0.0504  0.3250
 4993SOL    HW126612   1.172   3.081  15.856 -0.4294 -0.1285  2.8135
 4993SOL    HW226613   1.059   3.010  15.919  0.1860  2.0528  0.4637
 4994SOL     OW26614   2.391   3.865  16.641  0.0223  0.1838  0.0396
 4994SOL    HW126615   2.350   3.836  16.560 -0.0581 -4.4830  1.7841
 4994SOL    HW226616   2.370   3.959  16.638 -3.7454 -0.6108  1.7777
 4995SOL     OW26617   4.558   3.042   5.057  0.2889  0.0596  0.3821
 4995SOL    HW126618   4.585   3.087   4.977 -0.1520 -0.5186 -0.0895
 4995SOL    HW226619   4.464   3.059   5.054  0.6534  1.6926 -2.7346
 4996SOL     OW26620   3.619   2.057   2.399  0.0393 -0.4989 -0.0074
 4996SOL    HW126621   3.660   2.045   2.485  0.9906 -0.6766 -0.4829
 4996SOL    HW226622   3.652   1.976   2.360  0.7556 -0.4607  0.5283
 4997SOL     OW26623   0.905   3.611   1.605  0.1150 -0.2580 -0.4589
 4997SOL    HW126624   0.903   3.642   1.695  1.0657 -2.1643  0.2273
 4997SOL    HW226625   0.917   3.690   1.553 -3.0080  1.9862  2.2411
 4998SOL     OW26626   0.248   3.185   6.159  0.0355  0.1396  0.1665
 4998SOL    HW126627   0.289   3.270   6.174  0.1617  0.2878 -1.0080
 4998SOL    HW226628   0.173   3.187   6.218  0.4836 -1.0775  0.7858
 4999SOL     OW26629   0.321   0.137  10.486 -0.1000 -0.0671 -0.2288
 4999SOL    HW126630   0.317   0.068  10.553  0.3346  0.4800  0.3604
 4999SOL    HW226631   0.289   0.216  10.529  0.7667  1.0805 -1.7283
 5000SOL     OW26632   4.728   0.875   3.290  0.3002  0.2034  0.0542
 5000SOL    HW126633   4.728   0.965   3.259 -2.2803  0.4932  0.8412
 5000SOL    HW226634   4.648   0.874   3.343  0.6236  0.5031  0.5394
 5001SOL     OW26635   2.442   3.677  16.193  0.4048  0.4061  0.3077
 5001SOL    HW126636   2.528   3.640  16.170  0.0192  1.0531 -2.2644
 5001SOL    HW226637   2.425   3.643  16.281  3.6803 -0.7289  0.5123
 5002SOL     OW26638   2.322   2.399   1.639  0.3411  0.1424  0.1813
 5002SOL    HW126639   2.249   2.407   1.702 -2.5917  1.5328 -3.3971
 5002SOL    HW226640   2.299   2.472   1.582  2.8669 -0.8634 -2.1070
 5003SOL     OW26641   3.464   0.330   5.115 -0.1366  0.1765  0.0410
 5003SOL    HW126642   3.440   0.273   5.041  1.8999 -0.4368 -0.1542
 5003SOL    HW226643   3.385   0.381   5.129  0.2137  0.5652  0.6064
 5004SOL     OW26644   3.190   2.822   4.605 -0.2733 -0.0634  0.1610
 5004SOL    HW126645   3.246   2.900   4.602 -0.2732 -0.0013  1.3865
 5004SOL    HW226646   3.130   2.836   4.532  0.2306  0.3918 -0.1669
 5005SOL     OW26647   3.843   1.575   2.335  0.1808 -0.2318  0.3034
 5005SOL    HW126648   3.767   1.520   2.351 -0.8637  0.9374 -0.6171
 5005SOL    HW226649   3.833   1.649   2.394  2.8377  0.8452 -0.5785
 5006SOL     OW26650   4.065   3.006   2.041 -0.2140 -0.0173 -0.0754
 5006SOL    HW126651   4.024   2.929   2.078 -0.3530  0.0504 -0.0874
 5006SOL    HW226652   4.018   3.005   1.957 -0.2252  1.8864 -0.1002
 5007SOL     OW26653   1.892   2.877   8.228 -0.1124  0.0413 -0.3536
 5007SOL    HW126654   1.892   2.903   8.320  1.3904  2.5369 -1.0592
 5007SOL    HW226655   1.798   2.863   8.215 -0.1857 -1.2167  1.5194
 5008SOL     OW26656   1.429   4.233   7.325  0.2418 -0.7514 -0.4977
 5008SOL    HW126657   1.478   4.157   7.356  0.3058 -0.2828  0.5493
 5008SOL    HW226658   1.487   4.257   7.252  0.9577 -0.7007  0.0851
 5009SOL     OW26659   0.951   1.534   4.448 -0.2844  0.0864 -0.3824
 5009SOL    HW126660   0.994   1.584   4.518 -0.0057 -2.7168  1.4814
 5009SOL    HW226661   1.017   1.466   4.434 -0.2191  0.0008  0.3178
 5010SOL     OW26662   3.008   1.415   6.731 -0.1183  0.1802 -0.1151
 5010SOL    HW126663   2.919   1.423   6.766 -0.1947  2.4719 -0.8759
 5010SOL    HW226664   2.998   1.488   6.670  0.2532 -0.6103 -1.1200
 5011SOL     OW26665   4.078   1.288  10.677 -0.2171 -0.0989 -0.1765
 5011SOL    HW126666   4.000   1.344  10.679 -1.8643 -2.4047  0.0202
 5011SOL    HW226667   4.151   1.348  10.663 -0.8927  1.7600  4.4101
 5012SOL     OW26668   2.571   1.977   8.903  0.0585 -0.6288 -0.5037
 5012SOL    HW126669   2.644   1.918   8.885  0.3082 -1.0295  1.7468
 5012SOL    HW226670   2.611   2.037   8.966 -0.6552 -1.2541  0.5484
 5013SOL     OW26671   3.551   2.969   3.276  0.1010  0.0920 -0.1392
 5013SOL    HW126672   3.546   3.025   3.198 -1.1348  0.4340  0.1828
 5013SOL    HW226673   3.645   2.971   3.294 -0.3156 -0.8887  2.0817
 5014SOL     OW26674   4.446   1.265   4.735  0.3889  0.5863 -0.3091
 5014SOL    HW126675   4.471   1.216   4.657  0.4992  0.7255 -0.3612
 5014SOL    HW226676   4.528   1.309   4.758  1.6640 -1.7873 -0.3405
 5015SOL     OW26677   3.407   1.762  13.153  0.3866  0.4092  0.6228
 5015SOL    HW126678   3.483   1.814  13.180 -0.8330  0.8973  3.0652
 5015SOL    HW226679   3.429   1.758  13.060  0.3615 -0.2365  0.6445
 5016SOL     OW26680   1.353   4.543  15.816 -0.0715  0.0431 -0.7883
 5016SOL    HW126681   1.344   4.590  15.734 -2.0746  0.7967 -0.1200
 5016SOL    HW226682   1.445   4.526  15.796 -0.3798  0.8682 -2.8371
 5017SOL     OW26683   2.550   3.090   1.114 -0.1880 -0.6761 -0.6033
 5017SOL    HW126684   2.582   3.019   1.169  3.1429  2.1336  1.1361
 5017SOL    HW226685   2.616   3.076   1.046  0.8068 -2.2343  0.6977
 5018SOL     OW26686   0.135   4.412   3.529  0.4214 -0.3500  0.6023
 5018SOL    HW126687   0.172   4.500   3.540 -0.3072 -0.0157  0.3061
 5018SOL    HW226688   0.111   4.413   3.437  0.2058  1.4547  0.6834
 5019SOL     OW26689   4.042   3.331   3.607 -0.2532 -1.2670  0.0727
 5019SOL    HW126690   4.078   3.324   3.696  0.3599  0.6162 -0.0222
 5019SOL    HW226691   4.122   3.333   3.554  1.2962  0.5652  2.4675
 5020SOL     OW26692   1.281   3.685   1.951  0.4781  0.5869 -0.1931
 5020SOL    HW126693   1.191   3.670   1.922 -0.4396  1.8216  1.9657
 5020SOL    HW226694   1.260   3.739   2.028  0.0913  2.0973 -1.3382
 5021SOL     OW26695   1.067   4.134   6.110  0.2880  0.6701 -0.5911
 5021SOL    HW126696   0.980   4.099   6.088  0.2025 -0.1748  1.0977
 5021SOL    HW226697   1.101   4.052   6.146 -2.9598 -1.2288 -1.8112
 5022SOL     OW26698   0.641   0.703  12.882  0.7149  0.0152 -0.1054
 5022SOL    HW126699   0.651   0.718  12.976  0.0431 -1.1953  0.1687
 5022SOL    HW226700   0.653   0.793  12.854  0.5608 -0.1365 -0.6734
 5023SOL     OW26701   2.073   1.897   5.618  0.6062 -0.6634 -0.3385
 5023SOL    HW126702   2.067   1.817   5.670 -0.5598 -0.3802 -0.0241
 5023SOL    HW226703   2.165   1.901   5.593  0.2446  0.9061 -1.4350
 5024SOL     OW26704   3.757   3.198  11.583  0.1746  0.3152  0.1746
 5024SOL    HW126705   3.813   3.125  11.558 -0.6117 -0.3842  0.4528
 5024SOL    HW226706   3.816   3.272  11.567 -2.6709  2.0416 -2.2978
 5025SOL     OW26707   2.218   3.878   5.651  0.7883  0.6801  0.1095
 5025SOL    HW126708   2.294   3.850   5.600  0.9708  0.6149  0.4185
 5025SOL    HW226709   2.256   3.905   5.735 -0.3436  0.6259  0.6458
 5026SOL     OW26710   3.745   0.540   9.571 -0.2153  0.2348 -0.1265
 5026SOL    HW126711   3.773   0.449   9.565 -3.9012 -0.9188  0.5287
 5026SOL    HW226712   3.817   0.580   9.522 -0.4721  0.0446 -0.6513
 5027SOL     OW26713   3.512   0.953  15.102 -0.2542 -0.1231 -0.3295
 5027SOL    HW126714   3.550   0.877  15.147 -1.4416 -1.0018 -0.8091
 5027SOL    HW226715   3.422   0.928  15.080 -0.5191  0.3187  0.2681
 5028SOL     OW26716   1.163   2.038   0.367  0.5455 -0.7108 -0.5883
 5028SOL    HW126717   1.112   2.018   0.446 -1.0036  1.5315 -1.0419
 5028SOL    HW226718   1.086   2.079   0.328  0.3021  0.5041  1.1391
 5029SOL     OW26719   0.219   2.303  15.548  0.3675 -0.3289 -0.3128
 5029SOL    HW126720   0.167   2.272  15.622 -0.7051 -0.9201 -1.3077
 5029SOL    HW226721   0.279   2.363  15.593 -0.5953 -0.1161  0.6805
 5030SOL     OW26722   4.620   1.188   5.037 -0.2803  0.0673 -0.2070
 5030SOL    HW126723   4.560   1.261   5.045  2.3153  1.7984  3.5647
 5030SOL    HW226724   4.635   1.161   5.128 -0.2494 -1.5940 -0.6985
 5031SOL     OW26725   4.013   2.658   1.478  0.5330  0.0937 -0.2504
 5031SOL    HW126726   3.962   2.599   1.534 -0.8700 -0.0420 -1.6851
 5031SOL    HW226727   4.103   2.647   1.509  0.8108 -1.2180 -1.5438
 5032SOL     OW26728   3.754   2.022   5.995  0.4148  0.0751  0.0179
 5032SOL    HW126729   3.697   2.038   5.920  0.6299  0.5169 -0.0549
 5032SOL    HW226730   3.724   2.091   6.054 -0.6695  0.3205 -0.8175
 5033SOL     OW26731   3.513   3.999   2.468  0.1716  0.3330 -0.1069
 5033SOL    HW126732   3.561   4.079   2.448  2.6415 -1.5050 -1.5336
 5033SOL    HW226733   3.553   3.976   2.552 -2.6367  2.1313  1.7284
 5034SOL     OW26734   1.204   1.805   8.772 -0.2199  0.2782 -0.0436
 5034SOL    HW126735   1.208   1.826   8.865  1.5646 -0.3847  0.0255
 5034SOL    HW226736   1.292   1.829   8.743 -0.8526  0.0651 -2.1309
 5035SOL     OW26737   3.015   1.238   2.484  0.9209 -0.0018 -0.5281
 5035SOL    HW126738   3.020   1.196   2.398 -0.0518  2.1710 -1.6338
 5035SOL    HW226739   2.953   1.310   2.480 -2.1771 -2.5471  1.6557
 5036SOL     OW26740   1.346   2.264   6.949 -0.0469  0.0169  0.0113
 5036SOL    HW126741   1.292   2.340   6.969 -0.2654  0.5660 -2.7323
 5036SOL    HW226742   1.425   2.299   6.908  1.3322 -2.2067  0.7374
 5037SOL     OW26743   2.907   3.019   8.315  0.2757  0.6320 -0.0265
 5037SOL    HW126744   2.926   2.988   8.226  2.2596 -1.9471  1.2882
 5037SOL    HW226745   2.840   3.081   8.287  1.1641  1.0739 -1.1363
 5038SOL     OW26746   0.684   0.595   7.226  0.1639  0.4504 -0.4401
 5038SOL    HW126747   0.776   0.607   7.201 -0.0467  0.3228 -1.2783
 5038SOL    HW226748   0.708   0.527   7.290  2.7161  2.4905  0.7494
 5039SOL     OW26749   1.477   0.344   7.104  0.3486 -0.3276 -0.7559
 5039SOL    HW126750   1.560   0.300   7.086  0.5549 -0.5721  0.8255
 5039SOL    HW226751   1.458   0.304   7.189 -1.4439  1.8101 -0.1459
 5040SOL     OW26752   1.298   4.136   6.379 -0.0757 -0.2405  0.2787
 5040SOL    HW126753   1.263   4.078   6.311 -1.7805  2.2418 -0.9648
 5040SOL    HW226754   1.216   4.167   6.417  0.1035 -0.8214  1.1444
 5041SOL     OW26755   4.030   2.459   5.422 -0.2712  0.3534 -0.5516
 5041SOL    HW126756   4.040   2.368   5.450 -1.4537  0.7070  1.0073
 5041SOL    HW226757   4.065   2.507   5.496 -0.6629 -0.5273  0.2065
 5042SOL     OW26758   3.529   3.870   2.962 -0.4018 -0.1267 -0.1508
 5042SOL    HW126759   3.553   3.878   3.054 -0.4243  0.1058 -0.1637
 5042SOL    HW226760   3.464   3.799   2.965  0.5637 -0.8916  1.9580
 5043SOL     OW26761   3.893   0.894   3.632 -0.2517  0.3499 -0.1301
 5043SOL    HW126762   3.799   0.904   3.650 -0.0482 -0.6791  1.5392
 5043SOL    HW226763   3.915   0.875   3.724  1.1949  0.8686 -0.3751
 5044SOL     OW26764   0.845   1.142   5.361 -0.1239 -0.3808 -0.8887
 5044SOL    HW126765   0.763   1.189   5.346 -0.5029 -0.0435  2.3950
 5044SOL    HW226766   0.823   1.089   5.437  0.6915 -0.8693 -0.9997
 5045SOL     OW26767   2.526   1.697   1.579  0.1632 -0.0091 -0.4803
 5045SOL    HW126768   2.616   1.692   1.610 -0.4329  4.1768  1.8726
 5045SOL    HW226769   2.531   1.709   1.484 -0.7436  1.8834 -0.2821
 5046SOL     OW26770   4.227   2.413  15.622 -0.2084 -0.2155 -0.7681
 5046SOL    HW126771   4.147   2.371  15.592 -0.2601  0.1104 -1.0901
 5046SOL    HW226772   4.188   2.496  15.651 -0.3009 -0.5778  0.1439
 5047SOL     OW26773   0.287   1.574  14.310 -0.1419 -0.2082 -0.4746
 5047SOL    HW126774   0.217   1.533  14.360  1.5002  0.0579  2.0461
 5047SOL    HW226775   0.311   1.512  14.241  2.2335  3.3944 -2.8660
 5048SOL     OW26776   0.559   2.966   6.683  0.1077 -0.2432 -0.2844
 5048SOL    HW126777   0.489   2.912   6.721 -0.0398 -0.3966 -0.7728
 5048SOL    HW226778   0.624   2.959   6.753 -2.0161 -3.2484  1.3891
 5049SOL     OW26779   4.536   0.302   6.420  0.1574  0.1753 -0.0157
 5049SOL    HW126780   4.568   0.279   6.507  0.2649 -2.9897 -0.8688
 5049SOL    HW226781   4.444   0.288   6.444  0.5139  0.3819  1.4380
 5050SOL     OW26782   3.989   2.680  15.891  0.3188 -0.2393  0.1729
 5050SOL    HW126783   4.028   2.695  15.805 -2.2644 -0.0323 -0.9603
 5050SOL    HW226784   3.923   2.615  15.870 -1.0706  1.2252 -0.0484
 5051SOL     OW26785   2.991   3.853   1.638  0.4066 -0.1683 -0.0209
 5051SOL    HW126786   2.949   3.928   1.680  1.8214  1.6541 -1.8716
 5051SOL    HW226787   2.979   3.876   1.546  1.6392  0.5265  0.0078
 5052SOL     OW26788   3.961   1.963   9.558 -0.3897 -0.0502  0.8813
 5052SOL    HW126789   3.962   2.028   9.628  0.9544 -0.8343  1.5974
 5052SOL    HW226790   3.869   1.939   9.554 -0.3473 -0.1516  0.5182
 5053SOL     OW26791   4.679   0.268  12.913 -0.2846  0.0725  0.2871
 5053SOL    HW126792   4.618   0.307  12.976  1.3803  1.0658  1.2870
 5053SOL    HW226793   0.022   0.313  12.920 -1.6758  2.6786 -0.0481
 5054SOL     OW26794   4.263   1.533   2.164  0.0959 -0.0559  0.5479
 5054SOL    HW126795   4.224   1.461   2.213  0.4963 -0.5611  0.1265
 5054SOL    HW226796   4.189   1.594   2.164  0.7228  0.7273 -1.5001
 5055SOL     OW26797   1.276   4.501  10.852  0.4559 -0.1479  0.2114
 5055SOL    HW126798   1.274   4.413  10.814 -1.1123  0.4025 -0.9895
 5055SOL    HW226799   1.191   4.529  10.818  1.0760  1.2851 -0.1541
 5056SOL     OW26800   4.605   3.134   3.832  0.8157 -0.5009 -0.1087
 5056SOL    HW126801   4.581   3.127   3.739 -1.6518 -0.9769  0.5858
 5056SOL    HW226802   4.633   3.045   3.850  2.2975 -0.0818 -0.3199
 5057SOL     OW26803   3.600   0.990   2.999 -0.4003  0.3609  0.3172
 5057SOL    HW126804   3.557   1.042   2.932 -1.3413 -0.7486  0.0699
 5057SOL    HW226805   3.614   1.051   3.072  2.9303 -1.2382  1.0489
 5058SOL     OW26806   1.096   2.242   4.431  0.5292 -0.0711  0.4125
 5058SOL    HW126807   1.048   2.257   4.350 -3.0445 -2.7580  2.0514
 5058SOL    HW226808   1.037   2.279   4.498  4.2089  0.8931  3.1541
 5059SOL     OW26809   4.078   3.877   3.515  0.1946  0.5444 -0.3363
 5059SOL    HW126810   4.130   3.803   3.483 -0.4011  0.4879 -1.1846
 5059SOL    HW226811   4.144   3.932   3.557 -0.1534  1.9502 -1.6160
 5060SOL     OW26812   0.780   4.407   8.066  0.1805  0.2058 -0.1981
 5060SOL    HW126813   0.837   4.458   8.009 -1.9831  2.1848 -0.6091
 5060SOL    HW226814   0.722   4.365   8.002  0.8364  1.4304 -1.5913
 5061SOL     OW26815   3.999   0.516  15.781 -0.5930 -0.0252 -0.4094
 5061SOL    HW126816   4.092   0.536  15.788  0.0346 -2.9425 -0.8204
 5061SOL    HW226817   4.001   0.422  15.767  3.9293 -0.0353  0.2984
 5062SOL     OW26818   3.654   0.048  14.743 -0.1340  0.0248 -0.4878
 5062SOL    HW126819   3.599   0.117  14.705  0.8708  1.5722  0.8273
 5062SOL    HW226820   3.604   4.713  14.715 -0.7454 -0.2486  1.3409
 5063SOL     OW26821   1.220   1.283   3.160 -0.1013 -0.2397  0.7435
 5063SOL    HW126822   1.291   1.344   3.178  0.2459 -0.0481 -1.2439
 5063SOL    HW226823   1.266   1.216   3.110 -0.0366 -0.6612  1.3738
 5064SOL     OW26824   0.457   2.494   1.404 -0.5362  0.0903 -0.1169
 5064SOL    HW126825   0.472   2.588   1.403 -0.3716  0.0358 -1.9775
 5064SOL    HW226826   0.398   2.491   1.480 -3.2504 -0.8128 -2.2782
 5065SOL     OW26827   2.579   1.100   4.361  0.1474  0.0274  0.4886
 5065SOL    HW126828   2.583   1.025   4.420  2.1016  0.5029  0.9342
 5065SOL    HW226829   2.520   1.066   4.293 -0.1854  2.6723 -0.5630
 5066SOL     OW26830   0.794   4.038   6.360  0.1550  0.0762 -0.2295
 5066SOL    HW126831   0.851   4.044   6.437 -0.9216  0.7502  0.5276
 5066SOL    HW226832   0.710   4.033   6.405 -0.0643 -0.5035 -0.7018
 5067SOL     OW26833   2.488   4.340  10.660  0.7393  0.0775 -0.8794
 5067SOL    HW126834   2.503   4.246  10.669 -2.0815 -0.5295 -2.3586
 5067SOL    HW226835   2.481   4.370  10.750  3.3296 -1.4792 -0.1547
 5068SOL     OW26836   0.960   0.319   5.737  0.0259 -0.1065 -0.4077
 5068SOL    HW126837   0.952   0.261   5.661  0.0420 -0.6567  0.0120
 5068SOL    HW226838   0.918   0.399   5.704 -3.1407 -0.4794  2.7658
 5069SOL     OW26839   1.013   1.789   3.796 -0.1881 -0.3938 -0.2436
 5069SOL    HW126840   1.023   1.884   3.797 -2.0946 -0.2112  1.2642
 5069SOL    HW226841   1.032   1.775   3.703  0.3230 -1.5044  0.0307
 5070SOL     OW26842   1.455   1.712  13.804  0.1340  0.2468  0.2645
 5070SOL    HW126843   1.522   1.697  13.738 -2.6260 -2.5616 -1.8939
 5070SOL    HW226844   1.456   1.808  13.802  0.7695  0.2604  1.2249
 5071SOL     OW26845   1.474   4.328   6.529  0.2034 -0.2624 -0.1851
 5071SOL    HW126846   1.508   4.260   6.588 -0.0569  0.5553  0.9186
 5071SOL    HW226847   1.419   4.279   6.468  1.7223 -1.4683 -0.5857
 5072SOL     OW26848   3.009   0.363   3.782  0.1222 -0.3729  0.7660
 5072SOL    HW126849   2.983   0.328   3.867  1.2461  0.9048  1.6370
 5072SOL    HW226850   2.956   0.442   3.773  1.9411  0.8515  0.6442
 5073SOL     OW26851   1.913   3.016  11.903 -0.1480 -0.7233 -0.5120
 5073SOL    HW126852   1.874   3.011  11.990  0.3778  0.2268 -0.2283
 5073SOL    HW226853   1.827   3.029  11.862 -1.0788 -2.4110  0.9070
 5074SOL     OW26854   4.479   2.528   6.990  0.6645  0.1943  0.0529
 5074SOL    HW126855   4.450   2.618   6.973  2.4048  0.4124 -1.8269
 5074SOL    HW226856   4.394   2.485   6.984  0.0478  1.2313  1.4745
 5075SOL     OW26857   0.852   0.506  15.530 -0.0706  0.1917 -0.7072
 5075SOL    HW126858   0.866   0.559  15.608  3.8531  2.2987 -2.8192
 5075SOL    HW226859   0.811   0.578  15.482 -0.7367  1.5584  1.9564
 5076SOL     OW26860   3.657   0.068   3.124 -0.2597  0.3877 -0.4126
 5076SOL    HW126861   3.569   0.097   3.101 -1.3300 -2.2187  0.3592
 5076SOL    HW226862   3.674   0.117   3.204  2.1052 -1.3604  0.1533
 5077SOL     OW26863   4.735   1.220   0.899 -0.1724  0.4262 -0.5755
 5077SOL    HW126864   0.032   1.249   0.815 -2.3798  2.3544 -0.9064
 5077SOL    HW226865   0.029   1.131   0.897 -0.6250  0.2177  0.9157
 5078SOL     OW26866   0.982   1.428  17.395  0.1222 -0.1594 -0.1366
 5078SOL    HW126867   0.960   1.513  17.356  0.6889  1.7095  3.5355
 5078SOL    HW226868   0.903   1.417  17.448 -0.2917 -2.5951 -1.2536
 5079SOL     OW26869   3.773   3.446  13.912 -0.6826  0.2913  0.3422
 5079SOL    HW126870   3.680   3.425  13.897 -0.1015 -1.3899 -0.9420
 5079SOL    HW226871   3.807   3.359  13.935  0.3290  0.7345  0.4907
 5080SOL     OW26872   3.705   0.208   4.969  0.4886 -0.2495  0.2092
 5080SOL    HW126873   3.687   0.297   5.002 -0.1509 -0.9319  1.7192
 5080SOL    HW226874   3.652   0.205   4.890 -1.2519 -1.7277  1.4395
 5081SOL     OW26875   2.881   1.375   3.225 -0.0313 -0.0658 -0.1744
 5081SOL    HW126876   2.947   1.442   3.243  0.7319 -0.5003 -1.3846
 5081SOL    HW226877   2.923   1.341   3.147  0.5942  0.5632 -0.1117
 5082SOL     OW26878   3.124   0.671  15.047  0.3602 -0.7538 -0.1141
 5082SOL    HW126879   3.154   0.614  15.117 -0.6114  1.5472  2.1446
 5082SOL    HW226880   3.174   0.622  14.981  0.3411 -1.0593  0.0962
 5083SOL     OW26881   3.554   0.146   3.904 -0.0793  0.4357 -0.5866
 5083SOL    HW126882   3.634   0.104   3.935  0.6076  1.4332 -0.9782
 5083SOL    HW226883   3.580   0.235   3.928  0.3793 -0.1140  0.9484
 5084SOL     OW26884   2.793   1.870   9.583  0.1381 -0.0873 -0.5153
 5084SOL    HW126885   2.827   1.911   9.504 -0.0355 -2.6065 -1.9063
 5084SOL    HW226886   2.700   1.853   9.568  0.1044 -0.6102  0.2727
 5085SOL     OW26887   3.029   3.689   6.718  0.6385 -0.7060  0.0217
 5085SOL    HW126888   3.055   3.649   6.801  1.5291  2.1570  1.1163
 5085SOL    HW226889   2.939   3.656   6.724  0.5869  0.0176  3.2189
 5086SOL     OW26890   3.985   1.462   3.576  0.6993 -0.2309  0.0319
 5086SOL    HW126891   4.064   1.409   3.576  1.2097  0.4924  2.6915
 5086SOL    HW226892   3.935   1.415   3.643  1.8034 -0.6735  0.5513
 5087SOL     OW26893   1.899   1.348   7.429  0.4889  0.2489 -0.6320
 5087SOL    HW126894   1.837   1.301   7.485  0.9073  0.3296 -0.1001
 5087SOL    HW226895   1.878   1.303   7.346  1.1658 -0.1233 -0.5994
 5088SOL     OW26896   1.236   3.809   3.560  0.3081  0.2906  0.7638
 5088SOL    HW126897   1.283   3.841   3.637  0.0951  1.6858  0.3148
 5088SOL    HW226898   1.167   3.756   3.599 -0.8839  0.1543 -1.5846
 5089SOL     OW26899   4.206   3.279   3.384 -0.1888  0.0008  0.2697
 5089SOL    HW126900   4.276   3.279   3.319 -0.0424  0.8889  0.4365
 5089SOL    HW226901   4.154   3.346   3.339 -1.9915 -1.8033 -0.3568
 5090SOL     OW26902   2.955   4.542  11.870 -0.5664 -0.1251  0.4323
 5090SOL    HW126903   2.969   4.556  11.776  0.8284  0.9763  0.8110
 5090SOL    HW226904   2.934   4.630  11.903  0.9565  0.9543 -1.4815
 5091SOL     OW26905   2.776   1.874   1.922  0.2576  0.0504  0.1226
 5091SOL    HW126906   2.736   1.927   1.992 -0.6457 -0.6176  0.1074
 5091SOL    HW226907   2.809   1.800   1.973 -1.2941 -0.6486  0.1147
 5092SOL     OW26908   3.085   0.812  10.523 -0.3534 -0.0718  0.1241
 5092SOL    HW126909   3.011   0.844  10.574  0.5590  1.2729  0.6107
 5092SOL    HW226910   3.150   0.815  10.593 -0.0750 -2.4335 -0.0216
 5093SOL     OW26911   1.156   2.658   5.302  0.2711 -0.0146 -0.3557
 5093SOL    HW126912   1.213   2.723   5.262  1.2557 -0.3064  0.5900
 5093SOL    HW226913   1.191   2.572   5.280  1.2102  0.8798 -2.3048
 5094SOL     OW26914   0.564   3.127  17.142 -0.0657 -0.2599 -0.0255
 5094SOL    HW126915   0.469   3.131  17.139  0.1018  1.6046 -1.9783
 5094SOL    HW226916   0.585   3.095  17.054 -0.8563  0.8491 -0.6159
 5095SOL     OW26917   2.442   2.624   9.109  0.6655  0.1634 -0.4462
 5095SOL    HW126918   2.454   2.530   9.101 -2.1958 -0.2394  0.0464
 5095SOL    HW226919   2.422   2.624   9.203 -2.3992  0.7686 -1.0752
 5096SOL     OW26920   2.136   1.646   0.299  0.3533 -0.8613 -0.0712
 5096SOL    HW126921   2.129   1.561   0.256  4.4241 -1.5366  0.6042
 5096SOL    HW226922   2.084   1.623   0.376 -2.2319  2.1727 -0.9216
 5097SOL     OW26923   1.136   2.182   9.584 -0.1666  0.2009 -0.3973
 5097SOL    HW126924   1.226   2.153   9.568  0.3394  1.6502 -0.2110
 5097SOL    HW226925   1.110   2.145   9.669  0.5204 -1.1485 -0.7732
 5098SOL     OW26926   2.522   2.427   2.843 -0.1815  0.0882  0.3783
 5098SOL    HW126927   2.451   2.490   2.853 -2.7621 -2.0373 -4.1405
 5098SOL    HW226928   2.478   2.355   2.889 -0.1102 -0.8375 -0.9881
 5099SOL     OW26929   0.345   4.267   5.314  0.2213 -0.4663 -0.2619
 5099SOL    HW126930   0.427   4.314   5.302  0.8638 -1.1935  1.2612
 5099SOL    HW226931   0.283   4.339   5.323  0.6441 -0.3784  2.0279
 5100SOL     OW26932   3.502   3.894   6.099  0.2941  0.1588  0.3755
 5100SOL    HW126933   3.588   3.861   6.125  0.5436 -0.8970 -1.8475
 5100SOL    HW226934   3.511   3.990   6.093 -1.0513  0.0159 -3.5581
 5101SOL     OW26935   3.560   1.246  12.459  0.0545 -0.0537  0.3539
 5101SOL    HW126936   3.651   1.222  12.438 -0.1531 -0.0921 -0.5265
 5101SOL    HW226937   3.566   1.335  12.494 -2.8520  0.1178  0.3953
 5102SOL     OW26938   0.588   1.013   4.157 -0.1717  0.2155 -0.0334
 5102SOL    HW126939   0.566   1.050   4.072 -3.3260 -0.0970  0.6727
 5102SOL    HW226940   0.500   0.983   4.180  0.9872 -2.6964  0.6003
 5103SOL     OW26941   0.211   0.484   0.330 -0.6553 -0.4569  0.6082
 5103SOL    HW126942   0.285   0.425   0.321  0.1325  0.2253  2.6964
 5103SOL    HW226943   0.147   0.456   0.265  0.1248  0.8733 -0.7306
 5104SOL     OW26944   0.375   1.038   4.772 -0.0467 -0.1809 -0.2843
 5104SOL    HW126945   0.411   0.990   4.697  2.4652  0.4461  0.5164
 5104SOL    HW226946   0.291   1.063   4.734 -0.8649 -4.1970 -1.1701
 5105SOL     OW26947   3.718   1.622   6.474  0.3755 -0.1077  0.1815
 5105SOL    HW126948   3.776   1.552   6.445  1.5188  0.3223  1.3921
 5105SOL    HW226949   3.719   1.598   6.567  1.5414 -0.0235  0.1906
 5106SOL     OW26950   3.126   3.401   7.599 -0.5036 -0.5352  0.0916
 5106SOL    HW126951   3.170   3.316   7.607 -1.7265 -1.0380  1.5524
 5106SOL    HW226952   3.121   3.421   7.506  1.2341  0.2868  0.1862
 5107SOL     OW26953   2.457   4.152   8.279 -0.2620  0.4348  0.5352
 5107SOL    HW126954   2.440   4.207   8.202  2.1469  1.9504  1.0742
 5107SOL    HW226955   2.426   4.196   8.358  1.8968  0.7020  1.2260
 5108SOL     OW26956   1.389   2.432   8.745  0.0388  0.3422  0.3374
 5108SOL    HW126957   1.456   2.365   8.755 -1.0893 -0.7171  0.7608
 5108SOL    HW226958   1.360   2.440   8.836 -1.6885 -0.5915 -0.1357
 5109SOL     OW26959   2.520   0.375   3.789  0.5517 -0.1534  0.1249
 5109SOL    HW126960   2.606   0.354   3.752 -0.7490 -4.3870 -0.4814
 5109SOL    HW226961   2.467   0.315   3.736  1.6698 -0.6140 -0.4856
 5110SOL     OW26962   1.370   0.808  11.568  0.4437 -0.1436  0.1525
 5110SOL    HW126963   1.352   0.900  11.545  2.3000  0.2912  0.4292
 5110SOL    HW226964   1.294   0.764  11.532  0.6798  0.1212 -0.6842
 5111SOL     OW26965   4.596   1.603   7.486 -0.0740  0.1378  0.3447
 5111SOL    HW126966   4.680   1.633   7.521 -0.3913  0.4148  0.8569
 5111SOL    HW226967   4.556   1.578   7.569 -0.0874 -1.0438 -0.0147
 5112SOL     OW26968   0.193   1.411   8.660 -0.6302  0.3376 -0.0901
 5112SOL    HW126969   0.140   1.335   8.685  1.1087 -0.4490  1.1732
 5112SOL    HW226970   0.251   1.374   8.593  0.6619  1.2389  0.5280
 5113SOL     OW26971   4.664   3.961   8.033  0.1149 -0.3199  0.2329
 5113SOL    HW126972   4.637   3.901   8.102 -1.3015  0.7513  0.6042
 5113SOL    HW226973   0.015   3.934   8.036  0.0305 -0.4546  1.5774
 5114SOL     OW26974   1.547   2.700   4.695 -0.1549  0.3857 -0.1887
 5114SOL    HW126975   1.494   2.703   4.775 -1.8120  0.8123 -1.2943
 5114SOL    HW226976   1.624   2.752   4.718  2.1708 -2.4481 -1.6659
 5115SOL     OW26977   2.844   2.440   8.919  0.0706 -0.6069  0.0631
 5115SOL    HW126978   2.893   2.522   8.917 -0.0130 -0.5736 -0.7512
 5115SOL    HW226979   2.855   2.402   9.006  0.2292  1.6800  1.0379
 5116SOL     OW26980   0.857   0.593  16.081  0.2044  0.4979  0.3328
 5116SOL    HW126981   0.765   0.568  16.081  0.5924 -0.9182 -0.0060
 5116SOL    HW226982   0.898   0.529  16.139  0.6163  0.9481  0.5416
 5117SOL     OW26983   0.002   4.711  12.558  0.1194  0.0618  0.5458
 5117SOL    HW126984   0.087   4.726  12.599 -0.0891  2.0536  0.2436
 5117SOL    HW226985   4.725   4.621  12.585 -1.4893 -0.1098 -1.1428
 5118SOL     OW26986   2.215   1.370   7.316 -0.2385 -0.3142 -0.2741
 5118SOL    HW126987   2.277   1.354   7.244  0.1179 -1.7466  0.3660
 5118SOL    HW226988   2.155   1.423   7.264 -1.1526  0.1486  1.2866
 5119SOL     OW26989   0.054   0.651   0.764  0.6309 -0.1384  0.2153
 5119SOL    HW126990   4.720   0.605   0.804  0.5095 -0.7523 -0.7296
 5119SOL    HW226991   0.054   0.609   0.678 -1.7952  2.2232 -0.9525
 5120SOL     OW26992   0.990   2.906   5.744 -0.5666 -0.1391  0.1602
 5120SOL    HW126993   0.976   2.982   5.688 -2.9097 -1.0098 -0.4544
 5120SOL    HW226994   1.073   2.867   5.714 -1.0264  0.0754 -1.4130
 5121SOL     OW26995   2.157   0.277   8.138 -0.0460  0.3261  0.3407
 5121SOL    HW126996   2.084   0.254   8.195 -0.3848 -2.2386 -1.1124
 5121SOL    HW226997   2.231   0.245   8.190  1.1241  1.4335 -0.6596
 5122SOL     OW26998   2.910   0.848   9.429 -0.5836  0.4528  0.2791
 5122SOL    HW126999   2.831   0.825   9.478 -0.2484 -1.1389  0.0811
 5122SOL    HW227000   2.946   0.764   9.400  0.2436  0.9123 -0.0237
 5123SOL     OW27001   3.400   4.227   5.678  0.3039  0.0408  0.9451
 5123SOL    HW127002   3.456   4.232   5.600  0.8298 -0.3994  1.2925
 5123SOL    HW227003   3.456   4.278   5.736 -0.4258  1.9399  0.0044
 5124SOL     OW27004   1.107   1.010  10.604  0.3810 -0.4928 -0.4652
 5124SOL    HW127005   1.138   0.937  10.550  0.1583 -0.9529  0.0339
 5124SOL    HW227006   1.018   0.993  10.633 -0.7343  0.3741 -3.3761
 5125SOL     OW27007   3.366   4.461   8.995 -0.6853 -0.0486  0.1902
 5125SOL    HW127008   3.302   4.391   9.003 -0.6594  0.0298  1.0679
 5125SOL    HW227009   3.424   4.453   9.071  1.3488 -0.8059 -1.4469
 5126SOL     OW27010   0.597   4.246  12.987  0.1000  0.4191  0.0052
 5126SOL    HW127011   0.510   4.284  12.992  0.4354  1.0482  0.9327
 5126SOL    HW227012   0.587   4.162  13.033  2.8339 -0.3617 -0.8005
 5127SOL     OW27013   3.810   3.162   9.726 -0.4778  0.8392 -0.8312
 5127SOL    HW127014   3.832   3.244   9.770 -3.5842  1.1369  0.1365
 5127SOL    HW227015   3.785   3.098   9.793 -0.8516  2.2181  0.3534
 5128SOL     OW27016   1.000   3.282   4.294  0.1285 -0.4842  0.1506
 5128SOL    HW127017   1.088   3.260   4.324  1.1307  0.4853 -2.0609
 5128SOL    HW227018   1.010   3.336   4.215  1.1436 -2.7140 -1.2477
 5129SOL     OW27019   3.612   1.423  12.985 -0.2458 -0.0363  0.4523
 5129SOL    HW127020   3.626   1.345  12.932  0.8670  0.6894 -0.3267
 5129SOL    HW227021   3.556   1.391  13.056 -1.0713  0.3599 -0.0149
 5130SOL     OW27022   2.716   3.225   7.329 -0.1846  0.7921 -0.0819
 5130SOL    HW127023   2.732   3.208   7.421  1.6745 -2.0358 -0.9029
 5130SOL    HW227024   2.791   3.283   7.312 -0.7404  1.6619  0.4418
 5131SOL     OW27025   0.957   1.113   1.198  0.4829  0.5032  0.3595
 5131SOL    HW127026   0.947   1.020   1.221  3.0188  0.0413 -0.3701
 5131SOL    HW227027   1.049   1.120   1.171  0.6329  0.8520  0.9707
 5132SOL     OW27028   3.061   0.201   0.493 -0.3492  0.1763 -0.0586
 5132SOL    HW127029   3.114   0.220   0.571  0.6680  3.1099 -1.4339
 5132SOL    HW227030   2.976   0.233   0.523  0.6815  2.4022  0.5535
 5133SOL     OW27031   3.560   3.177   5.690  0.3084  0.5853 -0.0967
 5133SOL    HW127032   3.550   3.260   5.737  0.0968 -0.0743  1.0352
 5133SOL    HW227033   3.497   3.191   5.619  0.3461 -2.1977 -0.6971
 5134SOL     OW27034   0.340   1.154  16.203  0.0414  0.0908 -0.1518
 5134SOL    HW127035   0.367   1.062  16.197  1.6594  0.5433 -0.0014
 5134SOL    HW227036   0.245   1.155  16.191 -0.1690 -0.1104  1.5682
 5135SOL     OW27037   0.537   4.663   6.240  0.2999 -0.2056  0.5575
 5135SOL    HW127038   0.563   4.644   6.330  1.5882  1.9771  0.6447
 5135SOL    HW227039   0.614   4.624   6.198 -0.9542  1.3402 -3.1211
 5136SOL     OW27040   2.446   2.303   8.983  0.2622  0.2640 -0.2557
 5136SOL    HW127041   2.503   2.239   9.024  1.1451  0.9928 -0.3582
 5136SOL    HW227042   2.492   2.347   8.912  1.5957 -1.8228 -0.6811
 5137SOL     OW27043   2.260   1.571   3.067  0.2917  0.7336 -0.3180
 5137SOL    HW127044   2.231   1.497   3.014 -1.4597 -0.6922  2.6228
 5137SOL    HW227045   2.240   1.543   3.156  1.9338  2.6328  0.6462
 5138SOL     OW27046   4.048   4.483   6.034  0.2492 -0.1978  0.4888
 5138SOL    HW127047   4.014   4.540   5.965 -0.4350 -1.3230 -0.1017
 5138SOL    HW227048   3.962   4.460   6.070  0.2615  0.6843  1.0627
 5139SOL     OW27049   3.291   1.702   4.025 -0.1757  0.6253 -0.3468
 5139SOL    HW127050   3.222   1.665   4.080 -0.2987 -0.1098 -1.0017
 5139SOL    HW227051   3.245   1.704   3.941 -1.8655  0.0894  0.5662
 5140SOL     OW27052   2.452   1.643  13.585  0.4760 -0.2708  0.5153
 5140SOL    HW127053   2.534   1.594  13.584  0.8961  0.4944 -1.9218
 5140SOL    HW227054   2.439   1.636  13.680  1.2238  1.0588  0.7107
 5141SOL     OW27055   2.857   2.724   1.807 -0.1110 -0.2978 -0.5101
 5141SOL    HW127056   2.882   2.798   1.753  0.6720 -2.0883 -2.5899
 5141SOL    HW227057   2.900   2.762   1.884 -0.6534  1.6410 -1.1860
 5142SOL     OW27058   0.253   2.257   8.412 -0.1923  0.0769 -0.6598
 5142SOL    HW127059   0.223   2.280   8.500  0.6936  0.0199 -0.3509
 5142SOL    HW227060   0.292   2.171   8.428 -0.0286  0.2626 -0.0670
 5143SOL     OW27061   3.352   4.170  17.032 -0.3523  0.3987 -0.4231
 5143SOL    HW127062   3.380   4.079  17.042  1.9273  1.2515  0.7839
 5143SOL    HW227063   3.263   4.165  17.067 -0.4016 -2.3315 -0.9493
 5144SOL     OW27064   1.239   1.837  13.022  0.2181  0.7724 -0.0030
 5144SOL    HW127065   1.176   1.789  13.075  1.4060 -0.5048  0.2717
 5144SOL    HW227066   1.277   1.767  12.968 -3.0061 -0.4658 -0.6529
 5145SOL     OW27067   1.133   2.355   3.435  0.3087  0.0618 -0.0325
 5145SOL    HW127068   1.178   2.349   3.350 -0.9833  1.3835 -0.8064
 5145SOL    HW227069   1.070   2.423   3.412  0.8213  1.5736  3.0565
 5146SOL     OW27070   1.258   0.766  15.021  0.1156 -0.0896  0.3616
 5146SOL    HW127071   1.281   0.680  15.056 -1.5288 -0.8378 -0.3843
 5146SOL    HW227072   1.165   0.778  15.041 -0.3237  0.4554 -2.0354
 5147SOL     OW27073   3.961   0.175   9.026 -0.5991  0.5236 -0.3369
 5147SOL    HW127074   4.049   0.186   9.062 -1.0727  0.9637  0.6672
 5147SOL    HW227075   3.916   0.247   9.069 -0.0599  0.5116  0.2459
 5148SOL     OW27076   2.276   0.441   4.666 -0.0943 -0.1328 -0.4547
 5148SOL    HW127077   2.300   0.534   4.669  1.6733 -0.6775  2.4413
 5148SOL    HW227078   2.182   0.444   4.652 -0.1709 -1.3939 -0.2030
 5149SOL     OW27079   1.217   3.470   9.574  0.1742  0.2524  0.3466
 5149SOL    HW127080   1.140   3.421   9.545  0.1909  1.3574 -1.5759
 5149SOL    HW227081   1.228   3.433   9.661 -2.1931  1.3256  1.0809
 5150SOL     OW27082   0.834   3.210   3.082 -0.2520 -0.0705 -0.1464
 5150SOL    HW127083   0.860   3.302   3.078 -0.3675 -0.0378 -0.1282
 5150SOL    HW227084   0.847   3.190   3.175  0.2306 -2.0315 -0.6422
 5151SOL     OW27085   4.515   1.276  17.741 -0.3602 -0.1844 -0.0267
 5151SOL    HW127086   4.484   1.314  17.659 -1.9724  1.5539  1.3826
 5151SOL    HW227087   4.433   1.300   0.022  0.0419 -2.6033  2.0840
 5152SOL     OW27088   1.951   3.681  10.965  0.2299  0.0940  0.3835
 5152SOL    HW127089   1.857   3.664  10.973  0.3990 -0.4786  1.1499
 5152SOL    HW227090   1.986   3.592  10.964 -2.4299 -0.9660  1.5928
 5153SOL     OW27091   1.502   0.748   1.863 -1.2619 -0.2519  0.1134
 5153SOL    HW127092   1.529   0.835   1.892 -1.4937 -0.4045  0.8117
 5153SOL    HW227093   1.569   0.699   1.910 -1.1953 -1.4767 -1.2731
 5154SOL     OW27094   0.468   4.035   3.663 -0.0880 -0.2706 -0.0880
 5154SOL    HW127095   0.421   4.083   3.595  0.6251 -1.6467 -1.5419
 5154SOL    HW227096   0.408   3.962   3.680 -0.5510  0.3117  0.7904
 5155SOL     OW27097   2.677   1.219   2.377  0.1846 -0.2285  0.4873
 5155SOL    HW127098   2.705   1.310   2.382 -1.3623  0.2396  0.4557
 5155SOL    HW227099   2.726   1.195   2.298 -1.2621  3.8728 -1.6364
 5156SOL     OW27100   4.389   1.637  15.072 -0.2167 -0.4096 -0.1316
 5156SOL    HW127101   4.372   1.666  15.162  0.2005  0.2379 -0.2584
 5156SOL    HW227102   4.485   1.631  15.080 -0.3661 -1.2524  1.0500
 5157SOL     OW27103   1.665   0.917   7.803  0.2621 -1.1813  0.7794
 5157SOL    HW127104   1.691   0.863   7.877  2.6689 -0.1095  0.6991
 5157SOL    HW227105   1.710   0.999   7.825  1.9962 -1.0488 -3.3169
 5158SOL     OW27106   1.511   2.682   9.017 -0.3667 -0.1255  0.3581
 5158SOL    HW127107   1.556   2.765   9.033 -0.2209 -0.2789  0.7382
 5158SOL    HW227108   1.559   2.628   9.080  0.0366  0.0198  0.1736
 5159SOL     OW27109   1.295   1.219  11.663 -0.2556 -0.1899  0.2502
 5159SOL    HW127110   1.216   1.169  11.639 -0.7452  0.1118  1.2215
 5159SOL    HW227111   1.352   1.181  11.597 -1.6879 -1.4502 -0.2591
 5160SOL     OW27112   3.385   2.761   9.792  0.1331 -0.2375  0.2057
 5160SOL    HW127113   3.374   2.791   9.882 -0.0389 -0.5626  0.2941
 5160SOL    HW227114   3.325   2.819   9.746 -0.1688 -1.1736 -0.5922
 5161SOL     OW27115   1.092   4.604  12.983 -0.0977  0.1970  0.2801
 5161SOL    HW127116   1.032   4.657  13.035 -1.4217 -1.9201  0.9348
 5161SOL    HW227117   1.130   4.677  12.936  0.4173 -0.8361 -0.9049
 5162SOL     OW27118   4.717   4.270   4.642  0.4738 -0.3806 -0.0496
 5162SOL    HW127119   4.651   4.222   4.591 -0.1072 -1.1148  1.3752
 5162SOL    HW227120   0.049   4.272   4.581 -0.1997 -0.4294 -0.8618
 5163SOL     OW27121   3.692   3.018  15.237 -0.4649  0.2393  0.4881
 5163SOL    HW127122   3.597   3.018  15.235 -0.4584 -0.9438 -0.1767
 5163SOL    HW227123   3.706   3.109  15.261 -0.8776  0.9066 -1.8447
 5164SOL     OW27124   1.754   1.898   5.917  0.7438  0.2410  0.5772
 5164SOL    HW127125   1.719   1.962   5.979 -0.6559 -0.8746  0.9360
 5164SOL    HW227126   1.683   1.873   5.858  1.1370 -0.5996  0.4715
 5165SOL     OW27127   2.861   3.416   9.673  0.2950 -0.0335 -0.5524
 5165SOL    HW127128   2.882   3.506   9.698 -1.8572  0.0751  0.8037
 5165SOL    HW227129   2.946   3.373   9.682  0.5457  0.7284  0.7148
 5166SOL     OW27130   2.179   2.883  13.290 -0.0292 -0.2403 -0.4698
 5166SOL    HW127131   2.131   2.880  13.207  0.0076 -0.9711 -0.4588
 5166SOL    HW227132   2.226   2.966  13.282 -0.0217 -0.1346  0.5850
 5167SOL     OW27133   2.038   1.532   7.914 -0.3452  0.3769 -0.1299
 5167SOL    HW127134   1.998   1.473   7.977 -0.2648  0.0021 -0.4301
 5167SOL    HW227135   2.109   1.482   7.874  0.8459  2.1558 -0.2268
 5168SOL     OW27136   3.650   3.118   9.197 -0.1532  0.0094  0.1585
 5168SOL    HW127137   3.667   3.162   9.280 -2.4333  1.4302 -0.1292
 5168SOL    HW227138   3.690   3.032   9.210 -1.3125 -0.9263 -2.3931
 5169SOL     OW27139   1.711   4.152   2.546 -0.1629 -0.2981 -0.5449
 5169SOL    HW127140   1.739   4.118   2.461 -1.2718  1.4480 -1.6089
 5169SOL    HW227141   1.623   4.184   2.528  0.2879 -0.2543 -2.6905
 5170SOL     OW27142   4.689   0.752   7.761 -0.2623 -0.4025  0.0664
 5170SOL    HW127143   4.688   0.847   7.772 -1.7057 -0.3429 -0.6503
 5170SOL    HW227144   4.703   0.754   7.667  2.4704  0.7937  0.4860
 5171SOL     OW27145   2.724   3.253  10.317 -0.4727  0.3142  0.0386
 5171SOL    HW127146   2.668   3.328  10.335  0.0882  1.2560 -2.0474
 5171SOL    HW227147   2.707   3.245  10.223  1.0283 -0.6074 -0.1703
 5172SOL     OW27148   3.611   3.660  12.213 -0.6604  0.2535 -0.3559
 5172SOL    HW127149   3.653   3.731  12.261  0.8843  1.2186 -3.0880
 5172SOL    HW227150   3.677   3.636  12.148 -1.2167 -3.3573  0.4314
 5173SOL     OW27151   3.290   2.354   4.845 -0.1181  0.1180  0.5643
 5173SOL    HW127152   3.375   2.348   4.801 -0.8214 -1.2631 -0.6214
 5173SOL    HW227153   3.250   2.425   4.797 -0.2409 -0.0330  0.4454
 5174SOL     OW27154   4.180   0.293  11.339  0.2673  0.5369 -0.2538
 5174SOL    HW127155   4.158   0.201  11.326  3.5851 -0.1796 -0.6790
 5174SOL    HW227156   4.179   0.299  11.434  0.2170 -0.6922 -0.1751
 5175SOL     OW27157   2.507   1.274   5.892 -0.7717  0.0377  0.3939
 5175SOL    HW127158   2.421   1.244   5.862  0.7814 -2.1652 -1.9244
 5175SOL    HW227159   2.481   1.323   5.969 -0.0162  0.7201  0.2173
 5176SOL     OW27160   3.175   1.137  13.204 -0.0157  0.6425 -0.0547
 5176SOL    HW127161   3.194   1.229  13.189  1.1254  0.1719 -1.4502
 5176SOL    HW227162   3.166   1.129  13.299  2.3053  1.2692  0.2023
 5177SOL     OW27163   2.094   2.863   9.107 -0.0114 -0.3080  0.0643
 5177SOL    HW127164   2.123   2.772   9.096 -0.1560 -0.4984  1.2179
 5177SOL    HW227165   2.020   2.858   9.168 -0.1106  1.3239  0.0722
 5178SOL     OW27166   1.816   4.605   5.162 -0.3123 -0.2939  0.3963
 5178SOL    HW127167   1.893   4.638   5.208 -0.4663  2.0576 -1.0240
 5178SOL    HW227168   1.756   4.678   5.174 -0.6399 -0.6465  0.8795
 5179SOL     OW27169   0.265   1.332  15.803 -0.1356  0.4996  0.3336
 5179SOL    HW127170   0.225   1.246  15.816 -1.3487  1.3086  1.9591
 5179SOL    HW227171   0.319   1.345  15.881  0.7865  3.6431 -0.8240
 5180SOL     OW27172   2.661   2.247   8.626  0.3312 -0.5670  0.2654
 5180SOL    HW127173   2.663   2.259   8.532 -0.4227 -0.2418  0.2995
 5180SOL    HW227174   2.593   2.180   8.623  1.7182 -2.0181  0.7356
 5181SOL     OW27175   2.692   4.606   9.922 -0.0782  0.1888 -0.0390
 5181SOL    HW127176   2.672   4.564  10.006  2.0291  2.1878  1.4290
 5181SOL    HW227177   2.787   4.600   9.923 -0.0068  0.8670 -3.1164
 5182SOL     OW27178   3.992   4.580   1.697 -0.0773 -0.2021  0.2048
 5182SOL    HW127179   3.960   4.518   1.632  0.6057  1.6824 -1.9422
 5182SOL    HW227180   3.938   4.658   1.687  1.0798  0.3480 -1.8765
 5183SOL     OW27181   4.624   0.698   8.425 -0.3746 -0.1090  0.3225
 5183SOL    HW127182   4.665   0.625   8.378 -0.6778  0.9919 -1.6306
 5183SOL    HW227183   4.552   0.720   8.366 -0.6051  0.0573  0.6646
 5184SOL     OW27184   0.414   2.635   3.064 -0.4113  0.4479 -0.3102
 5184SOL    HW127185   0.459   2.706   3.018 -1.1067  1.3510  0.4023
 5184SOL    HW227186   0.396   2.577   2.990  0.3767  1.4826 -1.3145
 5185SOL     OW27187   3.901   4.575   3.651  0.7405  0.4058 -0.0525
 5185SOL    HW127188   3.951   4.605   3.727 -2.6300  2.5288  1.3446
 5185SOL    HW227189   3.844   4.648   3.630 -0.2541 -0.3263  0.0800
 5186SOL     OW27190   0.151   0.964   5.127 -0.5776  0.3910  0.2773
 5186SOL    HW127191   0.246   0.958   5.137 -0.7117 -0.7748  0.8343
 5186SOL    HW227192   0.131   0.872   5.145  0.2208  0.1051 -0.2992
 5187SOL     OW27193   3.279   1.276   6.716 -0.1370 -0.2794 -0.0336
 5187SOL    HW127194   3.191   1.311   6.714  0.0906  0.1962 -1.7224
 5187SOL    HW227195   3.328   1.345   6.672 -0.4466 -1.2206 -1.8608
 5188SOL     OW27196   4.326   4.188  12.532 -0.5347 -0.4247  0.5784
 5188SOL    HW127197   4.332   4.156  12.442 -1.6098 -0.8434  0.6597
 5188SOL    HW227198   4.306   4.112  12.587  0.2138 -1.0651 -0.0311
 5189SOL     OW27199   2.634   0.933   2.154 -0.1455 -0.6724 -0.1942
 5189SOL    HW127200   2.692   0.957   2.081 -1.0124 -0.5664 -0.8564
 5189SOL    HW227201   2.578   1.010   2.142 -1.7602 -1.7546  0.3039
 5190SOL     OW27202   2.008   3.421   5.781 -0.0664 -0.1149 -1.0216
 5190SOL    HW127203   2.018   3.513   5.758 -1.3574 -0.0273 -1.2177
 5190SOL    HW227204   2.018   3.424   5.876 -1.9259 -0.1486 -0.8301
 5191SOL     OW27205   3.146   3.288  11.611 -0.0594  0.2531 -0.2487
 5191SOL    HW127206   3.218   3.317  11.555 -0.2688 -0.8004 -1.0701
 5191SOL    HW227207   3.084   3.265  11.542  0.9736  0.5843 -1.2931
 5192SOL     OW27208   4.615   1.502   7.142 -0.1926  0.3729  0.1776
 5192SOL    HW127209   4.648   1.520   7.230  2.2386 -2.1434 -0.2430
 5192SOL    HW227210   4.689   1.464   7.096 -0.7978  0.4324 -0.8474
 5193SOL     OW27211   2.896   3.141   3.477 -0.0517  0.2403  0.2281
 5193SOL    HW127212   2.933   3.180   3.397 -1.9802  0.1647 -0.7038
 5193SOL    HW227213   2.948   3.061   3.483  0.1467  0.5365  2.4756
 5194SOL     OW27214   3.187   0.756  11.005 -0.0025  0.2445 -0.2126
 5194SOL    HW127215   3.173   0.662  11.011  0.9172  0.0320 -1.4246
 5194SOL    HW227216   3.208   0.769  10.912  1.3721  1.3283  0.2374
 5195SOL     OW27217   2.053   3.317   4.396  0.1000  0.1649 -0.5269
 5195SOL    HW127218   2.048   3.270   4.312 -1.9499 -1.6890  0.6236
 5195SOL    HW227219   1.962   3.306   4.423  0.3223  0.4439  0.3300
 5196SOL     OW27220   1.182   3.717  15.322  0.0196 -0.2255 -0.1330
 5196SOL    HW127221   1.203   3.782  15.254  1.0366 -0.9830 -0.5288
 5196SOL    HW227222   1.111   3.671  15.277  0.6777 -0.5127 -0.8786
 5197SOL     OW27223   0.573   0.626  16.498 -0.1695  0.2290  0.4158
 5197SOL    HW127224   0.580   0.592  16.587  3.6413  1.0221  0.4507
 5197SOL    HW227225   0.602   0.716  16.517 -0.4126  0.4882 -0.4133
 5198SOL     OW27226   2.937   1.653   5.828  0.3954 -0.0493 -0.0937
 5198SOL    HW127227   2.872   1.585   5.807  1.2118  0.6106 -4.7137
 5198SOL    HW227228   3.012   1.598   5.851  0.5197  0.8185  1.5348
 5199SOL     OW27229   2.590   4.109   7.048 -0.4378 -0.2350  0.3647
 5199SOL    HW127230   2.528   4.137   7.115 -0.3265 -1.7693  1.1153
 5199SOL    HW227231   2.606   4.196   7.012 -1.4526 -0.1722  0.0630
 5200SOL     OW27232   0.398   0.561   0.906  0.3719  0.1878  0.4358
 5200SOL    HW127233   0.460   0.533   0.838  1.4663  0.3509  1.3708
 5200SOL    HW227234   0.431   0.513   0.982 -2.0738  1.8090  2.5219
 5201SOL     OW27235   2.297   0.333   9.553 -1.1371  0.1434 -0.0221
 5201SOL    HW127236   2.325   0.243   9.566 -1.5141 -0.0672 -0.7015
 5201SOL    HW227237   2.248   0.340   9.635 -0.4359  0.8354  0.3416
 5202SOL     OW27238   2.261   0.905   6.684 -0.1519  0.4633  0.0071
 5202SOL    HW127239   2.203   0.950   6.745 -0.1813  2.7459 -1.7118
 5202SOL    HW227240   2.257   0.960   6.605  0.1555  0.7835  0.2130
 5203SOL     OW27241   2.988   0.175  12.407  0.2337  0.5416 -0.0794
 5203SOL    HW127242   2.929   0.230  12.356 -1.7263 -1.6895 -0.2506
 5203SOL    HW227243   3.020   0.244  12.465  0.8752  0.0053  0.2099
 5204SOL     OW27244   0.563   4.214   8.078  0.0768 -0.3155  0.2357
 5204SOL    HW127245   0.572   4.124   8.110  1.4184 -0.1672  0.2738
 5204SOL    HW227246   0.621   4.252   8.144 -2.7837  1.1098  1.9553
 5205SOL     OW27247   0.052   2.629   6.351 -0.1269  0.1933  0.1436
 5205SOL    HW127248   4.735   2.705   6.355  0.9960  1.0070  0.8611
 5205SOL    HW227249   0.090   2.628   6.438  0.6142  0.2416 -0.1849
 5206SOL     OW27250   1.506   2.002  11.238 -0.2585 -0.3972 -0.5318
 5206SOL    HW127251   1.542   1.933  11.183  0.0578  0.6847 -1.6660
 5206SOL    HW227252   1.485   2.067  11.171 -0.5895  0.1362  0.0911
 5207SOL     OW27253   1.847   2.267   1.994 -0.6978 -0.2529 -0.7612
 5207SOL    HW127254   1.883   2.356   1.997 -1.0754 -0.2037  2.2469
 5207SOL    HW227255   1.873   2.233   2.079 -1.5823  2.2262  0.5096
 5208SOL     OW27256   3.601   3.879   6.539  0.2891 -0.5245  0.0512
 5208SOL    HW127257   3.542   3.813   6.576 -2.2440  0.7137 -1.7891
 5208SOL    HW227258   3.544   3.905   6.467 -0.4792 -0.3530  0.7292
 5209SOL     OW27259   0.636   0.423   4.008 -0.5304 -0.4826 -0.4465
 5209SOL    HW127260   0.731   0.417   4.009 -0.5251 -0.5087 -0.9196
 5209SOL    HW227261   0.610   0.438   4.099  0.3379  0.1959 -0.3058
 5210SOL     OW27262   1.275   3.850  12.660  0.3297  0.3481 -0.2796
 5210SOL    HW127263   1.284   3.939  12.627  2.3368  0.4493  0.5349
 5210SOL    HW227264   1.353   3.809  12.623  0.9197  1.6859 -0.5115
 5211SOL     OW27265   3.733   0.649   9.830  0.0360  0.5146 -0.6045
 5211SOL    HW127266   3.672   0.626   9.900 -0.5198 -0.4717 -1.4228
 5211SOL    HW227267   3.711   0.585   9.763  0.8185 -1.5825  1.1704
 5212SOL     OW27268   1.580   2.667   3.496  0.2094 -0.5549  0.0765
 5212SOL    HW127269   1.658   2.716   3.519  0.2856  0.7111 -2.8181
 5212SOL    HW227270   1.617   2.585   3.463 -0.6342 -1.1580  0.6104
 5213SOL     OW27271   2.984   2.294  16.888 -0.3039 -0.2619 -0.5187
 5213SOL    HW127272   3.031   2.227  16.937 -1.4238 -0.6867 -0.0216
 5213SOL    HW227273   2.905   2.310  16.941 -0.3448 -0.7037 -0.4438
 5214SOL     OW27274   1.153   0.355  13.077  0.5010  0.0017  0.1640
 5214SOL    HW127275   1.230   0.300  13.066  0.3720 -0.4632  1.6462
 5214SOL    HW227276   1.095   0.301  13.130 -0.1596  0.4425 -0.1078
 5215SOL     OW27277   2.190   2.325  12.211 -0.0217 -0.6692 -0.1494
 5215SOL    HW127278   2.120   2.267  12.180 -0.3866 -0.9205  1.1222
 5215SOL    HW227279   2.155   2.413  12.198  0.8565 -0.1719  0.8298
 5216SOL     OW27280   1.911   3.150   5.621  0.4541 -0.2061 -0.1068
 5216SOL    HW127281   1.848   3.219   5.599  4.4806  3.1789 -1.1430
 5216SOL    HW227282   1.950   3.138   5.534 -1.1331  3.0966 -1.2996
 5217SOL     OW27283   3.348   0.089  15.505 -0.0006  0.1848  1.0035
 5217SOL    HW127284   3.413   0.073  15.436 -1.0839 -1.0714  0.2770
 5217SOL    HW227285   3.381   0.175  15.530  0.1227  0.2333  0.6702
 5218SOL     OW27286   1.539   1.905  12.285  0.4969  0.1756  0.8732
 5218SOL    HW127287   1.575   1.968  12.347  0.7918  0.9579 -0.0830
 5218SOL    HW227288   1.521   1.832  12.343 -1.9970  0.5116  0.4867
 5219SOL     OW27289   0.867   2.236  12.898  0.3846 -0.0589  0.0588
 5219SOL    HW127290   0.852   2.222  12.992  0.2352  0.1939  0.0736
 5219SOL    HW227291   0.776   2.247  12.869  0.0360  0.1477  1.2287
 5220SOL     OW27292   4.199   3.443   4.130  0.2136  0.2145  0.5522
 5220SOL    HW127293   4.131   3.389   4.091 -0.7994  1.2155  0.9086
 5220SOL    HW227294   4.256   3.370   4.155 -0.3703 -0.4966 -0.2431
 5221SOL     OW27295   3.999   1.211  17.439 -0.1764  0.3157 -0.5055
 5221SOL    HW127296   4.031   1.265  17.366 -0.0987  0.1579 -0.5881
 5221SOL    HW227297   4.044   1.129  17.416 -2.4424 -1.2606  0.6763
 5222SOL     OW27298   0.980   1.395  15.619 -0.8058 -0.3093  0.8281
 5222SOL    HW127299   0.937   1.371  15.537  1.0424  1.6556 -0.7282
 5222SOL    HW227300   1.045   1.459  15.590  0.8257 -2.5751 -0.5553
 5223SOL     OW27301   0.648   0.431  17.562 -0.1579 -0.0945  0.0981
 5223SOL    HW127302   0.739   0.460  17.551  1.1196 -4.3905 -0.4875
 5223SOL    HW227303   0.627   0.452  17.653 -0.0571 -2.5445  0.6717
 5224SOL     OW27304   2.924   0.425   0.348  0.0686 -0.2546 -0.0381
 5224SOL    HW127305   2.975   0.494   0.391 -2.1412 -0.2421  2.5688
 5224SOL    HW227306   2.926   0.355   0.414 -1.0625  0.9318  1.2695
 5225SOL     OW27307   3.654   0.424   4.011 -0.3784  0.0545 -0.0431
 5225SOL    HW127308   3.611   0.416   4.096 -0.1739  1.9639  0.2484
 5225SOL    HW227309   3.628   0.513   3.984  1.2335  0.4883 -0.1855
 5226SOL     OW27310   2.327   0.767   6.252  0.2979  0.6171 -0.9032
 5226SOL    HW127311   2.284   0.689   6.287  0.1611  1.4366  0.7252
 5226SOL    HW227312   2.261   0.837   6.251  0.3032  0.6388  2.4304
 5227SOL     OW27313   4.204   0.161   4.928  0.1439  0.8226 -0.6574
 5227SOL    HW127314   4.139   0.174   4.998 -0.7335 -0.5185 -1.2244
 5227SOL    HW227315   4.285   0.155   4.978 -0.6264  1.0221  0.6129
 5228SOL     OW27316   1.586   2.913   3.263 -0.2952 -0.2209  0.2665
 5228SOL    HW127317   1.606   2.854   3.191  2.7544 -0.2209  1.1125
 5228SOL    HW227318   1.556   2.846   3.325 -0.2301 -1.4791 -1.0536
 5229SOL     OW27319   1.927   1.537  17.301  0.2797  0.3310  0.4170
 5229SOL    HW127320   1.899   1.470  17.238  2.4794 -2.2801  2.2256
 5229SOL    HW227321   1.853   1.596  17.286 -0.1268 -0.4703 -0.7032
 5230SOL     OW27322   1.888   2.000   8.956 -0.3974 -0.1701 -0.1803
 5230SOL    HW127323   1.915   2.091   8.964 -0.1561 -0.0608 -2.1528
 5230SOL    HW227324   1.950   1.975   8.886 -0.5913 -2.8467  0.5807
 5231SOL     OW27325   2.551   1.217  15.992 -0.1559 -0.1946  0.0181
 5231SOL    HW127326   2.482   1.173  16.041 -0.3225 -0.2147 -0.2366
 5231SOL    HW227327   2.593   1.274  16.056  2.9004 -2.8773  0.4087
 5232SOL     OW27328   2.917   0.981   8.854 -0.6793 -0.5562  0.0004
 5232SOL    HW127329   2.974   1.017   8.923 -1.5879 -1.9990  1.5122
 5232SOL    HW227330   2.865   0.922   8.908 -0.9497  1.2673  1.7696
 5233SOL     OW27331   3.253   4.672  11.825  0.4112  0.1176 -0.5737
 5233SOL    HW127332   3.296   4.706  11.904 -0.9566 -0.7740  0.5486
 5233SOL    HW227333   3.207   4.595  11.857 -3.2110  1.6530 -2.1967
 5234SOL     OW27334   0.814   2.140   0.730 -0.5565 -0.3523  0.2805
 5234SOL    HW127335   0.852   2.168   0.647 -3.5040 -0.7508 -1.2180
 5234SOL    HW227336   0.883   2.175   0.786 -1.3462  0.5172  0.7027
 5235SOL     OW27337   1.649   4.414   3.804 -0.4722  0.1385  0.0287
 5235SOL    HW127338   1.645   4.485   3.869 -0.4200  0.5686 -0.4389
 5235SOL    HW227339   1.594   4.451   3.734  0.0467 -0.5691 -0.7477
 5236SOL     OW27340   0.345   1.428   7.216  0.3343 -0.1785  0.2435
 5236SOL    HW127341   0.365   1.357   7.276 -1.6755 -0.7318  0.2476
 5236SOL    HW227342   0.378   1.398   7.131  0.7619 -1.5704  0.9140
 5237SOL     OW27343   0.925   3.138   6.979  0.2775 -0.4139  0.2033
 5237SOL    HW127344   0.911   3.183   7.062 -0.1408  0.5125 -0.3719
 5237SOL    HW227345   0.972   3.208   6.933 -1.1171  0.9911  0.9078
 5238SOL     OW27346   4.537   3.479   7.885 -0.0635 -0.2388 -0.3838
 5238SOL    HW127347   4.594   3.433   7.946  0.8367  2.0362  0.5045
 5238SOL    HW227348   4.480   3.529   7.943 -1.5164 -1.0114 -1.1566
 5239SOL     OW27349   0.289   0.312   3.604 -0.4408  0.4380  0.0258
 5239SOL    HW127350   0.249   0.226   3.593  0.7552 -0.1283  0.1724
 5239SOL    HW227351   0.339   0.308   3.685  0.7362  0.1721 -0.7224
 5240SOL     OW27352   1.379   0.634   6.084  0.2881  0.3152  0.0403
 5240SOL    HW127353   1.396   0.587   6.003 -1.5940 -0.9596  0.3810
 5240SOL    HW227354   1.372   0.567   6.152 -0.6036 -0.2711 -0.6314
 5241SOL     OW27355   1.584   2.588   7.936 -0.3348  0.9625 -0.2225
 5241SOL    HW127356   1.592   2.542   8.020 -2.1525 -0.5528 -0.8925
 5241SOL    HW227357   1.592   2.680   7.964  0.3992  0.0486  2.5625
 5242SOL     OW27358   4.617   0.808   6.817 -0.4266  0.3971  0.2473
 5242SOL    HW127359   4.574   0.790   6.900 -0.3778  2.4095  0.7047
 5242SOL    HW227360   4.544   0.859   6.783 -0.9165  0.1977  1.0190
 5243SOL     OW27361   4.154   3.058   7.041 -0.0442  0.0809 -0.1130
 5243SOL    HW127362   4.112   3.023   6.963 -0.7606  1.3422 -0.2853
 5243SOL    HW227363   4.155   3.153   7.030  0.6932 -0.1568 -1.9988
 5244SOL     OW27364   2.476   2.747   3.211 -0.3351  0.3273  0.7881
 5244SOL    HW127365   2.489   2.803   3.287 -0.2663  0.6899  0.5105
 5244SOL    HW227366   2.538   2.675   3.224 -0.6634  0.1820  1.5137
 5245SOL     OW27367   2.727   0.643   6.819 -0.2085 -0.3698 -0.1438
 5245SOL    HW127368   2.815   0.678   6.834 -0.2355 -0.7203  0.8054
 5245SOL    HW227369   2.674   0.705   6.869 -1.2058  2.7279 -4.9636
 5246SOL     OW27370   3.976   1.911   7.166  0.0917  0.2141 -0.2556
 5246SOL    HW127371   3.913   1.973   7.203 -0.0829 -0.7369  1.0613
 5246SOL    HW227372   3.943   1.827   7.198  2.0299 -0.6007 -0.4046
 5247SOL     OW27373   3.420   4.105   9.495 -0.5490  0.1967  0.4030
 5247SOL    HW127374   3.459   4.071   9.415  0.9630 -2.4416  2.2578
 5247SOL    HW227375   3.382   4.192   9.481 -4.2294 -1.4020  0.6051
 5248SOL     OW27376   3.700   3.569   6.057  0.7973  0.1042  0.5403
 5248SOL    HW127377   3.706   3.658   6.091  2.0404  0.1306  0.2554
 5248SOL    HW227378   3.700   3.571   5.961 -1.8915 -1.1894  0.5117
 5249SOL     OW27379   1.032   3.803   7.466  0.1369  0.1318  0.2606
 5249SOL    HW127380   1.062   3.713   7.484  1.2579  0.2271 -1.0851
 5249SOL    HW227381   1.111   3.852   7.442  0.1416 -0.6645 -1.4190
 5250SOL     OW27382   1.512   1.640  15.048  0.2768  0.2906 -0.2045
 5250SOL    HW127383   1.606   1.631  15.061  0.0080 -0.9873  0.8738
 5250SOL    HW227384   1.496   1.574  14.981  0.9697 -0.3604  0.2660
 5251SOL     OW27385   1.312   3.484  11.451  0.0976  0.6065  0.1957
 5251SOL    HW127386   1.377   3.429  11.407  1.7206  0.9175  2.1978
 5251SOL    HW227387   1.250   3.420  11.486 -1.1275  2.2711  1.0662
 5252SOL     OW27388   2.556   0.095   3.071  0.4269 -0.0241 -0.2329
 5252SOL    HW127389   2.605   0.109   3.153  1.0477 -1.6595 -0.3214
 5252SOL    HW227390   2.523   0.006   3.089  2.9886 -1.1079 -0.8382
 5253SOL     OW27391   1.993   2.290  10.403  0.4312 -0.1756  0.3828
 5253SOL    HW127392   1.982   2.306  10.309 -1.2938  1.1344  0.8265
 5253SOL    HW227393   2.084   2.318  10.412  0.1870  0.3262  1.3063
 5254SOL     OW27394   3.074   4.107   9.368  0.2621  0.0594  0.1786
 5254SOL    HW127395   3.132   4.180   9.390  0.4083  0.4678 -1.5654
 5254SOL    HW227396   3.058   4.067   9.453 -1.6521  2.6830  1.0470
 5255SOL     OW27397   3.179   2.067   6.130 -0.0748  0.2569  0.4324
 5255SOL    HW127398   3.144   2.130   6.067 -1.5039 -0.8794  0.0630
 5255SOL    HW227399   3.213   1.994   6.077  1.2734 -0.3686  2.1791
 5256SOL     OW27400   4.295   1.852   2.641  0.2892  0.0214  0.1442
 5256SOL    HW127401   4.325   1.765   2.616 -0.5728  0.7786 -3.5580
 5256SOL    HW227402   4.268   1.884   2.555 -3.6609 -3.4121  0.1236
 5257SOL     OW27403   1.440   4.026   3.963 -0.1127 -0.4425 -0.2661
 5257SOL    HW127404   1.524   4.028   4.009 -0.8219  1.2666  0.9686
 5257SOL    HW227405   1.396   4.106   3.990  0.5731  0.4331 -1.6886
 5258SOL     OW27406   3.917   3.328   6.863  0.2709  0.6718  0.0554
 5258SOL    HW127407   3.852   3.273   6.905  0.5650  0.1774 -0.1353
 5258SOL    HW227408   3.870   3.401   6.823  1.1748  1.7889  1.0423
 5259SOL     OW27409   2.953   1.253   7.341  0.0604 -0.2172  0.1150
 5259SOL    HW127410   3.040   1.258   7.301 -0.5405 -0.3774 -1.1956
 5259SOL    HW227411   2.898   1.312   7.289 -0.1538 -1.7891 -1.4396
 5260SOL     OW27412   3.586   1.782   2.394  0.3247  0.0138  0.3465
 5260SOL    HW127413   3.602   1.718   2.325  0.0346  0.1122  0.1891
 5260SOL    HW227414   3.494   1.757   2.401  0.7533 -2.0147 -0.9647
 5261SOL     OW27415   4.625   0.465  13.394 -0.2637  0.3892 -0.2804
 5261SOL    HW127416   4.612   0.437  13.484 -0.9365  0.0399 -0.4855
 5261SOL    HW227417   4.534   0.466  13.366 -0.2026  2.5807 -0.4139
 5262SOL     OW27418   1.772   3.602   9.018 -0.2498 -0.3877  0.5150
 5262SOL    HW127419   1.829   3.568   8.950 -3.5371 -0.0749 -2.4227
 5262SOL    HW227420   1.692   3.552   9.003  0.0887 -0.6014 -0.5490
 5263SOL     OW27421   2.391   1.671   4.741  0.3037  0.4252 -0.0870
 5263SOL    HW127422   2.465   1.718   4.703  0.7973  1.1410  1.7798
 5263SOL    HW227423   2.427   1.659   4.829  0.0534 -0.3908 -0.0979
 5264SOL     OW27424   2.631   3.598   3.542 -0.4547  0.1462  0.0833
 5264SOL    HW127425   2.577   3.574   3.467 -0.8317  0.7508  0.1613
 5264SOL    HW227426   2.664   3.513   3.573 -2.5345 -0.0853  1.6763
 5265SOL     OW27427   4.138   2.715   7.045  0.2428  0.6377  0.1476
 5265SOL    HW127428   4.134   2.758   7.130  3.5208  0.2436  0.5220
 5265SOL    HW227429   4.048   2.724   7.013  0.4701  2.8114  0.1051
 5266SOL     OW27430   1.716   3.274  11.047  0.2245 -0.8266  0.1396
 5266SOL    HW127431   1.791   3.256  11.104  0.0982 -2.0669 -0.0845
 5266SOL    HW227432   1.700   3.188  11.009  0.2118 -0.6444 -0.2749
 5267SOL     OW27433   3.693   0.876   9.022  0.3095  0.0448  0.7536
 5267SOL    HW127434   3.770   0.827   9.052  2.4564  2.2667 -1.1375
 5267SOL    HW227435   3.721   0.907   8.936 -3.0389  2.0233  0.3768
 5268SOL     OW27436   1.982   3.151  16.491  0.0765  0.4483  0.3906
 5268SOL    HW127437   2.023   3.164  16.577 -0.9551  2.9228  0.5021
 5268SOL    HW227438   1.888   3.158  16.513 -0.5260 -1.3125 -1.6886
 5269SOL     OW27439   3.526   3.477   5.737 -0.0288 -0.0445  0.0188
 5269SOL    HW127440   3.540   3.566   5.770 -0.2822  0.3661 -0.9983
 5269SOL    HW227441   3.474   3.492   5.659 -0.8483  0.9835  0.7529
 5270SOL     OW27442   2.907   0.183   7.522 -0.0058  0.4397 -0.2538
 5270SOL    HW127443   2.985   0.176   7.578  0.2578 -0.0892 -0.6862
 5270SOL    HW227444   2.937   0.159   7.434 -0.4080  2.0244 -0.8264
 5271SOL     OW27445   0.763   0.755   8.188  0.7844  0.1103  0.4206
 5271SOL    HW127446   0.753   0.736   8.095 -1.0567 -0.2878  0.7032
 5271SOL    HW227447   0.687   0.812   8.202  0.4586  0.7187 -4.0214
 5272SOL     OW27448   0.231   3.211   5.696 -0.1921  0.5917 -0.1223
 5272SOL    HW127449   0.259   3.278   5.635  0.9103  1.1281  0.9669
 5272SOL    HW227450   0.301   3.150   5.673 -0.3097  0.1578  0.6599
 5273SOL     OW27451   2.235   1.261   6.277 -0.3320 -0.0855 -0.6699
 5273SOL    HW127452   2.159   1.300   6.234 -0.5280 -0.0314 -0.2788
 5273SOL    HW227453   2.280   1.340   6.307 -0.4837  0.4334 -1.7990
 5274SOL     OW27454   0.835   3.076   4.265 -0.1402 -0.0031  0.3364
 5274SOL    HW127455   0.892   3.152   4.278 -1.2591  0.7218  1.1096
 5274SOL    HW227456   0.860   3.040   4.180 -1.2382 -0.2411  0.1104
 5275SOL     OW27457   1.214   1.280   0.969  0.4872  0.2627 -0.2131
 5275SOL    HW127458   1.203   1.186   0.983  1.3839  0.2088  0.1705
 5275SOL    HW227459   1.307   1.292   0.989  0.1039 -1.9701  3.0158
 5276SOL     OW27460   2.914   1.584  12.793  0.1420 -0.2302 -0.3624
 5276SOL    HW127461   2.881   1.667  12.757  0.6833  0.6086  1.0708
 5276SOL    HW227462   3.009   1.588  12.804  0.1002  0.4228 -0.1924
 5277SOL     OW27463   0.957   3.174   0.166  0.3333  0.7005  0.7189
 5277SOL    HW127464   1.033   3.164   0.109 -1.2886 -0.8787 -1.1253
 5277SOL    HW227465   0.944   3.268   0.152  0.8344  0.5541 -0.6858
 5278SOL     OW27466   1.702   1.290   7.175  0.0778  0.3615 -0.0175
 5278SOL    HW127467   1.668   1.372   7.210 -0.5226  0.1413 -0.0948
 5278SOL    HW227468   1.616   1.251   7.159  0.7968 -0.5172 -1.7540
 5279SOL     OW27469   1.434   4.528   7.951  0.1842 -0.1266 -0.4716
 5279SOL    HW127470   1.431   4.510   8.045  1.0123  3.7057  0.2599
 5279SOL    HW227471   1.435   4.623   7.958  0.4598 -0.2224  0.8778
 5280SOL     OW27472   3.397   3.871   8.775  0.3788  0.1751  0.2381
 5280SOL    HW127473   3.371   3.843   8.687 -0.8025 -1.8358  1.2074
 5280SOL    HW227474   3.366   3.799   8.830 -2.6580  1.5698  0.3728
 5281SOL     OW27475   1.821   1.441  11.505 -0.2365  0.2859  0.1330
 5281SOL    HW127476   1.841   1.529  11.536  0.0630  0.2127  0.1521
 5281SOL    HW227477   1.856   1.431  11.416  1.1428 -0.4705  0.7599
 5282SOL     OW27478   4.007   3.781   0.731  0.2181 -0.5410 -0.3626
 5282SOL    HW127479   3.998   3.763   0.637  0.2824  0.3509 -0.5425
 5282SOL    HW227480   4.006   3.691   0.763 -1.7862 -1.2108 -2.3131
 5283SOL     OW27481   1.969   1.072   3.377  0.2223 -0.5800  0.0939
 5283SOL    HW127482   2.017   1.038   3.452  1.2222 -1.2305 -0.8351
 5283SOL    HW227483   2.019   1.152   3.357  0.3687 -0.6182  0.3117
 5284SOL     OW27484   4.213   3.581   8.293  0.1781  0.5578  0.6604
 5284SOL    HW127485   4.179   3.650   8.350  1.5097  0.2966  1.7578
 5284SOL    HW227486   4.237   3.519   8.362 -2.3238  0.3050  1.3017
 5285SOL     OW27487   1.663   3.572   5.654  0.0395  0.1237  0.0049
 5285SOL    HW127488   1.579   3.618   5.648 -0.7202 -1.2378  0.2469
 5285SOL    HW227489   1.725   3.643   5.672 -0.2581  0.2266  0.6074
 5286SOL     OW27490   3.338   3.248   5.540 -0.1313  0.2353 -0.3888
 5286SOL    HW127491   3.340   3.320   5.477 -0.3564  1.3451  0.8526
 5286SOL    HW227492   3.364   3.174   5.486 -1.8936 -1.8270  1.6158
 5287SOL     OW27493   4.566   2.286   5.915 -0.0499 -0.2678 -0.1939
 5287SOL    HW127494   4.514   2.328   5.984 -0.4422 -2.3750  0.7933
 5287SOL    HW227495   4.643   2.342   5.907 -0.4752 -0.0608 -2.6483
 5288SOL     OW27496   4.525   4.739   3.312  0.2547  0.2540 -0.1384
 5288SOL    HW127497   4.560   0.085   3.332 -0.9803  0.9041 -0.8256
 5288SOL    HW227498   4.439   0.004   3.355  0.7541  0.9949  0.7658
 5289SOL     OW27499   1.759   3.172   7.860  0.2662  0.4496 -0.1806
 5289SOL    HW127500   1.849   3.141   7.849  0.4062  0.3809  1.1518
 5289SOL    HW227501   1.710   3.090   7.855  0.4696  0.2291  1.3201
 5290SOL     OW27502   3.776   4.412  17.592 -0.0998  0.0150 -0.2172
 5290SOL    HW127503   3.715   4.387  17.661 -1.0415  0.9537 -0.7144
 5290SOL    HW227504   3.851   4.421  17.651 -1.1627 -0.4054  1.2055
 5291SOL     OW27505   2.060   1.653  12.060 -0.0890 -0.8258  0.0059
 5291SOL    HW127506   2.145   1.627  12.094  0.1338  0.3252  0.3228
 5291SOL    HW227507   2.024   1.569  12.030 -0.0796 -1.3703  1.4987
 5292SOL     OW27508   0.202   3.737   6.382 -0.3124 -0.0834  0.1451
 5292SOL    HW127509   0.191   3.700   6.469  1.8423 -2.4100 -0.5993
 5292SOL    HW227510   0.124   3.713   6.332 -0.3310 -1.6098  0.9256
 5293SOL     OW27511   3.456   4.507  13.170 -0.2985  0.7215  0.0199
 5293SOL    HW127512   3.448   4.414  13.193 -1.5368  1.0989  1.1337
 5293SOL    HW227513   3.446   4.501  13.075  2.2900  0.5408 -0.2572
 5294SOL     OW27514   0.573   2.631   7.931 -0.8318 -0.3204 -0.6047
 5294SOL    HW127515   0.507   2.592   7.988 -0.5591  0.5463  0.3042
 5294SOL    HW227516   0.548   2.723   7.944  0.7233  0.2951 -1.9991
 5295SOL     OW27517   2.947   2.794   3.749 -0.6293 -0.5150 -0.4524
 5295SOL    HW127518   3.040   2.815   3.738 -0.5758 -0.4057  0.2161
 5295SOL    HW227519   2.943   2.779   3.843 -0.3947 -0.3029 -0.4056
 5296SOL     OW27520   4.448   2.910   2.498  0.1944  0.1160  0.0753
 5296SOL    HW127521   4.442   2.822   2.535 -2.2553 -0.1111 -0.8899
 5296SOL    HW227522   4.493   2.894   2.415 -1.6021  0.4776 -0.9622
 5297SOL     OW27523   2.780   3.766   8.788  0.0955  0.1886  0.4609
 5297SOL    HW127524   2.850   3.700   8.790 -1.6368 -1.7537 -2.3224
 5297SOL    HW227525   2.712   3.712   8.748  0.5599  1.5909 -2.1702
 5298SOL     OW27526   1.518   4.664   8.798  0.1139  0.2430  0.0396
 5298SOL    HW127527   1.489   4.737   8.743  1.7205 -0.9942 -2.4645
 5298SOL    HW227528   1.581   4.714   8.849 -2.0256  2.9761 -0.0042
 5299SOL     OW27529   4.562   3.113   9.038 -0.5346 -0.3487 -0.6618
 5299SOL    HW127530   4.631   3.131   8.974  0.6210  1.1795  1.0496
 5299SOL    HW227531   4.495   3.178   9.015 -2.4478 -1.2174  2.4967
 5300SOL     OW27532   2.402   0.488  10.793 -0.5609 -0.1648 -0.4064
 5300SOL    HW127533   2.488   0.458  10.824 -0.5503  0.6250  0.3098
 5300SOL    HW227534   2.352   0.468  10.872  0.6979 -0.2690  0.3671
 5301SOL     OW27535   0.398   2.332   7.320  0.2958 -0.0948 -0.6903
 5301SOL    HW127536   0.468   2.393   7.299 -0.0823  1.7476  3.4871
 5301SOL    HW227537   0.326   2.395   7.325  1.3171  0.9790  0.3308
 5302SOL     OW27538   2.463   3.140   1.879  0.0047  0.3667 -0.0038
 5302SOL    HW127539   2.514   3.122   1.958 -0.2740 -0.8443 -0.0980
 5302SOL    HW227540   2.491   3.229   1.859  0.1778  1.0598  3.3286
 5303SOL     OW27541   2.215   3.407   2.818  0.1959 -0.4129 -0.3857
 5303SOL    HW127542   2.253   3.380   2.901 -1.4035 -1.3975  0.0414
 5303SOL    HW227543   2.209   3.501   2.833 -2.2901 -1.0620  2.6071
 5304SOL     OW27544   3.478   1.134   9.076  0.6190  0.0816 -0.0725
 5304SOL    HW127545   3.572   1.152   9.071  0.6465 -0.0843 -0.1654
 5304SOL    HW227546   3.488   1.054   9.128 -0.7455  0.6204  1.0150
 5305SOL     OW27547   4.256   4.086   5.656 -0.4939  0.5647 -0.3483
 5305SOL    HW127548   4.190   4.154   5.646 -0.6568  0.3887 -0.4721
 5305SOL    HW227549   4.249   4.053   5.567 -0.7734  0.9041 -0.4549
 5306SOL     OW27550   4.169   3.095   9.888 -0.3366  0.3008  0.3042
 5306SOL    HW127551   4.129   3.043   9.957  1.3616 -1.5819 -0.0941
 5306SOL    HW227552   4.139   3.050   9.809  1.3242 -0.5585  0.1649
 5307SOL     OW27553   4.231   0.606   7.888 -1.2469 -0.0918  0.1467
 5307SOL    HW127554   4.191   0.691   7.867 -0.5769  0.3241  0.5627
 5307SOL    HW227555   4.247   0.625   7.980  1.1283  0.1895 -0.3186
 5308SOL     OW27556   3.461   0.678   2.412 -0.5574 -0.2236  0.0768
 5308SOL    HW127557   3.495   0.634   2.334  1.9007 -2.3744  2.3554
 5308SOL    HW227558   3.407   0.611   2.454 -0.0858 -2.9303 -3.6381
 5309SOL     OW27559   0.697   3.079   0.234  0.1065  0.2759  0.2500
 5309SOL    HW127560   0.713   2.995   0.277  1.8926  1.6382  2.2723
 5309SOL    HW227561   0.784   3.107   0.203 -0.5861  1.5461 -0.5596
 5310SOL     OW27562   2.400   2.603   5.904 -0.5916 -0.6062 -0.0851
 5310SOL    HW127563   2.395   2.675   5.840  1.9710 -2.1103 -1.9661
 5310SOL    HW227564   2.349   2.539   5.854  0.6819 -2.1292  0.5943
 5311SOL     OW27565   1.513   0.471  13.150  0.3218  0.1803 -0.4972
 5311SOL    HW127566   1.600   0.512  13.146  0.3451  0.3850  2.0493
 5311SOL    HW227567   1.451   0.538  13.179 -0.5023 -0.9672  0.3886
 5312SOL     OW27568   1.107   3.531   5.960 -0.5781  0.1091  0.9576
 5312SOL    HW127569   1.037   3.516   6.023 -0.0843  0.4200  1.5791
 5312SOL    HW227570   1.073   3.477   5.889  0.1125 -0.2293  0.8863
 5313SOL     OW27571   1.165   4.016   5.376 -0.2650  0.6553 -0.6003
 5313SOL    HW127572   1.076   3.989   5.396 -0.3568  0.1990 -1.6243
 5313SOL    HW227573   1.178   4.076   5.450 -0.8003  0.0268 -0.0055
 5314SOL     OW27574   3.211   4.095   1.521 -0.2865 -0.0470  0.2671
 5314SOL    HW127575   3.145   4.035   1.489 -1.2705  0.6820  0.9369
 5314SOL    HW227576   3.216   4.063   1.612 -0.4111  0.9090  0.6084
 5315SOL     OW27577   1.258   1.787  17.166  0.6574 -0.1356 -0.6016
 5315SOL    HW127578   1.204   1.716  17.200 -0.4620  1.0053 -0.0019
 5315SOL    HW227579   1.290   1.814  17.253 -1.8689 -1.2056  0.6700
 5316SOL     OW27580   1.206   1.295   1.737 -0.2637  0.1519 -0.4408
 5316SOL    HW127581   1.289   1.311   1.781 -2.1464  0.0462  3.1738
 5316SOL    HW227582   1.209   1.203   1.712  0.1503 -0.1716  0.8154
 5317SOL     OW27583   2.676   3.096  16.263 -0.2257  0.5954  0.0497
 5317SOL    HW127584   2.660   3.184  16.298 -1.1441  0.9182 -1.1649
 5317SOL    HW227585   2.608   3.043  16.304  0.0872  1.3934  1.6054
 5318SOL     OW27586   0.435   2.242   7.572 -0.3724  0.8280  0.1273
 5318SOL    HW127587   0.401   2.259   7.484 -0.1212 -0.8438 -0.2935
 5318SOL    HW227588   0.355   2.215   7.617  0.6394 -0.3987  1.1950
 5319SOL     OW27589   2.133   1.801   2.996  0.6285 -0.6556  0.6696
 5319SOL    HW127590   2.090   1.820   3.080 -1.5882  0.8369 -0.8133
 5319SOL    HW227591   2.174   1.718   3.022  0.5678  0.0729  3.0740
 5320SOL     OW27592   3.233   0.022   0.399  0.3266 -0.9279  0.0393
 5320SOL    HW127593   3.319   0.055   0.423  0.5371 -1.1981 -0.3529
 5320SOL    HW227594   3.169   0.088   0.429 -0.3910 -0.7336 -1.9170
 5321SOL     OW27595   3.012   3.429   3.542  0.7497  0.4523  0.3691
 5321SOL    HW127596   3.093   3.418   3.493  0.9289 -1.2828  1.0328
 5321SOL    HW227597   2.982   3.340   3.560  0.9968 -0.2633 -2.7455
 5322SOL     OW27598   1.797   1.063   2.855 -0.0942  0.8765  0.5295
 5322SOL    HW127599   1.783   0.968   2.855 -0.6185  0.9687 -0.9530
 5322SOL    HW227600   1.825   1.081   2.945 -2.3714  0.6326  1.2631
 5323SOL     OW27601   0.288   1.461   3.359 -0.0634  0.0163  0.1310
 5323SOL    HW127602   0.277   1.382   3.307  0.3519  1.8894 -2.8134
 5323SOL    HW227603   0.199   1.496   3.374 -0.3029 -1.4922  2.3132
 5324SOL     OW27604   1.707   1.309  15.019  0.1739  0.0410 -0.1397
 5324SOL    HW127605   1.634   1.268  14.972 -0.2124 -0.4470  0.8965
 5324SOL    HW227606   1.687   1.285  15.109 -0.7040  1.8610  0.1527
 5325SOL     OW27607   0.750   4.202   3.549 -0.4498 -0.1145  0.2931
 5325SOL    HW127608   0.693   4.144   3.499  0.4937 -0.7467 -0.0528
 5325SOL    HW227609   0.782   4.153   3.625 -2.8190 -1.6924  0.2820
 5326SOL     OW27610   2.589   4.441   5.674 -0.0378 -0.2386  0.1310
 5326SOL    HW127611   2.584   4.368   5.613  2.1783  0.1816 -0.5624
 5326SOL    HW227612   2.623   4.396   5.752  0.9526  0.3584  0.0548
 5327SOL     OW27613   0.820   0.721   3.426  0.2345 -0.5243  0.3468
 5327SOL    HW127614   0.823   0.798   3.369 -1.1929 -0.4958  0.2988
 5327SOL    HW227615   0.791   0.747   3.514 -2.6967  1.3909 -1.1695
 5328SOL     OW27616   2.174   4.547   3.048  0.2453 -0.3023  0.0094
 5328SOL    HW127617   2.189   4.455   3.068  2.3127  0.0165 -0.0912
 5328SOL    HW227618   2.152   4.573   3.138 -1.6052 -0.1733 -0.4705
 5329SOL     OW27619   3.799   2.294   3.770 -0.0670 -0.6672 -0.0986
 5329SOL    HW127620   3.841   2.210   3.789  2.0091  0.7305  1.5156
 5329SOL    HW227621   3.833   2.309   3.682  1.5218 -4.0794 -0.0937
 5330SOL     OW27622   4.332   4.010   3.971 -0.1164 -0.1782 -0.3148
 5330SOL    HW127623   4.386   3.959   4.031 -0.5558  0.1825  0.3942
 5330SOL    HW227624   4.249   4.032   4.014 -0.1811 -2.4074  0.7199
 5331SOL     OW27625   1.456   3.122   5.353 -0.2169  0.0976 -0.5261
 5331SOL    HW127626   1.419   3.207   5.376  2.5123  0.8286  1.0514
 5331SOL    HW227627   1.400   3.107   5.277 -0.3751  1.6066 -0.7061
 5332SOL     OW27628   0.825   0.152   8.797 -0.1572  0.2101  0.1645
 5332SOL    HW127629   0.868   0.180   8.878  1.9660  0.0278 -0.8969
 5332SOL    HW227630   0.880   0.075   8.779 -1.1499 -0.3940 -0.2999
 5333SOL     OW27631   2.584   1.353  14.577 -0.2168 -0.3949  0.1113
 5333SOL    HW127632   2.623   1.439  14.593 -0.3251 -0.6324  1.6069
 5333SOL    HW227633   2.558   1.368  14.486 -1.7425 -1.3484  0.3776
 5334SOL     OW27634   0.068   2.524   2.360 -0.8656 -0.5505  0.5501
 5334SOL    HW127635   4.740   2.492   2.418  0.7903 -0.8415  2.3779
 5334SOL    HW227636   0.054   2.469   2.284 -0.4638 -0.6867  0.5773
 5335SOL     OW27637   4.188   0.719   7.350 -0.1530  0.3755  0.2879
 5335SOL    HW127638   4.108   0.757   7.387  0.0260  0.2527  0.8003
 5335SOL    HW227639   4.162   0.721   7.258  0.5024  0.5554  0.1022
 5336SOL     OW27640   1.804   4.111   7.546  0.0863  0.0883  0.2117
 5336SOL    HW127641   1.714   4.089   7.526  1.4462 -1.9468 -3.5743
 5336SOL    HW227642   1.818   4.185   7.486  0.3001  0.3309  0.5588
 5337SOL     OW27643   1.656   4.570   1.680 -0.7019 -0.1392 -0.7780
 5337SOL    HW127644   1.672   4.499   1.742 -2.2132  0.1062 -0.1162
 5337SOL    HW227645   1.744   4.590   1.647 -0.9129  1.0446 -0.6280
 5338SOL     OW27646   0.415   3.353  13.315 -0.5984 -0.2409  0.0689
 5338SOL    HW127647   0.475   3.334  13.386  1.6042  0.1556 -1.6925
 5338SOL    HW227648   0.484   3.347  13.249  0.4616 -2.2628  1.3717
 5339SOL     OW27649   4.161   4.256  15.135  0.0503 -0.5347  0.3013
 5339SOL    HW127650   4.169   4.186  15.200  0.7604  0.3831  1.1973
 5339SOL    HW227651   4.067   4.259  15.121 -0.0011 -0.0565  0.7635
 5340SOL     OW27652   1.172   1.559   3.379 -0.0781  0.0980  0.2051
 5340SOL    HW127653   1.109   1.547   3.450 -0.2864  2.4366  0.4292
 5340SOL    HW227654   1.165   1.654   3.367  1.7157  0.0874 -0.9690
 5341SOL     OW27655   1.160   4.227   9.016  0.4804 -0.0460  0.2840
 5341SOL    HW127656   1.087   4.289   9.018  0.2811 -0.3109  1.0361
 5341SOL    HW227657   1.122   4.174   9.086  1.5540 -0.5605  0.4751
 5342SOL     OW27658   1.945   4.698   8.546 -0.2948 -0.4196 -0.4196
 5342SOL    HW127659   1.929   4.659   8.460 -3.1169 -1.9485  0.8088
 5342SOL    HW227660   1.915   4.631   8.608 -0.4502  2.0116  2.1388
 5343SOL     OW27661   1.783   2.111  13.837 -0.0729 -0.1048 -0.1800
 5343SOL    HW127662   1.840   2.077  13.907 -0.8918 -0.6105  0.2370
 5343SOL    HW227663   1.717   2.156  13.888 -0.7142 -1.5012  0.2245
 5344SOL     OW27664   1.710   1.851   3.072 -0.4173  0.9791  0.1637
 5344SOL    HW127665   1.765   1.902   3.013 -0.2876 -2.5095 -2.7438
 5344SOL    HW227666   1.627   1.898   3.080  0.5282  2.5675  0.5706
 5345SOL     OW27667   0.829   2.138  17.311 -0.4551  0.2270  0.3459
 5345SOL    HW127668   0.776   2.102  17.241 -1.5629  0.8696  0.8484
 5345SOL    HW227669   0.853   2.055  17.351  1.8229 -0.4120 -2.4213
 5346SOL     OW27670   1.670   0.138   0.553 -0.2046  0.1982  1.0748
 5346SOL    HW127671   1.737   0.118   0.618  1.6080  1.3410 -0.4492
 5346SOL    HW227672   1.642   0.047   0.543  3.6658 -0.8098 -0.2518
 5347SOL     OW27673   0.558   2.714   4.722  0.8002 -0.1773 -0.1158
 5347SOL    HW127674   0.603   2.747   4.800 -1.5690 -0.3613  1.3083
 5347SOL    HW227675   0.531   2.629   4.755  2.9980 -0.0561  1.9445
 5348SOL     OW27676   2.274   1.289  11.223 -0.2567 -0.1278 -0.7629
 5348SOL    HW127677   2.239   1.345  11.154  0.3316 -1.8923 -2.4925
 5348SOL    HW227678   2.250   1.338  11.302  1.2337  0.5226 -0.7232
 5349SOL     OW27679   3.420   1.649   1.911  0.1656 -0.1604  0.3198
 5349SOL    HW127680   3.426   1.590   1.835  0.1619 -0.9722  0.9495
 5349SOL    HW227681   3.359   1.599   1.965 -0.1063  0.2438  0.3818
 5350SOL     OW27682   2.046   2.151   5.104 -0.4997  0.0014  0.6289
 5350SOL    HW127683   1.973   2.126   5.048 -0.7468  0.5547  0.7005
 5350SOL    HW227684   2.065   2.076   5.160 -0.0143  0.2553  0.8102
 5351SOL     OW27685   1.149   0.783   4.643  0.3449  0.3276 -0.2008
 5351SOL    HW127686   1.215   0.773   4.712 -1.4042 -4.1313  0.8150
 5351SOL    HW227687   1.204   0.762   4.568  0.3877 -1.9432  0.4765
 5352SOL     OW27688   4.516   0.669  13.659 -0.4660 -0.1127 -0.2691
 5352SOL    HW127689   4.438   0.639  13.614  0.5593 -1.6183 -1.0533
 5352SOL    HW227690   4.534   0.587  13.705  2.7050 -0.2139 -1.6293
 5353SOL     OW27691   1.037   2.491   3.068  0.2929 -0.2018 -0.0707
 5353SOL    HW127692   1.053   2.585   3.081  0.6942 -0.0973 -1.2893
 5353SOL    HW227693   1.001   2.495   2.979 -0.1633  0.6304  0.1514
 5354SOL     OW27694   2.943   0.566   3.548 -0.1446 -0.3882 -0.6812
 5354SOL    HW127695   2.967   0.483   3.506 -1.4891 -1.5641  0.8747
 5354SOL    HW227696   2.980   0.629   3.487  0.4263  0.3457  0.4133
 5355SOL     OW27697   3.704   0.504   6.844 -0.1503  0.0490  0.2524
 5355SOL    HW127698   3.778   0.447   6.865 -0.0708  0.1489  0.2432
 5355SOL    HW227699   3.725   0.536   6.756  1.2616 -0.2687  0.4727
 5356SOL     OW27700   0.453   1.595   0.486  0.3825  0.4442  0.1769
 5356SOL    HW127701   0.497   1.680   0.483  0.7495  0.1670 -2.5127
 5356SOL    HW227702   0.370   1.622   0.447 -0.2223 -1.3381  0.2147
 5357SOL     OW27703   1.859   3.395   8.447  0.8285 -0.2340 -0.1524
 5357SOL    HW127704   1.773   3.435   8.432  1.2150  1.0721  1.1263
 5357SOL    HW227705   1.911   3.474   8.459  1.9004 -0.9738  0.0177
 5358SOL     OW27706   0.532   2.395  14.733 -0.0667  0.2941  0.2407
 5358SOL    HW127707   0.566   2.335  14.800 -2.8517 -3.8087 -1.9765
 5358SOL    HW227708   0.447   2.350  14.731 -1.4389  2.9292 -1.2005
 5359SOL     OW27709   0.312   4.611   3.660  0.2175  0.7678 -0.0512
 5359SOL    HW127710   0.368   4.640   3.588 -0.4498 -0.4009 -1.0490
 5359SOL    HW227711   0.353   4.531   3.692  0.0743 -0.1022 -2.0520
 5360SOL     OW27712   0.617   1.291   2.552  0.0709  0.2108  0.5310
 5360SOL    HW127713   0.653   1.363   2.501  3.3315 -0.2472  2.1697
 5360SOL    HW227714   0.693   1.233   2.547  0.4127  0.7709 -0.7496
 5361SOL     OW27715   3.465   3.228   6.219  0.0534  0.4184 -0.7064
 5361SOL    HW127716   3.377   3.194   6.234 -0.1006  0.5700 -1.2372
 5361SOL    HW227717   3.450   3.287   6.145 -1.1939 -1.8438 -2.2626
 5362SOL     OW27718   1.796   1.412   9.998 -0.0909 -0.0593  0.0904
 5362SOL    HW127719   1.732   1.355  10.041  0.5891 -0.4221  0.6372
 5362SOL    HW227720   1.754   1.452   9.923  0.8675 -0.0783 -0.4498
 5363SOL     OW27721   3.349   2.601   8.514 -0.0861 -0.0488 -0.0799
 5363SOL    HW127722   3.258   2.573   8.526 -0.1732  0.1345 -0.3259
 5363SOL    HW227723   3.393   2.568   8.592 -0.9402 -1.3919 -0.1595
 5364SOL     OW27724   2.433   0.130   7.021 -0.1430 -0.3276 -0.6049
 5364SOL    HW127725   2.347   0.092   7.035  0.8506 -1.8323  1.3962
 5364SOL    HW227726   2.477   0.093   7.097  0.7886  0.6575 -0.6600
 5365SOL     OW27727   1.878   3.195   0.468  0.0573 -0.3472  0.0859
 5365SOL    HW127728   1.825   3.229   0.540  2.3765  1.5059  0.9177
 5365SOL    HW227729   1.966   3.201   0.504  0.2187  0.3135 -0.4243
 5366SOL     OW27730   0.494   1.261   1.911  0.1461  0.3777 -0.2067
 5366SOL    HW127731   0.568   1.293   1.859  0.3255 -0.8606 -0.7116
 5366SOL    HW227732   0.421   1.274   1.851 -1.6594 -1.7309  1.5587
 5367SOL     OW27733   1.805   0.181   7.360  0.1529  0.5224 -0.2458
 5367SOL    HW127734   1.763   0.168   7.274  0.2201  0.2938 -0.2446
 5367SOL    HW227735   1.886   0.130   7.352  1.0367  1.9378 -0.2475
 5368SOL     OW27736   3.206   2.991   8.928 -0.2192 -0.0197  0.3130
 5368SOL    HW127737   3.263   3.017   9.000 -1.5049 -0.1097  1.3719
 5368SOL    HW227738   3.162   2.909   8.949 -0.1409  0.0333  0.6825
 5369SOL     OW27739   2.391   2.372  16.131  0.0910 -0.1249  0.5757
 5369SOL    HW127740   2.471   2.410  16.094  0.4035  1.2431  2.6582
 5369SOL    HW227741   2.325   2.390  16.064 -0.2710 -0.1539  0.9257
 5370SOL     OW27742   2.791   3.258  12.044 -0.3754 -0.1022 -0.3026
 5370SOL    HW127743   2.752   3.326  12.099  1.7810  0.0563  1.0013
 5370SOL    HW227744   2.862   3.231  12.101 -0.6681  0.0868  0.1558
 5371SOL     OW27745   0.909   0.636  15.776  0.3864  0.2016  0.2800
 5371SOL    HW127746   0.902   0.731  15.763 -0.8104 -0.0074 -0.5752
 5371SOL    HW227747   0.898   0.647  15.870  0.5654  0.9734  0.2110
 5372SOL     OW27748   0.253   4.467   4.719  0.3827  1.0164  0.0528
 5372SOL    HW127749   0.184   4.429   4.665 -1.7906  3.4744  1.0503
 5372SOL    HW227750   0.277   4.388   4.767  0.0044  0.4028 -0.7727
 5373SOL     OW27751   3.478   4.356  17.495 -0.1568 -0.6372 -0.2517
 5373SOL    HW127752   3.513   4.280  17.448  1.0673 -0.6168  0.6308
 5373SOL    HW227753   3.527   4.422  17.446  1.0818 -1.9247 -0.7330
 5374SOL     OW27754   1.109   3.990   3.189 -0.3033 -0.0924 -0.1999
 5374SOL    HW127755   1.137   4.080   3.207 -2.5991  0.3617  1.0798
 5374SOL    HW227756   1.017   3.987   3.214  0.0585 -3.2987  0.7304
 5375SOL     OW27757   3.021   0.518   8.305 -0.8518  0.2177  0.0649
 5375SOL    HW127758   2.927   0.529   8.298 -0.8594 -0.7219 -1.4965
 5375SOL    HW227759   3.043   0.499   8.213  0.0557  2.4070 -0.1717
 5376SOL     OW27760   1.959   2.413   4.203  0.1849  0.4518 -0.3019
 5376SOL    HW127761   1.942   2.326   4.239  1.5116 -0.4546 -1.8702
 5376SOL    HW227762   1.899   2.425   4.129 -0.3773  0.2548  0.1172
 5377SOL     OW27763   1.358   3.202  14.029  0.4978  0.1297 -0.4807
 5377SOL    HW127764   1.446   3.190  13.994  0.4732 -0.3959 -0.3580
 5377SOL    HW227765   1.359   3.290  14.068  2.6425  0.6813 -1.7784
 5378SOL     OW27766   3.944   1.820   2.487  0.1067 -0.3174  0.6648
 5378SOL    HW127767   3.972   1.744   2.538  1.8865 -0.2953 -0.2871
 5378SOL    HW227768   4.025   1.870   2.501  0.7696 -1.5021  1.1011
 5379SOL     OW27769   0.876   2.997  17.081 -0.5872  0.4794 -0.2900
 5379SOL    HW127770   0.920   2.913  17.070  0.9103  1.3792 -1.1629
 5379SOL    HW227771   0.863   3.021  16.989 -1.5559  2.0416  0.2287
 5380SOL     OW27772   3.469   2.083   3.421  0.0240  0.6851  0.1412
 5380SOL    HW127773   3.476   1.990   3.441  0.4618  0.8624  0.7927
 5380SOL    HW227774   3.550   2.107   3.375 -0.0386 -0.3237 -0.4862
 5381SOL     OW27775   4.573   1.984  12.233  0.5750 -0.0134  0.4544
 5381SOL    HW127776   4.663   1.983  12.265  0.9096  1.2160 -0.4149
 5381SOL    HW227777   4.532   1.918  12.288 -3.2845  1.4446 -0.6381
 5382SOL     OW27778   1.434   0.237   1.191 -0.3591 -0.0796  0.0334
 5382SOL    HW127779   1.441   0.314   1.136 -0.8899  1.8225  2.6403
 5382SOL    HW227780   1.342   0.215   1.178 -0.9600  2.5330  0.0257
 5383SOL     OW27781   1.718   2.940  13.578 -0.6106  0.4491 -0.0012
 5383SOL    HW127782   1.700   2.887  13.501  1.1878  0.3137 -0.3332
 5383SOL    HW227783   1.806   2.969  13.555 -0.9168  1.2602 -0.1490
 5384SOL     OW27784   0.646   1.411  10.098 -0.2177  0.2473  0.1925
 5384SOL    HW127785   0.739   1.422  10.080  0.2302 -0.2219  2.3438
 5384SOL    HW227786   0.610   1.413  10.009 -0.4950 -0.3615  0.2960
 5385SOL     OW27787   0.468   4.634  11.881  0.0048 -0.2376 -0.1515
 5385SOL    HW127788   0.475   4.606  11.790  0.3170  0.5935 -0.3838
 5385SOL    HW227789   0.445   4.726  11.866 -0.1134  0.4662  4.2657
 5386SOL     OW27790   0.168   4.378   4.421 -0.1790  0.0154 -0.2366
 5386SOL    HW127791   0.142   4.465   4.391  0.2613  1.1056  2.5155
 5386SOL    HW227792   0.255   4.388   4.384  0.6398 -0.8157  1.4409
 5387SOL     OW27793   2.920   0.097   7.886 -0.0148 -0.5635  0.2512
 5387SOL    HW127794   2.980   0.171   7.877 -3.0662  1.9757  0.9379
 5387SOL    HW227795   2.859   0.132   7.950  0.4402 -1.0427  0.9445
 5388SOL     OW27796   2.203   2.357   9.109 -0.1640  0.1294 -0.7509
 5388SOL    HW127797   2.150   2.309   9.045 -0.6320  0.4919 -0.6353
 5388SOL    HW227798   2.294   2.342   9.081 -0.6008 -2.8893 -0.5462
 5389SOL     OW27799   4.232   0.614   8.176  0.4108  0.0206 -0.2597
 5389SOL    HW127800   4.193   0.527   8.181  0.6558 -0.0520  0.3264
 5389SOL    HW227801   4.178   0.662   8.240  0.1147  0.3565 -0.7623
 5390SOL     OW27802   0.678   1.508   7.100  0.1433  0.3833 -0.5691
 5390SOL    HW127803   0.637   1.455   7.168  0.6056  0.7940  0.0342
 5390SOL    HW227804   0.769   1.520   7.130  0.3965  1.2613 -1.6761
 5391SOL     OW27805   3.500   3.476   3.346  0.1762 -0.4084  0.0851
 5391SOL    HW127806   3.595   3.468   3.353  0.2317 -0.0833 -0.3301
 5391SOL    HW227807   3.461   3.414   3.408 -1.7103  1.8654  1.1643
 5392SOL     OW27808   2.139   2.689   5.639 -0.0600 -0.4092 -0.1193
 5392SOL    HW127809   2.131   2.595   5.626  0.1631 -0.5103  0.4218
 5392SOL    HW227810   2.188   2.717   5.562  0.1096  0.5033  0.3085
 5393SOL     OW27811   0.958   4.179   4.483  0.2767 -0.6395  0.0478
 5393SOL    HW127812   0.863   4.194   4.491  0.3054 -0.5983  0.3083
 5393SOL    HW227813   0.967   4.133   4.400  0.2173 -1.1723  0.3393
 5394SOL     OW27814   4.265   0.357   3.661  0.8346  0.0765  0.7930
 5394SOL    HW127815   4.355   0.327   3.678  0.1790 -1.3871  1.6599
 5394SOL    HW227816   4.270   0.379   3.568  1.5089  0.1301  0.8371
 5395SOL     OW27817   1.363   2.393   5.548 -0.2689  0.4332 -0.1234
 5395SOL    HW127818   1.412   2.324   5.593  0.7009  0.2840 -1.3854
 5395SOL    HW227819   1.328   2.447   5.618  0.5778 -1.3283  1.6385
 5396SOL     OW27820   1.075   3.997  12.908 -0.1837 -0.0778  0.0576
 5396SOL    HW127821   1.119   3.916  12.881 -0.4198 -1.1452  2.8776
 5396SOL    HW227822   1.151   4.055  12.911 -0.3675  0.1558  0.1941
 5397SOL     OW27823   4.431   4.723   5.693 -0.5414  0.0881  0.1514
 5397SOL    HW127824   4.478   4.697   5.773 -0.5373  1.3664  0.5611
 5397SOL    HW227825   4.368   0.039   5.735 -1.3409  0.1190 -1.0989
 5398SOL     OW27826   0.812   1.143   4.766  0.3753  0.7624 -0.3200
 5398SOL    HW127827   0.885   1.102   4.721 -2.2929 -0.2948 -3.6476
 5398SOL    HW227828   0.798   1.220   4.711 -2.0916  1.7907  1.7507
 5399SOL     OW27829   1.616   2.943   4.999  0.2380 -0.2969  0.0921
 5399SOL    HW127830   1.642   3.000   5.072  1.8151  0.6583 -1.2302
 5399SOL    HW227831   1.700   2.939   4.953 -0.0906  0.8897 -0.6155
 5400SOL     OW27832   2.317   2.253  12.462 -0.0246 -0.1648 -0.5675
 5400SOL    HW127833   2.288   2.277  12.374  1.2544  1.4789 -0.5605
 5400SOL    HW227834   2.336   2.338  12.502 -1.7999  0.3950 -0.9277
 5401SOL     OW27835   1.065   3.203   3.933 -0.1013  0.1879 -0.3647
 5401SOL    HW127836   1.005   3.264   3.976  1.4326  1.2439  0.2550
 5401SOL    HW227837   1.063   3.239   3.845  1.3462 -0.8643 -0.8154
 5402SOL     OW27838   0.972   0.468   4.843  0.3071  0.1869 -0.1273
 5402SOL    HW127839   0.996   0.433   4.757  0.1907  1.2994 -0.6119
 5402SOL    HW227840   0.896   0.524   4.825  1.5682  1.4734 -1.4440
 5403SOL     OW27841   2.205   0.785   8.613  0.1661 -0.1482 -0.3077
 5403SOL    HW127842   2.134   0.760   8.673 -0.3348  0.7855 -0.5185
 5403SOL    HW227843   2.202   0.711   8.552  0.5116 -0.3609 -0.0634
 5404SOL     OW27844   1.115   3.419   5.250  0.4699 -0.1755 -0.3886
 5404SOL    HW127845   1.039   3.361   5.256 -0.8279  1.2089 -3.5079
 5404SOL    HW227846   1.078   3.486   5.192 -0.1052  0.0837  0.2756
 5405SOL     OW27847   2.435   4.365   9.182 -1.0476 -0.3287 -0.0968
 5405SOL    HW127848   2.418   4.342   9.091  0.1414 -0.2054 -0.3527
 5405SOL    HW227849   2.496   4.438   9.173 -1.5452 -0.0311 -1.1207
 5406SOL     OW27850   4.569   3.550  15.249  0.4251  0.2213 -0.2323
 5406SOL    HW127851   4.656   3.589  15.245  0.8968 -0.5731  2.2556
 5406SOL    HW227852   4.578   3.457  15.267 -1.1285  0.0860 -0.1822
 5407SOL     OW27853   3.246   2.015   1.975 -0.2714 -0.5116  0.0699
 5407SOL    HW127854   3.191   2.057   1.908  0.9145  1.6055  0.4234
 5407SOL    HW227855   3.244   2.076   2.049 -1.1707 -1.2089  0.6113
 5408SOL     OW27856   1.650   3.527   3.280 -0.0427  0.5607  0.2605
 5408SOL    HW127857   1.582   3.553   3.342  0.4941 -0.9246  1.4527
 5408SOL    HW227858   1.714   3.480   3.333 -0.9968 -1.4468 -0.3796
 5409SOL     OW27859   3.891   1.369   6.952  0.0084  0.2332  0.4085
 5409SOL    HW127860   3.830   1.328   7.013  0.1664 -1.5812 -0.6265
 5409SOL    HW227861   3.965   1.390   7.009 -0.1759 -2.5267  1.6591
 5410SOL     OW27862   2.039   2.177  11.962 -0.4231  0.4313 -0.2480
 5410SOL    HW127863   1.947   2.153  11.951 -0.4559  0.6423 -0.4326
 5410SOL    HW227864   2.071   2.113  12.026  0.8286  0.1836 -1.1109
 5411SOL     OW27865   1.434   1.523   5.775  0.0214  0.0077  0.0600
 5411SOL    HW127866   1.416   1.453   5.713 -0.5888  0.1505  0.0798
 5411SOL    HW227867   1.479   1.478   5.847  0.3880 -0.4208 -0.4394
 5412SOL     OW27868   4.522   0.119   4.662 -0.6380 -0.8173  0.6940
 5412SOL    HW127869   4.465   0.046   4.638 -0.7544 -0.5012 -0.0172
 5412SOL    HW227870   4.531   0.096   4.754  0.5529  0.1246  0.8137
 5413SOL     OW27871   1.276   4.517   2.087  0.9744 -0.6851  0.0172
 5413SOL    HW127872   1.318   4.603   2.084  0.1713 -0.3179 -0.7583
 5413SOL    HW227873   1.185   4.542   2.072  0.4131 -2.4505  0.5347
 5414SOL     OW27874   3.224   3.879   3.112  0.0832 -0.2667  0.6890
 5414SOL    HW127875   3.292   3.817   3.136  0.8907  1.3469  2.5821
 5414SOL    HW227876   3.221   3.943   3.183  0.5239 -0.3828  0.8114
 5415SOL     OW27877   0.945   0.589   0.855 -0.0085 -0.2234  0.6019
 5415SOL    HW127878   0.935   0.622   0.766 -1.8472  1.7766  1.5577
 5415SOL    HW227879   0.894   0.508   0.849  0.9343 -1.0606  3.7725
 5416SOL     OW27880   2.309   4.246   6.881  0.0784  0.1904  0.0147
 5416SOL    HW127881   2.297   4.310   6.950  0.2957 -0.7806  0.9611
 5416SOL    HW227882   2.315   4.301   6.803 -1.0328  0.4170  0.0859
 5417SOL     OW27883   3.110   2.653   9.559 -0.6004  0.2433  0.1712
 5417SOL    HW127884   3.022   2.668   9.525 -1.0072 -1.3569  0.5473
 5417SOL    HW227885   3.163   2.730   9.536 -0.9297  0.3003 -0.4038
 5418SOL     OW27886   0.916   0.880  17.123 -0.2389  0.0169 -0.1358
 5418SOL    HW127887   0.881   0.791  17.115 -0.3127 -0.0825  1.2244
 5418SOL    HW227888   0.863   0.935  17.066  0.3043  1.1955  0.4935
 5419SOL     OW27889   4.600   4.620   8.508  0.5722  0.1565 -0.4831
 5419SOL    HW127890   4.654   4.541   8.509 -0.4667 -0.5290  1.6951
 5419SOL    HW227891   4.641   4.678   8.573  1.3511  1.2378 -1.9271
 5420SOL     OW27892   0.949   4.393   5.376  0.5640 -0.1220  0.0642
 5420SOL    HW127893   0.895   4.346   5.312  1.5406 -2.4440  0.9775
 5420SOL    HW227894   0.876   4.423   5.430  0.3002 -0.9456  0.1700
 5421SOL     OW27895   2.392   2.319   4.546 -0.7564  0.0037 -0.0014
 5421SOL    HW127896   2.455   2.280   4.486 -0.0859 -0.1307  0.7854
 5421SOL    HW227897   2.446   2.349   4.619 -0.3182  2.5228 -1.3381
 5422SOL     OW27898   0.916   4.235  10.951  0.0100  0.1669  0.3782
 5422SOL    HW127899   0.956   4.199  10.872  0.3977  1.0597  0.1636
 5422SOL    HW227900   0.851   4.168  10.970  0.2136 -0.1394  0.0124
 5423SOL     OW27901   1.153   3.325   8.061 -0.3698  0.0147  0.5572
 5423SOL    HW127902   1.222   3.391   8.050  0.9846 -1.8550 -2.1613
 5423SOL    HW227903   1.107   3.357   8.138 -0.0647 -0.6773  1.0224
 5424SOL     OW27904   2.262   4.183  10.759  0.8862 -0.0568 -0.1442
 5424SOL    HW127905   2.214   4.122  10.816 -0.2750  1.9950  1.0686
 5424SOL    HW227906   2.331   4.214  10.818 -1.4019  2.1658  1.3892
 5425SOL     OW27907   4.170   2.173  16.309  0.4008  0.2046  0.1780
 5425SOL    HW127908   4.208   2.248  16.263 -0.1071  0.8007  0.7246
 5425SOL    HW227909   4.119   2.216  16.378  0.4102 -1.7197  1.3881
 5426SOL     OW27910   0.838   3.981   3.284  0.4545  0.4435  0.2549
 5426SOL    HW127911   0.753   4.023   3.272 -0.5066 -1.1524  1.5478
 5426SOL    HW227912   0.828   3.928   3.362 -1.6911  0.5347  0.0493
 5427SOL     OW27913   4.132   1.625   1.751  0.5093 -0.0625  0.1545
 5427SOL    HW127914   4.060   1.685   1.731  0.2715 -0.3786  0.0677
 5427SOL    HW227915   4.094   1.542   1.779 -0.2087  0.4106  0.5688
 5428SOL     OW27916   0.585   0.731   2.515  0.1237  0.4916  0.0882
 5428SOL    HW127917   0.670   0.717   2.557 -0.1781  2.6291  1.4255
 5428SOL    HW227918   0.543   0.648   2.537  1.4495 -0.4567 -0.9901
 5429SOL     OW27919   3.729   3.110   5.894  0.3294  0.3659  0.8543
 5429SOL    HW127920   3.678   3.046   5.943 -0.6883  1.1440  0.8053
 5429SOL    HW227921   3.665   3.142   5.831 -0.0824 -3.0290 -0.3976
 5430SOL     OW27922   1.475   3.052   1.024 -0.5391 -0.4412  0.2464
 5430SOL    HW127923   1.411   3.100   1.078 -0.9864 -0.4329 -0.2855
 5430SOL    HW227924   1.425   3.015   0.951  1.1853 -1.7752 -0.2467
 5431SOL     OW27925   2.443   4.680   3.819 -0.9393  0.1222 -0.1206
 5431SOL    HW127926   2.384   4.667   3.893  2.5404  1.1562  2.8633
 5431SOL    HW227927   2.437   4.594   3.778  1.7099  0.9638 -2.3039
 5432SOL     OW27928   0.823   1.820  12.015 -0.1811  0.3176 -0.0328
 5432SOL    HW127929   0.745   1.808  11.962 -0.8951  1.0484  0.8595
 5432SOL    HW227930   0.816   1.915  12.027  1.7066  0.4134  0.3593
 5433SOL     OW27931   1.358   3.745   9.047 -0.3499 -0.5369 -0.4396
 5433SOL    HW127932   1.263   3.744   9.032 -0.6932  2.4874  1.4688
 5433SOL    HW227933   1.368   3.840   9.039  1.9599 -0.8060 -0.6880
 5434SOL     OW27934   0.929   2.575   6.545 -0.6229 -0.5142 -0.5645
 5434SOL    HW127935   0.890   2.539   6.625 -0.8336  0.3975 -0.2517
 5434SOL    HW227936   0.969   2.653   6.585 -1.0149 -0.4581 -0.2905
 5435SOL     OW27937   4.251   3.818   4.439 -0.3212 -0.0218 -0.3457
 5435SOL    HW127938   4.287   3.750   4.383 -1.3602 -2.1404  1.5803
 5435SOL    HW227939   4.317   3.887   4.427  0.6273 -1.0161 -0.7875
 5436SOL     OW27940   2.936   0.983   7.688  0.1645  0.1748 -0.3111
 5436SOL    HW127941   2.854   0.976   7.639 -0.6513 -1.1511  1.2401
 5436SOL    HW227942   2.957   1.075   7.673 -0.0632  0.1489 -0.7951
 5437SOL     OW27943   3.048   3.803   7.098 -0.2676 -0.4415 -0.2575
 5437SOL    HW127944   2.996   3.722   7.101  2.9034 -2.4436  1.7974
 5437SOL    HW227945   2.979   3.866   7.079  0.8517  1.1201  0.9369
 5438SOL     OW27946   0.910   4.213  13.548  0.3771  0.5460 -0.3241
 5438SOL    HW127947   0.829   4.163  13.546  1.5568 -1.2728 -2.6475
 5438SOL    HW227948   0.966   4.141  13.519  0.0498 -0.3971  1.4048
 5439SOL     OW27949   0.164   0.042  15.932  0.3428 -0.1933 -0.2103
 5439SOL    HW127950   0.235   0.052  15.996  0.9235  0.6735 -0.9849
 5439SOL    HW227951   0.108   4.728  15.987  0.4501 -1.0669 -0.9658
 5440SOL     OW27952   2.879   0.976   4.123  0.2392 -0.0903 -0.5890
 5440SOL    HW127953   2.835   1.057   4.101 -0.3347 -0.4297 -0.6939
 5440SOL    HW227954   2.901   1.000   4.213  0.4450  1.0171 -0.9423
 5441SOL     OW27955   3.534   2.173  15.376 -0.2693  0.2815 -0.4196
 5441SOL    HW127956   3.459   2.137  15.422  0.3493 -1.4668 -0.7887
 5441SOL    HW227957   3.504   2.199  15.288  0.0488  0.0538 -0.5940
 5442SOL     OW27958   2.434   0.718  14.556 -0.5068  0.3491 -0.4998
 5442SOL    HW127959   2.348   0.713  14.598 -1.5409  0.7647 -2.5754
 5442SOL    HW227960   2.411   0.684  14.469 -0.8131  1.7836 -0.9813
 5443SOL     OW27961   1.066   2.107   7.457 -0.1356 -0.0689  0.8276
 5443SOL    HW127962   1.135   2.124   7.522 -0.4771  1.3041  0.8266
 5443SOL    HW227963   1.067   2.011   7.456 -0.3416 -0.0698  0.6808
 5444SOL     OW27964   2.306   0.759  10.704  0.1257  0.0833 -0.2288
 5444SOL    HW127965   2.391   0.775  10.661 -0.3120  0.3303 -1.0155
 5444SOL    HW227966   2.337   0.675  10.736  1.7831 -0.0622 -2.1472
 5445SOL     OW27967   0.079   4.084  14.820 -0.2668 -0.6042 -0.0746
 5445SOL    HW127968   4.724   4.078  14.815 -0.2508 -0.9971  0.2028
 5445SOL    HW227969   0.072   4.164  14.768 -0.6138 -0.7670 -0.2776
 5446SOL     OW27970   0.475   4.465   8.857  0.5444  0.0097 -0.5533
 5446SOL    HW127971   0.396   4.502   8.895  0.8007  1.1303 -1.1114
 5446SOL    HW227972   0.498   4.528   8.788  2.8197 -1.4542 -1.1523
 5447SOL     OW27973   1.193   3.270   7.424  0.3193 -0.5262  0.2207
 5447SOL    HW127974   1.123   3.205   7.429 -1.8893  1.7425 -1.3235
 5447SOL    HW227975   1.255   3.233   7.487 -1.6217 -0.2202  2.3038
 5448SOL     OW27976   2.591   2.734   8.343  0.0747 -0.0374 -0.1735
 5448SOL    HW127977   2.573   2.788   8.267 -0.6232 -1.7951 -1.2598
 5448SOL    HW227978   2.511   2.682   8.342 -0.4669  0.8091 -0.4010
 5449SOL     OW27979   3.846   4.385   4.356  0.1867 -0.4054  0.1787
 5449SOL    HW127980   3.927   4.420   4.393 -1.3307  1.3835  1.7967
 5449SOL    HW227981   3.848   4.440   4.278 -2.0905 -1.0091 -0.3184
 5450SOL     OW27982   0.800   1.250   2.856  0.4744 -0.1798 -0.9446
 5450SOL    HW127983   0.873   1.292   2.902  1.7436 -2.4145 -0.9120
 5450SOL    HW227984   0.847   1.172   2.826  3.7416  0.4833  2.4085
 5451SOL     OW27985   3.992   3.579   3.769 -0.0961 -0.3360  0.3273
 5451SOL    HW127986   3.979   3.501   3.714  1.9376  0.2274 -0.9375
 5451SOL    HW227987   3.941   3.649   3.728  0.8408 -0.2512 -0.6908
 5452SOL     OW27988   3.936   0.798   9.098  0.0295  0.0787  0.0607
 5452SOL    HW127989   4.015   0.743   9.099  0.8130  1.2345  1.0282
 5452SOL    HW227990   3.959   0.867   9.160  0.2343 -0.7135  0.8682
 5453SOL     OW27991   0.461   1.964  11.236  0.6696  0.0365 -0.0018
 5453SOL    HW127992   0.408   1.913  11.298 -0.9003 -1.4453 -2.5509
 5453SOL    HW227993   0.391   2.025  11.211 -0.3312 -1.2929 -0.4454
 5454SOL     OW27994   0.594   1.353   5.845  0.2675 -0.3845  0.0239
 5454SOL    HW127995   0.685   1.330   5.826  0.0274  0.5979 -2.3266
 5454SOL    HW227996   0.573   1.391   5.760  1.3442 -1.4769 -0.7248
 5455SOL     OW27997   1.864   4.175  10.575 -0.1487 -0.3627  0.6613
 5455SOL    HW127998   1.867   4.095  10.629 -0.1230 -0.1044  1.0444
 5455SOL    HW227999   1.768   4.177  10.571 -0.1374 -1.6759 -0.3884
 5456SOL     OW28000   3.202   1.017   8.422 -0.0191 -0.4909  0.0559
 5456SOL    HW128001   3.153   0.985   8.347 -2.2112  2.8695  0.0372
 5456SOL    HW228002   3.141   1.018   8.495  0.4378  2.9073  0.4000
 5457SOL     OW28003   2.709   4.275  12.935  0.3085  0.2765  0.1314
 5457SOL    HW128004   2.689   4.250  12.844 -1.9770  1.4770  0.3159
 5457SOL    HW228005   2.765   4.352  12.922 -0.4527  0.3379 -2.7955
 5458SOL     OW28006   2.824   3.337  16.265 -0.3143 -0.6920 -0.0619
 5458SOL    HW128007   2.892   3.402  16.282 -1.8200  1.3132 -1.6207
 5458SOL    HW228008   2.787   3.310  16.349  1.8960  0.0055  1.1280
 5459SOL     OW28009   2.706   0.434  10.819 -0.1939  0.3784 -0.1200
 5459SOL    HW128010   2.716   0.447  10.913  0.7685 -2.9120  0.2210
 5459SOL    HW228011   2.739   0.344  10.818  1.5992  1.0526 -0.2106
 5460SOL     OW28012   4.617   0.733  10.804 -0.0317  0.1108 -0.3439
 5460SOL    HW128013   4.609   0.792  10.730 -0.2183 -0.2472 -0.6094
 5460SOL    HW228014   4.642   0.651  10.761 -0.5828 -1.9211  3.1402
 5461SOL     OW28015   2.963   1.314   4.026  0.1651  0.1329  0.5351
 5461SOL    HW128016   2.985   1.259   3.950  0.8912 -0.0264  0.8684
 5461SOL    HW228017   2.883   1.275   4.062 -0.0673 -0.2209 -0.3375
 5462SOL     OW28018   2.635   3.642  12.713 -0.1696 -0.1282 -0.0202
 5462SOL    HW128019   2.656   3.656  12.621  0.4080  0.1587  0.1595
 5462SOL    HW228020   2.548   3.603  12.700  0.5144 -1.7998  0.3349
 5463SOL     OW28021   1.565   4.669  11.246 -0.4780  0.0877  0.1744
 5463SOL    HW128022   1.552   0.023  11.253  1.1643  0.1849  1.9272
 5463SOL    HW228023   1.545   4.654  11.154  0.2143 -0.3854  0.1026
 5464SOL     OW28024   4.558   3.013   7.848 -0.2110  0.0783  0.2580
 5464SOL    HW128025   4.536   2.952   7.919 -0.2910 -1.4331 -1.0687
 5464SOL    HW228026   4.595   2.949   7.787  1.3236  1.4177 -0.2138
 5465SOL     OW28027   2.258   1.208   5.844  0.3888 -1.0872 -0.4970
 5465SOL    HW128028   2.215   1.148   5.905  2.7060 -0.6288  1.6018
 5465SOL    HW228029   2.219   1.291   5.870  3.0858  0.3834 -1.1649
 5466SOL     OW28030   2.597   2.707  17.538 -0.0108  0.5499  0.3252
 5466SOL    HW128031   2.641   2.765  17.600  3.0405 -1.0854 -0.3327
 5466SOL    HW228032   2.619   2.754  17.458 -0.4573  0.0973 -0.0693
 5467SOL     OW28033   2.623   0.028   6.835  0.7704 -0.2044  0.1758
 5467SOL    HW128034   2.594   0.085   6.763 -1.5622  0.0055  1.2843
 5467SOL    HW228035   2.572   0.066   6.906 -2.0101 -0.3191 -1.7446
 5468SOL     OW28036   1.611   2.782   5.940  0.6124 -0.3969 -0.7488
 5468SOL    HW128037   1.586   2.752   5.853 -0.4687  1.7021 -1.1620
 5468SOL    HW228038   1.677   2.846   5.912  0.4961  0.3785  0.7442
 5469SOL     OW28039   3.642   2.321  16.803 -0.0626  0.1519 -0.2946
 5469SOL    HW128040   3.666   2.372  16.726  0.2476  1.4987  0.6839
 5469SOL    HW228041   3.687   2.369  16.873 -1.3756  0.5088  0.3244
 5470SOL     OW28042   2.032   3.161   8.187 -0.1508  0.6248 -0.0459
 5470SOL    HW128043   2.073   3.224   8.245  2.1893 -2.4251  1.6177
 5470SOL    HW228044   2.086   3.085   8.207 -0.2445  1.1100  2.0835
 5471SOL     OW28045   1.869   2.401  11.508 -0.5690  0.2017 -0.2370
 5471SOL    HW128046   1.933   2.370  11.572 -2.1527 -1.7129  0.4227
 5471SOL    HW228047   1.805   2.436  11.570  0.0399  2.1709 -0.7191
 5472SOL     OW28048   3.545   3.772   4.989  0.5466 -0.3606  0.0979
 5472SOL    HW128049   3.476   3.708   4.970  1.4406 -1.1676 -0.4466
 5472SOL    HW228050   3.496   3.831   5.047  0.2439  0.2728 -0.7966
 5473SOL     OW28051   1.468   1.863   2.762  0.7858  0.5154  0.5444
 5473SOL    HW128052   1.399   1.913   2.718 -0.8473 -1.2797  1.0529
 5473SOL    HW228053   1.489   1.917   2.838 -0.6148 -1.9041  2.6316
 5474SOL     OW28054   0.858   2.157   6.563 -0.3854  0.1685 -0.8437
 5474SOL    HW128055   0.786   2.213   6.592  0.0582  0.1976  0.1918
 5474SOL    HW228056   0.826   2.074   6.598 -1.1244  2.8193  4.8383
 5475SOL     OW28057   3.497   0.299  15.092  0.4086  0.1902 -0.4830
 5475SOL    HW128058   3.553   0.246  15.035  1.2697  2.8695 -2.0928
 5475SOL    HW228059   3.437   0.236  15.133 -0.9530  0.9687 -1.2838
 5476SOL     OW28060   1.376   1.883   8.219  0.5116 -0.3345  0.2384
 5476SOL    HW128061   1.364   1.793   8.250  0.7826 -0.8098 -1.0507
 5476SOL    HW228062   1.450   1.913   8.271 -0.0883 -0.3326  1.0975
 5477SOL     OW28063   3.534   2.909  12.181  0.1945 -0.1185  0.0158
 5477SOL    HW128064   3.466   2.974  12.202  1.2160  1.4318 -1.5047
 5477SOL    HW228065   3.517   2.837  12.243  0.2044  1.3810  1.7775
 5478SOL     OW28066   1.127   0.137   5.877 -0.8285 -0.0770  0.4191
 5478SOL    HW128067   1.063   0.201   5.845  0.6218  1.3824  0.4437
 5478SOL    HW228068   1.189   0.142   5.804 -1.3245 -0.4136 -0.0263
 5479SOL     OW28069   0.741   3.270   4.655 -0.2874  0.0966  1.0369
 5479SOL    HW128070   0.748   3.336   4.586 -1.8318 -0.7519  0.0637
 5479SOL    HW228071   0.688   3.204   4.610 -0.0024  0.2805  0.4434
 5480SOL     OW28072   1.721   4.651  15.431 -0.0173 -0.5729  0.2187
 5480SOL    HW128073   1.781   4.659  15.506  1.2526  1.6382 -1.0038
 5480SOL    HW228074   1.789   4.634  15.365  0.3057  0.3372  0.3081
 5481SOL     OW28075   3.089   4.683   3.704 -0.3525  0.6952 -0.4076
 5481SOL    HW128076   3.108   4.589   3.691 -4.9736 -0.3473  0.5363
 5481SOL    HW228077   2.995   4.692   3.693 -0.4903 -2.0121 -1.6226
 5482SOL     OW28078   3.540   0.649   5.183 -0.1045 -0.9984 -0.7988
 5482SOL    HW128079   3.616   0.643   5.241 -1.6785  1.9408  1.5858
 5482SOL    HW228080   3.578   0.622   5.100  0.4375 -0.2297 -0.8033
 5483SOL     OW28081   1.725   0.120   7.094  0.8770  0.1108 -0.2989
 5483SOL    HW128082   1.644   0.096   7.050 -0.7492 -0.0812  2.8227
 5483SOL    HW228083   1.774   0.172   7.030 -1.1336  3.7676  1.1176
 5484SOL     OW28084   3.869   2.789   3.112 -0.8539 -0.5299 -0.1851
 5484SOL    HW128085   3.889   2.880   3.133 -0.5532 -0.2222 -1.8461
 5484SOL    HW228086   3.939   2.777   3.047  0.4144  0.1706  1.0575
 5485SOL     OW28087   2.384   0.076   9.614 -0.1971  0.5448 -0.4426
 5485SOL    HW128088   2.363   0.014   9.683  2.5514 -1.0732 -1.0770
 5485SOL    HW228089   2.475   0.096   9.637 -0.5750  1.5559  0.1421
 5486SOL     OW28090   1.581   0.208   9.688 -0.2336 -0.4172  0.2459
 5486SOL    HW128091   1.589   0.113   9.683  2.0734 -0.3890  3.2104
 5486SOL    HW228092   1.627   0.239   9.766  3.6734 -1.6943 -1.5535
 5487SOL     OW28093   2.114   4.629  16.792 -0.0705  0.2035  0.2703
 5487SOL    HW128094   2.126   4.580  16.711 -2.0085 -2.1400  1.4165
 5487SOL    HW228095   2.035   4.672  16.758 -0.8055  0.3696  2.1899
 5488SOL     OW28096   1.916   2.447  16.309 -0.7316 -0.6567 -0.0346
 5488SOL    HW128097   1.926   2.421  16.400 -1.8454 -0.9614 -0.0060
 5488SOL    HW228098   1.945   2.367  16.265 -1.1185 -1.1316  0.5949
 5489SOL     OW28099   4.514   4.297   7.684 -0.0958 -0.2653  0.2233
 5489SOL    HW128100   4.593   4.351   7.691  0.9084 -1.9363  2.1531
 5489SOL    HW228101   4.496   4.278   7.776 -0.9457  1.9952  0.5230
 5490SOL     OW28102   4.736   4.232   5.638 -0.4222 -0.7504  0.0205
 5490SOL    HW128103   0.022   4.168   5.572  2.3634 -0.1305  0.5567
 5490SOL    HW228104   4.739   4.175   5.714 -1.3802  1.3005  1.6199
 5491SOL     OW28105   1.115   2.609   1.605 -0.4889 -0.1528 -0.0696
 5491SOL    HW128106   1.023   2.588   1.623  0.0597 -0.6503  2.2199
 5491SOL    HW228107   1.119   2.703   1.624  0.5660 -0.0220 -0.9875
 5492SOL     OW28108   4.573   4.369   5.348  0.3551  0.1186  0.0134
 5492SOL    HW128109   4.502   4.384   5.410  0.8498 -0.6964  0.7910
 5492SOL    HW228110   4.532   4.292   5.307  0.4205 -0.6821  1.4308
 5493SOL     OW28111   0.950   0.154   7.346  0.0691 -0.1672 -0.2329
 5493SOL    HW128112   1.036   0.136   7.308 -0.7515 -1.3939 -1.4850
 5493SOL    HW228113   0.961   0.126   7.437  0.4134 -2.4249 -0.9750
 5494SOL     OW28114   3.384   2.734   3.286  0.0892 -0.7485 -0.2194
 5494SOL    HW128115   3.457   2.792   3.263  0.4985 -1.1149  0.1708
 5494SOL    HW228116   3.399   2.727   3.380  1.5539 -0.1624 -0.4135
 5495SOL     OW28117   4.499   3.589   4.534 -0.2546  0.2046 -0.8611
 5495SOL    HW128118   4.446   3.514   4.560  1.1035  0.2179  1.8971
 5495SOL    HW228119   4.580   3.566   4.580 -0.9564  1.5214  1.0158
 5496SOL     OW28120   1.297   3.330   9.349  0.3379 -0.5491  0.3263
 5496SOL    HW128121   1.287   3.419   9.314 -1.3215 -1.2039 -0.8308
 5496SOL    HW228122   1.286   3.358   9.440  3.0023  2.0786 -0.1600
 5497SOL     OW28123   1.627   3.529  12.612 -0.1238  0.5872 -0.4375
 5497SOL    HW128124   1.619   3.562  12.701 -0.6257  1.7981 -0.9382
 5497SOL    HW228125   1.594   3.605  12.564  0.8525  0.2953 -1.5814
 5498SOL     OW28126   3.141   4.696  15.879 -0.1692  0.0932 -0.3367
 5498SOL    HW128127   3.193   0.017  15.931  1.6636 -1.7935  0.0613
 5498SOL    HW228128   3.077   0.019  15.848  0.3163  1.1025  0.7538
 5499SOL     OW28129   4.498   2.933   9.396  0.0197 -0.6298  0.4446
 5499SOL    HW128130   4.575   2.962   9.445 -0.1767  0.8973 -0.1619
 5499SOL    HW228131   4.462   2.852   9.434 -0.2967  0.4114  2.3706
 5500SOL     OW28132   0.343   1.845   4.505 -0.2503 -0.2308  0.3299
 5500SOL    HW128133   0.331   1.939   4.496 -0.8081 -0.2372  0.9997
 5500SOL    HW228134   0.385   1.818   4.423 -0.7719 -2.2715  0.7150
 5501SOL     OW28135   2.127   1.254   8.833 -0.1722  0.3471  0.5967
 5501SOL    HW128136   2.069   1.326   8.858 -3.3500 -1.7209 -0.7467
 5501SOL    HW228137   2.209   1.280   8.873  0.5477 -0.7986 -0.1390
 5502SOL     OW28138   2.118   3.643  10.725 -0.5762 -0.3047 -1.0372
 5502SOL    HW128139   2.124   3.599  10.810  1.1270  2.8145  0.4496
 5502SOL    HW228140   2.116   3.730  10.766 -1.1598  0.1192 -1.9795
 5503SOL     OW28141   2.878   1.585   8.483  0.4242  0.1809  0.0080
 5503SOL    HW128142   2.897   1.493   8.498  2.7370  0.9990  2.1727
 5503SOL    HW228143   2.953   1.629   8.523  0.4372 -1.2211  1.5206
 5504SOL     OW28144   0.228   1.061   5.889 -0.2510 -0.5570  0.0240
 5504SOL    HW128145   0.151   1.081   5.941  0.4145 -0.2295  0.8746
 5504SOL    HW228146   0.258   1.143   5.848  0.2869 -0.1998  1.1438
 5505SOL     OW28147   3.522   2.181  11.433  0.6256  0.7385 -0.0980
 5505SOL    HW128148   3.467   2.239  11.381 -0.0900  0.6142  0.5170
 5505SOL    HW228149   3.606   2.222  11.412  1.1503  1.0669  2.6031
 5506SOL     OW28150   4.195   1.313   4.825  0.2685 -0.0369  0.3842
 5506SOL    HW128151   4.284   1.277   4.820  0.7741  1.2219  0.2114
 5506SOL    HW228152   4.208   1.406   4.843 -2.2873 -0.0566  2.2041
 5507SOL     OW28153   3.594   0.378  12.906  0.4118 -0.2654 -0.6343
 5507SOL    HW128154   3.660   0.399  12.971 -0.0276  1.9982 -0.9222
 5507SOL    HW228155   3.520   0.371  12.967  1.3003 -2.1772  0.2259
 5508SOL     OW28156   4.292   3.016   1.569  0.3948 -0.0371  0.0671
 5508SOL    HW128157   4.267   3.001   1.660  0.8274  1.3874  0.4103
 5508SOL    HW228158   4.382   3.048   1.571  1.2187 -2.4847  2.2755
 5509SOL     OW28159   2.815   2.501   7.265  0.5736  0.1674  0.5744
 5509SOL    HW128160   2.835   2.425   7.320  1.6349  1.3299  1.7859
 5509SOL    HW228161   2.725   2.485   7.237  0.9134  1.1302 -1.0412
 5510SOL     OW28162   2.880   3.832  16.725  0.1988 -0.5355  0.0565
 5510SOL    HW128163   2.804   3.779  16.699  0.8090 -1.5874  0.3879
 5510SOL    HW228164   2.931   3.764  16.770  0.9177  0.7738  1.2215
 5511SOL     OW28165   4.443   2.357  10.298 -0.0489  0.6473 -0.0787
 5511SOL    HW128166   4.462   2.318  10.212  2.2890 -0.5625  1.0224
 5511SOL    HW228167   4.510   2.330  10.360  0.8749 -0.0459 -1.3722
 5512SOL     OW28168   4.475   0.650   7.137 -0.3544  0.1856  0.3657
 5512SOL    HW128169   4.422   0.625   7.062 -2.8597  0.9439  1.8954
 5512SOL    HW228170   4.516   0.565   7.150  1.8330  1.4244  1.6591
 5513SOL     OW28171   4.031   4.399  12.320 -0.4347  0.4514 -0.0472
 5513SOL    HW128172   3.945   4.371  12.353 -0.1836 -0.9911 -0.6030
 5513SOL    HW228173   4.084   4.385  12.399  1.1604  0.7212 -1.0886
 5514SOL     OW28174   3.118   1.215   8.720 -0.3062 -0.1204  0.3493
 5514SOL    HW128175   3.206   1.217   8.756  0.1060 -2.4058 -0.5060
 5514SOL    HW228176   3.111   1.122   8.700 -0.2729  0.3487 -1.8055
 5515SOL     OW28177   0.054   1.743   1.067  0.7769  0.2822 -0.0368
 5515SOL    HW128178   0.045   1.790   0.984  0.8970 -1.9171 -1.2894
 5515SOL    HW228179   4.706   1.708   1.072  1.1556 -0.9362 -1.8590
 5516SOL     OW28180   4.120   4.055  11.867 -0.0912 -0.3704  0.1058
 5516SOL    HW128181   4.133   3.967  11.832  2.3343 -0.1778  0.5109
 5516SOL    HW228182   4.133   4.105  11.787 -1.4360  0.7490  0.5885
 5517SOL     OW28183   1.594   1.240  15.244  0.6970 -0.6392 -0.4753
 5517SOL    HW128184   1.527   1.308  15.252 -1.2510 -2.4898 -0.8347
 5517SOL    HW228185   1.537   1.163  15.236 -2.4201  1.7324 -1.2114
 5518SOL     OW28186   3.532   1.692   8.959 -0.2340  0.1630  0.7241
 5518SOL    HW128187   3.458   1.728   9.007 -0.0564  2.1897 -0.5182
 5518SOL    HW228188   3.592   1.767   8.955 -2.0299  1.5875  0.6383
 5519SOL     OW28189   4.671   2.450   8.568 -0.3376  0.5809  0.0130
 5519SOL    HW128190   0.013   2.414   8.600  0.6414  1.4285 -1.5520
 5519SOL    HW228191   4.670   2.538   8.605 -0.7366  0.9952 -0.9716
 5520SOL     OW28192   3.976   3.695   6.525  0.2613 -0.0906 -0.1564
 5520SOL    HW128193   3.983   3.629   6.457 -0.1561  0.2865 -0.5637
 5520SOL    HW228194   4.007   3.639   6.597 -0.3386 -0.4357 -0.1673
 5521SOL     OW28195   0.282   2.064   3.836  0.1930  0.1314  0.4485
 5521SOL    HW128196   0.330   2.102   3.763  1.1875 -1.0918  0.4708
 5521SOL    HW228197   0.273   1.974   3.805  1.1300  0.3603 -0.4599
 5522SOL     OW28198   3.387   1.569   3.129  0.1641 -0.4058 -0.3767
 5522SOL    HW128199   3.476   1.571   3.166  0.2301  0.0660 -0.5694
 5522SOL    HW228200   3.386   1.656   3.090 -1.6910 -0.7558 -1.1151
 5523SOL     OW28201   2.454   0.579   2.926  0.0932  0.0201 -0.5386
 5523SOL    HW128202   2.417   0.662   2.894  2.0466  1.1015 -0.0273
 5523SOL    HW228203   2.375   0.527   2.913  1.0552 -1.3235 -1.0083
 5524SOL     OW28204   0.136   1.715   2.712  1.1184 -0.2515 -0.0988
 5524SOL    HW128205   0.077   1.737   2.640 -0.4561  0.1804  1.3314
 5524SOL    HW228206   0.099   1.747   2.794  0.4463  2.8924 -1.6541
 5525SOL     OW28207   0.894   0.758   2.212 -0.1979 -0.3108  0.1222
 5525SOL    HW128208   0.922   0.847   2.233  1.7010 -0.7975 -0.3014
 5525SOL    HW228209   0.974   0.707   2.226  0.5588  0.9570  0.4502
 5526SOL     OW28210   1.662   0.497   8.833  0.8027 -0.4114  0.0627
 5526SOL    HW128211   1.639   0.523   8.922  1.7722 -1.5237  0.6364
 5526SOL    HW228212   1.587   0.440   8.817  0.9923 -0.5330 -0.4017
 5527SOL     OW28213   4.223   2.830  12.282  0.5394  0.2509  0.2734
 5527SOL    HW128214   4.197   2.826  12.190  0.0248 -0.8303  0.4638
 5527SOL    HW228215   4.238   2.924  12.289  0.8139  0.0527  2.4444
 5528SOL     OW28216   1.163   0.215  10.748  0.2382 -0.4957 -0.3887
 5528SOL    HW128217   1.199   0.160  10.817 -0.9524  0.8980  1.3460
 5528SOL    HW228218   1.089   0.168  10.711  0.0450 -0.3170 -0.2273
 5529SOL     OW28219   4.020   0.095   7.102  0.8435 -0.2911  0.3837
 5529SOL    HW128220   3.941   0.106   7.154 -0.8452  1.2229 -2.5272
 5529SOL    HW228221   4.061   0.181   7.107  0.4295 -0.1090  0.6797
 5530SOL     OW28222   3.266   0.667   3.893  0.0243  0.0512 -0.3139
 5530SOL    HW128223   3.273   0.603   3.964  0.2942 -1.9271 -2.1352
 5530SOL    HW228224   3.204   0.724   3.939 -0.0199  0.1087 -0.4445
 5531SOL     OW28225   0.193   4.050  13.666  0.0601 -0.3539 -0.3172
 5531SOL    HW128226   0.161   3.982  13.726  0.7046 -0.2380  0.1552
 5531SOL    HW228227   0.277   4.074  13.706  1.4960 -0.4239 -3.3539
 5532SOL     OW28228   4.068   1.094   3.050  0.0658 -0.3396  0.6216
 5532SOL    HW128229   4.140   1.032   3.063 -0.0443 -0.5737  0.0936
 5532SOL    HW228230   4.009   1.054   2.986  1.0886 -1.4034  0.3450
 5533SOL     OW28231   3.034   4.387   8.210  0.1119  0.6073  0.5227
 5533SOL    HW128232   3.116   4.374   8.162  0.3253  1.0679  0.7613
 5533SOL    HW228233   3.054   4.468   8.258 -1.1636  0.2909  1.5636
 5534SOL     OW28234   0.980   3.579  11.591  0.2857  0.0366  0.4209
 5534SOL    HW128235   0.930   3.538  11.521  0.5434  1.1233 -0.4071
 5534SOL    HW228236   0.937   3.556  11.673 -1.4054 -0.8373 -0.7083
 5535SOL     OW28237   4.635   1.437  10.522 -0.8125 -0.2023  0.4678
 5535SOL    HW128238   4.705   1.474  10.469 -0.8278 -1.8323 -0.6978
 5535SOL    HW228239   4.686   1.402  10.595  0.0582  0.9216  0.3870
 5536SOL     OW28240   3.878   4.383   6.385  0.6539  0.0968  0.4472
 5536SOL    HW128241   3.788   4.404   6.360  0.5883  1.6309  1.9641
 5536SOL    HW228242   3.923   4.464   6.361  0.6961  0.3532  1.4021
 5537SOL     OW28243   4.080   0.770  17.052 -0.5972 -0.1204  0.1744
 5537SOL    HW128244   4.091   0.686  17.097 -0.0513 -0.2600 -0.2248
 5537SOL    HW228245   4.004   0.754  16.995  0.6307 -1.8879 -0.9535
 5538SOL     OW28246   2.650   3.853   5.749  0.2865  0.1482 -0.9325
 5538SOL    HW128247   2.676   3.765   5.720 -3.2667 -1.5801  1.1661
 5538SOL    HW228248   2.730   3.902   5.731 -0.7002  1.9157 -0.4878
 5539SOL     OW28249   4.127   4.581   3.122  0.3440 -0.1006 -0.5002
 5539SOL    HW128250   4.091   4.525   3.191  0.6826 -0.1081 -0.3310
 5539SOL    HW228251   4.063   4.578   3.051  0.9664  0.2796 -1.0742
 5540SOL     OW28252   2.076   1.226   2.343 -0.1397 -0.1141 -0.1595
 5540SOL    HW128253   2.080   1.286   2.418  1.3614  1.6014 -1.6184
 5540SOL    HW228254   2.070   1.295   2.277 -1.2995 -0.7439 -0.6981
 5541SOL     OW28255   0.118   0.460   4.950 -0.2406 -0.1031 -0.4333
 5541SOL    HW128256   0.071   0.469   4.867 -1.7294  1.2442  0.5557
 5541SOL    HW228257   0.164   0.376   4.944  0.1329 -0.2165  4.0109
 5542SOL     OW28258   3.490   0.570   9.935  0.1784  0.4955 -0.3653
 5542SOL    HW128259   3.431   0.577  10.011 -0.0511 -1.7756 -0.3512
 5542SOL    HW228260   3.425   0.569   9.864  0.1534 -1.9579 -0.3066
 5543SOL     OW28261   0.257   2.920  10.519 -0.8313 -0.3361 -0.2181
 5543SOL    HW128262   0.231   2.991  10.578  2.1760 -0.2387  0.9914
 5543SOL    HW228263   0.308   2.960  10.448  2.2550 -1.3860  1.4105
 5544SOL     OW28264   3.837   1.872   4.197  0.5420  0.8397 -0.5212
 5544SOL    HW128265   3.902   1.801   4.197  0.8819  1.1477 -0.6417
 5544SOL    HW228266   3.825   1.889   4.103  1.3873 -1.1370 -0.9789
 5545SOL     OW28267   0.123   0.349   6.092  0.2256 -0.3119 -0.2163
 5545SOL    HW128268   0.056   0.297   6.136  0.4381 -0.6471 -0.2945
 5545SOL    HW228269   0.185   0.286   6.055  1.3229  0.8308 -0.3379
 5546SOL     OW28270   4.485   3.889   7.317 -0.0874  0.3428 -0.5988
 5546SOL    HW128271   4.546   3.920   7.383  1.4882 -0.0554 -1.8714
 5546SOL    HW228272   4.512   3.797   7.313  0.6574  0.5007  1.0308
 5547SOL     OW28273   4.133   3.522   3.259 -0.5786  0.3094 -0.3463
 5547SOL    HW128274   4.086   3.584   3.203 -0.3376 -0.8347 -1.7999
 5547SOL    HW228275   4.170   3.583   3.323  0.6300 -1.2478  0.4288
 5548SOL     OW28276   4.113   4.336  17.036 -0.5091  0.3673  0.5882
 5548SOL    HW128277   4.166   4.414  17.051  1.6906 -0.4791 -2.8047
 5548SOL    HW228278   4.055   4.378  16.972 -0.3753  0.7547  0.7191
 5549SOL     OW28279   0.480   4.599  14.779 -1.0478 -0.1253 -0.1568
 5549SOL    HW128280   0.464   4.674  14.722 -1.9507 -0.9698 -0.9934
 5549SOL    HW228281   0.492   4.526  14.718 -2.4891  0.8281 -1.5683
 5550SOL     OW28282   3.000   3.078   9.488 -0.7103 -0.0074 -0.0889
 5550SOL    HW128283   2.930   3.014   9.478 -0.3448 -0.4595  0.2673
 5550SOL    HW228284   3.007   3.117   9.401  1.9468  2.1574  1.0995
 5551SOL     OW28285   3.792   0.975   6.470  0.0069 -0.0821  0.0777
 5551SOL    HW128286   3.818   1.013   6.554  0.3817  0.0113 -0.0784
 5551SOL    HW228287   3.700   0.999   6.472  0.4389  1.5278  0.3074
 5552SOL     OW28288   4.645   1.462   4.781  0.4018 -0.1077 -0.4731
 5552SOL    HW128289   4.730   1.486   4.819  1.0239 -2.6539 -0.2438
 5552SOL    HW228290   4.586   1.495   4.849  1.0775 -0.7383  0.4106
 5553SOL     OW28291   0.236   3.833   7.944 -0.3713 -0.7674 -0.8117
 5553SOL    HW128292   0.175   3.885   7.890 -0.8086 -0.6561 -0.2064
 5553SOL    HW228293   0.324   3.842   7.909 -1.0723  0.4393 -2.2713
 5554SOL     OW28294   4.568   1.758   9.596 -0.6620 -0.2159 -0.1960
 5554SOL    HW128295   4.615   1.841   9.594 -0.4067 -0.3035  2.3093
 5554SOL    HW228296   4.523   1.763   9.681 -0.5292  1.0760 -0.2067
 5555SOL     OW28297   4.692   4.040   3.962 -0.0412 -0.5191 -0.2222
 5555SOL    HW128298   4.647   4.125   3.957 -1.5972 -1.2723  1.0865
 5555SOL    HW228299   4.622   3.987   3.999  0.1846 -1.6731 -1.4466
 5556SOL     OW28300   0.914   0.531  12.819 -0.0084  0.4749 -0.5607
 5556SOL    HW128301   1.001   0.522  12.779 -0.2805 -0.1753 -1.0253
 5556SOL    HW228302   0.870   0.600  12.770  1.8623  0.5233 -2.1853
 5557SOL     OW28303   4.387   4.267  15.933  0.1908 -1.1534  0.1433
 5557SOL    HW128304   4.433   4.185  15.919 -4.3012 -4.0227  2.1401
 5557SOL    HW228305   4.452   4.324  15.974 -0.5139 -0.5234  0.3898
 5558SOL     OW28306   0.919   3.895   0.835  0.1671  0.0419 -0.3205
 5558SOL    HW128307   0.837   3.918   0.877  0.4885  0.0174  0.3211
 5558SOL    HW228308   0.975   3.972   0.840  0.5637 -0.4079  2.1771
 5559SOL     OW28309   2.111   1.127  16.357 -0.1299  0.7180  0.4171
 5559SOL    HW128310   2.041   1.183  16.324 -1.3491 -1.5429 -0.8822
 5559SOL    HW228311   2.097   1.132  16.451 -0.4954  0.0967  0.4014
 5560SOL     OW28312   4.168   0.330  14.552  0.0124 -0.5618 -0.6490
 5560SOL    HW128313   4.241   0.323  14.491 -2.9079  1.1320 -4.3599
 5560SOL    HW228314   4.091   0.296  14.506  0.2754 -0.8876 -0.8456
 5561SOL     OW28315   4.234   4.411  11.150  0.7573  0.3627  0.3303
 5561SOL    HW128316   4.248   4.340  11.212  1.8378 -1.9694 -2.6391
 5561SOL    HW228317   4.140   4.404  11.136  0.6859  3.9828 -1.0805
 5562SOL     OW28318   2.853   4.557   9.476 -0.0022  0.4855  0.2139
 5562SOL    HW128319   2.770   4.559   9.524  0.8479  0.0367  1.7139
 5562SOL    HW228320   2.834   4.518   9.391 -2.0547  1.9923 -0.0245
 5563SOL     OW28321   1.106   2.019   8.415 -0.0899 -0.0521 -0.4131
 5563SOL    HW128322   1.035   2.017   8.480  0.8105 -0.7670  0.5365
 5563SOL    HW228323   1.111   1.925   8.399 -0.5498 -0.2053  0.2945
 5564SOL     OW28324   2.099   0.044   6.751 -0.6569  0.5755  0.6656
 5564SOL    HW128325   2.122   0.134   6.774  4.4724  0.1526 -2.7055
 5564SOL    HW228326   2.181   0.008   6.716 -0.0954  0.3015  2.2360
 5565SOL     OW28327   0.150   1.956  17.683  0.0976  0.2582  0.1981
 5565SOL    HW128328   0.205   1.892  17.638  1.4367  1.3946  0.2088
 5565SOL    HW228329   0.131   1.902  17.760  3.0072  0.8092  1.3146
 5566SOL     OW28330   3.127   1.312   0.389  0.0788 -0.2403 -0.4117
 5566SOL    HW128331   3.040   1.343   0.411 -0.7905 -0.9925 -2.7546
 5566SOL    HW228332   3.149   1.365   0.313  1.0011  0.2334  0.1901
 5567SOL     OW28333   4.309   1.918   0.038 -0.1441  0.2106 -0.5666
 5567SOL    HW128334   4.391   1.962   0.060  0.2212 -0.7083 -0.0922
 5567SOL    HW228335   4.345   1.849  17.743  2.5694 -0.6840  2.2887
 5568SOL     OW28336   2.840   2.954   5.780 -0.6467 -0.3887  0.5479
 5568SOL    HW128337   2.750   2.975   5.806 -0.2862  2.3769 -0.4708
 5568SOL    HW228338   2.834   2.860   5.759  1.9578 -0.6365  0.9570
 5569SOL     OW28339   2.364   4.620   4.337 -0.1410  0.3796 -0.4643
 5569SOL    HW128340   2.400   4.601   4.424 -2.2682  2.2362  0.8091
 5569SOL    HW228341   2.283   4.569   4.336 -0.0735  0.2622  0.6059
 5570SOL     OW28342   3.869   3.396   2.285  0.7214 -0.1462  0.5297
 5570SOL    HW128343   3.881   3.308   2.249  1.6278  0.3015 -0.2642
 5570SOL    HW228344   3.853   3.380   2.378 -0.3520  0.1348  0.3922
 5571SOL     OW28345   4.250   4.288   6.791 -0.6399 -0.2549 -0.2400
 5571SOL    HW128346   4.295   4.361   6.833 -3.0365  1.2433 -0.2225
 5571SOL    HW228347   4.215   4.331   6.713 -2.3590 -0.4147  0.4373
 5572SOL     OW28348   3.226   3.585   1.303 -0.4733  0.0557  0.2688
 5572SOL    HW128349   3.149   3.542   1.340 -1.7339  2.2888  0.2516
 5572SOL    HW228350   3.289   3.602   1.373 -0.0788 -0.0791 -0.0591
 5573SOL     OW28351   2.799   1.037   2.648 -0.1386 -0.3495  0.3397
 5573SOL    HW128352   2.829   1.126   2.665 -0.1043 -0.4802  0.9498
 5573SOL    HW228353   2.718   1.054   2.599  1.1513 -0.6587 -1.9324
 5574SOL     OW28354   2.944   4.236   1.491 -0.1951  0.5105 -0.2868
 5574SOL    HW128355   2.913   4.177   1.422 -1.3733 -0.5503  1.1524
 5574SOL    HW228356   3.035   4.245   1.462  0.0774 -1.3030  0.0309
 5575SOL     OW28357   0.195   4.457  16.025  0.6942  0.0105  0.2364
 5575SOL    HW128358   0.169   4.454  15.933 -0.3919  1.2628  0.4940
 5575SOL    HW228359   0.131   4.519  16.061  0.5939  0.3305 -0.4893
 5576SOL     OW28360   3.888   3.919   4.846 -0.0134 -0.2773 -0.1356
 5576SOL    HW128361   3.941   3.908   4.767 -0.6711  0.2605 -0.6535
 5576SOL    HW228362   3.904   3.836   4.891 -0.4104 -1.1249 -1.5909
 5577SOL     OW28363   2.377   2.990   1.655  0.3876  0.3210 -0.5304
 5577SOL    HW128364   2.397   3.054   1.724 -0.9849  0.5649 -0.3544
 5577SOL    HW228365   2.330   3.042   1.590  2.3080  1.5254 -0.9530
 5578SOL     OW28366   4.401   3.649   4.278 -0.0983 -0.0039  0.2970
 5578SOL    HW128367   4.430   3.596   4.352  0.7077  1.2733  0.8798
 5578SOL    HW228368   4.353   3.589   4.220 -0.5187  0.6247 -0.0116
 5579SOL     OW28369   2.723   4.424  14.955 -0.5680 -0.0470 -0.3572
 5579SOL    HW128370   2.713   4.352  15.017  0.0002  0.5987  0.4792
 5579SOL    HW228371   2.649   4.421  14.895  0.0100  1.0004 -1.1343
 5580SOL     OW28372   1.943   4.081  15.008 -0.0832 -0.4455 -0.2158
 5580SOL    HW128373   1.943   4.021  14.932  0.9165  1.2315 -1.5309
 5580SOL    HW228374   1.885   4.152  14.982 -1.3509 -1.2871  0.3231
 5581SOL     OW28375   2.989   2.970   7.565  0.2324 -0.1090 -0.4553
 5581SOL    HW128376   3.029   3.002   7.484  0.0319  0.7480 -0.2235
 5581SOL    HW228377   2.908   2.927   7.541 -0.2047  1.3736 -1.6390
 5582SOL     OW28378   3.396   0.997  15.793 -0.0187 -1.1544  0.7799
 5582SOL    HW128379   3.363   1.036  15.874  1.9667 -0.6770  1.3391
 5582SOL    HW228380   3.441   0.920  15.827  0.4416 -1.6794 -1.0004
 5583SOL     OW28381   4.573   4.565   2.295  0.3405  0.3476 -0.0461
 5583SOL    HW128382   4.523   4.642   2.322 -1.3983  0.2256 -3.0106
 5583SOL    HW228383   4.629   4.557   2.372  0.1505 -0.5755 -0.0001
 5584SOL     OW28384   4.592   4.511  12.833  0.3014 -0.5857  0.1311
 5584SOL    HW128385   4.499   4.499  12.814 -0.1096  1.1100  1.0860
 5584SOL    HW228386   4.626   4.421  12.827  0.9560 -0.4441  1.6868
 5585SOL     OW28387   1.014   2.886   6.769 -0.0464  0.3548 -0.0762
 5585SOL    HW128388   0.978   2.961   6.723 -1.3747  0.7931  1.6641
 5585SOL    HW228389   0.934   2.866   6.819  0.0348  0.3744  0.0622
 5586SOL     OW28390   3.901   4.029   5.190 -0.7521  0.9416 -0.0562
 5586SOL    HW128391   3.834   3.967   5.162 -0.3560  0.6070 -0.2711
 5586SOL    HW228392   3.981   4.000   5.145 -1.4100  1.2199 -1.4337
 5587SOL     OW28393   1.102   2.076   1.591  0.0803  0.9185 -0.2527
 5587SOL    HW128394   1.167   2.114   1.650  0.7397  1.0595 -1.0772
 5587SOL    HW228395   1.034   2.144   1.596  1.6660  2.5067 -0.4328
 5588SOL     OW28396   2.836   2.735   3.092 -0.4994  0.0343  0.0196
 5588SOL    HW128397   2.916   2.782   3.071 -0.6272 -0.3893 -1.3856
 5588SOL    HW228398   2.791   2.726   3.008 -1.9302  0.1605  0.7741
 5589SOL     OW28399   0.716   2.153  10.668  0.1641 -0.3844 -0.6861
 5589SOL    HW128400   0.697   2.107  10.587 -1.2516 -1.8802  0.4751
 5589SOL    HW228401   0.660   2.231  10.667 -0.1446 -0.6213 -2.0018
 5590SOL     OW28402   2.859   1.677   2.096 -0.2755  0.2469  0.4734
 5590SOL    HW128403   2.846   1.715   2.183 -0.7165  0.5043  0.2945
 5590SOL    HW228404   2.955   1.676   2.093 -0.2506  0.9606  1.0589
 5591SOL     OW28405   0.798   0.571   1.734 -0.0999 -0.2259 -0.1548
 5591SOL    HW128406   0.800   0.629   1.811 -0.0746 -0.8095  0.2870
 5591SOL    HW228407   0.890   0.581   1.709  0.0334 -0.8445  0.0829
 5592SOL     OW28408   2.797   3.872  11.801 -0.3490  0.5580 -0.2165
 5592SOL    HW128409   2.805   3.777  11.815  1.6316  0.6449 -0.6984
 5592SOL    HW228410   2.702   3.875  11.800 -0.3986 -0.7862 -0.0578
 5593SOL     OW28411   2.155   0.344  12.955 -0.2534  0.1182 -0.3770
 5593SOL    HW128412   2.175   0.432  12.923  1.9775 -0.8085 -1.5797
 5593SOL    HW228413   2.193   0.284  12.891 -0.4596 -1.8099  1.3092
 5594SOL     OW28414   1.655   3.357   0.099  1.0133 -0.2555  0.0221
 5594SOL    HW128415   1.681   3.382   0.011  1.8330 -2.0735 -0.2521
 5594SOL    HW228416   1.724   3.406   0.145  0.0318 -0.6625  1.9603
 5595SOL     OW28417   4.590   2.689  13.002 -0.4597  0.1147  0.0886
 5595SOL    HW128418   4.542   2.627  13.057  0.2808 -0.9353 -0.4498
 5595SOL    HW228419   4.513   2.707  12.948 -0.9259 -1.6434  0.1784
 5596SOL     OW28420   1.765   2.941   3.830 -0.1112  0.0953 -0.4639
 5596SOL    HW128421   1.671   2.922   3.831  0.0511 -0.6870 -0.0671
 5596SOL    HW228422   1.804   2.853   3.829 -0.9155 -0.2668  0.1967
 5597SOL     OW28423   1.912   3.976  15.262  0.3984  0.6196 -0.0831
 5597SOL    HW128424   1.997   3.949  15.298  0.3215  0.5774  0.0703
 5597SOL    HW228425   1.948   3.998  15.176  2.1823  1.3421  0.8432
 5598SOL     OW28426   2.762   2.171   2.889 -0.3554  0.2484  0.2118
 5598SOL    HW128427   2.781   2.177   2.796  1.6003 -1.3319  0.4968
 5598SOL    HW228428   2.689   2.110   2.883 -0.7118  0.6659  0.3184
 5599SOL     OW28429   2.015   3.790   3.666 -0.0926  0.5081  0.2030
 5599SOL    HW128430   1.959   3.730   3.715 -0.6227  1.2830  0.5460
 5599SOL    HW228431   1.961   3.797   3.587 -1.8936 -1.8086  1.2466
 5600SOL     OW28432   1.628   3.117  10.387 -0.1358  0.1397 -0.2591
 5600SOL    HW128433   1.567   3.043  10.385  0.1556 -0.0915 -0.4737
 5600SOL    HW228434   1.640   3.138  10.295 -0.8256 -1.9411 -0.8143
 5601SOL     OW28435   0.280   1.157  12.238 -0.7449 -0.2495  0.6254
 5601SOL    HW128436   0.240   1.239  12.267 -1.0837  0.0770 -0.7619
 5601SOL    HW228437   0.364   1.201  12.227  0.6076 -2.5323  1.9627
 5602SOL     OW28438   2.306   0.594  12.899 -0.1920 -0.4112 -0.0631
 5602SOL    HW128439   2.370   0.648  12.854 -0.2540  0.5028  0.9681
 5602SOL    HW228440   2.268   0.662  12.955  0.4140 -0.0451 -0.0996
 5603SOL     OW28441   2.530   0.020   3.481  0.0186  0.7778  0.1486
 5603SOL    HW128442   2.576   4.683   3.511  0.0270  0.1975 -1.3701
 5603SOL    HW228443   2.519   0.001   3.388 -1.1584 -1.1345  0.6677
 5604SOL     OW28444   0.167   0.587   3.612 -0.5004 -0.1751 -0.0594
 5604SOL    HW128445   0.205   0.641   3.543 -2.7493 -0.4334 -1.5299
 5604SOL    HW228446   0.236   0.525   3.636  0.6175  0.5098 -1.5287
 5605SOL     OW28447   2.383   3.879   5.852 -0.2133 -0.3675 -0.5094
 5605SOL    HW128448   2.382   3.812   5.920  0.4449 -0.1823 -0.3147
 5605SOL    HW228449   2.459   3.853   5.798  0.5847 -0.2324  0.5467
 5606SOL     OW28450   3.676   0.470   1.945  0.0128 -0.0332  0.6851
 5606SOL    HW128451   3.586   0.457   1.914 -0.5921  0.2765  2.2926
 5606SOL    HW228452   3.680   0.565   1.956  0.0229 -0.2410  2.4532
 5607SOL     OW28453   4.367   0.921  15.613 -0.2022 -0.1357 -0.0674
 5607SOL    HW128454   4.421   0.842  15.613 -0.4369 -0.2971 -0.6958
 5607SOL    HW228455   4.344   0.924  15.520  0.5187  1.7842 -0.1823
 5608SOL     OW28456   3.073   0.276   4.494 -0.4057  0.0429  0.2456
 5608SOL    HW128457   3.013   0.235   4.556  0.0518 -0.0746  0.6025
 5608SOL    HW228458   3.060   0.364   4.530 -0.4245  0.8128 -1.6441
 5609SOL     OW28459   4.553   1.532  11.966  0.3410  0.3407 -1.0249
 5609SOL    HW128460   4.464   1.508  11.940 -0.3904  0.2631  1.5907
 5609SOL    HW228461   4.602   1.468  11.913 -0.8347 -0.1691 -1.4995
 5610SOL     OW28462   3.326   2.328   2.337  0.5613  0.3959 -0.5955
 5610SOL    HW128463   3.302   2.333   2.429  2.2788 -0.1291 -0.1095
 5610SOL    HW228464   3.283   2.245   2.315  2.7372 -0.5143 -1.4602
 5611SOL     OW28465   1.371   3.361   3.839 -0.0970 -0.6938 -0.3100
 5611SOL    HW128466   1.376   3.274   3.881 -1.0961 -0.2722  0.6927
 5611SOL    HW228467   1.330   3.345   3.754  1.0761 -1.7106 -0.6773
 5612SOL     OW28468   3.089   1.056   4.822 -1.0506  0.0500 -0.8870
 5612SOL    HW128469   3.170   1.005   4.819 -0.2040  1.4703 -2.7205
 5612SOL    HW228470   3.029   0.991   4.857 -3.6144  2.4193 -0.8599
 5613SOL     OW28471   0.948   2.510   9.290  0.4422  0.1220  0.3097
 5613SOL    HW128472   0.879   2.542   9.348 -0.6594 -1.8670  0.0949
 5613SOL    HW228473   0.944   2.416   9.306 -2.1454 -0.2005 -2.3217
 5614SOL     OW28474   0.903   3.453   4.512 -0.4806 -0.1639  0.2290
 5614SOL    HW128475   0.984   3.492   4.543 -1.0330  0.5013  0.8327
 5614SOL    HW228476   0.932   3.373   4.469 -0.4560  0.5166 -1.0217
 5615SOL     OW28477   1.463   3.380   8.963 -0.0078  0.2580  0.3107
 5615SOL    HW128478   1.519   3.352   8.891  0.9040  2.2921  0.2133
 5615SOL    HW228479   1.388   3.420   8.920 -0.3690 -1.2465 -0.4426
 5616SOL     OW28480   0.271   2.508   3.845 -0.0631  0.2787 -0.2186
 5616SOL    HW128481   0.224   2.580   3.805  1.6156  0.7396 -1.3769
 5616SOL    HW228482   0.204   2.478   3.907 -0.2410  1.7857  0.3253
 5617SOL     OW28483   4.594   0.745   4.676  0.3694 -0.2038 -0.4316
 5617SOL    HW128484   4.677   0.781   4.643 -0.6918  0.5091 -2.3310
 5617SOL    HW228485   4.536   0.776   4.607 -1.8573 -0.2896  1.4447
 5618SOL     OW28486   2.174   0.341   9.797 -0.3516  0.0947  0.1155
 5618SOL    HW128487   2.084   0.319   9.820 -0.9416  2.3132 -0.0502
 5618SOL    HW228488   2.221   0.328   9.879 -0.7063 -1.6800  0.0447
 5619SOL     OW28489   1.617   3.108   6.791 -0.0444 -0.6213  0.1909
 5619SOL    HW128490   1.633   3.158   6.871 -0.7185  1.7740 -1.1739
 5619SOL    HW228491   1.521   3.109   6.797  0.0209  1.0008  1.0007
 5620SOL     OW28492   4.038   1.197   9.113 -0.4762  0.0812 -0.0282
 5620SOL    HW128493   4.017   1.165   9.025  1.2560 -0.2745 -0.3206
 5620SOL    HW228494   4.103   1.137   9.150 -0.2578  1.8985  2.5281
 5621SOL     OW28495   4.066   3.181   8.415  0.6473  0.2481  0.3217
 5621SOL    HW128496   4.004   3.240   8.457  0.5589 -0.7314  1.5585
 5621SOL    HW228497   4.142   3.235   8.392 -0.8501  2.9341  1.7235
 5622SOL     OW28498   2.399   3.465   6.714  0.4815 -0.6472  0.4944
 5622SOL    HW128499   2.455   3.483   6.790  0.4981  0.5643  0.1986
 5622SOL    HW228500   2.449   3.409   6.654  1.6101  2.2183 -1.2386
 5623SOL     OW28501   2.600   1.481   3.371  0.1607 -0.5660  0.1204
 5623SOL    HW128502   2.694   1.481   3.355  0.1853 -1.1708  0.2849
 5623SOL    HW228503   2.567   1.408   3.318  0.6055  0.9962 -2.3337
 5624SOL     OW28504   0.281   1.877   3.121  0.1680  0.3596 -0.2653
 5624SOL    HW128505   0.244   1.914   3.201  0.6058 -2.1042  1.0967
 5624SOL    HW228506   0.306   1.787   3.142 -0.6151 -0.2318 -1.9478
 5625SOL     OW28507   1.318   2.931   6.051  0.2436  0.3695  0.1107
 5625SOL    HW128508   1.350   2.972   6.132 -2.1245  0.8480  0.8127
 5625SOL    HW228509   1.392   2.884   6.014 -0.4059 -1.9493  1.7524
 5626SOL     OW28510   4.518   3.113  16.163  0.8046  0.4359  0.0494
 5626SOL    HW128511   4.435   3.065  16.173  1.8422 -1.3726  0.0007
 5626SOL    HW228512   4.575   3.038  16.179  1.2156  0.8043  0.2734
 5627SOL     OW28513   3.037   1.544   1.881 -0.7575 -0.1210  0.2811
 5627SOL    HW128514   3.086   1.616   1.922 -0.5631  0.9444 -1.7668
 5627SOL    HW228515   2.944   1.566   1.884 -0.6432  0.1661  1.6926
 5628SOL     OW28516   3.040   1.078   6.037 -0.1603 -0.0388 -0.0855
 5628SOL    HW128517   2.976   1.011   6.060 -1.9922  1.5591 -0.5712
 5628SOL    HW228518   3.084   1.034   5.965  0.5513 -0.6045  0.6955
 5629SOL     OW28519   1.135   1.556  12.867  0.2494  0.3241  0.2362
 5629SOL    HW128520   1.127   1.472  12.913  3.4914 -1.4925 -2.4926
 5629SOL    HW228521   1.043   1.570  12.846  0.5016  2.9431  0.9725
 5630SOL     OW28522   4.415   1.135  10.981  0.1887 -0.2717  0.6561
 5630SOL    HW128523   4.461   1.158  10.901 -0.1247  1.4121  0.9556
 5630SOL    HW228524   4.486   1.090  11.026  3.0828  1.7527 -1.9312
 5631SOL     OW28525   3.051   2.137   8.098  0.0677  0.5906  0.1116
 5631SOL    HW128526   3.111   2.202   8.134 -0.1477  0.1321  1.3260
 5631SOL    HW228527   3.120   2.080   8.065 -2.0185 -1.5070 -0.6588
 5632SOL     OW28528   0.220   0.165   4.882  0.0588 -0.3380  0.1099
 5632SOL    HW128529   0.260   0.114   4.952 -0.2687 -1.3378 -0.4283
 5632SOL    HW228530   0.220   0.101   4.811 -1.4826  1.8102 -1.8189
 5633SOL     OW28531   1.487   4.205   3.334  0.1204  0.2106  0.0224
 5633SOL    HW128532   1.498   4.120   3.376  0.1537  0.0208 -0.3742
 5633SOL    HW228533   1.414   4.241   3.384  0.2419  0.6844 -0.1376
 5634SOL     OW28534   4.012   3.136  11.479  0.3115  0.4282  0.5622
 5634SOL    HW128535   4.071   3.152  11.405  0.8752 -0.2327  0.8702
 5634SOL    HW228536   3.986   3.044  11.469  1.0806  0.4421 -1.5309
 5635SOL     OW28537   2.298   3.048   0.434  0.4890 -0.1571 -0.0525
 5635SOL    HW128538   2.280   3.016   0.523 -2.1963 -0.1822 -0.6130
 5635SOL    HW228539   2.392   3.064   0.440  0.4743 -0.2097  0.2975
 5636SOL     OW28540   1.083   4.560   7.086  0.3183 -0.0055  0.3770
 5636SOL    HW128541   1.094   4.524   7.174  1.3337 -0.1449  0.1977
 5636SOL    HW228542   1.011   4.622   7.093  0.5378 -0.0154  2.7870
 5637SOL     OW28543   0.686   3.687  12.992  0.3946  0.4379 -0.1114
 5637SOL    HW128544   0.711   3.780  12.985 -0.3961  0.6937  0.4844
 5637SOL    HW228545   0.621   3.681  12.922 -0.6417  0.4376  0.8557
 5638SOL     OW28546   3.919   4.347   4.742 -0.4780 -0.3632  0.2486
 5638SOL    HW128547   3.883   4.331   4.829 -2.2304 -0.1813 -0.4564
 5638SOL    HW228548   3.862   4.291   4.690 -0.6284  0.9888 -1.0485
 5639SOL     OW28549   1.566   2.415   4.683 -0.3069  0.7414 -0.2407
 5639SOL    HW128550   1.602   2.399   4.595  0.6250 -1.2946  0.5258
 5639SOL    HW228551   1.574   2.510   4.675 -1.8396  0.5839 -4.0537
 5640SOL     OW28552   3.641   1.711  15.401 -0.1064 -0.0832  0.1791
 5640SOL    HW128553   3.683   1.785  15.357  1.1937 -0.8003  0.2143
 5640SOL    HW228554   3.654   1.740  15.491  0.2230  1.1945 -0.2865
 5641SOL     OW28555   2.254   1.972   6.451 -0.9685 -0.6405 -0.0922
 5641SOL    HW128556   2.272   1.971   6.357 -0.2569  0.4929  0.0317
 5641SOL    HW228557   2.241   1.879   6.467 -0.8798 -0.8808 -1.4382
 5642SOL     OW28558   0.890   0.645  12.245  0.0733  0.2588 -0.3103
 5642SOL    HW128559   0.890   0.593  12.325  0.4298  0.5891 -0.0967
 5642SOL    HW228560   0.982   0.659  12.220  0.2748 -0.5765 -0.0530
 5643SOL     OW28561   0.294   4.385   3.222 -0.0563 -0.4023  0.1100
 5643SOL    HW128562   0.342   4.378   3.140  0.9297 -0.7621  0.7210
 5643SOL    HW228563   0.366   4.403   3.282 -0.0930  0.8658 -0.2103
 5644SOL     OW28564   0.740   1.537   7.689 -0.8641  0.3681  0.0649
 5644SOL    HW128565   0.702   1.495   7.766 -1.2524 -1.6018 -1.1893
 5644SOL    HW228566   0.826   1.552   7.730 -0.7916  2.1458 -0.7523
 5645SOL     OW28567   2.765   3.422   7.709 -0.3990 -0.1075  0.1267
 5645SOL    HW128568   2.679   3.464   7.703 -0.4307 -0.3110 -0.8433
 5645SOL    HW228569   2.761   3.333   7.673 -0.7628  0.2447 -0.7058
 5646SOL     OW28570   1.499   2.227  12.158 -0.5514  0.1186 -0.3194
 5646SOL    HW128571   1.448   2.148  12.174 -0.1645  0.1496  1.0507
 5646SOL    HW228572   1.547   2.204  12.078 -0.7415  1.7228 -0.8881
 5647SOL     OW28573   1.017   0.017   9.141  0.0242  0.5489  0.3922
 5647SOL    HW128574   1.002   0.109   9.121  1.5195  0.4056 -1.4300
 5647SOL    HW228575   0.928   0.008   9.174  0.3512 -0.0143  1.0979
 5648SOL     OW28576   2.724   0.350   9.354  0.3228 -0.0176  0.6651
 5648SOL    HW128577   2.734   0.373   9.447  3.8248 -0.1304  0.3351
 5648SOL    HW228578   2.769   0.266   9.347 -0.7978 -0.5135 -0.5088
 5649SOL     OW28579   2.326   4.325   8.908 -0.1101  0.0003  0.1158
 5649SOL    HW128580   2.238   4.290   8.901 -0.7282  1.5833 -0.1407
 5649SOL    HW228581   2.308   4.418   8.893  0.3009  0.2659  1.2182
 5650SOL     OW28582   4.220   4.032  13.530  0.4649  0.4045  0.2320
 5650SOL    HW128583   4.199   3.952  13.482 -0.4030  0.8560 -0.1322
 5650SOL    HW228584   4.273   4.085  13.470  0.8202 -2.0411 -1.6139
 5651SOL     OW28585   2.702   1.173   3.762  0.0053 -0.4646 -0.6170
 5651SOL    HW128586   2.783   1.129   3.788 -0.2325 -0.8909 -0.5954
 5651SOL    HW228587   2.681   1.100   3.703  0.2907 -0.1024 -1.1638
 5652SOL     OW28588   0.584   4.134  17.227 -0.2401 -0.0670 -0.1386
 5652SOL    HW128589   0.635   4.053  17.234 -4.4416 -2.6834  0.3232
 5652SOL    HW228590   0.526   4.111  17.154 -1.1974  0.4167  0.4722
 5653SOL     OW28591   1.531   4.228   7.036  0.2585  0.0419 -0.0442
 5653SOL    HW128592   1.612   4.177   7.032  0.4824  0.4376 -0.5675
 5653SOL    HW228593   1.507   4.257   6.948  0.8148  1.5071  0.2855
 5654SOL     OW28594   3.421   1.130  13.053 -0.3575 -0.2034  0.9164
 5654SOL    HW128595   3.470   1.136  13.135 -0.0200 -0.7785  0.7555
 5654SOL    HW228596   3.345   1.076  13.075 -0.1583 -1.6867 -2.1490
 5655SOL     OW28597   0.090   3.607   8.074 -0.2323  0.6564 -0.4541
 5655SOL    HW128598   0.165   3.556   8.104  0.4156  0.6962 -2.0183
 5655SOL    HW228599   0.130   3.658   8.004 -1.0620  0.8422 -0.7969
 5656SOL     OW28600   1.231   4.695   5.520  0.4055 -0.2639 -0.5959
 5656SOL    HW128601   1.236   4.705   5.425  1.1946  4.1443 -0.1083
 5656SOL    HW228602   1.216   4.601   5.511 -0.1922 -0.1666 -0.5949
 5657SOL     OW28603   0.218   0.292   9.127 -0.1424 -0.2948 -0.0017
 5657SOL    HW128604   0.227   0.297   9.032 -0.2166 -0.3034 -0.0095
 5657SOL    HW228605   0.309   0.273   9.151 -0.1746 -1.5404 -0.8446
 5658SOL     OW28606   4.302   3.809   6.936  0.6891  0.2704 -0.5983
 5658SOL    HW128607   4.259   3.739   6.985 -1.1983  0.6421 -1.7110
 5658SOL    HW228608   4.230   3.835   6.879  0.1760  2.7484  1.1672
 5659SOL     OW28609   0.532   3.922   5.194  0.2006 -0.0629 -0.4146
 5659SOL    HW128610   0.608   3.904   5.139 -0.0917 -0.1280 -0.7990
 5659SOL    HW228611   0.502   4.001   5.148 -1.4302 -1.0987 -1.1062
 5660SOL     OW28612   0.636   2.101   8.274 -0.2960  0.5953 -0.6198
 5660SOL    HW128613   0.555   2.123   8.227 -0.5117  0.9649 -0.0790
 5660SOL    HW228614   0.621   2.144   8.358 -0.2306  0.0318 -0.3207
 5661SOL     OW28615   2.017   1.297   8.092 -0.3444  0.1191 -0.0672
 5661SOL    HW128616   2.080   1.315   8.161 -1.3363 -2.5606  1.5073
 5661SOL    HW228617   1.951   1.251   8.144 -0.7855  1.6448  0.7434
 5662SOL     OW28618   0.593   1.740   4.730 -0.3279  0.3691 -0.1561
 5662SOL    HW128619   0.561   1.706   4.814  1.2126  3.7016  1.7739
 5662SOL    HW228620   0.525   1.707   4.672  1.2192 -3.4938  0.1865
 5663SOL     OW28621   3.767   1.054  10.120 -0.6888  0.3592 -0.3377
 5663SOL    HW128622   3.845   1.053  10.065  0.8378  0.6996  1.8471
 5663SOL    HW228623   3.730   1.139  10.095 -1.5457  0.0385 -0.1508
 5664SOL     OW28624   4.689   2.529   6.812  0.1331 -0.0620  0.2630
 5664SOL    HW128625   4.719   2.453   6.764  1.4892  0.6593 -0.0257
 5664SOL    HW228626   4.614   2.498   6.863  0.8039  0.3490  1.4916
 5665SOL     OW28627   3.014   3.846  15.891  0.6917  0.2063 -0.1899
 5665SOL    HW128628   3.047   3.871  15.977 -0.5350  2.7844 -0.4710
 5665SOL    HW228629   3.085   3.879  15.835  1.6219  0.2992  1.0508
 5666SOL     OW28630   2.497   1.083   4.757 -0.3439 -0.1094  0.0819
 5666SOL    HW128631   2.441   1.159   4.742  1.0810  0.8645 -0.2730
 5666SOL    HW228632   2.540   1.091   4.843  0.5146 -1.7440 -0.1916
 5667SOL     OW28633   2.447   4.170   0.019  0.3479  0.3604  0.6344
 5667SOL    HW128634   2.441   4.186   0.113  0.2657 -0.4165  0.7564
 5667SOL    HW228635   2.539   4.185  17.761  0.4462 -2.6888 -1.2344
 5668SOL     OW28636   1.088   2.434   2.781 -0.1308 -0.2282  0.0479
 5668SOL    HW128637   1.100   2.382   2.701  0.8107 -0.4161  0.3077
 5668SOL    HW228638   1.180   2.436   2.808 -0.1510 -0.8453  0.1477
 5669SOL     OW28639   1.900   4.618   7.295 -0.1748 -0.6424 -0.0019
 5669SOL    HW128640   1.958   4.542   7.297 -0.7570 -1.0559  0.9039
 5669SOL    HW228641   1.971   4.682   7.285 -1.8896  1.2540  0.0271
 5670SOL     OW28642   2.672   1.652   6.172  0.1153 -0.4100  1.1211
 5670SOL    HW128643   2.622   1.718   6.123  0.7378 -2.5849 -2.4278
 5670SOL    HW228644   2.716   1.718   6.226  1.0618  0.6397 -0.8940
 5671SOL     OW28645   1.695   0.281  15.805 -0.2179  0.7738 -0.6881
 5671SOL    HW128646   1.644   0.215  15.757  2.4629 -1.6047 -0.2310
 5671SOL    HW228647   1.780   0.238  15.802 -0.0938  0.9486  0.6892
 5672SOL     OW28648   3.576   0.231  14.566  0.0445  0.7867  0.3436
 5672SOL    HW128649   3.647   0.295  14.569  1.3481 -0.7102  1.2014
 5672SOL    HW228650   3.578   0.203  14.475 -0.0338  1.1777  0.2215
 5673SOL     OW28651   3.796   2.175   5.714 -0.1068 -0.1387 -0.1036
 5673SOL    HW128652   3.869   2.228   5.745  1.5277 -1.5025 -1.6576
 5673SOL    HW228653   3.720   2.232   5.718  1.3484  1.6971  1.0224
 5674SOL     OW28654   3.986   2.535   6.770 -0.2192 -0.0238 -0.0120
 5674SOL    HW128655   4.005   2.468   6.836  0.0373 -0.4218 -0.4834
 5674SOL    HW228656   3.940   2.600   6.823  1.4748  0.4026  0.9462
 5675SOL     OW28657   1.067   4.448   2.372  0.1656 -0.5826 -0.1781
 5675SOL    HW128658   1.136   4.505   2.405  0.8911 -1.0634 -0.8689
 5675SOL    HW228659   1.123   4.380   2.334 -0.7649 -1.3519 -0.1921
 5676SOL     OW28660   0.417   2.309   5.812 -0.0843 -0.6490  0.5495
 5676SOL    HW128661   0.380   2.338   5.728 -1.7739 -0.3684  1.3980
 5676SOL    HW228662   0.497   2.267   5.781  1.0830  0.6231  1.8613
 5677SOL     OW28663   4.586   1.348   6.107 -0.0156 -0.4175  0.1720
 5677SOL    HW128664   4.501   1.346   6.151 -0.2311  0.5234 -0.2035
 5677SOL    HW228665   4.585   1.270   6.052 -1.9358 -1.2586  1.3799
 5678SOL     OW28666   2.917   0.091  13.883 -0.3972  0.8403 -0.0992
 5678SOL    HW128667   2.870   0.171  13.857 -0.8404  1.2342  1.9332
 5678SOL    HW228668   2.891   0.082  13.974 -0.7210 -2.2174 -0.5012
 5679SOL     OW28669   3.374   1.596  10.462  0.0038  0.1113 -0.4945
 5679SOL    HW128670   3.327   1.677  10.480 -1.4999 -0.5923 -1.2653
 5679SOL    HW228671   3.312   1.561  10.398 -0.7479  1.0430 -0.2731
 5680SOL     OW28672   2.146   4.324   6.168 -0.3556  0.0944  0.1932
 5680SOL    HW128673   2.189   4.274   6.099 -2.0400  2.5753 -2.6865
 5680SOL    HW228674   2.061   4.282   6.179  0.2856 -0.6430  2.3164
 5681SOL     OW28675   3.665   2.916   3.965 -0.6991 -0.0442 -0.1515
 5681SOL    HW128676   3.730   2.878   3.905 -0.1624 -0.6390  0.8154
 5681SOL    HW228677   3.637   2.839   4.014 -1.1527 -0.4069 -0.9732
 5682SOL     OW28678   1.473   1.910   5.206 -0.6027 -0.0747  0.5972
 5682SOL    HW128679   1.481   1.899   5.301  1.5039 -1.4438  0.2641
 5682SOL    HW228680   1.469   1.818   5.181  1.8939 -0.5600  1.9982
 5683SOL     OW28681   0.793   3.961  13.930  0.5702  0.5718  0.0840
 5683SOL    HW128682   0.706   3.933  13.901 -0.2299  1.1264  1.9764
 5683SOL    HW228683   0.769   4.010  14.008 -1.7199 -0.1438 -0.1630
 5684SOL     OW28684   2.155   3.059  11.977  0.0925  0.1343 -0.2837
 5684SOL    HW128685   2.068   3.021  11.966  0.8218 -1.4383 -0.5896
 5684SOL    HW228686   2.196   3.023  11.898  2.3212  0.0711  0.8978
 5685SOL     OW28687   2.797   1.352   5.570 -0.3883  0.0519  0.1493
 5685SOL    HW128688   2.839   1.424   5.522 -1.2236  0.4059 -0.0531
 5685SOL    HW228689   2.786   1.401   5.651 -1.6225  1.9307 -1.1430
 5686SOL     OW28690   2.430   3.538   7.870  0.3558 -0.4210 -0.0766
 5686SOL    HW128691   2.422   3.632   7.887 -0.8318 -0.8773  1.8954
 5686SOL    HW228692   2.386   3.522   7.787 -0.2085 -2.0993  0.5353
 5687SOL     OW28693   3.726   2.582   2.972 -0.2129 -0.0693 -0.1071
 5687SOL    HW128694   3.819   2.562   2.961 -0.1972  0.4416 -0.9316
 5687SOL    HW228695   3.704   2.566   3.064 -0.9430  0.6025 -0.1628
 5688SOL     OW28696   3.027   3.726  11.668 -0.1149 -0.2219 -0.0823
 5688SOL    HW128697   3.077   3.763  11.741  1.4765 -0.2580 -1.1584
 5688SOL    HW228698   2.939   3.755  11.691  0.4017  0.7035  0.7836
 5689SOL     OW28699   1.890   3.512  10.086  0.0937 -0.2113  0.0986
 5689SOL    HW128700   1.922   3.543  10.002 -0.8357  1.5963  0.4183
 5689SOL    HW228701   1.831   3.584  10.106 -1.9296 -1.6882 -0.4890
 5690SOL     OW28702   0.922   4.052  12.634  0.0271  0.0857 -0.0778
 5690SOL    HW128703   0.887   4.124  12.687  1.9633  0.3255  0.8995
 5690SOL    HW228704   1.015   4.057  12.660 -0.0220 -2.0452  0.5175
 5691SOL     OW28705   1.939   1.560   8.489 -0.1548 -0.1530  0.4110
 5691SOL    HW128706   1.948   1.631   8.425  0.9907 -0.1612  0.5741
 5691SOL    HW228707   1.857   1.522   8.456 -0.6287  1.4394 -0.2734
 5692SOL     OW28708   0.984   2.684  12.972  0.2487 -0.2182  0.2477
 5692SOL    HW128709   0.908   2.720  13.017 -0.0785 -2.7953  1.7617
 5692SOL    HW228710   0.943   2.631  12.904 -0.1248  2.6798 -1.7632
 5693SOL     OW28711   1.678   1.583   3.228 -0.4591 -0.2988  0.5024
 5693SOL    HW128712   1.722   1.587   3.313 -1.1552  0.5504  0.8336
 5693SOL    HW228713   1.649   1.674   3.216  0.2742 -0.3981 -2.0993
 5694SOL     OW28714   0.334   0.716  12.053  0.0395  0.0543  0.5935
 5694SOL    HW128715   0.280   0.708  12.132  0.1698 -0.9584  0.5836
 5694SOL    HW228716   0.422   0.696  12.083  0.8619  0.2800 -1.6786
 5695SOL     OW28717   0.520   1.958  13.687 -0.4552 -0.7081  0.0895
 5695SOL    HW128718   0.481   1.952  13.599  1.8771 -0.5145 -0.9672
 5695SOL    HW228719   0.608   1.924  13.665  0.3231  0.0845  2.0401
 5696SOL     OW28720   2.317   0.065   9.327 -0.0793 -0.2842  0.6823
 5696SOL    HW128721   2.270   4.724   9.315 -3.7807  1.9534 -0.0263
 5696SOL    HW228722   2.343   0.055   9.418  1.5222  1.1467  0.3745
 5697SOL     OW28723   2.074   4.691   8.016 -0.2396 -0.2751  0.1272
 5697SOL    HW128724   2.140   0.017   8.000 -2.2778  2.0468  1.3870
 5697SOL    HW228725   1.994   4.738   7.992 -0.9742 -0.6118  1.9189
 5698SOL     OW28726   4.633   1.281   7.704  0.0187  0.3359 -0.4071
 5698SOL    HW128727   4.728   1.284   7.711  0.1101 -2.6065 -0.6824
 5698SOL    HW228728   4.612   1.369   7.737  1.1477  0.7328 -0.7553
 5699SOL     OW28729   2.092   0.821  10.200 -0.5435  0.2032  0.6200
 5699SOL    HW128730   2.150   0.885  10.159  0.5401 -0.6160  0.8663
 5699SOL    HW228731   2.150   0.804  10.273 -1.2361 -0.4030  1.0366
 5700SOL     OW28732   1.339   4.692  15.549  0.6133 -0.5449  0.2744
 5700SOL    HW128733   1.372   0.000  15.474 -0.1008 -0.2599  0.1491
 5700SOL    HW228734   1.259   0.002  15.562 -1.0760 -2.8181 -1.1706
 5701SOL     OW28735   2.421   2.943   6.300 -0.0318  0.9406  0.2173
 5701SOL    HW128736   2.472   2.910   6.374 -0.6338  2.1435  1.1590
 5701SOL    HW228737   2.405   2.860   6.253 -0.4301  1.6536 -0.8997
 5702SOL     OW28738   0.999   2.387   2.073 -0.1685  0.1425  0.7269
 5702SOL    HW128739   1.080   2.336   2.078  0.1887  0.5551 -0.9153
 5702SOL    HW228740   0.930   2.322   2.069  0.5862 -0.6827  1.0896
 5703SOL     OW28741   3.453   0.084   7.178  0.2202 -0.2434 -0.3742
 5703SOL    HW128742   3.465   0.082   7.083 -0.6513 -0.5227 -0.4803
 5703SOL    HW228743   3.375   0.138   7.187  0.2939 -0.5155  1.7662
 5704SOL     OW28744   3.503   1.618   5.112  0.3155  0.1192 -0.4324
 5704SOL    HW128745   3.515   1.710   5.137 -1.3173  0.4707 -0.9132
 5704SOL    HW228746   3.523   1.620   5.019  1.8592  2.1631 -0.0682
 5705SOL     OW28747   1.726   1.944   4.494  0.4024  0.0739  0.1864
 5705SOL    HW128748   1.757   2.001   4.565  2.9951 -0.4005 -0.5769
 5705SOL    HW228749   1.673   1.874   4.532  2.8144 -2.0807 -0.4111
 5706SOL     OW28750   1.528   3.040   7.051  0.5784  0.4957 -0.1775
 5706SOL    HW128751   1.576   2.959   7.070  0.8120  1.5843  3.9977
 5706SOL    HW228752   1.464   3.040   7.123 -0.2742 -0.6631 -0.9414
 5707SOL     OW28753   3.661   3.318   1.835  0.6015 -0.4723  0.1851
 5707SOL    HW128754   3.659   3.237   1.885 -1.5922 -0.7987 -0.3851
 5707SOL    HW228755   3.727   3.360   1.890  0.3669 -1.8003  1.4548
 5708SOL     OW28756   3.032   1.878   3.983  0.3479 -0.5606  0.5981
 5708SOL    HW128757   2.942   1.875   3.953  1.6435 -1.6137 -3.1533
 5708SOL    HW228758   3.042   1.827   4.064 -2.3299  0.4556  1.5434
 5709SOL     OW28759   0.551   3.074   4.591 -0.3291 -0.4741  0.2718
 5709SOL    HW128760   0.460   3.095   4.569 -0.4909 -1.8649 -0.3674
 5709SOL    HW228761   0.538   3.012   4.663  3.3115  0.9187  2.0956
 5710SOL     OW28762   3.372   1.270   3.955  0.0464 -0.4458 -0.0331
 5710SOL    HW128763   3.380   1.355   3.912 -0.7596 -0.3362  0.0458
 5710SOL    HW228764   3.289   1.236   3.921 -1.1425  0.2440  2.1962
 5711SOL     OW28765   1.791   3.983  16.709 -0.1914 -0.2422  0.4930
 5711SOL    HW128766   1.886   3.992  16.721  0.1533 -2.4155 -0.7332
 5711SOL    HW228767   1.767   3.987  16.802 -2.7821 -1.7060 -0.1236
 5712SOL     OW28768   3.831   0.958   5.187  0.2569  0.0962 -1.2406
 5712SOL    HW128769   3.864   0.872   5.211  0.4410  0.4509 -0.2116
 5712SOL    HW228770   3.768   0.944   5.116 -1.9959 -2.8274  1.3724
 5713SOL     OW28771   1.828   3.675   1.569  0.2395 -0.1190  0.6364
 5713SOL    HW128772   1.806   3.617   1.642  1.3802 -1.9488 -0.4681
 5713SOL    HW228773   1.759   3.741   1.576 -1.4071 -1.8996  1.3813
 5714SOL     OW28774   1.808   1.984  16.090  0.2026  0.1514 -0.0534
 5714SOL    HW128775   1.727   2.015  16.131  0.1153  1.4088 -1.1665
 5714SOL    HW228776   1.835   2.065  16.046 -0.9173  2.9095  4.2728
 5715SOL     OW28777   2.823   2.280   4.926  0.2515 -0.0305 -0.0115
 5715SOL    HW128778   2.792   2.200   4.883  0.3786  0.2972 -0.7190
 5715SOL    HW228779   2.916   2.260   4.937  0.2744 -0.5918 -1.1384
 5716SOL     OW28780   1.003   4.078   6.534 -0.2027 -0.8788  0.0814
 5716SOL    HW128781   0.995   4.151   6.595 -1.1143 -1.0372  0.1593
 5716SOL    HW228782   1.043   4.011   6.590  2.7324  1.6465  0.9657
 5717SOL     OW28783   1.236   2.526   5.757  0.2504 -0.5484  0.4092
 5717SOL    HW128784   1.307   2.558   5.813 -1.5194 -2.0229  3.5370
 5717SOL    HW228785   1.187   2.483   5.827 -0.4903 -0.0410  0.1892
 5718SOL     OW28786   0.876   1.391   5.863  0.1189  0.1405  0.5332
 5718SOL    HW128787   0.922   1.467   5.899 -0.6168  0.8666 -0.0598
 5718SOL    HW228788   0.915   1.391   5.776 -0.7442 -0.0325  0.1437
 5719SOL     OW28789   1.783   4.040   3.122  0.6381 -0.2683  0.0748
 5719SOL    HW128790   1.695   4.074   3.113  1.1401  0.5491 -1.7142
 5719SOL    HW228791   1.801   4.015   3.031  1.3920 -0.1867  0.2017
 5720SOL     OW28792   0.251   2.448  11.224  0.5151  0.2402  0.3374
 5720SOL    HW128793   0.326   2.456  11.282  0.9188 -1.9295  0.1067
 5720SOL    HW228794   0.248   2.357  11.196 -0.7240  0.6234 -0.7924
 5721SOL     OW28795   2.089   4.114   5.796 -0.1536  0.1603 -0.2240
 5721SOL    HW128796   2.116   4.035   5.749  0.6278  0.4759 -0.3124
 5721SOL    HW228797   2.003   4.086   5.825 -0.7764  0.8560 -1.3946
 5722SOL     OW28798   2.622   3.701   0.664 -0.2886  0.3065 -0.1290
 5722SOL    HW128799   2.697   3.643   0.676 -0.3798  0.6615  2.1518
 5722SOL    HW228800   2.546   3.650   0.637  0.9655 -0.7052 -1.7586
 5723SOL     OW28801   0.786   3.268   7.194 -0.2150  0.0895 -0.1089
 5723SOL    HW128802   0.834   3.349   7.213  0.8647 -0.9604  1.6755
 5723SOL    HW228803   0.744   3.296   7.113 -0.2978  2.2849  0.6886
 5724SOL     OW28804   1.909   2.119   7.893 -0.4262  0.2257  0.1482
 5724SOL    HW128805   1.862   2.054   7.944 -1.5492  0.5487 -0.4631
 5724SOL    HW228806   1.840   2.183   7.874  0.7753  0.9946 -1.6617
 5725SOL     OW28807   1.040   1.992   7.869  0.2063 -0.3065  0.1379
 5725SOL    HW128808   1.099   1.990   7.944  1.4363  0.3043 -0.8116
 5725SOL    HW228809   1.005   2.081   7.869  0.2628 -0.2912  0.7839
 5726SOL     OW28810   1.927   0.318  10.378 -0.4453  0.5214 -0.0753
 5726SOL    HW128811   1.841   0.323  10.420 -0.4936  3.3955 -0.5404
 5726SOL    HW228812   1.911   0.358  10.293  1.1503  4.0173  1.2556
 5727SOL     OW28813   4.170   1.277   3.470  0.3525  0.0799 -0.8521
 5727SOL    HW128814   4.210   1.363   3.461  1.6202 -0.2874  1.3505
 5727SOL    HW228815   4.115   1.272   3.391  1.6599  0.6507 -1.7892
 5728SOL     OW28816   0.126   1.200   4.950  0.1286 -0.5912 -0.6784
 5728SOL    HW128817   0.033   1.213   4.965  0.3197 -0.8408  0.6510
 5728SOL    HW228818   0.145   1.142   5.023  0.4478  0.5403  0.1291
 5729SOL     OW28819   3.414   4.557   6.286  0.3491 -0.3069  0.4188
 5729SOL    HW128820   3.505   4.546   6.314  1.1590  1.5691 -1.4457
 5729SOL    HW228821   3.361   4.566   6.365  1.1672  1.2203  0.7933
 5730SOL     OW28822   1.850   1.810  12.120 -0.1712  0.1239  0.4727
 5730SOL    HW128823   1.887   1.865  12.190  1.6545 -0.0446 -0.3533
 5730SOL    HW228824   1.924   1.760  12.086  0.2420  0.9537  0.1390
 5731SOL     OW28825   1.377   0.671  17.581  0.7806  0.2949 -0.2114
 5731SOL    HW128826   1.423   0.670  17.497  1.0758 -0.5475 -0.0334
 5731SOL    HW228827   1.293   0.690  17.538  0.5743 -0.5465 -0.1774
 5732SOL     OW28828   3.438   2.585   9.585  0.2779 -0.0695  0.0741
 5732SOL    HW128829   3.418   2.511   9.642  1.1809 -0.3356  0.0424
 5732SOL    HW228830   3.410   2.652   9.648  0.0915 -0.1956  0.1254
 5733SOL     OW28831   0.310   2.207   2.169 -0.2545  0.2621 -0.9695
 5733SOL    HW128832   0.301   2.145   2.242  0.4076  0.4297 -0.7496
 5733SOL    HW228833   0.253   2.159   2.108 -0.4475  0.8629 -1.2615
 5734SOL     OW28834   2.042   1.679   5.766  0.2636 -0.1936 -0.3357
 5734SOL    HW128835   1.960   1.630   5.758  0.0288  0.6240 -2.9524
 5734SOL    HW228836   2.085   1.636   5.692  0.6590  2.3945 -1.5984
 5735SOL     OW28837   2.921   4.096   5.169  0.1100  0.3959  0.8734
 5735SOL    HW128838   2.865   4.110   5.093 -1.0292  0.9991  1.8254
 5735SOL    HW228839   2.940   4.182   5.207  1.9813 -1.0680  3.2693
 5736SOL     OW28840   0.135   2.152   1.441 -1.0310  0.1596 -0.0747
 5736SOL    HW128841   0.072   2.188   1.503  0.4783  2.3888  0.1725
 5736SOL    HW228842   0.092   2.069   1.420 -0.6687 -0.0133 -0.1320
 5737SOL     OW28843   0.225   3.367   0.005 -0.0558 -0.2480 -0.1027
 5737SOL    HW128844   0.168   3.303  17.724 -0.2742  0.3629 -0.7254
 5737SOL    HW228845   0.283   3.379  17.690 -0.6598 -1.2124 -0.7104
 5738SOL     OW28846   0.916   4.338   2.632 -0.2930  0.1854  0.1849
 5738SOL    HW128847   0.988   4.290   2.590  0.8695  1.5053  0.6846
 5738SOL    HW228848   0.855   4.268   2.655 -1.5027  2.0561  2.6701
 5739SOL     OW28849   1.301   1.199   2.078 -0.6557 -0.4829 -0.0705
 5739SOL    HW128850   1.285   1.121   2.025 -2.0993  0.4818 -1.0789
 5739SOL    HW228851   1.376   1.164   2.125 -1.7248 -1.0585  1.2241
 5740SOL     OW28852   2.672   2.363   8.336 -0.6365  0.0414  0.4702
 5740SOL    HW128853   2.684   2.436   8.397 -2.7499 -0.3027  1.3122
 5740SOL    HW228854   2.700   2.403   8.254  0.2140 -1.6017 -0.0386
 5741SOL     OW28855   4.394   0.910   2.838 -0.0658 -0.0773 -0.4470
 5741SOL    HW128856   4.353   0.824   2.826  1.9464 -1.2229  0.8097
 5741SOL    HW228857   4.365   0.925   2.927 -2.7963 -2.3843 -0.9690
 5742SOL     OW28858   2.999   2.892   8.081 -0.0846  0.1778  0.5070
 5742SOL    HW128859   3.078   2.936   8.111  0.4986 -0.3987 -0.1961
 5742SOL    HW228860   2.975   2.919   7.993 -0.4711  0.3394  0.6603
 5743SOL     OW28861   2.361   2.862   5.742 -0.0483  0.5000  0.4369
 5743SOL    HW128862   2.288   2.922   5.756 -1.5052 -0.9130 -1.0264
 5743SOL    HW228863   2.349   2.836   5.651  2.1878 -0.0182  0.2965
 5744SOL     OW28864   4.218   4.365  16.698 -0.2691  0.1855 -0.1845
 5744SOL    HW128865   4.151   4.300  16.720  1.9106 -2.1532 -0.4287
 5744SOL    HW228866   4.297   4.313  16.715  1.4423  2.1879 -1.8900
 5745SOL     OW28867   0.117   3.124   5.922  0.6707 -0.3072 -0.3408
 5745SOL    HW128868   0.172   3.160   5.852 -1.3263  0.9136 -1.2747
 5745SOL    HW228869   0.177   3.139   5.995 -0.1127  1.6397 -0.1019
 5746SOL     OW28870   0.846   3.085   6.630  0.2171 -0.6439 -0.0884
 5746SOL    HW128871   0.904   3.149   6.588 -0.3545 -1.5963 -2.2947
 5746SOL    HW228872   0.778   3.138   6.672  0.2607 -1.6128  1.2110
 5747SOL     OW28873   2.805   0.186   6.266  0.8051 -0.0774 -0.4952
 5747SOL    HW128874   2.726   0.147   6.305 -0.4040  1.4214 -1.4369
 5747SOL    HW228875   2.768   0.249   6.204  1.7873  0.1920 -0.8021
 5748SOL     OW28876   0.580   2.815   1.880 -0.2647  0.5134  0.8111
 5748SOL    HW128877   0.572   2.882   1.812  0.7634 -0.7799 -0.5784
 5748SOL    HW228878   0.488   2.811   1.905 -0.7592 -1.3182 -1.3355
 5749SOL     OW28879   2.577   0.514  13.114  0.2221  0.0163  0.3256
 5749SOL    HW128880   2.578   0.604  13.083  0.7080  0.5833  1.9451
 5749SOL    HW228881   2.508   0.472  13.063 -0.6601  1.0274  0.6766
 5750SOL     OW28882   3.137   0.341   2.712  0.5188  0.4225  0.3980
 5750SOL    HW128883   3.179   0.256   2.710 -1.6329 -0.6378  0.0459
 5750SOL    HW228884   3.106   0.341   2.803  0.5982  2.5990  0.4245
 5751SOL     OW28885   0.953   0.897   3.948 -0.6449 -0.0789 -0.5308
 5751SOL    HW128886   1.032   0.941   3.978 -0.2091 -1.8118  0.8011
 5751SOL    HW228887   0.913   0.969   3.898  1.0380  1.7679  0.7899
 5752SOL     OW28888   3.666   0.699   3.889  0.1097 -0.1557  0.1545
 5752SOL    HW128889   3.595   0.715   3.827  1.1778  1.6644 -0.5804
 5752SOL    HW228890   3.704   0.786   3.897 -1.3142  0.6148 -1.4158
 5753SOL     OW28891   4.517   0.584  16.771 -0.7517  0.1661 -0.7257
 5753SOL    HW128892   4.559   0.546  16.848  1.4311 -0.1151 -2.0628
 5753SOL    HW228893   4.463   0.510  16.743  1.0195 -0.8215 -1.5501
 5754SOL     OW28894   3.411   4.131   3.335 -0.0603 -0.5731  0.1462
 5754SOL    HW128895   3.426   4.043   3.369  0.3230 -0.3334  0.6057
 5754SOL    HW228896   3.316   4.144   3.336 -0.1736 -1.5583  2.4432
 5755SOL     OW28897   2.376   1.897  13.109 -0.3012 -0.2128  0.5404
 5755SOL    HW128898   2.362   1.846  13.189 -0.1446 -1.4376 -0.1997
 5755SOL    HW228899   2.296   1.949  13.114  1.1056  2.1128 -1.3015
 5756SOL     OW28900   2.533   1.296  15.739 -0.6846  0.3728  0.0826
 5756SOL    HW128901   2.554   1.266  15.827 -2.6337  0.6104  0.6296
 5756SOL    HW228902   2.511   1.389  15.746 -1.3818  0.2182  0.0110
 5757SOL     OW28903   2.409   2.860   2.025 -0.5525  0.7189 -0.4616
 5757SOL    HW128904   2.441   2.950   2.020  1.1081  0.2275  1.4901
 5757SOL    HW228905   2.444   2.811   1.951 -0.4683  0.1815 -0.0707
 5758SOL     OW28906   2.247   0.847  16.053  0.1809 -0.1646  0.1057
 5758SOL    HW128907   2.187   0.918  16.031 -0.0329 -0.8178 -1.3848
 5758SOL    HW228908   2.302   0.848  15.975  0.6020 -0.8249  0.3897
 5759SOL     OW28909   1.274   2.467   7.881  0.1590  0.2800 -0.3300
 5759SOL    HW128910   1.236   2.380   7.895 -2.2012  1.4364  0.4612
 5759SOL    HW228911   1.258   2.507   7.967 -0.8167  0.3844 -0.5640
 5760SOL     OW28912   2.813   1.839   5.004  0.0216 -0.7277 -0.0728
 5760SOL    HW128913   2.758   1.911   4.973  1.0530  0.7144  1.4806
 5760SOL    HW228914   2.898   1.876   4.980 -0.4699 -1.1361 -2.4325
 5761SOL     OW28915   2.170   3.680  12.769 -0.0136  0.2292  0.1623
 5761SOL    HW128916   2.091   3.700  12.819  0.2800  1.1100  0.2659
 5761SOL    HW228917   2.240   3.721  12.820  0.9552  0.4203 -1.3253
 5762SOL     OW28918   0.924   1.797   1.058  0.3646  0.4220  0.1199
 5762SOL    HW128919   0.974   1.717   1.072 -0.9886 -0.5974 -0.8226
 5762SOL    HW228920   0.841   1.773   1.099  1.8627 -0.4189  2.6214
 5763SOL     OW28921   3.361   3.153   6.925 -0.1608 -0.4498 -0.0709
 5763SOL    HW128922   3.279   3.182   6.886  0.2250 -1.0474 -1.3287
 5763SOL    HW228923   3.367   3.068   6.880  1.0778 -0.8259  0.8042
 5764SOL     OW28924   0.137   0.583   6.456  0.0514 -0.0773 -0.2362
 5764SOL    HW128925   0.126   0.609   6.365  0.5480  0.4701 -0.1381
 5764SOL    HW228926   0.099   0.652   6.511  2.8304 -0.5291  2.2222
 5765SOL     OW28927   0.382   0.577  15.156 -0.0298 -0.5541 -0.6131
 5765SOL    HW128928   0.456   0.622  15.115 -0.1795  0.6690  0.4501
 5765SOL    HW228929   0.339   0.522  15.091  0.0077 -0.5492 -0.6416
 5766SOL     OW28930   1.371   0.828   0.222  0.2627 -0.0639  0.3713
 5766SOL    HW128931   1.281   0.815   0.253 -0.0022 -0.5206 -0.5851
 5766SOL    HW228932   1.351   0.861   0.134  2.0623 -0.9184 -0.3467
 5767SOL     OW28933   1.918   1.247  16.209  0.5365 -0.4176 -0.6685
 5767SOL    HW128934   1.931   1.180  16.141  0.5010 -1.4279  0.3177
 5767SOL    HW228935   1.845   1.286  16.161  1.8185  2.8510  0.0658
 5768SOL     OW28936   2.822   3.489   0.706 -0.3601 -0.1827  0.0446
 5768SOL    HW128937   2.887   3.557   0.690 -0.9109  0.4474  0.5360
 5768SOL    HW228938   2.826   3.484   0.802 -1.0271  2.2514  0.1895
 5769SOL     OW28939   3.703   0.605  16.417 -0.3609  0.0265 -0.2712
 5769SOL    HW128940   3.715   0.669  16.487 -2.6544 -0.4350  0.5431
 5769SOL    HW228941   3.625   0.642  16.374 -1.0189  2.0175  2.6235
 5770SOL     OW28942   2.911   1.158   2.192 -0.1831 -0.0160  0.5040
 5770SOL    HW128943   2.979   1.092   2.206  1.4852  1.4516 -0.5296
 5770SOL    HW228944   2.919   1.172   2.097  1.1926  1.6869  0.8657
 5771SOL     OW28945   2.647   3.055   0.223 -0.3432  0.2057 -0.0707
 5771SOL    HW128946   2.730   3.074   0.178 -0.0199 -0.5380  0.2014
 5771SOL    HW228947   2.656   3.119   0.293  0.3233  0.5869 -0.5008
 5772SOL     OW28948   0.927   0.014   5.077 -0.1600 -0.0186  0.4784
 5772SOL    HW128949   0.991   0.085   5.073  1.2142 -1.3268 -0.9877
 5772SOL    HW228950   0.845   0.063   5.072 -0.7384 -1.0545 -0.2244
 5773SOL     OW28951   3.236   0.242  14.529  0.2970 -0.4699 -0.4684
 5773SOL    HW128952   3.234   0.147  14.536 -0.3997 -0.7536 -4.2418
 5773SOL    HW228953   3.298   0.265  14.598 -0.9167 -0.2936  0.5662
 5774SOL     OW28954   4.256   0.780  11.923 -0.8674 -0.2722  0.1600
 5774SOL    HW128955   4.162   0.793  11.911 -0.7568  0.2412 -0.1732
 5774SOL    HW228956   4.278   0.870  11.899  2.5605 -0.9192  0.8779
 5775SOL     OW28957   1.681   1.763   4.791  0.5238  0.3527 -0.1189
 5775SOL    HW128958   1.591   1.769   4.759  0.7434 -2.3154 -1.2048
 5775SOL    HW228959   1.681   1.840   4.849 -3.4731  0.4272 -0.2633
 5776SOL     OW28960   2.550   2.867   8.910 -0.3739  0.0700  0.1097
 5776SOL    HW128961   2.531   2.888   9.002 -0.7936 -1.6288  0.4099
 5776SOL    HW228962   2.475   2.816   8.880 -1.2282  1.4884 -0.1694
 5777SOL     OW28963   0.061   2.411   5.951  0.3249 -0.0815 -0.1666
 5777SOL    HW128964   0.149   2.384   5.978 -1.2851 -1.9655  3.2918
 5777SOL    HW228965   0.069   2.505   5.962 -0.5393 -0.0390  0.0963
 5778SOL     OW28966   2.017   4.463   2.613  0.0423  0.3504 -0.4392
 5778SOL    HW128967   2.046   4.500   2.530  1.1633 -0.9442 -0.6228
 5778SOL    HW228968   2.055   4.522   2.679 -2.5656  1.0569  0.4611
 5779SOL     OW28969   0.336   1.477  11.669 -0.3426  0.1387 -0.3238
 5779SOL    HW128970   0.282   1.556  11.669 -1.3779 -0.5663 -0.4270
 5779SOL    HW228971   0.275   1.409  11.640  1.3819 -1.4378 -0.2513
 5780SOL     OW28972   1.547   3.805   5.941  0.9522 -0.6655 -0.2387
 5780SOL    HW128973   1.506   3.732   5.989 -1.2012  1.8544  1.7574
 5780SOL    HW228974   1.489   3.878   5.963  2.2111 -0.1180  1.2692
 5781SOL     OW28975   0.382   0.327  15.264  0.2564  0.1122  0.0411
 5781SOL    HW128976   0.412   0.416  15.246 -1.1626  0.2070 -1.8726
 5781SOL    HW228977   0.417   0.312  15.352 -0.2330 -1.1236  0.0321
 5782SOL     OW28978   1.318   4.711   6.137  0.0688  0.1860  0.2707
 5782SOL    HW128979   1.361   4.635   6.098 -0.7794  0.3105 -0.9336
 5782SOL    HW228980   1.333   0.038   6.070 -2.3417  1.3044  0.8480
 5783SOL     OW28981   1.774   1.921   6.836  0.0070 -0.6047 -0.3858
 5783SOL    HW128982   1.725   1.973   6.900 -0.2635 -0.6867 -0.5272
 5783SOL    HW228983   1.714   1.847   6.823 -1.2901  0.1084  1.4228
 5784SOL     OW28984   4.064   4.052   4.394  0.5593  0.4371 -0.5251
 5784SOL    HW128985   4.107   4.121   4.444 -1.3605 -0.4630  2.3304
 5784SOL    HW228986   4.107   3.978   4.437 -0.1089 -0.7298 -1.8636
 5785SOL     OW28987   1.151   3.981   8.902  0.0488  0.3813  0.0224
 5785SOL    HW128988   1.056   3.985   8.915 -0.4907 -2.4858 -3.1082
 5785SOL    HW228989   1.189   4.059   8.942  0.3386 -0.2688  0.9838
 5786SOL     OW28990   2.806   1.282   4.331 -0.3811  0.0996  0.0328
 5786SOL    HW128991   2.788   1.250   4.243  1.2151 -1.6736  0.3447
 5786SOL    HW228992   2.773   1.201   4.372  2.9292 -1.5892 -0.6567
 5787SOL     OW28993   2.743   2.222  14.214 -0.1021  0.7464 -0.1669
 5787SOL    HW128994   2.805   2.294  14.203  2.5580 -1.3754  0.8782
 5787SOL    HW228995   2.791   2.142  14.235 -2.2422 -0.5987 -0.3742
 5788SOL     OW28996   4.741   0.007   7.460  0.0954 -0.0447 -0.0587
 5788SOL    HW128997   4.721   4.663   7.420  1.1762 -0.5651  0.4890
 5788SOL    HW228998   0.059   0.043   7.394 -0.0813  2.5381  1.2084
 5789SOL     OW28999   4.663   1.408   1.415  0.1938 -0.2492 -0.4297
 5789SOL    HW129000   4.659   1.333   1.355 -1.2531  0.4452 -1.2169
 5789SOL    HW229001   4.686   1.377   1.503  0.5545  2.9018  0.6002
 5790SOL     OW29002   2.658   0.567  16.792  0.5674 -0.5694  0.6658
 5790SOL    HW129003   2.695   0.637  16.739  0.2750 -1.1659 -0.3300
 5790SOL    HW229004   2.611   0.618  16.858  0.6279  0.1532  0.1521
 5791SOL     OW29005   4.204   4.186   4.612  0.7665 -0.4568  0.3244
 5791SOL    HW129006   4.145   4.215   4.682  1.5024  1.2293  0.2480
 5791SOL    HW229007   4.279   4.165   4.668 -0.6246 -5.4426  0.3133
 5792SOL     OW29008   3.239   0.165  10.679  0.1285 -0.6711 -0.8165
 5792SOL    HW129009   3.330   0.142  10.696  0.4283  1.8635  1.0080
 5792SOL    HW229010   3.239   0.170  10.583  0.6888 -4.1910 -1.0084
 5793SOL     OW29011   1.483   2.710   4.960 -0.2729  0.5069 -0.3822
 5793SOL    HW129012   1.503   2.660   5.039 -1.6155 -2.4513 -1.9248
 5793SOL    HW229013   1.519   2.796   4.980  2.0539  0.0411 -2.5987
 5794SOL     OW29014   2.264   2.384  17.744 -0.0495 -0.2636 -0.4163
 5794SOL    HW129015   2.296   2.362  17.657  0.8885  0.2388 -0.1961
 5794SOL    HW229016   2.329   2.448   0.011 -1.1705  0.0086  1.5247
 5795SOL     OW29017   1.837   2.008   3.509  0.0475 -0.2948 -0.4157
 5795SOL    HW129018   1.857   1.914   3.517 -1.2418 -0.5197  0.0922
 5795SOL    HW229019   1.910   2.045   3.559 -0.2851 -2.2380  1.5360
 5796SOL     OW29020   3.865   1.021   1.888  0.1083  0.1574  0.3218
 5796SOL    HW129021   3.818   1.043   1.808 -0.9111 -2.8565  0.1007
 5796SOL    HW229022   3.800   1.030   1.957 -0.9975  0.3277 -0.7498
 5797SOL     OW29023   1.852   4.243  15.525  0.4494  0.7121 -0.2857
 5797SOL    HW129024   1.798   4.164  15.525  3.0955 -1.1052 -0.8590
 5797SOL    HW229025   1.791   4.298  15.574 -0.2834  1.1593 -1.7127
 5798SOL     OW29026   3.046   1.216   4.567  0.1159  0.2172 -0.2522
 5798SOL    HW129027   3.082   1.187   4.651 -0.4267 -1.5554 -0.6326
 5798SOL    HW229028   3.115   1.207   4.501  1.7077 -1.8772  1.6556
 5799SOL     OW29029   2.145   2.576   6.819 -0.0129  0.3234 -0.2149
 5799SOL    HW129030   2.239   2.584   6.806 -0.1122  1.4744 -0.2357
 5799SOL    HW229031   2.114   2.551   6.732 -1.1160  0.5300  0.1203
 5800SOL     OW29032   2.575   1.870  16.712  0.4243 -0.1519 -0.5269
 5800SOL    HW129033   2.608   1.957  16.689 -0.1526  0.4519  0.9735
 5800SOL    HW229034   2.635   1.813  16.663  0.3799  0.5235 -1.3591
 5801SOL     OW29035   2.147   0.839  16.399 -0.5304  0.6568 -0.2277
 5801SOL    HW129036   2.129   0.926  16.364  3.6177  1.3535 -0.5951
 5801SOL    HW229037   2.119   0.794  16.319  1.8199  0.6533 -1.0410
 5802SOL     OW29038   1.330   0.272  15.693  0.4015 -0.0479 -0.0049
 5802SOL    HW129039   1.239   0.302  15.687 -0.1674 -1.5631  0.8659
 5802SOL    HW229040   1.348   0.291  15.785 -0.8510 -0.2387  0.2777
 5803SOL     OW29041   0.870   0.035   3.134 -0.2187 -0.2990  0.8848
 5803SOL    HW129042   0.791   0.042   3.080 -0.6865 -3.2459  1.1971
 5803SOL    HW229043   0.932   0.090   3.085 -1.0497  0.1726  0.3441
 5804SOL     OW29044   1.644   1.699  17.290 -0.0854  0.0838  0.7881
 5804SOL    HW129045   1.595   1.762  17.343 -0.3926  0.0044  0.5971
 5804SOL    HW229046   1.589   1.705  17.212 -2.7276 -0.8446  2.5589
 5805SOL     OW29047   4.565   1.823  11.933 -0.1491  0.2496  0.1692
 5805SOL    HW129048   4.556   1.735  11.970 -0.4163  0.4651  0.6112
 5805SOL    HW229049   4.644   1.825  11.879 -0.5236  2.5251 -0.2934
 5806SOL     OW29050   3.206   0.613   2.958 -0.2277  0.5075 -0.4394
 5806SOL    HW129051   3.202   0.607   3.054  0.9790  0.4804 -0.3922
 5806SOL    HW229052   3.292   0.647   2.933  0.3519 -0.1870  0.5796
 5807SOL     OW29053   3.245   4.530   9.838  0.1065 -0.6310  0.0340
 5807SOL    HW129054   3.339   4.512   9.850 -0.2545 -2.2509  0.3612
 5807SOL    HW229055   3.232   4.481   9.757  0.5267  0.6542 -0.8079
 5808SOL     OW29056   0.197   4.119   9.012 -0.3510  0.4864 -0.0021
 5808SOL    HW129057   0.192   4.109   9.107  1.7523 -2.6764 -0.2243
 5808SOL    HW229058   0.135   4.047   8.996  1.6082 -0.9933 -0.8810
 5809SOL     OW29059   0.605   0.376   8.205  0.4294  0.4352 -0.1377
 5809SOL    HW129060   0.563   0.456   8.238 -0.5249 -0.3770  0.6065
 5809SOL    HW229061   0.672   0.375   8.274 -1.7401  2.1206  2.0013
 5810SOL     OW29062   0.665   3.648  17.257  0.0243  0.4390 -0.8278
 5810SOL    HW129063   0.647   3.560  17.222  1.1211  0.5374 -1.6707
 5810SOL    HW229064   0.579   3.684  17.239 -0.0301  0.9324  0.4708
 5811SOL     OW29065   4.528   2.571  11.717  0.1208 -0.5750  0.1643
 5811SOL    HW129066   4.553   2.628  11.790  0.2992  1.3906 -1.4251
 5811SOL    HW229067   4.597   2.506  11.702  0.3476 -0.0447 -1.0643
 5812SOL     OW29068   0.946   0.529   3.835 -0.0298  0.0966 -0.7917
 5812SOL    HW129069   0.874   0.483   3.791  0.1051 -1.4126  0.5866
 5812SOL    HW229070   1.021   0.492   3.790  0.2185 -0.6348  0.2337
 5813SOL     OW29071   0.844   0.573   5.541  0.2461  0.2798  0.2088
 5813SOL    HW129072   0.789   0.646   5.567 -0.3952  0.3749 -1.3996
 5813SOL    HW229073   0.787   0.498   5.558  0.7239 -0.2746 -0.6040
 5814SOL     OW29074   2.753   0.001   1.982 -0.2845 -0.2318 -0.0533
 5814SOL    HW129075   2.777   4.651   1.997  0.5879  0.1559  0.8833
 5814SOL    HW229076   2.707   0.013   2.066  2.4007  1.7013  1.1376
 5815SOL     OW29077   4.679   2.320  11.676  0.1670  0.1107 -0.7386
 5815SOL    HW129078   4.631   2.245  11.641  1.1110 -0.3619 -1.0305
 5815SOL    HW229079   0.028   2.297  11.652  0.4369 -3.3331  3.6476
 5816SOL     OW29080   3.834   1.425   6.277  0.1380 -0.2151  0.5271
 5816SOL    HW129081   3.892   1.357   6.312 -0.6398 -0.8871  0.5213
 5816SOL    HW229082   3.785   1.366   6.221  1.1701  0.6593 -1.2961
 5817SOL     OW29083   4.331   3.703   4.734 -0.3889  0.0718 -1.2865
 5817SOL    HW129084   4.266   3.636   4.714 -2.2016  0.9420  1.5899
 5817SOL    HW229085   4.367   3.713   4.646  1.3202 -0.1840 -0.6231
 5818SOL     OW29086   3.441   3.430  16.922 -0.1240  0.3004  1.1662
 5818SOL    HW129087   3.509   3.465  16.979  2.1378  0.7991 -1.8296
 5818SOL    HW229088   3.372   3.413  16.986 -1.7753 -0.9351 -0.9479
 5819SOL     OW29089   2.596   4.214   9.598  0.0570  0.2241  0.6506
 5819SOL    HW129090   2.544   4.139   9.572 -0.2312 -0.4070  3.0074
 5819SOL    HW229091   2.625   4.237   9.510  0.1735 -0.4273  0.5217
 5820SOL     OW29092   4.490   2.846  11.408  0.4203 -0.2749 -0.5044
 5820SOL    HW129093   4.475   2.756  11.437  0.6725 -0.3046 -0.4670
 5820SOL    HW229094   4.411   2.849  11.354  0.4940  0.3631 -0.5752
 5821SOL     OW29095   3.292   1.843   5.982  0.0328  0.0831 -0.0403
 5821SOL    HW129096   3.317   1.834   5.890 -0.5001  0.3241 -0.2082
 5821SOL    HW229097   3.337   1.774   6.031  1.3424  0.5721 -0.5608
 5822SOL     OW29098   0.684   1.925   4.055  0.1245 -0.1936  0.1378
 5822SOL    HW129099   0.711   2.016   4.061  1.3741 -0.6039  0.5619
 5822SOL    HW229100   0.677   1.907   3.961 -2.2661  0.4222  0.1838
 5823SOL     OW29101   4.336   1.882   5.740  0.0478  0.3874 -0.6587
 5823SOL    HW129102   4.372   1.971   5.740 -2.4836  1.4391 -0.4650
 5823SOL    HW229103   4.397   1.838   5.799 -1.7198  2.0888  2.4792
 5824SOL     OW29104   0.974   0.731   1.918  0.3262 -0.3135  0.4153
 5824SOL    HW129105   1.065   0.709   1.937 -0.4713 -2.7782  1.4219
 5824SOL    HW229106   0.936   0.749   2.004 -1.3446  2.2687 -0.8631
 5825SOL     OW29107   2.375   1.300   8.899  0.7326 -0.0768 -0.3973
 5825SOL    HW129108   2.437   1.269   8.833  1.6622 -0.4874  0.6843
 5825SOL    HW229109   2.409   1.249   8.973 -1.3063 -1.3636 -0.3444
 5826SOL     OW29110   2.144   1.264   1.889 -0.4295 -0.0750  0.1863
 5826SOL    HW129111   2.165   1.294   1.801  0.5543 -1.1017  0.0676
 5826SOL    HW229112   2.051   1.242   1.884 -0.3025 -0.1388 -2.0458
 5827SOL     OW29113   0.041   0.514   0.548 -0.0612  0.1793  0.4015
 5827SOL    HW129114   4.739   0.452   0.488 -0.1554  0.3977  0.2448
 5827SOL    HW229115   0.126   0.529   0.508 -0.9751  2.4971 -0.6405
 5828SOL     OW29116   3.561   1.099   5.536 -0.4548  0.2610  0.2925
 5828SOL    HW129117   3.651   1.120   5.558 -0.6716 -1.0348  2.4608
 5828SOL    HW229118   3.547   1.027   5.599 -2.0493 -0.1365 -0.5003
 5829SOL     OW29119   3.090   0.197   6.681 -0.4567  0.1416 -0.9318
 5829SOL    HW129120   3.094   0.179   6.775  0.5782  0.8381 -0.8382
 5829SOL    HW229121   3.007   0.245   6.689 -0.8370 -0.5227 -0.8854
 5830SOL     OW29122   3.596   2.206   7.991 -0.1582  0.2215  0.2515
 5830SOL    HW129123   3.636   2.278   7.942 -0.8353 -0.3077 -1.0841
 5830SOL    HW229124   3.511   2.200   7.948 -1.0587  0.7279  1.9551
 5831SOL     OW29125   1.399   1.246  15.646 -0.7954 -0.0520  0.3872
 5831SOL    HW129126   1.354   1.228  15.728 -0.4234  0.6386  0.7388
 5831SOL    HW229127   1.438   1.330  15.671  2.7085 -1.1754 -1.2998
 5832SOL     OW29128   2.641   0.250   0.436  0.0403  0.2078 -0.7855
 5832SOL    HW129129   2.687   0.191   0.376  1.3507 -0.4823  0.8853
 5832SOL    HW229130   2.573   0.281   0.376 -0.0656 -3.3947 -2.5571
 5833SOL     OW29131   2.069   0.782  10.990 -0.3508  0.1868 -0.1072
 5833SOL    HW129132   1.978   0.806  10.977  0.0613  1.3875 -0.7937
 5833SOL    HW229133   2.115   0.843  10.933 -0.1717  0.6592  0.5404
 5834SOL     OW29134   4.429   2.721   2.952  0.0344 -0.2798 -0.3504
 5834SOL    HW129135   4.442   2.647   2.892 -0.9399  0.4352 -1.4565
 5834SOL    HW229136   4.521   2.747   2.958  0.1565 -1.0980  1.3459
 5835SOL     OW29137   4.277   3.024   1.876 -0.2823  0.0522  0.2374
 5835SOL    HW129138   4.316   3.102   1.916 -1.5240  0.0476  1.4210
 5835SOL    HW229139   4.195   3.037   1.923 -1.7616  1.5534 -2.7568
 5836SOL     OW29140   3.838   1.080   7.726  0.3140  0.0403 -0.4623
 5836SOL    HW129141   3.764   1.114   7.776  1.7668  0.7769  1.1595
 5836SOL    HW229142   3.807   1.102   7.638 -0.3502  0.5288 -0.1083
 5837SOL     OW29143   2.741   1.533   7.831  0.3912 -0.3901 -0.2745
 5837SOL    HW129144   2.723   1.451   7.876  0.2713 -0.9527 -1.3335
 5837SOL    HW229145   2.651   1.564   7.824  1.1681  1.8803 -0.1750
 5838SOL     OW29146   2.000   3.198  17.441  0.5023 -0.5479  0.1375
 5838SOL    HW129147   1.967   3.121  17.488  2.1947 -0.5844  1.2683
 5838SOL    HW229148   1.967   3.269  17.495  0.7263  0.0345 -0.4990
 5839SOL     OW29149   4.307   1.629   5.250  0.0764 -0.2366  0.1479
 5839SOL    HW129150   4.397   1.653   5.228  0.1252 -1.4349 -0.9519
 5839SOL    HW229151   4.310   1.682   5.330  0.3512 -0.8562  0.5508
 5840SOL     OW29152   3.273   1.690   2.501 -0.2350  0.4999  0.5140
 5840SOL    HW129153   3.304   1.678   2.411 -0.4159 -1.9376  0.7903
 5840SOL    HW229154   3.331   1.633   2.551  1.0316  1.6140  0.3008
 5841SOL     OW29155   4.455   0.893  16.630 -0.5966  0.4781 -0.3525
 5841SOL    HW129156   4.491   0.808  16.654 -0.9198  0.0701 -1.3222
 5841SOL    HW229157   4.365   0.860  16.632  0.5834 -2.7108 -0.4098
 5842SOL     OW29158   3.991   1.889   6.246  0.2138  0.1833 -0.0681
 5842SOL    HW129159   4.000   1.795   6.231  0.6233  0.5118 -1.8680
 5842SOL    HW229160   3.910   1.895   6.297 -0.4119 -0.2242 -1.0121
 5843SOL     OW29161   4.391   2.418   8.583  0.2118  0.6795 -0.3929
 5843SOL    HW129162   4.376   2.367   8.663 -0.3266 -0.5642 -1.2837
 5843SOL    HW229163   4.486   2.424   8.586  0.2277 -0.0528  0.7238
 5844SOL     OW29164   4.106   0.720  12.892  0.2717 -0.0968 -0.1285
 5844SOL    HW129165   4.048   0.753  12.823 -1.3179 -2.0694  0.2800
 5844SOL    HW229166   4.189   0.751  12.855  0.7275 -1.5720 -0.3299
 5845SOL     OW29167   0.247   0.293   8.081 -0.7414  0.3874  0.1489
 5845SOL    HW129168   0.289   0.363   8.031 -1.3267 -0.2892 -1.2806
 5845SOL    HW229169   0.203   0.246   8.010  2.3247 -1.2476 -0.6395
 5846SOL     OW29170   1.774   0.621  14.375 -0.3265 -0.1030 -0.2414
 5846SOL    HW129171   1.779   0.525  14.365 -1.5478 -0.2901  0.9084
 5846SOL    HW229172   1.705   0.629  14.441 -0.0330 -2.8749  0.4408
 5847SOL     OW29173   3.598   4.175   3.622 -0.4127 -0.0787  0.3994
 5847SOL    HW129174   3.588   4.137   3.534  2.3543 -0.8873  0.4446
 5847SOL    HW229175   3.535   4.246   3.608 -1.5795 -1.3094 -0.6739
 5848SOL     OW29176   1.546   2.978   7.794 -0.3514  0.0463 -0.1146
 5848SOL    HW129177   1.582   2.929   7.720 -0.6176 -0.3944  0.0517
 5848SOL    HW229178   1.453   2.992   7.780 -0.2272  0.3061 -0.7197
 5849SOL     OW29179   1.160   3.405   7.058  0.3543  0.6212 -0.1841
 5849SOL    HW129180   1.233   3.346   7.076 -0.1404  0.4817  1.3881
 5849SOL    HW229181   1.154   3.437   7.148 -1.8417 -0.2915 -0.0030
 5850SOL     OW29182   0.154   4.361   9.429  0.2118 -0.5102 -0.4519
 5850SOL    HW129183   0.064   4.366   9.460  0.0462 -0.7521 -0.8894
 5850SOL    HW229184   0.150   4.390   9.338  0.3117 -1.9024 -0.8934
 5851SOL     OW29185   2.294   2.658   2.226 -0.0735  0.4966  0.4485
 5851SOL    HW129186   2.361   2.595   2.200  2.0051  2.6330  0.6564
 5851SOL    HW229187   2.240   2.610   2.288 -0.5879 -1.0653 -1.2164
 5852SOL     OW29188   4.443   2.847   8.906 -0.3982  0.0489 -0.1461
 5852SOL    HW129189   4.369   2.885   8.953  0.1221  0.4821  0.3382
 5852SOL    HW229190   4.511   2.912   8.925 -1.8512  1.5850 -0.2972
 5853SOL     OW29191   2.179   4.531   2.403 -0.3345  0.1383  0.1540
 5853SOL    HW129192   2.199   4.502   2.314  1.0580  1.3631  0.0557
 5853SOL    HW229193   2.259   4.581   2.423 -0.3786  0.0949  0.4427
 5854SOL     OW29194   4.565   0.084   5.465 -0.1890 -0.2155 -0.3898
 5854SOL    HW129195   4.507   0.057   5.537  0.8926 -0.3037  0.4534
 5854SOL    HW229196   4.651   0.049   5.489 -0.2964  1.8558  3.0460
 5855SOL     OW29197   4.552   0.344   7.765  0.3598 -0.6560 -0.1319
 5855SOL    HW129198   4.478   0.344   7.705  0.4626  0.5762 -0.2433
 5855SOL    HW229199   4.614   0.307   7.702 -0.8462  1.4300 -2.5226
 5856SOL     OW29200   3.664   1.310   3.929 -0.4835  0.1124 -0.1736
 5856SOL    HW129201   3.702   1.337   4.013 -1.7689  2.7528 -0.4307
 5856SOL    HW229202   3.571   1.306   3.950 -0.6623  3.0549 -0.3023
 5857SOL     OW29203   1.281   3.941   2.497  0.0666  0.4991  0.0047
 5857SOL    HW129204   1.215   3.880   2.465  0.9279 -2.2260  3.4622
 5857SOL    HW229205   1.289   3.903   2.585  1.0812 -0.5118 -0.5374
 5858SOL     OW29206   3.120   0.735  14.260  0.0628 -0.1554 -0.3466
 5858SOL    HW129207   3.055   0.722  14.191 -1.6171  1.0443  1.0072
 5858SOL    HW229208   3.158   0.647  14.263 -0.2269 -0.2314  1.1150
 5859SOL     OW29209   1.804   2.104  10.330  0.0401  0.6149  0.3812
 5859SOL    HW129210   1.879   2.051  10.305  0.7189  1.4188  0.6871
 5859SOL    HW229211   1.854   2.159  10.391  0.6844  0.2292  0.2004
 5860SOL     OW29212   1.369   3.558  12.312 -0.3124  0.0346  0.2968
 5860SOL    HW129213   1.414   3.522  12.235 -1.6386 -0.4461 -0.2710
 5860SOL    HW229214   1.309   3.492  12.346  1.2512 -1.3253  0.4179
 5861SOL     OW29215   3.375   3.948   7.302  0.1698  0.3497 -0.3007
 5861SOL    HW129216   3.338   4.013   7.362 -0.8645  1.2975 -1.9616
 5861SOL    HW229217   3.358   3.985   7.216 -0.3539  0.3245 -0.2064
 5862SOL     OW29218   2.405   1.014  10.455 -0.2779 -0.0673  0.6209
 5862SOL    HW129219   2.428   0.922  10.440  1.1022  0.2458  0.8703
 5862SOL    HW229220   2.490   1.044  10.487  1.0292 -0.6283 -2.2722
 5863SOL     OW29221   0.656   2.644   2.263  0.0487 -0.0809  0.8969
 5863SOL    HW129222   0.692   2.661   2.176  0.4254 -2.2340  0.6347
 5863SOL    HW229223   0.575   2.601   2.235  0.3624 -1.9057  2.8333
 5864SOL     OW29224   0.766   4.316   5.825  0.1020 -0.7052 -0.6629
 5864SOL    HW129225   0.718   4.251   5.877 -0.5767  1.4924  1.4663
 5864SOL    HW229226   0.695   4.378   5.811  0.6709  0.3633  1.1876
 5865SOL     OW29227   0.291   0.184   7.630 -0.1433 -0.1660  0.1017
 5865SOL    HW129228   0.355   0.136   7.578 -1.5398 -2.7690  0.7682
 5865SOL    HW229229   0.311   0.148   7.717  2.8974 -0.0069 -0.5473
 5866SOL     OW29230   3.673   2.983  12.898 -1.0717 -0.5700  0.3873
 5866SOL    HW129231   3.763   2.993  12.930 -1.2785 -1.1154  1.1327
 5866SOL    HW229232   3.653   3.074  12.922  1.4001  0.3697 -1.0288
 5867SOL     OW29233   1.012   1.351   2.960  0.5618 -0.2573 -0.2462
 5867SOL    HW129234   1.064   1.313   2.889  1.1692  2.3089 -1.1473
 5867SOL    HW229235   1.060   1.328   3.040  2.1821 -2.7470 -1.9306
 5868SOL     OW29236   0.906   3.822   2.660  0.4588  0.4234  0.0803
 5868SOL    HW129237   0.943   3.901   2.701 -0.3296  1.1188 -0.5595
 5868SOL    HW229238   0.975   3.806   2.596  1.6763  3.2054  0.7009
 5869SOL     OW29239   3.479   4.587   0.541  0.0196  0.5508  0.0839
 5869SOL    HW129240   3.517   4.648   0.604  1.4285 -0.6071  0.3243
 5869SOL    HW229241   3.395   4.555   0.575  0.2690 -1.6643 -1.3850
 5870SOL     OW29242   0.112   2.525  15.942 -0.0950  0.0551 -0.5985
 5870SOL    HW129243   0.068   2.589  15.887  1.2272  0.9767 -0.5782
 5870SOL    HW229244   0.083   2.442  15.904  0.8852 -1.4968  2.0326
 5871SOL     OW29245   0.106   2.165   1.980 -0.5640  0.0540 -0.1613
 5871SOL    HW129246   0.014   2.140   1.986 -1.1731  2.2191 -0.5125
 5871SOL    HW229247   0.146   2.079   1.973  0.0640  0.4717 -1.6695
 5872SOL     OW29248   2.010   1.333   4.671 -0.0763  0.0218 -0.1032
 5872SOL    HW129249   1.959   1.360   4.595  0.9425  1.0581 -0.4050
 5872SOL    HW229250   2.073   1.403   4.686 -1.1756  0.9587  0.1428
 5873SOL     OW29251   2.348   0.710   0.011 -0.0598 -0.0444  0.1302
 5873SOL    HW129252   2.364   0.720  17.678  0.6812  1.6464  0.4521
 5873SOL    HW229253   2.285   0.781   0.022  1.2368  1.1483 -0.1648
 5874SOL     OW29254   3.608   1.248   8.271 -0.5494  0.4083  0.2989
 5874SOL    HW129255   3.635   1.335   8.299  0.8874 -0.5744  1.9640
 5874SOL    HW229256   3.549   1.213   8.337  0.9773 -0.4923  1.1890
 5875SOL     OW29257   2.880   0.656   7.316  0.2701 -0.8687  0.1424
 5875SOL    HW129258   2.945   0.696   7.374 -0.5893 -1.3361  1.4314
 5875SOL    HW229259   2.866   0.736   7.264  2.1729 -0.2195  0.6232
 5876SOL     OW29260   1.080   1.583   4.021  0.0334 -0.1476  0.1343
 5876SOL    HW129261   1.005   1.609   3.968  0.0368  1.1070  0.7623
 5876SOL    HW229262   1.068   1.634   4.101  1.1980  1.1433 -0.5181
 5877SOL     OW29263   2.252   2.911   6.605  0.0683 -0.2592  0.1399
 5877SOL    HW129264   2.197   2.873   6.537 -1.3933  2.1472 -0.0160
 5877SOL    HW229265   2.326   2.849   6.602  0.2847 -0.0501  0.9935
 5878SOL     OW29266   1.427   2.458   9.281 -0.4462 -0.2796  0.4150
 5878SOL    HW129267   1.518   2.474   9.258 -0.9582 -0.0039 -1.3438
 5878SOL    HW229268   1.427   2.472   9.376  0.2083  2.3128  0.0279
 5879SOL     OW29269   0.609   3.204   8.051  0.2299 -0.2824 -0.4014
 5879SOL    HW129270   0.591   3.224   7.959 -1.8961  0.1655  0.1139
 5879SOL    HW229271   0.605   3.109   8.043  1.1100 -0.1791 -2.0407
 5880SOL     OW29272   4.464   1.451  17.526 -0.7655  0.6683  0.1677
 5880SOL    HW129273   4.460   1.425  17.434  0.3558  1.0263  0.0129
 5880SOL    HW229274   4.370   1.439  17.544 -1.1530  0.7471 -1.8107
 5881SOL     OW29275   2.009   3.427   9.148  0.2689  0.4602  0.6464
 5881SOL    HW129276   1.963   3.488   9.091  1.4341 -0.1495 -0.9467
 5881SOL    HW229277   1.965   3.422   9.233  0.8987 -3.4032  0.7686
 5882SOL     OW29278   0.056   0.475   2.561  0.0485 -0.3705 -0.3068
 5882SOL    HW129279   0.059   0.462   2.466 -1.0565 -0.7999 -0.2776
 5882SOL    HW229280   0.104   0.557   2.563 -0.2318 -0.2698  1.8198
 5883SOL     OW29281   0.194   4.708   6.535  0.5495  0.1375 -0.2868
 5883SOL    HW129282   0.289   4.717   6.525  0.7473 -0.7870  0.7872
 5883SOL    HW229283   0.186   4.647   6.608 -1.8313  0.5521 -0.2036
 5884SOL     OW29284   1.778   0.866   3.419  0.0225  0.3245  0.0476
 5884SOL    HW129285   1.824   0.790   3.382  1.8454  1.6086 -0.3215
 5884SOL    HW229286   1.847   0.932   3.412 -1.0363  1.2375 -1.7816
 5885SOL     OW29287   3.874   4.509  15.008 -0.2633  0.1311 -0.0709
 5885SOL    HW129288   3.899   4.419  14.987 -1.0649 -0.5073  1.6391
 5885SOL    HW229289   3.868   4.553  14.923  0.3513  0.0825 -0.1353
 5886SOL     OW29290   3.989   1.008   3.419  0.3588  0.9897 -0.1559
 5886SOL    HW129291   3.958   0.981   3.506  0.2106 -1.4847 -0.9935
 5886SOL    HW229292   4.081   1.025   3.442  1.3588 -3.5671 -0.8931
 5887SOL     OW29293   1.609   0.937  13.787  0.2599 -0.1506  0.2621
 5887SOL    HW129294   1.620   0.845  13.810  1.6189 -0.8463 -3.0949
 5887SOL    HW229295   1.659   0.938  13.705  1.3333 -0.4704  0.9105
 5888SOL     OW29296   4.423   1.223  14.100 -0.6841 -0.5214  0.1843
 5888SOL    HW129297   4.328   1.218  14.100 -0.7286  0.4010 -0.1867
 5888SOL    HW229298   4.436   1.161  14.171  1.1988 -0.2591  0.0666
 5889SOL     OW29299   2.202   1.024   7.160 -0.4740  0.1738 -0.4366
 5889SOL    HW129300   2.134   1.052   7.222  0.7150  2.2737 -0.0915
 5889SOL    HW229301   2.231   0.945   7.206  1.2111  0.9308 -0.2140
 5890SOL     OW29302   1.747   2.139   7.492 -0.3815  0.8349  0.6574
 5890SOL    HW129303   1.674   2.131   7.431 -0.5210  0.3691  0.8814
 5890SOL    HW229304   1.717   2.135   7.583  0.9944 -1.3326  1.0247
 5891SOL     OW29305   0.791   3.613   8.059  0.0029 -0.5568  0.1455
 5891SOL    HW129306   0.783   3.678   7.989  2.6471 -2.7067 -2.1473
 5891SOL    HW229307   0.698   3.593   8.060  0.0786 -1.0334 -1.9411
 5892SOL     OW29308   2.147   0.986   1.956 -0.4869  0.9284  0.0897
 5892SOL    HW129309   2.061   0.944   1.954  0.3353 -0.6928 -1.2097
 5892SOL    HW229310   2.138   1.079   1.938  0.5093  1.5809  2.8098
 5893SOL     OW29311   4.264   2.014   6.824 -0.1809 -0.3199 -0.1090
 5893SOL    HW129312   4.265   1.977   6.735 -0.5041 -0.1850 -0.1684
 5893SOL    HW229313   4.192   1.966   6.865 -0.1637 -0.0424  0.2363
 5894SOL     OW29314   4.253   0.711   3.146 -0.3440  0.3402 -0.4515
 5894SOL    HW129315   4.293   0.798   3.150  0.7605 -0.1350 -1.1191
 5894SOL    HW229316   4.221   0.702   3.236  2.3706  0.3525  0.5266
 5895SOL     OW29317   1.450   1.853   6.124 -0.2644 -0.0530 -0.0213
 5895SOL    HW129318   1.393   1.859   6.201 -2.0480  0.8299 -1.4131
 5895SOL    HW229319   1.402   1.908   6.062  0.2225  0.0058 -0.3443
 5896SOL     OW29320   4.526   3.496   0.318  0.2410 -0.3189 -0.2450
 5896SOL    HW129321   4.457   3.558   0.296 -1.3150 -1.8366  0.3510
 5896SOL    HW229322   4.484   3.416   0.288 -0.5246 -0.2666  0.6862
 5897SOL     OW29323   2.003   1.241  13.611  0.0991 -0.3668 -0.0691
 5897SOL    HW129324   2.019   1.260  13.703 -0.6518 -1.5011  0.3013
 5897SOL    HW229325   1.913   1.272  13.602  0.3783  0.4446 -0.0209
 5898SOL     OW29326   2.784   0.823   3.008 -0.0759 -0.2653  0.0746
 5898SOL    HW129327   2.700   0.864   2.990  2.0315  3.5837 -0.9483
 5898SOL    HW229328   2.799   0.863   3.093 -0.5495  1.1648 -0.5184
 5899SOL     OW29329   3.555   3.025   0.043 -0.1912 -0.0717 -0.1737
 5899SOL    HW129330   3.471   2.996   0.080 -0.8148  0.3495 -1.2428
 5899SOL    HW229331   3.614   2.966   0.090 -0.0958  1.5185  1.7144
 5900SOL     OW29332   4.702   3.485  17.435  0.3293 -0.4018 -0.7512
 5900SOL    HW129333   4.622   3.516  17.393 -0.7551 -0.7328  1.1092
 5900SOL    HW229334   4.672   3.401  17.470  0.5507 -0.4681 -0.7206
 5901SOL     OW29335   1.927   1.783   7.838  0.4818  0.3051 -0.5862
 5901SOL    HW129336   2.014   1.820   7.850 -0.2222  2.5124 -2.2240
 5901SOL    HW229337   1.940   1.698   7.880 -0.2695  0.5802  0.2209
 5902SOL     OW29338   2.205   4.604   9.466 -0.8405 -0.5565  0.4292
 5902SOL    HW129339   2.232   4.531   9.410 -1.5992 -1.5618  1.3924
 5902SOL    HW229340   2.140   4.561   9.521 -0.6189 -2.6772 -0.9630
 5903SOL     OW29341   2.179   1.618  13.571  0.1740  0.3006 -0.0508
 5903SOL    HW129342   2.272   1.602  13.552 -0.4378 -2.1667 -0.9406
 5903SOL    HW229343   2.189   1.707  13.604 -2.4228  0.0584  1.4451
 5904SOL     OW29344   2.654   4.592  11.891  0.2284  0.2804  0.1277
 5904SOL    HW129345   2.716   4.520  11.879 -0.5647 -0.6559  1.5937
 5904SOL    HW229346   2.617   4.587  11.803  0.0354  0.3163  0.2075
 5905SOL     OW29347   4.740   1.161   8.368  0.0002 -0.6590 -0.3719
 5905SOL    HW129348   4.673   1.109   8.324 -1.0900 -1.2479  1.9922
 5905SOL    HW229349   4.694   1.230   8.416  0.1217 -0.3711 -0.6665
 5906SOL     OW29350   4.350   4.708   9.294  0.5038  0.0125 -0.6181
 5906SOL    HW129351   4.400   4.640   9.250  0.3727  0.3668 -1.3271
 5906SOL    HW229352   4.414   0.035   9.312 -0.0919  0.2566  0.6043
 5907SOL     OW29353   4.260   2.802   5.118 -0.4066 -0.0082 -0.2637
 5907SOL    HW129354   4.258   2.830   5.026  4.5396  0.8873 -0.0719
 5907SOL    HW229355   4.318   2.872   5.147 -1.3346  1.0420 -0.8901
 5908SOL     OW29356   0.962   1.310   0.585  0.0439 -0.4824 -0.2523
 5908SOL    HW129357   0.952   1.256   0.506  2.1289  0.8292 -1.4223
 5908SOL    HW229358   0.950   1.236   0.644  0.4704 -0.5025 -0.1847
 5909SOL     OW29359   4.736   0.371   3.588 -0.1628  0.2831 -0.1589
 5909SOL    HW129360   0.090   0.361   3.582 -0.5744 -2.7242 -1.6525
 5909SOL    HW229361   4.725   0.466   3.596  1.5771  0.3983  0.8607
 5910SOL     OW29362   4.021   0.563   9.333 -0.0888 -0.0274  0.1509
 5910SOL    HW129363   4.019   0.617   9.412 -0.8615 -1.0965  0.8559
 5910SOL    HW229364   4.050   0.628   9.268 -0.8636  0.3041  0.1339
 5911SOL     OW29365   3.519   2.725   2.615  0.3906  0.2068  0.1893
 5911SOL    HW129366   3.467   2.795   2.654  0.4464  0.1990  0.2764
 5911SOL    HW229367   3.489   2.728   2.524  1.6428 -0.2648 -0.2343
 5912SOL     OW29368   4.296   0.633  12.668  0.1195 -0.3516  0.3439
 5912SOL    HW129369   4.247   0.709  12.636 -0.5597 -1.3043 -0.8499
 5912SOL    HW229370   4.300   0.594  12.581  1.5621 -0.8030  0.6151
 5913SOL     OW29371   1.124   4.159   8.608  0.7054  0.4326 -0.2055
 5913SOL    HW129372   1.186   4.217   8.652  0.5516  0.5821 -0.1855
 5913SOL    HW229373   1.170   4.075   8.605 -3.2016 -1.8238  3.6400
 5914SOL     OW29374   3.823   4.711   3.325 -0.0652 -0.1536  0.6452
 5914SOL    HW129375   3.751   4.714   3.387 -0.5763 -1.7356  0.1199
 5914SOL    HW229376   3.769   4.688   3.249 -0.5693 -1.2130  1.3250
 5915SOL     OW29377   2.495   3.546  16.480  0.4173  0.6451 -0.3547
 5915SOL    HW129378   2.469   3.534  16.572  2.0755 -0.5619 -0.0302
 5915SOL    HW229379   2.489   3.458  16.443  0.1262  0.3343  0.4371
 5916SOL     OW29380   2.038   3.682   3.217 -0.2842 -0.0511 -0.1918
 5916SOL    HW129381   1.959   3.713   3.173 -1.0141 -0.1453  1.0305
 5916SOL    HW229382   2.045   3.746   3.288 -1.9163  0.8314 -0.8341
 5917SOL     OW29383   3.527   3.212  14.643  0.1272 -0.3024 -0.2445
 5917SOL    HW129384   3.482   3.194  14.725  0.4777  2.1993  0.4922
 5917SOL    HW229385   3.455   3.228  14.581 -0.2886  0.7569  0.5251
 5918SOL     OW29386   4.628   1.547  16.527 -0.0045  0.5481  0.1772
 5918SOL    HW129387   4.683   1.624  16.517 -0.8357  1.0291 -0.6065
 5918SOL    HW229388   4.541   1.581  16.549  1.6715  2.8091  3.3333
 5919SOL     OW29389   1.163   0.537  12.688 -0.6130  0.3157 -0.0115
 5919SOL    HW129390   1.209   0.474  12.632 -0.9103  1.5092 -1.5983
 5919SOL    HW229391   1.123   0.578  12.611  1.1017  0.7812 -0.6458
 5920SOL     OW29392   0.269   2.525   2.541  0.1420  0.1511  0.2175
 5920SOL    HW129393   0.243   2.578   2.617 -0.5245 -0.5083  0.4563
 5920SOL    HW229394   0.180   2.514   2.507  0.9901  0.3662 -1.9975
 5921SOL     OW29395   0.266   2.892   6.182 -0.2167  0.1930  0.7583
 5921SOL    HW129396   0.245   2.879   6.274 -1.4834 -1.4008  0.2487
 5921SOL    HW229397   0.256   2.988   6.183  1.4238  0.3844 -0.7287
 5922SOL     OW29398   3.210   2.570   4.725  0.1607 -0.0171 -0.3393
 5922SOL    HW129399   3.231   2.629   4.652 -0.5101 -0.3276 -0.7830
 5922SOL    HW229400   3.224   2.632   4.796 -3.4510  1.0775 -0.5963
 5923SOL     OW29401   0.148   1.593   3.717  0.0700 -0.2395 -0.2141
 5923SOL    HW129402   0.118   1.579   3.627  3.2240 -0.3892 -1.2604
 5923SOL    HW229403   0.063   1.590   3.761 -0.3608  2.4601 -0.9016
 5924SOL     OW29404   1.861   4.012   9.828  0.0171 -0.3016 -0.2850
 5924SOL    HW129405   1.905   3.959   9.895  2.1560  0.1000 -1.3590
 5924SOL    HW229406   1.853   4.096   9.874 -1.5426 -2.0360  2.6091
 5925SOL     OW29407   3.375   4.155   2.710  0.1952 -0.0005 -0.0708
 5925SOL    HW129408   3.314   4.099   2.758  0.2482 -1.7083 -1.9887
 5925SOL    HW229409   3.455   4.105   2.724 -0.7963 -1.9500 -1.3333
 5926SOL     OW29410   2.915   2.132   7.682  0.9079  0.2520 -0.1640
 5926SOL    HW129411   2.899   2.089   7.765  1.3627  0.3634 -0.0183
 5926SOL    HW229412   2.866   2.078   7.620  1.2368  0.2461 -0.4174
 5927SOL     OW29413   3.422   2.407  12.435  0.4631 -0.2596 -0.0596
 5927SOL    HW129414   3.451   2.331  12.384  1.4692 -1.6455  2.6226
 5927SOL    HW229415   3.472   2.396  12.515  2.4430  3.5726 -0.7643
 5928SOL     OW29416   2.623   0.119  11.146 -0.5897 -0.1540  0.1580
 5928SOL    HW129417   2.683   0.184  11.109 -0.8503  0.6193  1.0969
 5928SOL    HW229418   2.548   0.167  11.109  0.1674 -0.1688 -1.3911
 5929SOL     OW29419   0.371   0.550   2.875 -0.5439  0.0180 -0.6577
 5929SOL    HW129420   0.338   0.637   2.849 -0.5749  0.4200  0.7224
 5929SOL    HW229421   0.459   0.536   2.840 -0.8366 -0.7428 -1.0950
 5930SOL     OW29422   0.742   1.488   2.388 -0.8800  0.1542  0.2019
 5930SOL    HW129423   0.735   1.559   2.324 -0.0643  1.0780  1.1456
 5930SOL    HW229424   0.834   1.492   2.413 -0.8336  1.3780 -0.1876
 5931SOL     OW29425   1.774   4.489   5.495  0.0504  0.4129 -0.3546
 5931SOL    HW129426   1.853   4.456   5.452  0.1060 -1.3051  1.0272
 5931SOL    HW229427   1.807   4.541   5.568 -0.9416  1.4563 -0.6549
 5932SOL     OW29428   4.725   4.681   6.305 -0.8827  0.3385 -0.0012
 5932SOL    HW129429   0.052   4.721   6.359 -0.7444  1.1631 -0.7740
 5932SOL    HW229430   0.026   4.606   6.265  3.1663  1.1843  2.7457
 5933SOL     OW29431   3.792   2.765  15.233 -0.4364  0.3233  0.2971
 5933SOL    HW129432   3.699   2.744  15.244 -0.5583  0.4317 -0.5425
 5933SOL    HW229433   3.798   2.860  15.239 -3.1931  0.4053  1.9233
 5934SOL     OW29434   4.655   0.163   6.187 -0.8335  0.4885 -0.8167
 5934SOL    HW129435   4.627   0.215   6.262 -3.3416 -0.8502 -0.8111
 5934SOL    HW229436   4.687   0.082   6.227 -1.8404  0.3906 -0.2115
 5935SOL     OW29437   2.394   1.617   4.018  0.3034  0.6130 -0.2156
 5935SOL    HW129438   2.359   1.533   3.990 -0.3343  1.4562 -1.9881
 5935SOL    HW229439   2.485   1.592   4.003  0.2372 -0.6528  1.5513
 5936SOL     OW29440   4.281   1.029   9.209 -0.3170  0.4009  0.0784
 5936SOL    HW129441   4.355   1.090   9.215 -0.7106  1.0227 -1.3420
 5936SOL    HW229442   4.287   0.981   9.292  0.0062 -0.9231 -0.7086
 5937SOL     OW29443   0.368   0.330   7.310  0.1240  0.1242 -0.0464
 5937SOL    HW129444   0.397   0.420   7.300  2.7710 -0.7912 -0.4407
 5937SOL    HW229445   0.444   0.285   7.272 -0.5085 -1.5521  0.6588
 5938SOL     OW29446   2.143   0.617   7.624  0.5043 -0.0807 -0.4056
 5938SOL    HW129447   2.067   0.587   7.574  0.7432 -1.6434  0.1789
 5938SOL    HW229448   2.204   0.552   7.589 -0.2782 -0.8134 -0.4316
 5939SOL     OW29449   1.231   1.287  17.469 -0.6300  0.2188 -0.4827
 5939SOL    HW129450   1.287   1.347  17.518  1.8187 -0.2444 -2.6785
 5939SOL    HW229451   1.156   1.341  17.446  0.4639  1.6066 -0.7652
 5940SOL     OW29452   0.184   0.088   7.246  0.3917 -0.4710  0.3869
 5940SOL    HW129453   0.227   0.173   7.244  0.3323 -0.4241  1.1638
 5940SOL    HW229454   0.239   0.042   7.183 -1.1669 -0.3793 -1.0377
 5941SOL     OW29455   2.886   0.975   3.713 -0.3918 -0.2391  0.1277
 5941SOL    HW129456   2.943   0.951   3.639 -0.0776  1.6037 -0.2314
 5941SOL    HW229457   2.847   0.888   3.728 -1.9511 -0.0596 -2.7084
 5942SOL     OW29458   4.638   2.749   1.816 -0.3762 -0.0651  0.1307
 5942SOL    HW129459   4.708   2.686   1.800  1.4769  1.9377  0.3236
 5942SOL    HW229460   4.665   2.816   1.753 -0.3239  2.8568  3.2778
 5943SOL     OW29461   3.585   3.730   3.649  0.5116  0.1955 -0.4286
 5943SOL    HW129462   3.679   3.734   3.665  0.4021  2.9354 -0.5025
 5943SOL    HW229463   3.575   3.635   3.653  0.4674  0.0952 -2.8289
 5944SOL     OW29464   4.457   0.967   4.065  0.1925  0.2423 -0.1771
 5944SOL    HW129465   4.445   0.892   4.123 -0.6756  0.8173  0.3846
 5944SOL    HW229466   4.371   0.955   4.025  0.8612 -0.6777 -1.3352
 5945SOL     OW29467   0.202   4.063  17.207  0.4121 -0.2981  0.1302
 5945SOL    HW129468   0.140   4.051  17.135  3.7643  0.0398 -2.8161
 5945SOL    HW229469   0.205   3.973  17.239  0.0001  0.2564  1.7407
 5946SOL     OW29470   4.737   0.567  10.613 -0.3029 -0.7705  0.0029
 5946SOL    HW129471   4.667   0.507  10.590 -0.7023 -0.6725  0.9695
 5946SOL    HW229472   0.005   0.629  10.540  1.6922 -0.0262  0.8668
 5947SOL     OW29473   4.564   0.848   5.863 -0.2989  0.0945  0.2096
 5947SOL    HW129474   4.557   0.763   5.908 -0.3000  0.3951  0.7839
 5947SOL    HW229475   4.637   0.828   5.805 -0.6676 -1.4236  0.2705
 5948SOL     OW29476   1.629   1.135   1.818  0.1430 -0.0843  0.1382
 5948SOL    HW129477   1.571   1.085   1.762  2.0200 -1.9274 -0.1453
 5948SOL    HW229478   1.645   1.219   1.774 -0.5727  0.3866  0.7640
 5949SOL     OW29479   4.522   3.319   6.602  0.1639  0.0443 -0.5965
 5949SOL    HW129480   4.569   3.238   6.619 -2.0696 -0.4741  3.1626
 5949SOL    HW229481   4.448   3.282   6.553  0.5354 -0.1475 -1.0074
 5950SOL     OW29482   3.110   0.611   4.416  0.2536 -0.1567  0.0745
 5950SOL    HW129483   3.109   0.705   4.399  0.9456 -0.5534 -2.1528
 5950SOL    HW229484   3.178   0.588   4.353  0.2134  2.5913 -0.9607
 5951SOL     OW29485   2.144   3.645   5.384 -0.5069  0.3122  0.0492
 5951SOL    HW129486   2.077   3.699   5.427 -0.6748  0.1202  0.0271
 5951SOL    HW229487   2.211   3.709   5.361 -0.4472 -0.9788 -3.3906
 5952SOL     OW29488   2.476   2.344  14.086 -0.1789  0.5936 -0.0085
 5952SOL    HW129489   2.550   2.295  14.122  0.0495  0.2573 -0.9339
 5952SOL    HW229490   2.502   2.347  13.994 -0.8587  2.1618 -0.1358
 5953SOL     OW29491   3.485   0.844  15.575  0.0794 -0.3993  0.8927
 5953SOL    HW129492   3.478   0.912  15.643 -0.7055  0.9083 -0.4830
 5953SOL    HW229493   3.477   0.899  15.497 -2.5667 -0.3002  1.2272
 5954SOL     OW29494   4.224   0.237   6.534 -0.2422  0.8117 -0.6457
 5954SOL    HW129495   4.173   0.156   6.540 -0.3022  0.9285  0.5062
 5954SOL    HW229496   4.224   0.261   6.627 -0.8551 -1.7967  0.0247
 5955SOL     OW29497   4.006   2.917   4.816 -0.3329  0.0459 -0.0877
 5955SOL    HW129498   3.921   2.957   4.796 -0.7032 -1.4692 -1.4947
 5955SOL    HW229499   3.981   2.864   4.892  1.5324 -0.6888  0.0345
 5956SOL     OW29500   0.239   0.408  10.329 -0.0485 -0.8330 -0.1695
 5956SOL    HW129501   0.257   0.402  10.423 -0.9136 -2.0627 -0.0750
 5956SOL    HW229502   0.160   0.460  10.335  0.2643 -0.4786  0.7465
 5957SOL     OW29503   4.615   1.260   2.356 -0.3319  0.2053 -0.2499
 5957SOL    HW129504   4.556   1.327   2.320 -2.5885 -2.4218 -1.3988
 5957SOL    HW229505   4.694   1.304   2.389 -0.3187  0.2647 -0.3613
 5958SOL     OW29506   0.773   0.386  15.191 -0.3314 -0.2616  0.3308
 5958SOL    HW129507   0.719   0.381  15.113 -1.3004  1.6696  0.8962
 5958SOL    HW229508   0.742   0.310  15.241  2.3976 -0.9245  1.0633
 5959SOL     OW29509   0.391   2.452   4.717  0.2786  0.0522 -0.5637
 5959SOL    HW129510   0.342   2.467   4.636  0.6934  0.1838 -0.7887
 5959SOL    HW229511   0.320   2.424   4.776  0.6311  1.1683  0.3990
 5960SOL     OW29512   1.270   4.564   8.882 -0.6374 -0.0388  0.6612
 5960SOL    HW129513   1.296   4.602   8.966 -3.8607 -1.6127  2.3598
 5960SOL    HW229514   1.351   4.588   8.836 -2.5261  0.5400 -2.3561
 5961SOL     OW29515   0.647   1.998  17.164  0.0370  0.5058 -0.0199
 5961SOL    HW129516   0.597   2.033  17.238 -0.6371 -1.1055  0.3132
 5961SOL    HW229517   0.569   1.950  17.135 -0.7733  0.4482  2.2943
 5962SOL     OW29518   2.840   3.790   0.009 -0.1265 -0.1560  0.3852
 5962SOL    HW129519   2.824   3.869   0.060  0.7511  0.3238 -0.0811
 5962SOL    HW229520   2.835   3.730   0.084  1.6033 -1.6345 -0.6935
 5963SOL     OW29521   0.527   3.499   5.272  0.2157  0.3788  0.0211
 5963SOL    HW129522   0.576   3.543   5.203  1.0391 -0.2865  0.1658
 5963SOL    HW229523   0.459   3.558   5.302 -0.7722  1.0624 -3.7042
 5964SOL     OW29524   1.150   3.549   3.176  0.1887 -0.7946 -0.6686
 5964SOL    HW129525   1.064   3.579   3.203  0.9564  1.4225 -0.6988
 5964SOL    HW229526   1.147   3.525   3.084  1.5323 -1.6402 -0.4954
 5965SOL     OW29527   3.282   2.242   3.124 -0.0525 -0.0894 -0.7038
 5965SOL    HW129528   3.287   2.328   3.167  1.0322 -0.4808 -0.0518
 5965SOL    HW229529   3.357   2.263   3.069  0.2927  1.5078  0.3546
 5966SOL     OW29530   0.009   1.336  16.601 -0.3542  0.1842 -0.1756
 5966SOL    HW129531   0.075   1.335  16.532  1.0637 -0.5217  1.2135
 5966SOL    HW229532   4.710   1.423  16.593 -1.4154 -0.3374 -0.5938
 5967SOL     OW29533   2.698   4.283   2.136 -0.2258  0.2824 -1.2048
 5967SOL    HW129534   2.641   4.236   2.197  0.8908 -0.4301 -0.7179
 5967SOL    HW229535   2.711   4.215   2.071 -0.0891  1.2261 -2.1599
 5968SOL     OW29536   2.113   1.617   5.031 -0.4469 -0.6176 -0.5023
 5968SOL    HW129537   2.171   1.551   5.070  1.2668  0.6343 -0.9199
 5968SOL    HW229538   2.038   1.605   5.089 -0.9740 -0.2932 -1.1271
 5969SOL     OW29539   2.855   0.097   9.440 -0.2866  0.0582 -0.2912
 5969SOL    HW129540   2.947   0.100   9.413 -0.5828  0.0509 -1.2988
 5969SOL    HW229541   2.852   0.002   9.456 -1.1241 -0.1956 -1.9535
 5970SOL     OW29542   1.497   2.485  11.751 -0.3854 -0.2836  0.3042
 5970SOL    HW129543   1.477   2.401  11.793  1.1163  0.1954  1.9791
 5970SOL    HW229544   1.584   2.498  11.788 -0.9023 -1.9338  2.1527
 5971SOL     OW29545   3.637   4.387   0.063  0.1715 -0.2219  0.0529
 5971SOL    HW129546   3.681   4.358   0.143 -0.5332 -2.8682 -0.5225
 5971SOL    HW229547   3.649   4.481   0.075  2.3046 -0.6458  1.1663
 5972SOL     OW29548   0.616   1.235   4.959 -0.4398 -0.2126 -0.2375
 5972SOL    HW129549   0.708   1.215   4.945  0.1981  0.2018  3.4096
 5972SOL    HW229550   0.570   1.158   4.926  1.5331 -1.8856  0.9499
 5973SOL     OW29551   2.063   0.113   1.703 -0.4123 -0.0873 -0.8642
 5973SOL    HW129552   1.985   0.061   1.725 -0.0531 -0.4099 -0.3451
 5973SOL    HW229553   2.026   0.200   1.691 -1.5203 -0.2136  1.5994
 5974SOL     OW29554   2.064   2.580   8.983  0.3686  0.5873  0.7431
 5974SOL    HW129555   2.113   2.503   9.010  0.5524  0.4733  0.0739
 5974SOL    HW229556   1.977   2.576   9.024  1.2615  1.7876  2.7340
 5975SOL     OW29557   3.996   0.674   6.087 -0.1419 -0.6108 -0.3006
 5975SOL    HW129558   3.994   0.740   6.156 -0.7248 -0.3417 -0.5781
 5975SOL    HW229559   3.903   0.649   6.083 -0.2805 -0.7590  3.0866
 5976SOL     OW29560   1.963   2.136   5.505 -0.2821 -0.2508  0.2627
 5976SOL    HW129561   1.997   2.057   5.546 -2.1726 -1.0467  0.3282
 5976SOL    HW229562   2.037   2.192   5.482  0.1103 -1.6905 -2.0436
 5977SOL     OW29563   3.903   2.369   8.759  0.0126 -0.2557 -0.4735
 5977SOL    HW129564   3.821   2.418   8.755 -0.5301 -1.1182 -0.1215
 5977SOL    HW229565   3.955   2.434   8.712 -1.1650 -0.1222 -1.5744
 5978SOL     OW29566   2.166   3.655   4.036 -0.5350  0.0424  0.7856
 5978SOL    HW129567   2.076   3.682   4.052 -0.3709  0.7966  0.4015
 5978SOL    HW229568   2.210   3.737   4.058 -0.7260  0.1864  0.6295
 5979SOL     OW29569   4.200   2.958   2.622 -0.1249  0.7198 -0.2731
 5979SOL    HW129570   4.168   2.957   2.532  0.1501 -2.3498 -0.3684
 5979SOL    HW229571   4.280   3.011   2.616  1.2453 -1.4305 -1.1262
 5980SOL     OW29572   4.588   2.784   0.572 -0.2706 -0.1610  0.1202
 5980SOL    HW129573   4.621   2.788   0.482  1.9090  0.9027  0.9928
 5980SOL    HW229574   4.595   2.693   0.600 -0.0839 -0.1684  0.0473
 5981SOL     OW29575   3.697   2.677   7.742 -0.2664 -0.4248 -0.3987
 5981SOL    HW129576   3.661   2.635   7.820 -1.0242  2.1219  0.6101
 5981SOL    HW229577   3.751   2.742   7.787  1.1059 -1.8984  0.0912
 5982SOL     OW29578   2.930   2.418   0.379  0.1358  0.3860 -0.2479
 5982SOL    HW129579   2.927   2.457   0.291  1.9560  0.0579 -0.4634
 5982SOL    HW229580   2.974   2.338   0.349  0.3059  0.8731 -1.3110
 5983SOL     OW29581   0.109   4.082   9.264  0.6678 -0.7056 -0.9549
 5983SOL    HW129582   0.097   4.047   9.353  0.0388  1.9516 -0.0058
 5983SOL    HW229583   0.028   4.131   9.249  2.1632  1.6849 -1.0814
 5984SOL     OW29584   1.079   4.377   7.785  0.0256 -0.4274 -0.3641
 5984SOL    HW129585   1.150   4.323   7.821  0.3936  2.8115  3.7460
 5984SOL    HW229586   1.025   4.312   7.741 -0.4050  0.7858 -1.6378
 5985SOL     OW29587   2.445   4.452   5.949  0.0324  0.0758 -0.0308
 5985SOL    HW129588   2.513   4.405   5.996  1.0159  0.4367 -1.0940
 5985SOL    HW229589   2.379   4.385   5.931  0.1894 -0.0830 -0.0109
 5986SOL     OW29590   2.274   4.590   7.511  0.5037  0.1367  0.0944
 5986SOL    HW129591   2.294   4.654   7.580 -2.8891  0.6795  0.5746
 5986SOL    HW229592   2.178   4.591   7.504  0.6459 -1.0570 -1.7322
 5987SOL     OW29593   3.524   4.128   0.022 -0.2368 -0.8941  0.6312
 5987SOL    HW129594   3.583   4.154   0.093 -0.1225  1.1474 -0.2099
 5987SOL    HW229595   3.506   4.214  17.745  0.0238 -1.0704  0.1127
 5988SOL     OW29596   2.085   2.190   7.706  0.1056  0.4857  0.2603
 5988SOL    HW129597   2.027   2.168   7.633  1.7343 -0.3311 -0.7692
 5988SOL    HW229598   2.017   2.168   7.771  0.5376 -0.6569  0.3107
 5989SOL     OW29599   1.586   0.626   4.011 -0.2035 -0.3771  0.4303
 5989SOL    HW129600   1.678   0.647   4.025 -0.9920  2.6965  1.1395
 5989SOL    HW229601   1.542   0.704   4.045  0.4887 -0.0810  0.6378
 5990SOL     OW29602   0.760   1.629  15.512 -0.3112  0.0428 -0.3855
 5990SOL    HW129603   0.760   1.619  15.416 -0.8898 -1.8900 -0.1777
 5990SOL    HW229604   0.801   1.715  15.518 -1.5291  0.6624 -0.9379
 5991SOL     OW29605   2.828   0.250  12.950 -0.9622 -0.5611 -0.3007
 5991SOL    HW129606   2.803   0.321  13.009  0.8785 -1.4324  1.5408
 5991SOL    HW229607   2.797   0.169  12.991  1.7847 -2.5176 -2.0581
 5992SOL     OW29608   3.954   3.800   9.815 -0.0213 -0.1770  0.0068
 5992SOL    HW129609   3.924   3.837   9.898  1.9367  0.4157  0.4459
 5992SOL    HW229610   4.017   3.741   9.855  0.0984 -1.0947 -1.5474
 5993SOL     OW29611   3.599   3.584   6.311  0.2667  0.4066  0.3253
 5993SOL    HW129612   3.626   3.551   6.226 -0.4571 -1.2183  0.7097
 5993SOL    HW229613   3.642   3.669   6.307  1.7157 -0.3022  0.8405
 5994SOL     OW29614   3.272   4.385  11.847 -0.1521  0.4177  0.1002
 5994SOL    HW129615   3.365   4.392  11.826 -0.3745  2.7347 -0.1675
 5994SOL    HW229616   3.259   4.292  11.829  0.3260  0.4962 -0.6535
 5995SOL     OW29617   3.260   4.398   3.355 -0.3176 -0.2612  0.5742
 5995SOL    HW129618   3.214   4.431   3.278  1.0653 -1.0306 -0.5775
 5995SOL    HW229619   3.203   4.324   3.377 -0.1979 -0.1295  1.3393
 5996SOL     OW29620   0.615   1.609  16.019 -0.4132 -0.2522 -0.4791
 5996SOL    HW129621   0.587   1.519  16.002  2.1463 -1.2666  0.7351
 5996SOL    HW229622   0.571   1.651  15.945 -0.3874  0.4763 -0.0856
 5997SOL     OW29623   4.546   2.596  10.742 -0.1865  0.0677 -0.6041
 5997SOL    HW129624   4.587   2.544  10.811  0.2045  0.1552 -0.7718
 5997SOL    HW229625   4.612   2.664  10.732  1.7205 -1.4844  1.4729
 5998SOL     OW29626   3.869   2.180  17.034 -0.3200 -0.1760  0.0390
 5998SOL    HW129627   3.944   2.143  17.081  1.7428  1.8207 -1.6815
 5998SOL    HW229628   3.914   2.202  16.952  0.5151 -0.1095  0.5062
 5999SOL     OW29629   1.589   1.383   4.894  0.1097 -0.3793  0.0746
 5999SOL    HW129630   1.649   1.351   4.961 -1.3650  0.9267  2.0457
 5999SOL    HW229631   1.541   1.455   4.935  0.3960  0.4460 -1.0624
 6000SOL     OW29632   0.045   3.851   7.052  0.2802  0.2247 -0.2818
 6000SOL    HW129633   0.017   3.940   7.034  0.9005  0.5776  0.4698
 6000SOL    HW229634   4.713   3.815   7.003  0.8141  0.7232 -1.4306
 6001SOL     OW29635   1.839   4.151   6.669  0.2287  0.3883  0.5056
 6001SOL    HW129636   1.913   4.210   6.656 -0.1619  0.6090 -0.6748
 6001SOL    HW229637   1.815   4.178   6.758  1.4816 -1.6649  1.4630
 6002SOL     OW29638   1.403   4.359   6.134 -0.2808 -0.4806 -0.2876
 6002SOL    HW129639   1.491   4.396   6.142 -0.8426  0.0104  3.7073
 6002SOL    HW229640   1.380   4.342   6.043  1.5169 -2.1910 -0.4164
 6003SOL     OW29641   2.136   3.237   3.917  0.0238 -0.0852 -0.5153
 6003SOL    HW129642   2.114   3.179   3.845 -0.8542 -0.0088 -0.3082
 6003SOL    HW229643   2.161   3.175   3.986  0.4036  0.9297  0.2761
 6004SOL     OW29644   0.230   1.186   6.167 -0.1296  0.5948 -0.0903
 6004SOL    HW129645   0.323   1.191   6.190 -0.0045  2.6014 -0.9951
 6004SOL    HW229646   0.211   1.280   6.160  0.2979  0.7108  0.2465
 6005SOL     OW29647   2.260   1.412  16.127 -0.1576  0.2051 -0.5300
 6005SOL    HW129648   2.227   1.489  16.173 -0.2643  0.7018 -1.4505
 6005SOL    HW229649   2.188   1.370  16.080  0.7924 -1.3276 -0.5998
 6006SOL     OW29650   0.820   2.169   6.955  1.0269  0.4396 -0.2376
 6006SOL    HW129651   0.748   2.161   6.893  0.4380  0.1644  0.4782
 6006SOL    HW229652   0.778   2.141   7.036  0.0372 -0.9793 -1.2438
 6007SOL     OW29653   0.566   2.229  11.249 -0.3581  0.3179  0.1679
 6007SOL    HW129654   0.641   2.176  11.276  0.0747  0.5652 -0.5290
 6007SOL    HW229655   0.502   2.164  11.222  1.7033 -1.4444 -0.5480
 6008SOL     OW29656   4.645   4.451   9.506 -0.1051  0.4546 -0.0112
 6008SOL    HW129657   4.619   4.361   9.526  0.6086  0.2267 -0.1268
 6008SOL    HW229658   4.574   4.477   9.447  0.4492  1.4538 -0.2307
 6009SOL     OW29659   1.922   0.139  15.804  0.2598 -0.1483  0.2414
 6009SOL    HW129660   1.979   0.207  15.768  0.5752 -1.6860 -2.0995
 6009SOL    HW229661   1.972   0.122  15.884  0.9155 -0.6083 -0.2618
 6010SOL     OW29662   2.728   1.744   8.885  0.2194  0.3555 -0.2711
 6010SOL    HW129663   2.676   1.680   8.837 -1.3431  1.7074 -0.3663
 6010SOL    HW229664   2.818   1.721   8.862  0.7539 -1.3175  3.4893
 6011SOL     OW29665   4.585   0.459   2.977  0.2765 -0.1430  0.8947
 6011SOL    HW129666   4.547   0.377   2.945  0.8654 -0.7821  1.8405
 6011SOL    HW229667   4.662   0.431   3.027  0.5963  0.3886  0.7044
 6012SOL     OW29668   3.094   1.875   2.630  0.1523  0.0292  0.3399
 6012SOL    HW129669   3.146   1.805   2.591 -0.8862 -0.1783 -0.6801
 6012SOL    HW229670   3.130   1.960   2.605  0.5785 -0.3402 -0.2877
 6013SOL     OW29671   3.432   3.808   4.243  0.3706  0.3454  0.1180
 6013SOL    HW129672   3.508   3.797   4.300 -0.1878 -1.9011  0.4192
 6013SOL    HW229673   3.392   3.722   4.254  1.1807 -0.1189 -0.5810
 6014SOL     OW29674   1.173   4.430   1.082 -0.6603  0.2421 -0.1393
 6014SOL    HW129675   1.206   4.341   1.075  3.1481  1.3822  3.3771
 6014SOL    HW229676   1.225   4.458   1.157  0.1292  1.9650 -1.3285
 6015SOL     OW29677   0.464   3.325   9.006  0.0773  0.2649 -0.0267
 6015SOL    HW129678   0.476   3.393   8.939 -4.2318  1.7594  0.7515
 6015SOL    HW229679   0.373   3.336   9.032  0.1392 -1.4638  0.9261
 6016SOL     OW29680   3.398   3.869   5.342 -0.2476  0.5159 -0.3131
 6016SOL    HW129681   3.367   3.784   5.312 -0.7257 -0.0414  1.7522
 6016SOL    HW229682   3.368   3.920   5.267  0.3690  1.2723 -0.0446
 6017SOL     OW29683   3.910   0.331   8.738  0.8941  0.2835 -0.2764
 6017SOL    HW129684   3.915   0.245   8.781  0.9715  0.4039 -0.0452
 6017SOL    HW229685   3.881   0.384   8.812  3.0429 -0.9363  1.4582
 6018SOL     OW29686   3.226   2.283   5.266 -0.1675 -0.3884  0.0539
 6018SOL    HW129687   3.292   2.322   5.209 -0.4744 -0.8378 -0.6017
 6018SOL    HW229688   3.224   2.347   5.338 -0.4057  0.0485 -0.3413
 6019SOL     OW29689   3.123   4.027   6.117  0.1850  0.0699  0.0876
 6019SOL    HW129690   3.114   3.958   6.182 -1.4547 -1.2040 -1.5081
 6019SOL    HW229691   3.183   3.989   6.052 -3.5714  0.8739 -3.8257
 6020SOL     OW29692   3.761   3.655  11.957 -0.5204  0.0598  0.0118
 6020SOL    HW129693   3.719   3.718  11.899  0.3677  0.0459 -0.6446
 6020SOL    HW229694   3.850   3.663  11.923  0.3268  0.6761  2.3940
 6021SOL     OW29695   0.989   1.204  12.275  0.1547 -0.1556 -0.2142
 6021SOL    HW129696   0.997   1.126  12.219  3.4057 -0.9348  1.3249
 6021SOL    HW229697   1.043   1.262  12.221 -0.1655 -0.2921 -0.6847
 6022SOL     OW29698   1.227   4.264   2.246  0.0203  0.5060  0.3782
 6022SOL    HW129699   1.317   4.285   2.223  0.5367  0.9222  2.8711
 6022SOL    HW229700   1.176   4.277   2.165  1.1166  0.0894 -0.3756
 6023SOL     OW29701   4.394   4.474  10.620 -0.2891  0.1519  0.2975
 6023SOL    HW129702   4.378   4.561  10.584 -0.3280  0.6367  1.4741
 6023SOL    HW229703   4.411   4.429  10.537  2.1782 -2.5824  2.2791
 6024SOL     OW29704   1.691   4.479  14.204  0.0904 -0.3974 -0.2348
 6024SOL    HW129705   1.783   4.506  14.202 -0.8514  2.8583  1.6077
 6024SOL    HW229706   1.711   4.385  14.211  1.7387  0.0262  0.5914
 6025SOL     OW29707   2.323   3.219   5.526 -0.2887 -0.4712  0.1067
 6025SOL    HW129708   2.273   3.294   5.493 -0.4789 -0.0626  1.3291
 6025SOL    HW229709   2.372   3.266   5.593  2.0385 -1.4985 -0.8872
 6026SOL     OW29710   4.132   2.557   1.159  0.5527  0.2043  0.2705
 6026SOL    HW129711   4.162   2.634   1.207 -0.2850  1.3911 -1.1194
 6026SOL    HW229712   4.176   2.573   1.076  1.5385  0.6383  0.8733
 6027SOL     OW29713   3.885   0.668  16.910 -0.0954 -0.2310 -0.3268
 6027SOL    HW129714   3.803   0.710  16.886  1.4297  2.3887 -0.8326
 6027SOL    HW229715   3.851   0.601  16.970  1.1961 -0.7148 -0.1246
 6028SOL     OW29716   0.043   0.645  10.347  0.1598  0.4860  0.2837
 6028SOL    HW129717   0.047   0.696  10.266 -3.3568 -1.1904 -0.9517
 6028SOL    HW229718   4.704   0.594  10.339 -0.3463  1.2059  0.8686
 6029SOL     OW29719   3.242   4.730  14.580  0.2296  0.0403 -0.3769
 6029SOL    HW129720   3.196   4.677  14.515 -0.6753  0.0772  0.2327
 6029SOL    HW229721   3.266   4.664  14.645  1.2877 -0.9555 -1.7653
 6030SOL     OW29722   2.466   1.669  14.177 -0.0951  0.5140  0.3364
 6030SOL    HW129723   2.434   1.744  14.227 -0.2475  0.1870  0.7309
 6030SOL    HW229724   2.551   1.664  14.219  0.1444 -2.8097 -0.5074
 6031SOL     OW29725   4.270   3.626   3.776  0.2861  0.0052 -0.1741
 6031SOL    HW129726   4.181   3.592   3.779  0.1249  0.6001  1.5909
 6031SOL    HW229727   4.315   3.579   3.847  0.6340  0.0997 -0.3323
 6032SOL     OW29728   4.255   2.587  14.170 -0.1929  0.0270  0.1525
 6032SOL    HW129729   4.245   2.598  14.075 -0.6662 -1.3275  0.0434
 6032SOL    HW229730   4.351   2.591  14.170 -0.2644  1.8008 -0.0071
 6033SOL     OW29731   2.788   0.741   3.682 -0.0393  0.6172 -0.3297
 6033SOL    HW129732   2.834   0.673   3.632  0.9384  1.0500 -0.0052
 6033SOL    HW229733   2.707   0.693   3.696  1.4746 -1.3670  1.5767
 6034SOL     OW29734   3.568   2.745   6.627 -0.1643 -0.2086  0.2197
 6034SOL    HW129735   3.639   2.716   6.569 -0.0613 -0.6531  0.5641
 6034SOL    HW229736   3.610   2.809   6.684  2.8572  0.1878 -2.4521
 6035SOL     OW29737   3.584   4.656   8.430  0.2201 -0.4093 -0.9377
 6035SOL    HW129738   3.600   4.721   8.362 -1.7758 -0.0561 -1.0472
 6035SOL    HW229739   3.614   4.703   8.507  0.6957  0.6725 -1.7869
 6036SOL     OW29740   2.893   0.409   9.075  0.3258  0.2949 -0.7302
 6036SOL    HW129741   2.809   0.364   9.070  1.4343 -1.8584 -0.1841
 6036SOL    HW229742   2.938   0.365   9.147 -2.7472  0.8843  1.5432
 6037SOL     OW29743   2.906   4.043   7.110  0.0766  0.1468  0.0602
 6037SOL    HW129744   2.931   4.082   7.026  0.7605 -0.1525  0.1224
 6037SOL    HW229745   2.859   4.112   7.158 -2.9355 -0.5896 -1.8435
 6038SOL     OW29746   2.840   0.302   0.601  0.4691  0.0445 -0.2554
 6038SOL    HW129747   2.767   0.285   0.541  0.0329 -0.7877  0.5142
 6038SOL    HW229748   2.806   0.384   0.637  1.7242  0.2312  0.4936
 6039SOL     OW29749   4.570   2.496   2.817  0.0308 -0.5735  0.1317
 6039SOL    HW129750   4.630   2.422   2.808  0.3618 -0.2751 -0.0854
 6039SOL    HW229751   4.483   2.459   2.799  1.5451 -3.4729 -1.2448
 6040SOL     OW29752   1.608   1.787   7.371  0.5012  0.4665  0.7897
 6040SOL    HW129753   1.611   1.842   7.293  1.7485 -0.4807  0.1629
 6040SOL    HW229754   1.702   1.794   7.386  0.6273 -0.9951  0.7221
 6041SOL     OW29755   3.646   1.600  16.107  0.4972 -0.0167 -0.1606
 6041SOL    HW129756   3.734   1.637  16.108  0.2967  0.4495  0.3036
 6041SOL    HW229757   3.625   1.613  16.014 -2.8870  1.0916  0.7413
 6042SOL     OW29758   0.232   3.860  12.304  0.8098  0.4405 -0.1090
 6042SOL    HW129759   0.244   3.955  12.299  0.8554  0.4243 -0.3382
 6042SOL    HW229760   0.200   3.831  12.218 -0.7569  0.6436  0.4061
 6043SOL     OW29761   2.253   1.248  13.505  0.1770  0.8171  0.2203
 6043SOL    HW129762   2.170   1.239  13.552  1.1848 -1.7080  1.4857
 6043SOL    HW229763   2.309   1.229  13.580 -0.2897 -1.4249  0.0056
 6044SOL     OW29764   2.190   3.390   8.320  0.1327  0.3681  0.0001
 6044SOL    HW129765   2.270   3.371   8.369  0.4193  2.5732  0.4097
 6044SOL    HW229766   2.223   3.432   8.240 -1.6075  0.9181 -0.4302
 6045SOL     OW29767   2.260   3.726   8.764 -0.0651  0.4778 -0.9110
 6045SOL    HW129768   2.229   3.636   8.775 -0.6528  0.5560 -1.9254
 6045SOL    HW229769   2.171   3.761   8.757 -0.1679  0.5927  0.9647
 6046SOL     OW29770   3.387   1.090   0.950 -0.3853  0.4845 -0.2301
 6046SOL    HW129771   3.319   1.044   0.901  0.1193  0.2751 -0.7249
 6046SOL    HW229772   3.345   1.176   0.952  0.2146  0.7963 -1.3241
 6047SOL     OW29773   3.191   1.682   3.772 -0.2705 -0.2758 -0.4704
 6047SOL    HW129774   3.179   1.724   3.687  0.7088  0.3804 -0.2932
 6047SOL    HW229775   3.115   1.624   3.776  0.4950 -1.2565 -0.3059
 6048SOL     OW29776   0.658   1.696   7.481  0.1481 -0.1319 -0.0310
 6048SOL    HW129777   0.636   1.642   7.405  1.0728 -1.1181  0.3942
 6048SOL    HW229778   0.701   1.635   7.541 -2.4645  0.4115  2.4179
 6049SOL     OW29779   2.335   3.428   3.973 -0.2911 -0.5048 -0.1635
 6049SOL    HW129780   2.265   3.364   3.975  0.1570 -0.9006  2.2840
 6049SOL    HW229781   2.292   3.512   3.984  1.9214  0.7530 -1.0008
 6050SOL     OW29782   3.626   4.668   5.455 -0.1954  0.1534 -0.0915
 6050SOL    HW129783   3.622   0.002   5.396 -0.2327 -0.3286 -0.7038
 6050SOL    HW229784   3.698   4.616   5.420 -0.0831  0.6297 -0.5616
 6051SOL     OW29785   1.475   3.107   4.463  0.3312 -0.5914  0.0384
 6051SOL    HW129786   1.520   3.191   4.450 -0.3436 -0.5877 -2.1726
 6051SOL    HW229787   1.552   3.051   4.468 -1.3730 -2.8392  1.3106
 6052SOL     OW29788   2.200   4.294   3.140  0.0974  0.3138 -0.0876
 6052SOL    HW129789   2.219   4.201   3.156 -0.6803  0.1950  0.1364
 6052SOL    HW229790   2.176   4.323   3.228  1.2794  1.1464 -0.0443
 6053SOL     OW29791   0.070   2.169  15.974 -0.4096  0.5161  0.1005
 6053SOL    HW129792   0.094   2.082  15.943  1.0447  1.0124 -0.1690
 6053SOL    HW229793   0.068   2.222  15.894 -1.3228 -0.7884 -0.7363
 6054SOL     OW29794   1.795   3.916  16.425 -0.0253  0.3236 -0.8310
 6054SOL    HW129795   1.796   3.932  16.519  0.6561  0.2244 -0.8164
 6054SOL    HW229796   1.729   3.849  16.409  0.3573 -0.5585  1.2780
 6055SOL     OW29797   3.561   4.122  11.318 -0.1859 -0.6881  0.7949
 6055SOL    HW129798   3.536   4.203  11.362 -0.0452  0.1672 -0.6896
 6055SOL    HW229799   3.493   4.059  11.343 -0.7894 -1.1771 -2.0878
 6056SOL     OW29800   0.635   1.442  13.839  0.6096  0.6699 -0.1547
 6056SOL    HW129801   0.616   1.534  13.824 -2.1614  0.1846  0.3772
 6056SOL    HW229802   0.556   1.404  13.801  0.5789 -0.4375  1.0157
 6057SOL     OW29803   3.955   1.305   8.521 -0.1145  0.3823 -0.1542
 6057SOL    HW129804   3.871   1.293   8.565 -0.7208  1.9724 -0.8764
 6057SOL    HW229805   4.021   1.248   8.561 -2.0337  0.0435  2.4802
 6058SOL     OW29806   0.807   0.962   3.258  0.6929 -0.0966 -1.3361
 6058SOL    HW129807   0.873   1.031   3.257 -0.0596  0.6656  1.8868
 6058SOL    HW229808   0.753   0.992   3.185  0.2662 -2.7777 -2.1453
 6059SOL     OW29809   0.339   3.563  17.077  0.0587 -0.9339 -0.3084
 6059SOL    HW129810   0.368   3.599  16.993 -1.7650  1.7376  0.2234
 6059SOL    HW229811   0.365   3.634  17.136 -0.3451 -1.1995  0.1853
 6060SOL     OW29812   3.942   1.609  15.517 -0.2427 -0.3038  0.4600
 6060SOL    HW129813   3.997   1.687  15.519 -1.9279  0.7979  2.7730
 6060SOL    HW229814   3.917   1.600  15.425  1.1691  0.7573 -0.0372
 6061SOL     OW29815   3.443   2.547   5.664  0.2708 -0.0622 -0.3348
 6061SOL    HW129816   3.392   2.626   5.684  0.4864  0.1304 -0.5364
 6061SOL    HW229817   3.404   2.477   5.716 -0.4678  0.4605 -0.1799
 6062SOL     OW29818   3.383   4.308   4.877 -0.5708  0.3271  0.0425
 6062SOL    HW129819   3.439   4.267   4.943 -0.2186  1.3559  0.3836
 6062SOL    HW229820   3.314   4.346   4.932 -0.2274  0.6533  0.2434
 6063SOL     OW29821   0.182   4.652   2.905 -0.0780 -0.0284 -0.1603
 6063SOL    HW129822   0.112   4.717   2.915 -1.4413 -1.3972 -0.9343
 6063SOL    HW229823   0.253   4.702   2.947 -0.2060  0.3168 -0.3554
 6064SOL     OW29824   2.234   0.537   2.125  0.9164 -0.1818 -0.9562
 6064SOL    HW129825   2.255   0.622   2.086 -0.4834  1.4592  1.8324
 6064SOL    HW229826   2.192   0.495   2.050  0.5864  1.2958 -1.6162
 6065SOL     OW29827   0.802   2.565   1.322  0.0266  0.0544 -0.2761
 6065SOL    HW129828   0.796   2.600   1.233  0.1470 -0.6030 -0.5444
 6065SOL    HW229829   0.797   2.647   1.370  1.2666  0.2159 -0.4248
 6066SOL     OW29830   1.962   4.182  14.633  0.1269  0.3672  0.0204
 6066SOL    HW129831   1.949   4.250  14.699  0.3550 -0.0138  0.4610
 6066SOL    HW229832   1.902   4.216  14.567  0.5948 -2.1063 -1.7024
 6067SOL     OW29833   2.784   0.664   7.621 -0.7053 -0.2243 -0.1718
 6067SOL    HW129834   2.765   0.598   7.554 -0.3950  0.9821 -1.4327
 6067SOL    HW229835   2.879   0.666   7.614 -0.3419  0.6468  5.1000
 6068SOL     OW29836   2.335   3.341   0.729 -0.1138  0.3472 -0.4525
 6068SOL    HW129837   2.341   3.428   0.691  0.3986  0.4853 -0.0574
 6068SOL    HW229838   2.424   3.326   0.763 -0.7359 -0.8535  0.6814
 6069SOL     OW29839   3.276   0.514   9.765  0.3068 -0.2337  0.0887
 6069SOL    HW129840   3.283   0.483   9.675 -1.2416  0.8839 -0.4074
 6069SOL    HW229841   3.214   0.586   9.754  3.9226  2.8759  0.1331
 6070SOL     OW29842   3.998   3.119   6.194 -0.0206 -0.0366 -0.2512
 6070SOL    HW129843   4.050   3.199   6.198 -1.6696  1.1340 -2.1656
 6070SOL    HW229844   3.935   3.118   6.266  0.2019  0.6463 -0.0473
 6071SOL     OW29845   2.742   0.167   2.867 -0.7335 -0.2195 -0.1630
 6071SOL    HW129846   2.698   0.137   2.788 -0.4204 -0.3695 -0.2803
 6071SOL    HW229847   2.675   0.139   2.929 -2.7800  1.2848 -1.6587
 6072SOL     OW29848   4.083   3.134   8.909 -0.0053  0.0994  0.5509
 6072SOL    HW129849   4.167   3.119   8.952  0.9600 -0.2635 -1.4846
 6072SOL    HW229850   4.056   3.043   8.896  4.1050 -0.3774 -4.4478
 6073SOL     OW29851   1.507   2.705   6.879 -0.0762 -0.4606  0.2676
 6073SOL    HW129852   1.526   2.708   6.973  0.8424  0.8645  0.0456
 6073SOL    HW229853   1.452   2.782   6.866  0.3448 -0.1015  0.5821
 6074SOL     OW29854   0.938   0.693   5.871 -0.1018 -0.3087  0.2760
 6074SOL    HW129855   0.967   0.784   5.866  1.0383 -0.6497  0.6712
 6074SOL    HW229856   0.843   0.699   5.859 -0.2572 -0.6139  1.2930
 6075SOL     OW29857   1.118   4.590  11.840 -0.1755 -0.4565 -0.0936
 6075SOL    HW129858   1.155   4.524  11.898  1.1892 -0.5674 -1.1018
 6075SOL    HW229859   1.192   4.584  11.780  0.2883 -0.6769  0.5021
 6076SOL     OW29860   1.488   0.309   5.463  0.6125 -0.9096 -0.8677
 6076SOL    HW129861   1.549   0.237   5.479 -0.2700 -1.6462 -0.7805
 6076SOL    HW229862   1.525   0.386   5.506  0.6915 -2.0674  1.1272
 6077SOL     OW29863   0.966   2.392   8.305  0.1551  0.2031 -0.1331
 6077SOL    HW129864   0.878   2.406   8.272 -0.4145 -3.1912 -0.0661
 6077SOL    HW229865   0.953   2.377   8.398 -1.2889 -0.5300 -0.4559
 6078SOL     OW29866   1.602   1.330  17.757 -0.1610  0.1897 -0.1351
 6078SOL    HW129867   1.605   1.234  17.752  0.3536  0.1470  1.0511
 6078SOL    HW229868   1.622   1.346   0.088  2.0943  1.3729 -0.8535
 6079SOL     OW29869   2.310   0.088  14.515 -0.0563  0.4453 -0.0875
 6079SOL    HW129870   2.257   0.162  14.546 -2.4436 -1.4004  0.2463
 6079SOL    HW229871   2.257   0.040  14.451 -1.0753  1.2963  0.1130
 6080SOL     OW29872   4.524   2.541   8.146  0.5088 -0.1715 -0.1957
 6080SOL    HW129873   4.571   2.482   8.205  2.7791  1.9350  0.0444
 6080SOL    HW229874   4.434   2.525   8.175  0.6671  1.9910  1.4653
 6081SOL     OW29875   0.841   2.230  16.338 -0.3029 -0.1348 -0.4555
 6081SOL    HW129876   0.831   2.147  16.291  1.6431 -0.8018  0.2868
 6081SOL    HW229877   0.790   2.198  16.413  2.9584 -0.5062  1.6069
 6082SOL     OW29878   4.338   1.887   1.194 -0.3210  0.0921 -0.3510
 6082SOL    HW129879   4.377   1.932   1.119 -1.5127  1.9400  0.1240
 6082SOL    HW229880   4.409   1.824   1.209 -1.9932 -1.5652  0.5549
 6083SOL     OW29881   3.248   1.332   0.934 -0.0511 -0.0042 -0.6735
 6083SOL    HW129882   3.244   1.427   0.918 -1.3038  0.0062 -0.3086
 6083SOL    HW229883   3.157   1.319   0.960 -0.5386  1.4605 -1.6638
 6084SOL     OW29884   0.288   1.338   5.815  0.1224  0.3338 -0.3292
 6084SOL    HW129885   0.346   1.311   5.886 -0.9477  1.8770  1.1428
 6084SOL    HW229886   0.234   1.408   5.853  0.2734  1.1169 -1.5550
 6085SOL     OW29887   0.187   2.891   1.764 -0.7781 -0.1645  0.2034
 6085SOL    HW129888   0.237   2.972   1.758 -0.4206 -0.3734  0.3491
 6085SOL    HW229889   0.233   2.845   1.834 -4.2771 -2.0600  1.2409
 6086SOL     OW29890   3.550   2.368  16.270 -0.1514  0.3667  0.7446
 6086SOL    HW129891   3.478   2.406  16.219  0.1803  0.6095  0.4628
 6086SOL    HW229892   3.503   2.352  16.353 -2.5643  1.3070 -0.4256
 6087SOL     OW29893   3.645   2.121   4.781  0.4477 -0.4270 -0.0246
 6087SOL    HW129894   3.588   2.050   4.750  0.1529 -0.9729  1.7602
 6087SOL    HW229895   3.720   2.078   4.739  0.3089 -0.4516 -0.2492
 6088SOL     OW29896   1.421   1.280   1.376 -0.2793  0.1942  0.4168
 6088SOL    HW129897   1.343   1.227   1.392  0.0189  0.3563  2.4159
 6088SOL    HW229898   1.406   1.361   1.424 -2.9091  1.6764 -2.9059
 6089SOL     OW29899   2.262   3.805   2.343 -0.4404  1.1947 -0.0370
 6089SOL    HW129900   2.211   3.741   2.393 -0.5752  1.1450 -0.2396
 6089SOL    HW229901   2.217   3.806   2.259 -0.0704  0.3374 -0.2509
 6090SOL     OW29902   1.874   2.438  15.858  0.0222 -0.9176  0.6350
 6090SOL    HW129903   1.797   2.494  15.849 -0.1586 -1.4999 -1.3954
 6090SOL    HW229904   1.939   2.504  15.834 -0.3234  0.1378  2.5898
 6091SOL     OW29905   0.527   4.369   3.362  0.2019  0.3299 -0.6133
 6091SOL    HW129906   0.576   4.289   3.344  0.2640 -0.1686  1.7640
 6091SOL    HW229907   0.562   4.428   3.296 -1.3223  2.1037  0.1659
 6092SOL     OW29908   2.233   4.680   8.563  0.8528  0.1074  0.8437
 6092SOL    HW129909   2.140   4.702   8.574  0.6632 -0.6370  0.7134
 6092SOL    HW229910   2.250   4.633   8.481 -0.7261 -1.0491  1.1803
 6093SOL     OW29911   0.456   2.246   3.116  0.1144  0.4758  0.0397
 6093SOL    HW129912   0.484   2.156   3.102  2.6751  1.5234 -1.4954
 6093SOL    HW229913   0.423   2.247   3.206  2.1602  0.9198  0.7691
 6094SOL     OW29914   3.375   4.107   7.987  0.0365  0.0591 -0.1428
 6094SOL    HW129915   3.467   4.085   8.002  0.3308 -0.3881 -2.6103
 6094SOL    HW229916   3.352   4.038   7.924 -1.8621  0.3120  0.2982
 6095SOL     OW29917   0.174   2.732   3.158  0.2512  0.1482  0.6130
 6095SOL    HW129918   0.259   2.701   3.127 -1.0284  0.1112 -2.8063
 6095SOL    HW229919   0.203   2.790   3.229 -0.9567 -0.1274  1.3430
 6096SOL     OW29920   3.528   4.145   6.021 -0.1788  0.6658  0.2620
 6096SOL    HW129921   3.485   4.228   5.999 -1.2271  0.2164  0.6394
 6096SOL    HW229922   3.604   4.148   5.964 -1.8849 -1.2743 -2.1123
 6097SOL     OW29923   4.089   3.224  14.991 -0.0490 -0.1219 -0.3020
 6097SOL    HW129924   4.125   3.275  14.918  1.5861 -0.3280  0.3470
 6097SOL    HW229925   4.002   3.256  14.968  0.9047  0.2488 -3.3551
 6098SOL     OW29926   3.944   2.489   2.576 -0.4434 -0.2321 -0.0193
 6098SOL    HW129927   3.977   2.506   2.665  0.3082  0.6552 -0.4657
 6098SOL    HW229928   3.854   2.458   2.588  0.4501 -2.6082  0.5476
 6099SOL     OW29929   2.387   2.546   7.730  0.0549  0.1596 -0.5506
 6099SOL    HW129930   2.433   2.463   7.720 -2.5208 -1.1655 -1.1636
 6099SOL    HW229931   2.307   2.521   7.684  1.3450 -2.0479 -1.5620
 6100SOL     OW29932   1.816   3.941   7.287  0.3932  0.4905  0.0073
 6100SOL    HW129933   1.874   3.900   7.223 -0.8575 -0.9056 -0.2172
 6100SOL    HW229934   1.858   3.901   7.363 -1.4601  0.3817  0.9691
 6101SOL     OW29935   2.133   4.526   4.429  0.3105  0.5489  0.5704
 6101SOL    HW129936   2.067   4.483   4.374  0.4757 -0.7508  1.3755
 6101SOL    HW229937   2.145   4.452   4.488 -0.8279 -1.5706 -1.8639
 6102SOL     OW29938   1.334   3.060  11.826  0.0402 -0.2999 -0.4068
 6102SOL    HW129939   1.252   3.110  11.817 -1.0636 -1.8878  0.8591
 6102SOL    HW229940   1.317   3.014  11.907  1.1597  3.5186  1.9907
 6103SOL     OW29941   2.319   3.478   2.573  0.9027  0.2212  0.4405
 6103SOL    HW129942   2.274   3.442   2.496  1.3262 -0.2893  0.4302
 6103SOL    HW229943   2.262   3.466   2.649  0.5763  0.0146  0.1624
 6104SOL     OW29944   2.891   0.022   6.827  0.2308  0.9501 -0.1516
 6104SOL    HW129945   2.888   0.118   6.830 -2.0020  0.8084  1.6603
 6104SOL    HW229946   2.798   0.002   6.817  0.5706 -1.0446  0.7452
 6105SOL     OW29947   3.316   3.152   7.728  0.3238 -0.2458 -0.2774
 6105SOL    HW129948   3.225   3.152   7.757  0.9167 -2.5887  1.6250
 6105SOL    HW229949   3.353   3.081   7.781  2.4467 -0.1868 -1.6589
 6106SOL     OW29950   0.293   0.483   1.438  0.2177  0.6456  0.0587
 6106SOL    HW129951   0.251   0.440   1.363 -0.6413  0.8943  0.3903
 6106SOL    HW229952   0.385   0.475   1.414 -0.0277  2.1773 -1.3614
 6107SOL     OW29953   4.271   2.234   2.314 -0.5044  0.1018  0.5797
 6107SOL    HW129954   4.253   2.321   2.351  0.2285  0.4716  0.0576
 6107SOL    HW229955   4.202   2.231   2.248 -0.1085  1.8776  0.0789
 6108SOL     OW29956   2.273   2.195   7.114 -0.3711  0.4217 -0.7788
 6108SOL    HW129957   2.217   2.118   7.102 -1.1678  0.8610  0.0995
 6108SOL    HW229958   2.240   2.230   7.197  1.0073 -0.5656  0.1800
 6109SOL     OW29959   3.364   1.041  16.232 -0.1978 -0.2292 -0.0347
 6109SOL    HW129960   3.442   1.012  16.185  1.0716  2.2253  0.5214
 6109SOL    HW229961   3.303   1.046  16.158  0.2985 -0.1385 -0.4353
 6110SOL     OW29962   2.727   2.832   2.731 -0.8862  0.0116 -0.1745
 6110SOL    HW129963   2.746   2.758   2.788 -0.0755 -1.1461 -1.9354
 6110SOL    HW229964   2.756   2.787   2.652  3.8320  1.5243  0.6607
 6111SOL     OW29965   4.084   2.084   6.565  0.2786 -0.7505 -0.3485
 6111SOL    HW129966   4.075   2.003   6.616  3.7641 -2.1140 -1.8472
 6111SOL    HW229967   4.123   2.051   6.484 -0.0248  0.0058 -0.8021
 6112SOL     OW29968   1.459   2.453   1.342 -0.0338  0.5332 -0.3901
 6112SOL    HW129969   1.451   2.377   1.286 -0.2297  1.4711 -1.6340
 6112SOL    HW229970   1.368   2.480   1.333  0.6595  3.1385  0.1845
 6113SOL     OW29971   3.731   2.168   7.237 -0.2968 -0.0115  0.6862
 6113SOL    HW129972   3.782   2.211   7.305 -1.0469  0.8334  0.7111
 6113SOL    HW229973   3.654   2.132   7.281 -1.4207  1.2715 -0.2023
 6114SOL     OW29974   3.401   0.188   0.548 -0.1495 -0.6704  0.3856
 6114SOL    HW129975   3.464   0.258   0.566 -0.2916 -0.3173 -0.4767
 6114SOL    HW229976   3.386   0.146   0.633 -1.5666 -0.6687  0.1398
 6115SOL     OW29977   1.396   3.806   8.052  0.1305 -0.4119 -0.0092
 6115SOL    HW129978   1.481   3.781   8.088 -0.4959  0.2825  1.9465
 6115SOL    HW229979   1.377   3.888   8.098  1.5798 -0.0539 -0.0578
 6116SOL     OW29980   1.321   0.396  10.608  0.7479 -0.0228 -0.4976
 6116SOL    HW129981   1.267   0.356  10.676 -1.4128  1.9376 -1.0585
 6116SOL    HW229982   1.273   0.395  10.525 -0.6871  0.1411  0.3199
 6117SOL     OW29983   2.953   0.163  13.570 -0.5638  0.1445  0.1298
 6117SOL    HW129984   3.011   0.238  13.557 -0.3230 -0.1907 -0.7193
 6117SOL    HW229985   2.951   0.137  13.478  3.2134 -3.0430  0.9622
 6118SOL     OW29986   1.800   3.837   5.658 -0.4924  0.1269  0.3010
 6118SOL    HW129987   1.752   3.920   5.666  1.2880  0.9421  2.2545
 6118SOL    HW229988   1.800   3.814   5.751  2.3297  1.0979  0.5309
 6119SOL     OW29989   2.224   4.240  14.720  1.0247 -0.3309 -0.1391
 6119SOL    HW129990   2.216   4.333  14.697  1.0021 -0.7029 -1.6211
 6119SOL    HW229991   2.190   4.229  14.809 -1.8746 -0.3997 -1.2390
 6120SOL     OW29992   4.338   0.964   3.128  0.2249  0.7619 -0.1640
 6120SOL    HW129993   4.336   1.057   3.105  0.5322  1.1331  1.2941
 6120SOL    HW229994   4.392   0.972   3.207  0.9294  0.4922 -0.6204
 6121SOL     OW29995   0.698   2.992   6.929  0.2555  0.5255  0.6708
 6121SOL    HW129996   0.763   3.063   6.922  0.2578  0.0162 -4.2608
 6121SOL    HW229997   0.678   2.993   7.022 -0.1882 -3.1642  0.5958
 6122SOL     OW29998   4.275   1.731   0.303 -0.2209  0.2129 -0.2348
 6122SOL    HW129999   4.183   1.754   0.308  0.4059  1.8898  3.6418
 6122SOL    HW230000   4.307   1.797   0.242 -0.6378  0.5951 -0.0392
 6123SOL     OW30001   3.833   2.461  10.386 -0.0770  0.2320 -0.0528
 6123SOL    HW130002   3.906   2.470  10.325 -0.8599 -0.3759 -1.0762
 6123SOL    HW230003   3.871   2.504  10.462 -1.5491 -2.0709  1.9847
 6124SOL     OW30004   3.904   4.117   7.835  0.2215  0.2017 -0.2682
 6124SOL    HW130005   3.918   4.025   7.860  1.2218 -0.1923 -2.2599
 6124SOL    HW230006   3.895   4.119   7.740 -0.4659  1.1995 -0.1788
 6125SOL     OW30007   1.686   2.495  13.614  0.0190 -0.0663 -0.3266
 6125SOL    HW130008   1.607   2.550  13.608  0.8482  1.3910  2.3095
 6125SOL    HW230009   1.644   2.412  13.593  1.2425 -0.4739 -1.0954
 6126SOL     OW30010   4.740   0.266   1.627  0.2604 -0.3295  0.3105
 6126SOL    HW130011   4.673   0.330   1.604 -0.3078 -1.0534 -0.0295
 6126SOL    HW230012   0.077   0.319   1.645 -0.2354  0.6289 -0.3869
 6127SOL     OW30013   1.532   1.862  16.751 -0.2088 -0.5899 -0.1550
 6127SOL    HW130014   1.468   1.804  16.708 -1.0798  1.3529 -1.4958
 6127SOL    HW230015   1.536   1.938  16.693 -1.6488 -0.6868 -0.3823
 6128SOL     OW30016   0.766   3.246   1.831 -0.0973  0.0032 -0.7792
 6128SOL    HW130017   0.852   3.287   1.836 -0.9650  1.5764  1.2942
 6128SOL    HW230018   0.764   3.203   1.916  0.4037 -3.4227 -2.4940
 6129SOL     OW30019   1.457   1.844   3.973 -0.1407  0.1421  0.1306
 6129SOL    HW130020   1.368   1.872   3.994 -0.4027 -1.1935  0.7484
 6129SOL    HW230021   1.518   1.918   3.981 -2.0504  1.8669 -1.1278
 6130SOL     OW30022   1.549   1.955  13.667  0.1224  0.0165 -0.5007
 6130SOL    HW130023   1.614   2.017  13.635  0.9872 -0.8720 -0.4484
 6130SOL    HW230024   1.476   1.974  13.606 -1.0987  1.7001  1.4761
 6131SOL     OW30025   1.744   2.808   7.616  0.3867  0.6421  0.4753
 6131SOL    HW130026   1.826   2.775   7.653  0.8072 -1.3025 -2.1509
 6131SOL    HW230027   1.782   2.866   7.551  0.6281 -1.5195 -1.3081
 6132SOL     OW30028   1.118   0.284  16.640  0.0797  0.3203 -0.1369
 6132SOL    HW130029   1.078   0.371  16.651  0.6296  0.3542  1.6009
 6132SOL    HW230030   1.166   0.271  16.721  0.9381 -0.0848 -0.7125
 6133SOL     OW30031   3.986   1.417   1.828  0.0209  0.2619 -0.5945
 6133SOL    HW130032   3.995   1.330   1.867 -5.5724 -0.6979 -1.4525
 6133SOL    HW230033   3.892   1.434   1.829 -0.1449 -0.7557  0.6023
 6134SOL     OW30034   0.746   3.660   6.021 -0.0368 -0.2311 -0.0405
 6134SOL    HW130035   0.665   3.612   6.003  0.5483 -1.4171  0.5204
 6134SOL    HW230036   0.755   3.645   6.115  0.0583 -1.9496 -0.3312
 6135SOL     OW30037   2.362   0.506   5.777 -0.2268 -0.6631  0.0284
 6135SOL    HW130038   2.274   0.499   5.740  0.8230  1.8699 -2.9130
 6135SOL    HW230039   2.359   0.464   5.863  0.2356  1.5499  1.1243
 6136SOL     OW30040   4.605   4.062   6.752  0.5370  0.5094 -0.0665
 6136SOL    HW130041   4.570   4.071   6.840  0.5772 -2.1370  0.2312
 6136SOL    HW230042   4.532   4.011   6.718  2.0598 -2.9041  1.7698
 6137SOL     OW30043   4.164   0.672   1.719  0.5808  0.1424  0.0004
 6137SOL    HW130044   4.201   0.613   1.785  0.8428  0.5862  0.2543
 6137SOL    HW230045   4.242   0.717   1.687  1.1930 -1.2617 -0.4720
 6138SOL     OW30046   2.515   0.021   6.140 -0.5777  0.1037 -0.2500
 6138SOL    HW130047   2.514   0.094   6.077 -0.2991  1.6853  1.5766
 6138SOL    HW230048   2.430   4.727   6.114 -0.0382  0.0162 -1.9432
 6139SOL     OW30049   0.527   4.097   6.441 -1.0128  0.3374 -0.5287
 6139SOL    HW130050   0.456   4.142   6.486 -0.8047  1.3771 -1.2498
 6139SOL    HW230051   0.513   4.131   6.353 -0.9924  0.7074 -0.3898
 6140SOL     OW30052   3.048   4.668   5.107 -0.2392 -0.3361 -0.1773
 6140SOL    HW130053   2.955   4.673   5.128 -0.7637 -2.0621 -2.1114
 6140SOL    HW230054   3.034   4.614   5.029 -0.7813 -0.2862 -0.1167
 6141SOL     OW30055   4.387   1.641   7.316 -0.1455 -0.4227  0.3556
 6141SOL    HW130056   4.372   1.552   7.348  0.7274 -0.7216 -0.0777
 6141SOL    HW230057   4.454   1.673   7.377 -0.8441 -0.3764  1.1023
 6142SOL     OW30058   0.380   3.480   6.744  0.4901 -0.0730 -0.1008
 6142SOL    HW130059   0.329   3.408   6.707  1.3919 -0.1657 -1.1593
 6142SOL    HW230060   0.354   3.464   6.835  1.8003  1.8769  0.6123
 6143SOL     OW30061   4.547   1.264   5.416 -0.1918  0.0532  0.1223
 6143SOL    HW130062   4.580   1.189   5.366  0.0194 -0.2691  0.7481
 6143SOL    HW230063   4.601   1.278   5.494 -0.2812 -1.0659  0.3860
 6144SOL     OW30064   2.543   3.080   7.196  0.0928  0.1422 -0.1546
 6144SOL    HW130065   2.470   3.068   7.257  1.3249  3.0974  1.9126
 6144SOL    HW230066   2.596   3.136   7.252  1.6124  0.4435 -1.8899
 6145SOL     OW30067   3.585   1.406   7.970  0.6388 -0.0048  0.2174
 6145SOL    HW130068   3.635   1.488   7.965 -0.0845  0.4482  0.4245
 6145SOL    HW230069   3.591   1.387   8.064 -0.7704 -1.6900 -0.0507
 6146SOL     OW30070   1.928   2.459  13.735  0.0099  0.0590 -0.1102
 6146SOL    HW130071   1.884   2.513  13.802  1.7246 -0.8250  1.7321
 6146SOL    HW230072   1.856   2.468  13.673  0.1877 -1.0267 -0.4721
 6147SOL     OW30073   2.826   3.167   7.964  0.3200 -0.5570 -0.0451
 6147SOL    HW130074   2.758   3.232   7.949  1.7050  1.5271  2.6996
 6147SOL    HW230075   2.886   3.174   7.890 -0.4894 -1.9434 -0.8325
 6148SOL     OW30076   3.238   2.885   3.724  0.1448 -0.6132  0.0520
 6148SOL    HW130077   3.236   2.794   3.696  3.9855  0.1132 -2.5871
 6148SOL    HW230078   3.276   2.876   3.811  0.7429 -0.2609 -0.1708
 6149SOL     OW30079   3.639   1.836   5.056 -0.3300 -0.4790 -0.4343
 6149SOL    HW130080   3.598   1.903   5.001 -0.8972 -0.0036  0.5734
 6149SOL    HW230081   3.732   1.857   5.056 -0.7735  1.4946  1.2742
 6150SOL     OW30082   0.465   1.090   0.482  0.0416 -0.0109  0.5419
 6150SOL    HW130083   0.423   1.098   0.396  0.6760  1.7053  0.3997
 6150SOL    HW230084   0.396   1.074   0.546 -1.2307  0.5617 -0.6863
 6151SOL     OW30085   2.777   1.603   3.713  0.1703  0.2563  0.3384
 6151SOL    HW130086   2.837   1.598   3.788 -2.4036 -2.8372  2.1838
 6151SOL    HW230087   2.697   1.643   3.747 -0.6731  0.2727 -1.6860
 6152SOL     OW30088   3.188   1.547  12.859 -0.5848  0.5024 -0.1283
 6152SOL    HW130089   3.260   1.485  12.872  1.2480  2.8216  0.7167
 6152SOL    HW230090   3.221   1.595  12.783 -1.3220  0.7810 -0.2725
 6153SOL     OW30091   0.989   2.232   0.261  0.3573  0.0754 -0.8545
 6153SOL    HW130092   1.057   2.284   0.218  0.2638 -0.8440 -2.0938
 6153SOL    HW230093   0.922   2.243   0.193 -1.3093 -2.7016  0.3452
 6154SOL     OW30094   2.561   1.092  11.373  0.1129 -0.1147 -1.0592
 6154SOL    HW130095   2.645   1.136  11.360  0.3164  0.2800  1.6389
 6154SOL    HW230096   2.514   1.169  11.402 -0.0351 -0.8120  0.5214
 6155SOL     OW30097   3.175   1.814  16.950 -0.0131  0.3479  0.4440
 6155SOL    HW130098   3.193   1.907  16.944 -0.4339  0.4295  0.4288
 6155SOL    HW230099   3.123   1.796  16.872 -0.6567  0.9185  0.7361
 6156SOL     OW30100   0.290   4.581   2.646  0.0704 -0.0747  0.0629
 6156SOL    HW130101   0.378   4.549   2.666 -0.2747 -0.3398  1.1423
 6156SOL    HW230102   0.261   4.597   2.736  1.5018  0.6262  0.3977
 6157SOL     OW30103   3.152   1.930   8.469  0.6395 -0.2056  0.0718
 6157SOL    HW130104   3.107   2.014   8.470  0.8486 -0.1199  1.7949
 6157SOL    HW230105   3.202   1.941   8.388  0.4368  1.5171  0.1879
 6158SOL     OW30106   0.020   1.258   1.653  0.2391 -0.4355  0.0903
 6158SOL    HW130107   0.099   1.221   1.691  0.6852 -0.9255 -1.3334
 6158SOL    HW230108   4.707   1.251   1.732  0.3881 -2.5546  0.0114
 6159SOL     OW30109   3.174   4.297   7.520  0.6061 -0.3325 -0.0133
 6159SOL    HW130110   3.252   4.284   7.466  0.9671  0.9376  0.2172
 6159SOL    HW230111   3.210   4.287   7.607  0.1219 -0.4471  0.1755
 6160SOL     OW30112   3.466   1.268   6.385 -0.0871 -0.6286  0.3118
 6160SOL    HW130113   3.398   1.284   6.319 -0.6150 -1.3414  0.6797
 6160SOL    HW230114   3.437   1.335   6.446 -3.5861 -1.7256 -0.1060
 6161SOL     OW30115   1.795   0.385   7.688 -0.1480  0.1872 -0.3202
 6161SOL    HW130116   1.838   0.379   7.774  1.4928 -1.2432 -1.2468
 6161SOL    HW230117   1.744   0.467   7.689 -0.5069 -0.0345 -0.5662
 6162SOL     OW30118   3.293   4.285   7.750 -0.3109  0.5932  0.1119
 6162SOL    HW130119   3.361   4.221   7.726 -0.7969  0.2789 -0.4168
 6162SOL    HW230120   3.275   4.247   7.836  0.7678  0.9669  0.5060
 6163SOL     OW30121   3.862   4.382   1.562 -0.2838  0.1877  0.1655
 6163SOL    HW130122   3.792   4.440   1.534  0.4396  0.9100 -0.1686
 6163SOL    HW230123   3.832   4.372   1.652  0.0645 -1.3745  0.1098
 6164SOL     OW30124   2.153   1.905   6.196 -0.5010  0.2209  0.8471
 6164SOL    HW130125   2.106   1.894   6.113  1.2687 -0.5343 -0.0564
 6164SOL    HW230126   2.240   1.913   6.158 -1.3256 -0.2621 -1.1154
 6165SOL     OW30127   4.451   0.290  10.918  0.3299  0.0298 -0.2360
 6165SOL    HW130128   4.536   0.330  10.936 -0.4842  1.8130 -0.3323
 6165SOL    HW230129   4.393   0.357  10.955  0.8388  0.7492 -0.7311
 6166SOL     OW30130   2.096   4.332   3.667 -0.2431 -0.4973 -0.1595
 6166SOL    HW130131   2.002   4.322   3.651 -0.1926 -0.0911 -0.7326
 6166SOL    HW230132   2.102   4.351   3.760 -1.1413 -0.4276 -0.1096
 6167SOL     OW30133   4.617   3.809   2.085  0.5153 -0.5092 -0.0341
 6167SOL    HW130134   4.585   3.897   2.065  0.5150 -0.4716  0.1299
 6167SOL    HW230135   4.568   3.760   2.018 -4.1723  1.1186  2.1555
 6168SOL     OW30136   4.150   3.685   5.188 -0.1900 -0.4447  0.8195
 6168SOL    HW130137   4.184   3.625   5.122 -2.5845 -2.6867  1.6019
 6168SOL    HW230138   4.129   3.623   5.258 -1.3847 -0.3795  0.5148
 6169SOL     OW30139   3.134   2.662   8.022  0.6083  0.4515  0.2001
 6169SOL    HW130140   3.075   2.736   8.037 -0.7084 -0.4624 -0.4827
 6169SOL    HW230141   3.180   2.688   7.942  1.1482 -1.1603 -0.0264
 6170SOL     OW30142   1.090   3.634   4.746  0.0822  0.7656 -0.0064
 6170SOL    HW130143   1.140   3.685   4.810 -0.1339 -0.1195  0.8677
 6170SOL    HW230144   1.135   3.550   4.738 -0.5481  0.2549  1.7915
 6171SOL     OW30145   2.355   1.611  15.940  0.4475  0.1060 -0.4748
 6171SOL    HW130146   2.299   1.666  15.995  1.9779 -1.0007  2.2062
 6171SOL    HW230147   2.344   1.519  15.964  1.0838  0.2299  0.3187
 6172SOL     OW30148   3.372   2.766   7.695 -0.0526  0.0531 -0.0548
 6172SOL    HW130149   3.453   2.739   7.652  0.0638  0.5755 -0.1525
 6172SOL    HW230150   3.408   2.820   7.765  3.0946 -0.3492 -1.3387
 6173SOL     OW30151   0.602   2.633  16.730  0.6388  0.2298 -0.5088
 6173SOL    HW130152   0.613   2.702  16.665  0.4307  1.2105  0.5007
 6173SOL    HW230153   0.660   2.566  16.694 -0.6708 -0.1018 -1.9674
 6174SOL     OW30154   1.431   1.589   8.878 -0.8419  0.6776  0.4375
 6174SOL    HW130155   1.438   1.497   8.903 -1.2167  0.8721  1.2484
 6174SOL    HW230156   1.445   1.593   8.783  0.5088 -0.2525  0.5972
 6175SOL     OW30157   4.414   2.181   6.960  0.1116 -0.4467  0.3563
 6175SOL    HW130158   4.368   2.214   7.037 -0.3351 -0.0499 -0.0759
 6175SOL    HW230159   4.344   2.124   6.926 -0.5064  0.3546  0.2929
 6176SOL     OW30160   4.260   1.667   9.111  0.6027 -0.0515  0.6609
 6176SOL    HW130161   4.229   1.578   9.095 -0.3646  0.6358 -1.1521
 6176SOL    HW230162   4.227   1.709   9.032  0.7713 -1.2332 -0.0421
 6177SOL     OW30163   3.076   1.125   3.835  0.2163 -0.3001  0.0248
 6177SOL    HW130164   3.006   1.089   3.780 -0.0524  0.1534  0.0691
 6177SOL    HW230165   3.146   1.145   3.773  1.0916 -0.2834  1.0243
 6178SOL     OW30166   0.655   3.271  13.181 -0.0056  0.2629 -0.3646
 6178SOL    HW130167   0.725   3.261  13.246 -0.1671  1.6893  0.0384
 6178SOL    HW230168   0.670   3.363  13.159  1.8546  0.4454  1.7129
 6179SOL     OW30169   2.154   0.619   7.914 -0.2658  0.0958 -0.3773
 6179SOL    HW130170   2.208   0.644   7.839  1.5912  1.1161  1.3238
 6179SOL    HW230171   2.218   0.612   7.984 -0.6644 -0.4238 -0.0639
 6180SOL     OW30172   0.670   2.251   8.508  0.2768  0.0279 -0.8171
 6180SOL    HW130173   0.758   2.288   8.520 -0.2275  0.9219  0.1101
 6180SOL    HW230174   0.625   2.317   8.561  0.4770 -0.6971  0.2578
 6181SOL     OW30175   1.936   3.819   2.283 -0.1146 -0.1068  0.0156
 6181SOL    HW130176   1.981   3.816   2.198 -1.1514  1.2369 -0.5706
 6181SOL    HW230177   1.843   3.807   2.266 -0.1632 -0.2549  0.4053
 6182SOL     OW30178   2.420   1.292  17.167  0.7144 -0.5616  0.2157
 6182SOL    HW130179   2.483   1.334  17.226  3.1685 -1.5683 -1.6704
 6182SOL    HW230180   2.477   1.268  17.094 -1.0616  0.6118 -1.5459
 6183SOL     OW30181   4.387   0.154   2.654  0.1077  0.6110 -0.2560
 6183SOL    HW130182   4.298   0.149   2.620  0.0717 -0.4524 -0.0292
 6183SOL    HW230183   4.394   0.246   2.630  1.0555  0.7477  0.5857
 6184SOL     OW30184   4.138   1.034  14.389  0.2051 -0.7876 -0.1436
 6184SOL    HW130185   4.146   1.125  14.418 -1.6192 -0.8344  0.5049
 6184SOL    HW230186   4.183   1.036  14.304  1.4899 -1.9316  0.5136
 6185SOL     OW30187   3.614   1.691  10.304  0.6025  0.8012 -0.4422
 6185SOL    HW130188   3.617   1.783  10.332 -0.4297  0.6385  0.1986
 6185SOL    HW230189   3.541   1.660  10.357  0.6061 -0.9219 -1.4719
 6186SOL     OW30190   1.916   0.450   7.947 -0.1532  0.0958  0.0209
 6186SOL    HW130191   1.986   0.507   7.917 -1.0055  2.4991  2.5940
 6186SOL    HW230192   1.912   0.479   8.038  1.6127  1.0576 -0.2212
 6187SOL     OW30193   4.031   3.419   7.894  0.1593 -0.5226 -0.5222
 6187SOL    HW130194   3.942   3.393   7.918  0.3258 -0.6019  0.0081
 6187SOL    HW230195   4.088   3.357   7.939 -0.5863 -1.5852 -1.0483
 6188SOL     OW30196   1.471   1.777   7.118  0.0843  0.8470  0.0339
 6188SOL    HW130197   1.382   1.753   7.144  0.7110  0.2837  1.6339
 6188SOL    HW230198   1.467   1.870   7.097 -0.0859  1.0204  0.8322
 6189SOL     OW30199   2.980   1.435   8.881  0.1328  0.3908  0.1638
 6189SOL    HW130200   3.020   1.362   8.834  1.2241 -0.0983  1.8858
 6189SOL    HW230201   2.932   1.390   8.949  1.0429 -0.7295  0.0594
 6190SOL     OW30202   3.901   0.264   2.654  0.1964  0.4326  0.8556
 6190SOL    HW130203   3.911   0.316   2.734  0.7860 -1.9533  2.3244
 6190SOL    HW230204   3.859   0.330   2.597 -0.7669 -0.7844  0.1601
 6191SOL     OW30205   3.327   0.373  13.254 -0.0612  0.1518 -0.0116
 6191SOL    HW130206   3.300   0.378  13.162  0.4325 -0.0634 -0.1682
 6191SOL    HW230207   3.245   0.380  13.304  0.3108  1.5273  0.4078
 6192SOL     OW30208   2.198   3.091   5.151  0.5871  0.1578  0.2032
 6192SOL    HW130209   2.104   3.097   5.140  0.5681 -0.1526  0.1938
 6192SOL    HW230210   2.225   3.138   5.072 -2.8442  2.4492  0.3866
 6193SOL     OW30211   4.196   1.635  12.253  0.3593 -0.0907  0.4595
 6193SOL    HW130212   4.136   1.576  12.207  0.8833  1.0979 -1.7964
 6193SOL    HW230213   4.174   1.714  12.202 -0.1747 -0.7140 -0.2857
 6194SOL     OW30214   2.602   4.284   2.964  0.3658  0.1917  0.0823
 6194SOL    HW130215   2.609   4.241   3.050  3.3977 -0.1676 -0.3284
 6194SOL    HW230216   2.508   4.278   2.950  0.0126 -1.1937  3.1173
 6195SOL     OW30217   1.624   3.679   7.964  0.4357  0.3349 -0.2363
 6195SOL    HW130218   1.598   3.599   8.008 -0.5984 -0.7087 -2.7151
 6195SOL    HW230219   1.595   3.643   7.880  3.2168  2.4790 -2.1171
 6196SOL     OW30220   0.639   3.281   6.117 -0.1160 -0.1836  0.1464
 6196SOL    HW130221   0.557   3.237   6.140 -1.4093  2.0946 -0.1200
 6196SOL    HW230222   0.683   3.258   6.199  2.7902 -0.1283 -1.3855
 6197SOL     OW30223   2.386   3.461   6.024  0.6487  0.1928  0.3947
 6197SOL    HW130224   2.328   3.389   6.047  1.7130 -0.5765  0.7005
 6197SOL    HW230225   2.455   3.410   5.981  0.8549  1.1016 -0.3619
 6198SOL     OW30226   1.594   0.968   5.349 -0.3967  0.3324  0.2615
 6198SOL    HW130227   1.583   0.997   5.440 -0.5084  0.8755  0.0761
 6198SOL    HW230228   1.505   0.950   5.320  0.0680 -3.3249  1.0888
 6199SOL     OW30229   1.268   3.252   3.587 -0.4117 -0.7219  0.1240
 6199SOL    HW130230   1.214   3.192   3.536 -3.0458  1.6710  0.1039
 6199SOL    HW230231   1.274   3.329   3.531  1.3070 -1.4974 -0.7637
 6200SOL     OW30232   1.592   0.784   3.190 -0.1504  0.4943 -0.0781
 6200SOL    HW130233   1.614   0.754   3.278 -1.4334  0.3476  0.1867
 6200SOL    HW230234   1.497   0.797   3.185 -0.0464  2.2569  2.4513
 6201SOL     OW30235   2.805   2.439  12.058 -0.2217  0.5332 -0.3058
 6201SOL    HW130236   2.796   2.484  11.974  0.4516  1.5498  0.1745
 6201SOL    HW230237   2.896   2.411  12.056 -0.2545  0.5393 -2.1330
 6202SOL     OW30238   2.681   0.285  13.306  0.3233 -0.3358 -0.1958
 6202SOL    HW130239   2.651   0.300  13.396  0.1168 -3.1276  0.1949
 6202SOL    HW230240   2.609   0.333  13.264  0.1314 -1.9788 -1.7786
 6203SOL     OW30241   1.131   2.539   8.151 -0.2806 -0.0720 -0.1812
 6203SOL    HW130242   1.056   2.495   8.191 -1.5869  1.0855 -1.3733
 6203SOL    HW230243   1.093   2.606   8.094  1.6676  0.5919 -0.7097
 6204SOL     OW30244   1.409   0.393   8.591  0.2681  0.6091  0.1134
 6204SOL    HW130245   1.385   0.401   8.499  0.6440  1.5324  0.0869
 6204SOL    HW230246   1.445   0.480   8.608  0.7701  0.5874 -0.8427
 6205SOL     OW30247   3.672   3.349   8.970 -0.1022  0.1742 -0.4219
 6205SOL    HW130248   3.634   3.263   8.988  1.7527 -0.5473  0.0643
 6205SOL    HW230249   3.750   3.339   9.024 -0.7526 -1.4793  0.2080
 6206SOL     OW30250   4.465   3.013  12.419 -0.0589  0.4445  0.4321
 6206SOL    HW130251   4.377   3.048  12.409 -0.4787 -0.3978  1.0696
 6206SOL    HW230252   4.462   2.976  12.508  0.8404 -0.5133  0.0663
 6207SOL     OW30253   4.709   2.127   8.179 -0.3187 -0.1964 -0.4879
 6207SOL    HW130254   4.655   2.124   8.100 -1.5891  0.0345  0.3653
 6207SOL    HW230255   0.037   2.069   8.149 -0.1773 -0.3463  0.1360
 6208SOL     OW30256   4.501   1.268   8.764  0.4738  0.2123 -0.3435
 6208SOL    HW130257   4.505   1.338   8.829 -2.4154 -0.4131  0.5026
 6208SOL    HW230258   4.492   1.193   8.824 -2.3305  1.6335  1.0465
 6209SOL     OW30259   2.777   4.010  13.285  0.3026 -0.4124 -0.2032
 6209SOL    HW130260   2.862   4.045  13.258  0.0638  1.3454  1.3111
 6209SOL    HW230261   2.718   4.064  13.232  1.0296 -2.0894 -2.7011
 6210SOL     OW30262   0.429   2.364   4.271  0.4184  0.1371 -0.6048
 6210SOL    HW130263   0.425   2.273   4.302  1.1425  0.7576  1.2837
 6210SOL    HW230264   0.396   2.351   4.182  0.5824 -1.1723 -0.4785
 6211SOL     OW30265   1.904   2.643   7.781  0.4556  0.3044 -0.0201
 6211SOL    HW130266   1.932   2.714   7.838  0.7147  0.0099  0.2183
 6211SOL    HW230267   1.823   2.611   7.822  1.9582 -2.2647  0.9503
 6212SOL     OW30268   1.802   3.287  12.434 -0.1083 -0.0844 -0.1566
 6212SOL    HW130269   1.804   3.234  12.514  0.9441  0.3996  0.1309
 6212SOL    HW230270   1.821   3.215  12.374  2.7988  0.8190 -0.3125
 6213SOL     OW30271   3.997   4.030   8.171 -0.1773 -0.0143 -0.2272
 6213SOL    HW130272   3.955   4.083   8.239 -0.3614 -0.4526  0.0022
 6213SOL    HW230273   3.921   3.987   8.131  1.1626 -0.3649 -2.3730
 6214SOL     OW30274   2.004   2.780   3.213  0.0269 -0.0255  0.4483
 6214SOL    HW130275   2.077   2.777   3.151 -0.4892 -0.0180 -0.1491
 6214SOL    HW230276   2.030   2.755   3.302 -1.5842 -2.3004  0.2814
 6215SOL     OW30277   1.328   2.171   8.520  0.0105  0.4011  0.2615
 6215SOL    HW130278   1.277   2.216   8.587  0.1852 -1.2905  1.5523
 6215SOL    HW230279   1.257   2.141   8.463  0.0357  0.9566 -0.0578
 6216SOL     OW30280   1.294   1.090   4.476  0.1430 -0.0023  0.5233
 6216SOL    HW130281   1.309   1.105   4.570  1.7334  0.2008  0.2227
 6216SOL    HW230282   1.306   0.996   4.468  1.2669  0.2248 -0.3218
 6217SOL     OW30283   0.437   3.995   8.980 -0.5202  0.1813  0.5059
 6217SOL    HW130284   0.372   4.059   9.009 -0.1687  0.2722  1.0983
 6217SOL    HW230285   0.446   3.955   9.067  1.1903  0.7298  0.5831
 6218SOL     OW30286   1.690   4.508  13.726 -0.0915 -0.8136 -0.2161
 6218SOL    HW130287   1.599   4.480  13.735 -0.1939 -0.2711  0.4678
 6218SOL    HW230288   1.750   4.434  13.715  1.1762  0.3940 -1.5014
 6219SOL     OW30289   3.583   1.076   1.987  0.1143  0.4115  0.0585
 6219SOL    HW130290   3.625   1.072   2.073 -0.7157 -1.7264  0.3729
 6219SOL    HW230291   3.497   1.049   2.017 -0.9421  2.3899 -1.2259
 6220SOL     OW30292   1.595   3.339   2.677 -0.0289 -0.3521 -0.4078
 6220SOL    HW130293   1.581   3.300   2.763  1.0726 -2.1022 -1.0114
 6220SOL    HW230294   1.623   3.426   2.704  0.5958 -0.4231 -0.8055
 6221SOL     OW30295   0.689   1.072   9.911  0.7594 -0.3749  0.4721
 6221SOL    HW130296   0.602   1.109   9.901  0.4337 -0.9810  1.0325
 6221SOL    HW230297   0.732   1.102   9.831 -2.0665 -1.0775 -1.3163
 6222SOL     OW30298   0.739   2.132   4.440  0.2666  0.0996  0.0625
 6222SOL    HW130299   0.693   2.180   4.508 -1.6196 -1.0826 -0.3532
 6222SOL    HW230300   0.783   2.066   4.492  0.4549 -0.5381 -0.8944
 6223SOL     OW30301   0.804   4.701   3.399 -0.2881  0.5186 -0.5472
 6223SOL    HW130302   0.798   4.606   3.388  2.7370  0.4044 -1.1584
 6223SOL    HW230303   0.824   0.001   3.315 -0.8504 -0.9615 -1.4120
 6224SOL     OW30304   4.144   4.550   6.327 -0.1511  0.4994 -1.0001
 6224SOL    HW130305   4.228   4.504   6.316 -1.2644 -2.1740  1.8884
 6224SOL    HW230306   4.108   4.560   6.238 -0.9352  3.5058 -0.3493
 6225SOL     OW30307   3.258   4.498   7.113 -0.3028  0.0519  0.1532
 6225SOL    HW130308   3.215   4.582   7.099  1.9646  0.5162 -3.9253
 6225SOL    HW230309   3.198   4.460   7.177 -0.0989  0.2860  0.4884
 6226SOL     OW30310   1.940   1.277   0.753  0.2334  0.2494  0.4637
 6226SOL    HW130311   1.943   1.348   0.816 -0.5539  0.8858 -0.2270
 6226SOL    HW230312   1.854   1.237   0.764 -1.1798  3.6141  1.3667
 6227SOL     OW30313   3.776   3.786   6.185 -0.1596 -0.3477  0.0191
 6227SOL    HW130314   3.758   3.866   6.235  0.3133 -1.1514  1.4473
 6227SOL    HW230315   3.872   3.789   6.179 -0.2389 -0.2947 -1.2142
 6228SOL     OW30316   2.743   3.580  11.672 -0.4224  0.0321 -0.1618
 6228SOL    HW130317   2.697   3.554  11.751 -0.7396  1.1542  0.0177
 6228SOL    HW230318   2.665   3.616  11.630 -0.5608  0.1004  0.1522
 6229SOL     OW30319   3.562   3.778   7.027  0.2694 -0.3845  0.5004
 6229SOL    HW130320   3.537   3.869   7.042  0.0432  0.0176 -2.2417
 6229SOL    HW230321   3.518   3.766   6.943  1.5192  1.1603 -0.3907
 6230SOL     OW30322   2.387   3.077  10.120 -0.8775  0.4055  0.4165
 6230SOL    HW130323   2.309   3.106  10.072 -2.1403 -0.5161  1.9171
 6230SOL    HW230324   2.336   3.077  10.202 -0.0971 -1.8995  0.9043
 6231SOL     OW30325   0.401   2.793   9.466 -0.3770  0.3396  0.0129
 6231SOL    HW130326   0.449   2.843   9.400  0.7280 -1.8519 -0.8444
 6231SOL    HW230327   0.471   2.761   9.524 -1.1570  0.2159  0.8827
 6232SOL     OW30328   3.224   3.674   6.522  0.1232 -0.2049  0.2042
 6232SOL    HW130329   3.148   3.672   6.580  0.1138 -0.5985  0.1803
 6232SOL    HW230330   3.239   3.581   6.506 -2.7805 -0.4430 -1.1054
 6233SOL     OW30331   3.547   1.062   6.512 -0.2032  0.5881 -0.5241
 6233SOL    HW130332   3.512   1.132   6.456  1.0205 -0.8019 -3.0181
 6233SOL    HW230333   3.466   1.012   6.522 -0.0145  0.4762  0.4270
 6234SOL     OW30334   0.509   1.625   8.326 -0.8542  0.1477  0.2798
 6234SOL    HW130335   0.551   1.678   8.258  1.2651  2.6495  3.5307
 6234SOL    HW230336   0.526   1.534   8.299 -2.1090  0.0410 -0.1481
 6235SOL     OW30337   0.126   2.031   0.250  0.3228 -0.3467  0.6411
 6235SOL    HW130338   0.214   1.995   0.239 -0.3849 -1.8682 -0.1114
 6235SOL    HW230339   0.104   2.017   0.342  0.7034  3.1421  1.2355
 6236SOL     OW30340   3.692   1.927   9.016 -0.0520  0.1526 -0.2939
 6236SOL    HW130341   3.694   1.958   9.106  2.3876  0.6415 -0.5301
 6236SOL    HW230342   3.786   1.925   9.001  0.3261  0.3562  2.2040
 6237SOL     OW30343   1.151   0.177   5.031 -0.0912  0.0240 -0.1139
 6237SOL    HW130344   1.187   0.166   5.120 -1.5556  0.7420  0.5484
 6237SOL    HW230345   1.140   0.271   5.039 -0.6201 -0.3568  3.4745
 6238SOL     OW30346   0.043   2.882   8.557  0.0244  0.2035 -0.2164
 6238SOL    HW130347   0.109   2.946   8.583  0.9968 -1.0252  0.3057
 6238SOL    HW230348   4.703   2.931   8.576 -0.9985 -1.5922  0.0665
 6239SOL     OW30349   2.655   4.246   8.893 -0.2249  0.2324 -0.4091
 6239SOL    HW130350   2.632   4.192   8.817 -2.9562  0.2051  0.4422
 6239SOL    HW230351   2.573   4.288   8.921  0.0919  0.7913 -0.3095
 6240SOL     OW30352   2.646   2.721  13.242  0.1404  0.0971  0.2234
 6240SOL    HW130353   2.695   2.640  13.225 -1.6263 -1.0322  0.5289
 6240SOL    HW230354   2.562   2.681  13.263 -0.4959  0.4959 -1.5474
 6241SOL     OW30355   3.217   0.712  12.902  0.4440 -0.1796 -0.2423
 6241SOL    HW130356   3.164   0.764  12.962  1.3231 -2.3473  2.4203
 6241SOL    HW230357   3.241   0.780  12.838 -2.3134 -0.8093 -1.9610
 6242SOL     OW30358   4.697   1.087   4.717 -0.3690 -0.2437 -0.0735
 6242SOL    HW130359   4.739   1.106   4.801  0.1970 -2.4210  0.1310
 6242SOL    HW230360   4.622   1.029   4.731 -0.4464 -0.1571 -0.1293
 6243SOL     OW30361   2.584   1.025   5.828 -0.2757  0.2627 -0.2599
 6243SOL    HW130362   2.660   1.054   5.778  1.0349  0.9884  2.1668
 6243SOL    HW230363   2.568   1.108   5.873  2.8521  0.6931  0.0146
 6244SOL     OW30364   0.394   0.405   3.853 -0.3317  0.2595 -0.8268
 6244SOL    HW130365   0.454   0.400   3.928 -0.7203 -3.9573 -0.7908
 6244SOL    HW230366   0.333   0.470   3.888  1.0952  0.2233  1.7424
 6245SOL     OW30367   4.388   0.654   3.687 -0.7015  0.3441 -0.2191
 6245SOL    HW130368   4.299   0.665   3.721  0.4216  0.1813  2.8248
 6245SOL    HW230369   4.374   0.599   3.610  0.3447 -0.3783  0.1021
 6246SOL     OW30370   2.557   4.449   3.498  0.3096 -0.2664 -0.1168
 6246SOL    HW130371   2.503   4.396   3.439 -0.1972  1.9487 -1.6376
 6246SOL    HW230372   2.508   4.441   3.580  0.1826 -1.1110 -0.2834
 6247SOL     OW30373   1.187   0.843   5.908  0.1724  0.1853 -0.0417
 6247SOL    HW130374   1.124   0.862   5.977  0.8701  2.0818  0.0619
 6247SOL    HW230375   1.233   0.775   5.958  0.1592  0.7514  0.7308
 6248SOL     OW30376   4.466   0.418  14.631  0.1523 -0.9733  0.2968
 6248SOL    HW130377   4.439   0.387  14.545 -0.2665  1.2364 -0.3659
 6248SOL    HW230378   4.432   0.345  14.683  0.3358 -1.0175  0.3552
 6249SOL     OW30379   1.969   4.410   4.128 -0.0498  0.0576  0.2790
 6249SOL    HW130380   1.952   4.504   4.138 -0.5076  0.0791 -0.6763
 6249SOL    HW230381   2.010   4.408   4.042 -0.7457 -2.1156 -0.0070
 6250SOL     OW30382   0.366   2.759   1.424 -0.1825  0.6814  0.1000
 6250SOL    HW130383   0.417   2.839   1.435  1.1552 -0.1079 -0.4424
 6250SOL    HW230384   0.279   2.798   1.416  0.2116  1.5099 -0.1540
 6251SOL     OW30385   3.066   1.787  16.501  0.1182  0.5949 -0.1238
 6251SOL    HW130386   3.132   1.723  16.477  0.6241  1.6217 -1.4735
 6251SOL    HW230387   3.041   1.762  16.590 -1.0404 -1.0844 -0.9268
 6252SOL     OW30388   2.207   0.399  10.133 -0.0616 -0.1357  0.1045
 6252SOL    HW130389   2.113   0.413  10.122  0.2844  1.0268 -1.4651
 6252SOL    HW230390   2.217   0.306  10.113 -0.0951  0.0871 -0.9800
 6253SOL     OW30391   3.486   1.903   1.931  0.5950 -0.8413  0.6654
 6253SOL    HW130392   3.412   1.951   1.969  2.3646  2.5288 -0.1314
 6253SOL    HW230393   3.449   1.818   1.909 -1.4005  0.2768 -0.2841
 6254SOL     OW30394   1.782   3.954  10.745 -0.1483 -0.2267  0.0543
 6254SOL    HW130395   1.871   3.933  10.773  1.2982  0.5932 -4.0177
 6254SOL    HW230396   1.738   3.964  10.830  2.4810 -1.0272  1.4938
 6255SOL     OW30397   0.743   2.698  11.148 -0.2121  0.3297 -0.0210
 6255SOL    HW130398   0.784   2.615  11.124 -1.5275 -0.6898  1.2292
 6255SOL    HW230399   0.670   2.673  11.205  2.0565 -1.3896  2.0819
 6256SOL     OW30400   4.231   0.470  10.679 -0.0231 -0.3478 -0.5959
 6256SOL    HW130401   4.175   0.430  10.613  1.0532 -2.3480 -0.2840
 6256SOL    HW230402   4.169   0.494  10.748  1.5903  0.7129  0.4808
 6257SOL     OW30403   3.139   3.226   2.801  0.1140  0.1658  0.4105
 6257SOL    HW130404   3.199   3.300   2.790  1.3242 -1.2466 -2.4282
 6257SOL    HW230405   3.182   3.191   2.879  0.4417  0.8009  0.5164
 6258SOL     OW30406   0.936   4.268   6.719  0.1751  0.1440  0.3179
 6258SOL    HW130407   0.843   4.280   6.734 -0.6486 -1.8625 -3.1458
 6258SOL    HW230408   0.974   4.245   6.804 -2.3841  3.1775  2.2654
 6259SOL     OW30409   0.504   0.849   7.775 -0.1320 -0.2339 -0.6304
 6259SOL    HW130410   0.449   0.799   7.714  0.0262 -0.8680 -0.2572
 6259SOL    HW230411   0.455   0.931   7.771  0.3664  0.1718  1.4568
 6260SOL     OW30412   4.697   1.369  11.822  0.0515 -0.0285 -0.0919
 6260SOL    HW130413   4.700   1.426  11.745  1.0605  0.1123  0.0478
 6260SOL    HW230414   0.020   1.310  11.782 -1.8520 -2.8791  1.0361
 6261SOL     OW30415   1.136   0.296   6.306 -0.2132 -0.1284  0.4111
 6261SOL    HW130416   1.081   0.301   6.228 -2.0223 -0.5633  1.6662
 6261SOL    HW230417   1.065   0.283   6.368 -0.0878  1.3972  0.8963
 6262SOL     OW30418   1.721   2.117   6.116 -0.3947  0.3088  0.4300
 6262SOL    HW130419   1.682   2.089   6.199 -1.7166  1.7829  0.3180
 6262SOL    HW230420   1.674   2.201   6.119  0.5266  0.8533 -0.7260
 6263SOL     OW30421   0.711   3.449   6.968  0.6500  0.0468 -0.0402
 6263SOL    HW130422   0.655   3.480   7.039 -2.0586 -1.8667 -1.3651
 6263SOL    HW230423   0.792   3.494   6.990  1.3119 -1.5568  0.8239
 6264SOL     OW30424   2.120   4.596   5.052 -0.5146 -0.0718  0.7785
 6264SOL    HW130425   2.068   4.676   5.061  0.3149  0.4545  0.9231
 6264SOL    HW230426   2.072   4.552   4.982  1.0511 -2.0187  0.9295
 6265SOL     OW30427   0.315   2.861   2.691 -0.3573  0.0480  0.1649
 6265SOL    HW130428   0.376   2.852   2.765  0.5503  1.1213 -0.4561
 6265SOL    HW230429   0.258   2.785   2.706 -0.0836 -0.4350 -1.3090
 6266SOL     OW30430   1.746   2.576   1.942 -0.6708  0.0395  0.2653
 6266SOL    HW130431   1.756   2.659   1.988  0.9841  0.2422 -0.4534
 6266SOL    HW230432   1.838   2.548   1.932 -0.9568  0.3330 -3.1949
 6267SOL     OW30433   4.304   1.752  17.414  0.1858  0.6129  0.1137
 6267SOL    HW130434   4.242   1.820  17.442 -1.0371 -0.5326  0.1664
 6267SOL    HW230435   4.343   1.737  17.500 -0.9598  1.1652  0.7296
 6268SOL     OW30436   2.836   0.561  13.434 -0.6016  0.2130  0.1054
 6268SOL    HW130437   2.741   0.568  13.423 -0.2619  0.9796 -2.2954
 6268SOL    HW230438   2.863   0.618  13.363  3.1026  2.8035  3.6110
 6269SOL     OW30439   0.035   1.614   5.531 -0.1524 -1.0319  0.4404
 6269SOL    HW130440   0.058   1.694   5.578 -0.4563 -1.1762  0.8252
 6269SOL    HW230441   4.699   1.587   5.580 -0.2173  1.3052  1.6057
 6270SOL     OW30442   1.982   1.265   6.621 -0.4432  0.2861 -0.2726
 6270SOL    HW130443   1.972   1.347   6.574 -2.9068 -1.0229 -2.0724
 6270SOL    HW230444   1.949   1.286   6.709 -0.4862 -0.1983 -0.1702
 6271SOL     OW30445   2.799   2.067   3.830 -0.0106  0.6586 -0.0696
 6271SOL    HW130446   2.885   2.085   3.792 -0.4878  1.8865 -0.5786
 6271SOL    HW230447   2.744   2.132   3.786  0.3345  0.9169 -0.1154
 6272SOL     OW30448   3.245   1.786   5.325 -0.8562 -0.1231  0.0239
 6272SOL    HW130449   3.219   1.875   5.348 -1.5019 -0.7000  1.5337
 6272SOL    HW230450   3.299   1.804   5.248  2.2815 -0.1577  2.2076
 6273SOL     OW30451   2.000   1.811   8.265 -0.4900 -0.5567  0.0694
 6273SOL    HW130452   2.065   1.835   8.199  0.0194  2.0518  1.5022
 6273SOL    HW230453   2.054   1.816   8.344 -0.3283  0.4780 -0.1033
 6274SOL     OW30454   2.933   4.311   5.665  0.1599 -0.3089 -0.2422
 6274SOL    HW130455   2.857   4.306   5.723 -1.4785 -0.6898 -2.4070
 6274SOL    HW230456   2.980   4.372   5.721  1.4113  0.3355 -1.9879
 6275SOL     OW30457   4.534   1.919   6.644  0.5049  0.3297  1.0302
 6275SOL    HW130458   4.503   2.009   6.650 -1.7298 -0.5412  2.6950
 6275SOL    HW230459   4.611   1.924   6.587  0.2125  3.2056  0.9014
 6276SOL     OW30460   0.542   2.179   3.713  0.7857  0.3727 -0.2237
 6276SOL    HW130461   0.598   2.105   3.689 -0.9265 -1.1720  0.5794
 6276SOL    HW230462   0.604   2.252   3.719  0.5591  0.8600 -3.5280
 6277SOL     OW30463   4.640   2.493   5.698 -0.4185  0.0376 -0.1694
 6277SOL    HW130464   4.557   2.482   5.653  0.2048 -1.8883 -0.8614
 6277SOL    HW230465   4.608   2.516   5.785 -0.9705 -1.5409  0.0478
 6278SOL     OW30466   1.037   1.690   2.991  0.4189  0.4563 -0.0538
 6278SOL    HW130467   0.966   1.633   2.961  2.1240 -0.6459 -1.9399
 6278SOL    HW230468   1.115   1.636   3.001 -0.5107 -1.1159 -1.2923
 6279SOL     OW30469   0.184   2.538   0.544  0.3139  0.2829 -0.3102
 6279SOL    HW130470   0.248   2.469   0.557  1.2217  1.1973  0.0929
 6279SOL    HW230471   0.201   2.556   0.451  2.1839 -1.1358 -0.2305
 6280SOL     OW30472   3.062   0.110  13.338 -0.2027  0.1694 -0.5648
 6280SOL    HW130473   3.066   0.202  13.313  1.3726 -0.0044 -0.9270
 6280SOL    HW230474   3.136   0.061  13.303 -0.1151  0.8206 -1.3022
 6281SOL     OW30475   2.134   2.013  12.152  0.7054  0.4965  0.4676
 6281SOL    HW130476   2.077   2.016  12.230 -0.8135  1.4694 -0.6866
 6281SOL    HW230477   2.209   1.964  12.185 -0.7481 -2.1346 -0.1337
 6282SOL     OW30478   1.680   0.475   9.897 -0.4244 -0.4971 -0.5742
 6282SOL    HW130479   1.616   0.433   9.955  0.7087 -0.8639  0.3968
 6282SOL    HW230480   1.665   0.568   9.913 -2.1288 -0.8028 -0.3510
 6283SOL     OW30481   3.920   0.633   0.589 -0.6669  0.3623 -0.6041
 6283SOL    HW130482   3.902   0.574   0.515 -1.1590 -0.4271  0.1453
 6283SOL    HW230483   3.865   0.707   0.564 -1.9896 -0.2710  0.4165
 6284SOL     OW30484   3.709   0.799   4.946 -0.4839  0.1181  0.2463
 6284SOL    HW130485   3.769   0.735   4.907  0.7720  0.3624  1.7826
 6284SOL    HW230486   3.660   0.818   4.866  1.3041  0.3020 -0.8021
 6285SOL     OW30487   4.698   4.331   6.755 -0.0524  0.0451  0.6028
 6285SOL    HW130488   4.610   4.364   6.774 -0.9441 -2.3197  0.5214
 6285SOL    HW230489   4.680   4.237   6.751 -2.1092  0.4942 -0.7792
 6286SOL     OW30490   4.617   2.213   0.887 -0.0403  0.1278 -0.0606
 6286SOL    HW130491   4.640   2.281   0.951 -0.5620  0.7670 -0.5537
 6286SOL    HW230492   4.550   2.262   0.839 -0.6167 -0.8040 -0.2133
 6287SOL     OW30493   1.348   2.698  12.273 -0.1506  0.0207  0.3980
 6287SOL    HW130494   1.347   2.612  12.232 -1.4019  0.1433  0.1578
 6287SOL    HW230495   1.286   2.685  12.345  0.1407 -0.3840  0.5758
 6288SOL     OW30496   0.421   3.823   5.935  0.5300 -0.4238 -0.2545
 6288SOL    HW130497   0.436   3.847   5.844  0.0081  0.2067 -0.1778
 6288SOL    HW230498   0.390   3.732   5.931  0.4155 -0.3246 -1.5517
 6289SOL     OW30499   2.751   1.117   7.849  0.1585 -0.6329  0.2043
 6289SOL    HW130500   2.824   1.070   7.808  0.4414  1.5578 -1.8334
 6289SOL    HW230501   2.693   1.148   7.780 -1.4127  0.1909  1.8938
 6290SOL     OW30502   2.251   1.831   3.964  1.1676 -0.3768 -0.0513
 6290SOL    HW130503   2.319   1.894   3.942 -2.4270  2.7594 -2.2563
 6290SOL    HW230504   2.299   1.755   3.996 -0.0660 -0.9402  0.4679
 6291SOL     OW30505   3.253   1.020   5.822 -0.3871 -0.0042 -0.3496
 6291SOL    HW130506   3.288   0.931   5.820  0.8668  0.4296  3.0990
 6291SOL    HW230507   3.253   1.039   5.728  2.7881  0.0402 -0.3449
 6292SOL     OW30508   2.055   3.670   2.469 -0.0151  0.2733 -0.7334
 6292SOL    HW130509   2.030   3.577   2.470  0.2371  0.1954 -1.7659
 6292SOL    HW230510   1.983   3.721   2.432  0.8903  1.8679 -0.2766
 6293SOL     OW30511   1.542   2.003   8.395  0.2030 -0.2975 -0.1154
 6293SOL    HW130512   1.612   2.069   8.386 -0.2327  0.3530  1.2326
 6293SOL    HW230513   1.489   2.054   8.456  0.6938 -1.8814  1.6159
 6294SOL     OW30514   3.617   2.002   4.370  0.2407 -0.4709  0.4499
 6294SOL    HW130515   3.631   1.979   4.278  0.4515 -0.4565  0.4785
 6294SOL    HW230516   3.605   2.097   4.366  0.5977 -0.4985 -1.1956
 6295SOL     OW30517   3.099   4.332   4.633 -0.6354 -0.2919  0.0764
 6295SOL    HW130518   3.161   4.310   4.563 -0.6573  1.9410 -0.6560
 6295SOL    HW230519   3.026   4.272   4.622 -1.3763  0.4352  1.0253
 6296SOL     OW30520   3.339   0.324   3.357  0.5451 -0.0920 -0.0496
 6296SOL    HW130521   3.274   0.263   3.392 -0.3757  0.4722 -0.7714
 6296SOL    HW230522   3.421   0.276   3.360  1.8631  2.2066  0.5759
 6297SOL     OW30523   3.308   0.178   6.234 -0.7006 -0.2432 -0.0105
 6297SOL    HW130524   3.269   0.205   6.316 -0.2934 -0.3004  0.2010
 6297SOL    HW230525   3.229   0.125   6.219  1.3926 -3.2888 -0.1755
 6298SOL     OW30526   0.600   3.022   6.019 -0.0975 -0.0772 -0.3307
 6298SOL    HW130527   0.607   3.099   5.963 -0.3298 -0.5073 -0.9438
 6298SOL    HW230528   0.596   3.062   6.106 -0.4776  1.8080 -1.2248
 6299SOL     OW30529   1.963   2.647   9.298  0.1124 -0.3948  0.0366
 6299SOL    HW130530   1.995   2.694   9.376 -0.0680 -0.7964  0.3565
 6299SOL    HW230531   2.029   2.579   9.282  2.6940  2.1860 -0.2284
 6300SOL     OW30532   4.657   1.708  12.546 -0.3922  0.3613  0.0082
 6300SOL    HW130533   4.573   1.691  12.587  0.6425 -0.4280  1.7870
 6300SOL    HW230534   4.622   1.713  12.457  1.6476 -0.9331 -0.8988
 6301SOL     OW30535   1.141   2.538  13.465  0.2531 -0.3509 -0.3701
 6301SOL    HW130536   1.090   2.602  13.415  0.6662  0.3109  0.0537
 6301SOL    HW230537   1.185   2.495  13.392 -0.2139 -0.2817 -0.6936
 6302SOL     OW30538   2.817   4.629   3.026 -1.1595 -0.5700 -0.1447
 6302SOL    HW130539   2.814   4.635   2.930  2.2887  0.1403 -0.2325
 6302SOL    HW230540   2.781   4.704   3.073  2.7911  0.4835  1.2183
 6303SOL     OW30541   0.598   2.585   0.214 -0.6807 -0.7001  0.3677
 6303SOL    HW130542   0.601   2.531   0.135  3.2935 -0.2293  0.2397
 6303SOL    HW230543   0.683   2.581   0.257 -0.1484 -1.2006 -0.7348
 6304SOL     OW30544   1.824   0.066   7.926  0.6588  0.2792 -0.0327
 6304SOL    HW130545   1.822   0.106   7.839  1.9852  0.7036  0.1263
 6304SOL    HW230546   1.766   0.132   7.963 -2.2064 -2.5538  0.4704
 6305SOL     OW30547   0.472   0.315   6.568 -0.1110  0.0567  0.2622
 6305SOL    HW130548   0.520   0.274   6.497  0.5142 -3.0347  2.4915
 6305SOL    HW230549   0.383   0.301   6.535 -0.6176  2.8859  0.3916
 6306SOL     OW30550   2.147   3.158   9.249  0.0043  0.4691  0.0342
 6306SOL    HW130551   2.121   3.077   9.205 -1.0434  1.2393 -0.7907
 6306SOL    HW230552   2.105   3.226   9.196 -0.5498  0.1090  0.0052
 6307SOL     OW30553   2.865   4.161   0.404  0.2157 -0.1227  0.2342
 6307SOL    HW130554   2.825   4.237   0.446  1.0281 -0.1958  1.1446
 6307SOL    HW230555   2.947   4.204   0.380  0.3804 -1.9211 -2.4218
 6308SOL     OW30556   3.394   2.218  15.132  0.3915 -0.1523  0.2918
 6308SOL    HW130557   3.474   2.221  15.079  0.0018 -1.4015 -0.3471
 6308SOL    HW230558   3.373   2.310  15.120 -0.0103 -0.2157  0.5152
 6309SOL     OW30559   1.231   1.540   5.992  0.5087 -0.1018 -0.3236
 6309SOL    HW130560   1.263   1.504   5.909 -1.0392  0.2168 -1.0642
 6309SOL    HW230561   1.245   1.635   5.982 -0.0559  0.0931  0.7307
 6310SOL     OW30562   4.330   0.953   2.547  0.1360  0.2210 -0.2531
 6310SOL    HW130563   4.237   0.966   2.561  0.0162 -0.4531 -0.4587
 6310SOL    HW230564   4.349   0.949   2.641 -2.1804  2.9706  0.3434
 6311SOL     OW30565   1.766   2.140  13.565  0.4747 -0.6837 -0.3035
 6311SOL    HW130566   1.793   2.111  13.653 -0.9874 -2.0137 -0.2789
 6311SOL    HW230567   1.838   2.115  13.508  1.8611  0.3941  1.0012
 6312SOL     OW30568   3.214   2.477  10.923 -0.3584  0.3009 -0.9037
 6312SOL    HW130569   3.172   2.532  10.857 -3.1310  0.4173  1.0099
 6312SOL    HW230570   3.306   2.483  10.895  0.3580 -1.1895  1.0951
 6313SOL     OW30571   0.217   0.377  10.614  0.1252  0.5553  0.6494
 6313SOL    HW130572   0.153   0.447  10.606 -1.7844 -1.5050 -1.8914
 6313SOL    HW230573   0.214   0.340  10.703 -0.5459 -0.7792  0.0628
 6314SOL     OW30574   1.892   1.285   5.649 -0.3560 -0.0677 -0.0586
 6314SOL    HW130575   1.861   1.214   5.706  1.1103 -1.7048 -1.2936
 6314SOL    HW230576   1.850   1.368   5.671 -0.1420 -0.0596  0.3111
 6315SOL     OW30577   4.141   1.772   8.903 -0.1085  0.8630 -0.4650
 6315SOL    HW130578   4.102   1.794   8.818 -0.2666  1.0205 -0.3485
 6315SOL    HW230579   4.062   1.735   8.941  1.1838  0.9298  2.2915
 6316SOL     OW30580   2.025   0.224   5.884 -0.0161  0.0505 -0.1373
 6316SOL    HW130581   2.101   0.166   5.887  0.3601  0.5589  0.0913
 6316SOL    HW230582   2.021   0.260   5.972 -1.8519 -1.3887  0.3736
 6317SOL     OW30583   0.790   0.834   4.227 -0.0296  0.0125  0.7810
 6317SOL    HW130584   0.850   0.806   4.157  1.8093  1.1128  1.9027
 6317SOL    HW230585   0.728   0.891   4.184  2.0047  0.9267 -0.9364
 6318SOL     OW30586   2.450   1.758   7.988  0.2058  0.5293  0.4092
 6318SOL    HW130587   2.487   1.826   7.932 -0.3140  1.8832  1.7165
 6318SOL    HW230588   2.464   1.680   7.934 -0.6755 -1.3014  2.8484
 6319SOL     OW30589   0.755   3.196   7.665 -0.3652  0.2210 -0.3352
 6319SOL    HW130590   0.850   3.203   7.674 -0.1702 -0.0715 -2.2232
 6319SOL    HW230591   0.742   3.131   7.734 -0.3847  0.6871  0.0956
 6320SOL     OW30592   3.124   2.805   0.840 -0.3037 -0.0212 -0.0414
 6320SOL    HW130593   3.130   2.762   0.755 -2.7086  1.4600 -0.9785
 6320SOL    HW230594   3.170   2.754   0.907 -0.3988 -0.0090  0.0337
 6321SOL     OW30595   2.675   0.916   6.729  0.2316  0.0677  0.3831
 6321SOL    HW130596   2.648   0.846   6.669  2.7548 -1.4286  0.9778
 6321SOL    HW230597   2.765   0.887   6.745  0.6704  0.6999 -0.9016
 6322SOL     OW30598   3.400   0.371   6.089  0.5222  0.4589 -0.0048
 6322SOL    HW130599   3.460   0.305   6.054 -1.2199 -1.5722  0.8193
 6322SOL    HW230600   3.353   0.307   6.143  0.0477  0.6324 -0.2106
 6323SOL     OW30601   2.188   0.447  15.322  0.0745  0.1891  0.8611
 6323SOL    HW130602   2.218   0.537  15.339 -0.4990  0.6021 -0.3403
 6323SOL    HW230603   2.267   0.395  15.328  0.2041  0.0995 -1.8006
 6324SOL     OW30604   2.649   1.534  16.438  0.2324 -0.1622 -0.2452
 6324SOL    HW130605   2.574   1.551  16.382 -1.3007 -1.2318  1.4924
 6324SOL    HW230606   2.604   1.475  16.499 -0.3509  0.3878 -0.1529
 6325SOL     OW30607   1.439   1.442   7.567  0.4202  0.2107  0.0992
 6325SOL    HW130608   1.394   1.442   7.652  1.1267  0.9991  0.4912
 6325SOL    HW230609   1.417   1.529   7.533  0.0470 -0.0425 -0.2871
 6326SOL     OW30610   1.528   3.130   8.124 -0.6129 -0.1901 -0.3471
 6326SOL    HW130611   1.507   3.146   8.032  2.4528  2.0776 -0.6432
 6326SOL    HW230612   1.619   3.152   8.143 -1.3607  1.7879  0.9214
 6327SOL     OW30613   1.261   0.785   2.406 -0.0615  0.1423 -0.1401
 6327SOL    HW130614   1.269   0.796   2.311  1.3005  0.2871 -0.0089
 6327SOL    HW230615   1.351   0.786   2.438 -0.1021  0.7064 -0.0445
 6328SOL     OW30616   0.615   3.413   3.471  0.0358  0.3036 -1.1203
 6328SOL    HW130617   0.523   3.405   3.446  0.0773  0.1971 -1.2374
 6328SOL    HW230618   0.600   3.449   3.558 -0.2030 -0.8160 -0.6905
 6329SOL     OW30619   3.295   1.630  16.457  0.0514  0.5366  0.1754
 6329SOL    HW130620   3.361   1.669  16.401  0.4666 -0.9382 -0.3464
 6329SOL    HW230621   3.303   1.539  16.430  0.1412  0.8563 -0.8800
 6330SOL     OW30622   2.176   3.253   1.859 -0.0289  0.8035 -0.1479
 6330SOL    HW130623   2.104   3.189   1.857  0.2458  0.5372 -1.6316
 6330SOL    HW230624   2.240   3.235   1.927  0.0541  0.8160 -0.2223
 6331SOL     OW30625   1.816   4.111   2.287  0.5588  0.4588 -0.0865
 6331SOL    HW130626   1.885   4.064   2.334  1.0279  2.7178  1.4573
 6331SOL    HW230627   1.860   4.189   2.254 -1.7483  1.8598  0.1530
 6332SOL     OW30628   3.763   2.878   9.377  0.3299  0.2554  0.0207
 6332SOL    HW130629   3.833   2.925   9.422 -1.3731  0.2526  2.7080
 6332SOL    HW230630   3.686   2.896   9.432 -1.1670 -0.9927 -1.6830
 6333SOL     OW30631   4.126   3.019   5.707  0.1578 -0.4261 -0.3279
 6333SOL    HW130632   4.073   2.955   5.661  0.2400 -0.0555 -0.9374
 6333SOL    HW230633   4.073   3.018   5.787  1.5204 -0.4031  0.5760
 6334SOL     OW30634   3.762   3.604  16.640  0.2834 -0.1725 -0.4438
 6334SOL    HW130635   3.696   3.627  16.575  0.4743 -2.7323 -1.5687
 6334SOL    HW230636   3.761   3.508  16.644 -0.4466 -0.0331  2.5417
 6335SOL     OW30637   4.699   1.801   1.899  0.3813 -0.4595 -0.3611
 6335SOL    HW130638   4.650   1.852   1.834  1.5255  2.3560  0.9797
 6335SOL    HW230639   0.046   1.838   1.898 -0.3260  1.2331  2.0284
 6336SOL     OW30640   4.334   2.503   7.530  0.6688  0.0755  0.3089
 6336SOL    HW130641   4.413   2.504   7.585  2.3251 -2.1262 -2.0656
 6336SOL    HW230642   4.377   2.488   7.446  1.7366 -0.4200  0.9394
 6337SOL     OW30643   3.535   2.790   9.022  0.1515 -0.3974  0.2709
 6337SOL    HW130644   3.510   2.782   9.114  0.3732 -0.8995  0.2889
 6337SOL    HW230645   3.496   2.872   8.991 -0.2128 -0.1781  1.3183
 6338SOL     OW30646   4.357   1.017   7.715 -0.0192  0.3655 -0.0238
 6338SOL    HW130647   4.372   0.939   7.662  2.8213  0.0832  1.1766
 6338SOL    HW230648   4.372   1.086   7.651 -1.3781 -0.8870 -1.6626
 6339SOL     OW30649   1.902   3.170   4.822  0.0004  0.1220  0.0099
 6339SOL    HW130650   1.933   3.079   4.813 -0.5570 -0.1283  0.6470
 6339SOL    HW230651   1.859   3.179   4.736  0.1016 -1.1839 -0.1827
 6340SOL     OW30652   0.759   1.310   1.162 -0.0275 -0.2545  0.9451
 6340SOL    HW130653   0.836   1.365   1.178  0.3944 -0.7629  0.6638
 6340SOL    HW230654   0.793   1.221   1.156 -0.0225 -0.2620  1.0934
 6341SOL     OW30655   0.793   2.678   8.544  0.1722  0.5286  0.3951
 6341SOL    HW130656   0.737   2.716   8.612  2.1074  1.3266  1.5237
 6341SOL    HW230657   0.827   2.600   8.588  1.5401  1.1846  0.5039
 6342SOL     OW30658   2.229   3.315   7.450  0.0047 -0.0820 -0.0865
 6342SOL    HW130659   2.192   3.362   7.376 -1.8174  1.4982  1.8192
 6342SOL    HW230660   2.185   3.234   7.424 -1.1378  0.2246  0.8891
 6343SOL     OW30661   0.353   4.528   4.230  0.4034  0.1923  0.0990
 6343SOL    HW130662   0.431   4.554   4.280  0.7592  2.5512 -1.7138
 6343SOL    HW230663   0.321   4.611   4.195 -0.3233 -0.7137 -1.3749
 6344SOL     OW30664   4.303   1.041   3.469 -0.0361  0.0550  0.0059
 6344SOL    HW130665   4.270   1.130   3.455  2.6921  1.0593 -0.0018
 6344SOL    HW230666   4.382   1.058   3.418  0.7501 -0.6202  1.0002
 6345SOL     OW30667   1.655   0.093   5.486  0.0326 -0.2682  0.4795
 6345SOL    HW130668   1.749   0.084   5.497  0.0296 -0.7606  0.1050
 6345SOL    HW230669   1.629   0.052   5.569  2.9183  0.5017  1.7419
 6346SOL     OW30670   1.489   2.830  10.458  0.3706 -0.0723  0.1056
 6346SOL    HW130671   1.566   2.838  10.514 -0.6705  0.4619  1.4571
 6346SOL    HW230672   1.430   2.790  10.522  1.0904 -0.7658  0.3435
 6347SOL     OW30673   2.376   0.549   8.088  0.0339 -0.3790  0.2484
 6347SOL    HW130674   2.466   0.518   8.072  1.4394  4.2671 -0.7609
 6347SOL    HW230675   2.351   0.469   8.135  2.9505  0.1987  2.7799
 6348SOL     OW30676   0.805   0.978   6.337 -0.3395 -0.9304 -0.3056
 6348SOL    HW130677   0.821   1.072   6.333 -2.4665 -0.5071  0.7760
 6348SOL    HW230678   0.802   0.966   6.242  0.9859  2.1240 -0.7344
 6349SOL     OW30679   2.628   0.745  12.990 -0.2329  0.3551  0.5791
 6349SOL    HW130680   2.723   0.737  12.978 -0.2635 -1.5256  1.5271
 6349SOL    HW230681   2.593   0.760  12.902 -2.3715 -1.7496  1.0770
 6350SOL     OW30682   2.227   4.091  14.988  0.2674 -0.3064  0.2822
 6350SOL    HW130683   2.247   4.144  15.065  2.6308  0.2545 -0.7192
 6350SOL    HW230684   2.135   4.071  15.005  0.2209 -1.6112 -1.4948
 6351SOL     OW30685   2.107   0.157   2.381  0.3985  0.1605  0.3456
 6351SOL    HW130686   2.163   0.182   2.307 -1.1209 -0.8983 -1.1786
 6351SOL    HW230687   2.040   0.221   2.359  1.5834  0.9040 -1.0887
 6352SOL     OW30688   1.838   4.467   4.462  0.1721  0.4692 -0.4268
 6352SOL    HW130689   1.792   4.453   4.379 -1.6310  0.0071  0.6620
 6352SOL    HW230690   1.766   4.507   4.511  0.1985  0.1687 -0.1448
 6353SOL     OW30691   3.745   2.450   2.149  0.1068  0.6445 -0.1906
 6353SOL    HW130692   3.682   2.396   2.102  0.8051  1.5135 -2.1503
 6353SOL    HW230693   3.693   2.495   2.216 -0.9281 -0.1410 -0.4832
 6354SOL     OW30694   2.187   1.915   8.099 -0.2124 -0.1435 -0.2000
 6354SOL    HW130695   2.164   1.981   8.034  1.4669 -0.3946 -1.0662
 6354SOL    HW230696   2.280   1.934   8.113 -0.2087 -2.5159  2.8170
 6355SOL     OW30697   0.873   0.620  11.973 -0.0995 -0.7979  0.3879
 6355SOL    HW130698   0.958   0.650  11.942  0.0167 -3.0474 -1.4267
 6355SOL    HW230699   0.871   0.632  12.068 -1.4409  1.3649  0.0741
 6356SOL     OW30700   2.742   3.983   7.697 -0.3518 -0.3241  0.0394
 6356SOL    HW130701   2.809   4.043   7.664 -2.0725  2.1325  1.0312
 6356SOL    HW230702   2.681   4.045   7.737  0.2362  0.4743 -0.2861
 6357SOL     OW30703   2.112   0.254   7.163 -0.6103 -0.3721 -0.3424
 6357SOL    HW130704   2.183   0.202   7.125  1.6551  1.8324  0.8434
 6357SOL    HW230705   2.097   0.319   7.093  0.3679 -1.1758 -1.3070
 6358SOL     OW30706   0.945   2.575   5.011 -0.6339 -0.1821  0.3843
 6358SOL    HW130707   0.915   2.486   5.031  1.7238 -0.4657  2.6827
 6358SOL    HW230708   0.979   2.596   5.098  0.8545  1.1468 -0.5114
 6359SOL     OW30709   3.530   2.105   5.063 -0.2167 -0.1470  0.7871
 6359SOL    HW130710   3.550   2.166   5.134  1.1026  0.7408 -0.3499
 6359SOL    HW230711   3.550   2.150   4.980  0.6878 -1.1860  0.4565
 6360SOL     OW30712   0.411   3.333   1.982  0.1795  0.3105  0.0533
 6360SOL    HW130713   0.465   3.307   2.056 -2.0507 -1.3037  1.1041
 6360SOL    HW230714   0.354   3.397   2.024  0.4692  2.3242 -2.5596
 6361SOL     OW30715   1.442   1.939   8.702 -0.2995  0.3799  0.4865
 6361SOL    HW130716   1.534   1.953   8.722  0.2458 -1.0168 -1.0456
 6361SOL    HW230717   1.418   2.030   8.719  0.3477  0.8405 -1.0463
 6362SOL     OW30718   3.771   2.822   8.899 -0.3895  0.2768 -0.6353
 6362SOL    HW130719   3.690   2.801   8.945 -1.1861  0.3728 -2.0174
 6362SOL    HW230720   3.737   2.834   8.811 -0.8455 -1.3506 -0.6896
 6363SOL     OW30721   3.393   0.777   3.331 -0.1043 -0.1769 -0.3984
 6363SOL    HW130722   3.455   0.756   3.262 -2.0481 -0.3282 -2.1045
 6363SOL    HW230723   3.404   0.694   3.378 -0.5687  0.7119  1.2844
 6364SOL     OW30724   2.693   2.602  10.415 -0.4075 -0.2822  0.0093
 6364SOL    HW130725   2.714   2.682  10.367  0.9550 -0.0183  1.0421
 6364SOL    HW230726   2.726   2.617  10.503 -0.2657  1.1285 -0.2936
 6365SOL     OW30727   4.730   2.951   8.277  0.6192 -0.0814  0.0655
 6365SOL    HW130728   4.733   2.926   8.369 -0.0609 -0.9996 -0.1648
 6365SOL    HW230729   4.680   3.031   8.288 -0.7527 -0.7415 -1.2647
 6366SOL     OW30730   4.092   3.575   2.300  0.4775  0.2562  0.1122
 6366SOL    HW130731   4.014   3.523   2.320  0.3295  0.5826  0.3778
 6366SOL    HW230732   4.096   3.633   2.376 -0.7285 -0.9606  1.1083
 6367SOL     OW30733   3.569   1.093   4.593  0.1958 -0.1673  0.0468
 6367SOL    HW130734   3.587   1.095   4.687  2.4885 -1.3087 -0.3662
 6367SOL    HW230735   3.556   1.000   4.574 -1.5484 -0.1154  0.9941
 6368SOL     OW30736   3.738   2.966   9.896 -0.5221  0.4441  0.1474
 6368SOL    HW130737   3.814   2.954   9.953 -1.8839 -0.5837  1.7396
 6368SOL    HW230738   3.667   2.950   9.958  0.6414 -2.1443  0.8238
 6369SOL     OW30739   3.926   3.364  12.531  0.1540  0.0432  0.1196
 6369SOL    HW130740   3.905   3.274  12.555 -0.0503 -0.4864 -2.0590
 6369SOL    HW230741   4.018   3.363  12.503  0.2811 -0.7932  0.5582
 6370SOL     OW30742   3.772   4.504   4.917 -0.1291  0.1152  0.7029
 6370SOL    HW130743   3.737   4.573   4.973  1.7002  0.3113  1.6117
 6370SOL    HW230744   3.808   4.560   4.849  3.1281  1.9256  3.9000
 6371SOL     OW30745   2.043   1.923   2.203 -0.2652  0.2963  0.4447
 6371SOL    HW130746   1.966   1.876   2.171  0.4287 -0.4863 -0.0813
 6371SOL    HW230747   2.116   1.868   2.173  2.7172  4.4843  0.0454
 6372SOL     OW30748   0.667   2.451  13.947 -0.1154 -0.0557 -0.2972
 6372SOL    HW130749   0.695   2.389  14.014  1.4524  0.6420 -0.2907
 6372SOL    HW230750   0.572   2.446  13.938 -0.2297 -0.8055  1.2802
 6373SOL     OW30751   3.796   1.159   3.234  0.1295 -0.3563 -0.0221
 6373SOL    HW130752   3.771   1.140   3.325  1.1111  2.1505  0.7586
 6373SOL    HW230753   3.870   1.098   3.228  0.8560  0.2985  2.2712
 6374SOL     OW30754   1.481   3.151   3.317 -0.0324  0.4700  0.0160
 6374SOL    HW130755   1.472   3.215   3.246  0.5399  1.4310  0.8067
 6374SOL    HW230756   1.516   3.070   3.281 -1.8352 -0.2737 -0.1082
 6375SOL     OW30757   0.865   3.295  14.230 -0.1266  0.4103  0.8409
 6375SOL    HW130758   0.891   3.291  14.138 -0.0846 -6.4921  1.1566
 6375SOL    HW230759   0.940   3.266  14.281  0.1520 -0.3869 -0.0359
 6376SOL     OW30760   1.007   2.875   7.721 -0.2597 -0.1658 -0.5555
 6376SOL    HW130761   0.990   2.969   7.717  0.0049 -0.1263 -0.7762
 6376SOL    HW230762   0.992   2.853   7.629  1.4278  0.9633 -1.1014
 6377SOL     OW30763   2.539   0.548   2.626  0.5571  0.1145 -0.0781
 6377SOL    HW130764   2.498   0.465   2.605 -0.5787  1.0203 -1.4058
 6377SOL    HW230765   2.472   0.595   2.677 -0.7634 -2.1518  0.2393
 6378SOL     OW30766   3.509   1.269   4.367  0.1244  0.0093 -0.1393
 6378SOL    HW130767   3.535   1.356   4.396  0.1332  0.2501 -0.8723
 6378SOL    HW230768   3.520   1.224   4.451 -2.6493 -0.8708 -0.2337
 6379SOL     OW30769   3.820   0.055   4.007  0.9778 -0.2089 -0.1109
 6379SOL    HW130770   3.842   0.036   3.916 -0.7873  0.1033 -0.5997
 6379SOL    HW230771   3.873   0.134   4.020 -1.0542  1.2931 -0.7783
 6380SOL     OW30772   0.236   0.839   5.373 -0.1275  0.4427  0.2104
 6380SOL    HW130773   0.141   0.825   5.367 -0.2889  1.3577  0.6015
 6380SOL    HW230774   0.245   0.885   5.457  0.9905 -2.3444  1.6087
 6381SOL     OW30775   0.994   2.874   7.441 -0.4442 -0.3117  0.5101
 6381SOL    HW130776   0.987   2.969   7.451  0.7905 -0.3249  1.4550
 6381SOL    HW230777   0.975   2.855   7.349  0.0443  1.5130  0.0377
 6382SOL     OW30778   0.245   1.792  15.345  0.1012  0.3233 -0.4366
 6382SOL    HW130779   0.296   1.871  15.324  1.1191 -0.4744 -0.9401
 6382SOL    HW230780   0.296   1.723  15.304 -1.7966 -0.7805 -0.9683
 6383SOL     OW30781   0.703   0.149   0.826  0.2522  0.5980 -0.4827
 6383SOL    HW130782   0.794   0.132   0.850  0.3375 -0.4139 -1.5597
 6383SOL    HW230783   0.655   0.072   0.856  2.6897 -1.4739 -1.8688
 6384SOL     OW30784   1.413   4.416   6.825 -0.3525  0.6063 -0.0331
 6384SOL    HW130785   1.482   4.469   6.785  1.7015 -2.6131 -0.6902
 6384SOL    HW230786   1.376   4.373   6.748  0.6165 -0.8684  0.3331
 6385SOL     OW30787   1.772   3.654   5.294  0.3370  0.6499 -0.0542
 6385SOL    HW130788   1.709   3.717   5.328 -1.2518 -1.1178  0.2853
 6385SOL    HW230789   1.730   3.568   5.298 -1.1608  1.4147  0.3004
 6386SOL     OW30790   1.953   1.341   3.013 -0.0165 -0.2452 -0.4209
 6386SOL    HW130791   1.888   1.284   3.053 -1.1384  0.5610 -1.1028
 6386SOL    HW230792   1.899   1.414   2.982  0.0312  0.5488  1.3601
 6387SOL     OW30793   0.915   1.278   4.117  0.0503  0.1391 -0.5403
 6387SOL    HW130794   0.824   1.294   4.093 -0.1760 -2.8924 -1.6158
 6387SOL    HW230795   0.951   1.364   4.092  1.3965 -0.0566  0.7241
 6388SOL     OW30796   0.076   0.176   4.314  0.3383 -0.3014  0.5676
 6388SOL    HW130797   0.076   0.087   4.278  1.5020 -0.3813  0.7494
 6388SOL    HW230798   0.042   0.158   4.402 -0.5248 -0.1948  0.2513
 6389SOL     OW30799   1.886   2.453   2.820  0.4422 -0.1822  0.6006
 6389SOL    HW130800   1.921   2.411   2.742  2.3971 -0.7116  1.7544
 6389SOL    HW230801   1.957   2.471   2.881  1.0392  0.1674 -0.1984
 6390SOL     OW30802   3.002   0.618   7.075  0.6005  0.1475  0.1593
 6390SOL    HW130803   2.941   0.690   7.061 -0.7510 -0.5065  2.8136
 6390SOL    HW230804   2.980   0.600   7.166  0.1587 -0.7477 -0.1204
 6391SOL     OW30805   1.048   4.636  14.448 -0.2053 -0.2485  0.5382
 6391SOL    HW130806   1.039   4.541  14.457 -1.3812 -0.0460  1.5520
 6391SOL    HW230807   1.140   4.648  14.472 -0.0344 -1.7988  0.6730
 6392SOL     OW30808   4.447   3.827   6.053 -0.3372  0.1898  0.6405
 6392SOL    HW130809   4.363   3.785   6.072 -1.0862  1.3785 -0.0638
 6392SOL    HW230810   4.439   3.824   5.958  1.1757 -2.3613  0.5926
 6393SOL     OW30811   1.312   4.239   4.096 -0.0666 -0.2481 -0.1664
 6393SOL    HW130812   1.228   4.268   4.132  0.8380 -0.2566  1.9299
 6393SOL    HW230813   1.368   4.278   4.163  2.0240 -2.7479 -0.4566
 6394SOL     OW30814   1.813   2.810  17.079 -0.0853 -0.4073 -0.0295
 6394SOL    HW130815   1.840   2.901  17.065  0.2804 -0.5508 -0.2615
 6394SOL    HW230816   1.797   2.815  17.173 -0.5924 -0.8438 -0.0930
 6395SOL     OW30817   3.184   0.910   7.211 -0.0954 -0.1107 -0.5119
 6395SOL    HW130818   3.192   0.825   7.168  1.6304  0.1110 -0.6129
 6395SOL    HW230819   3.152   0.969   7.143  1.0829  1.5031  0.3078
 6396SOL     OW30820   1.466   1.110   8.365  0.4027  0.1565 -0.7874
 6396SOL    HW130821   1.520   1.042   8.325  0.3426 -1.2179  1.4362
 6396SOL    HW230822   1.496   1.124   8.455 -0.8367  0.8774 -0.4897
 6397SOL     OW30823   2.506   0.176   6.359  0.0023 -0.2316  0.8960
 6397SOL    HW130824   2.552   0.122   6.423  1.8374 -2.3778 -2.2599
 6397SOL    HW230825   2.475   0.121   6.288 -0.5235 -0.6304  1.4332
 6398SOL     OW30826   2.426   1.088   0.636  0.1379  0.3975 -0.3091
 6398SOL    HW130827   2.491   1.148   0.601 -1.2590  3.1888  1.8942
 6398SOL    HW230828   2.474   1.054   0.712 -0.3400  0.8793  0.2084
 6399SOL     OW30829   1.689   0.784   3.664  0.1651 -0.5378 -0.3949
 6399SOL    HW130830   1.668   0.868   3.705  0.5370 -1.7888  2.3418
 6399SOL    HW230831   1.739   0.817   3.589 -0.3429 -0.8778 -0.8810
 6400SOL     OW30832   0.646   2.332   1.995 -0.4593 -1.0500  0.4000
 6400SOL    HW130833   0.610   2.264   1.938 -2.4813 -1.1805  1.8372
 6400SOL    HW230834   0.688   2.283   2.065  3.2145  0.3539 -0.8246
 6401SOL     OW30835   2.944   2.332   6.946 -0.2384  0.1520  0.3871
 6401SOL    HW130836   3.028   2.378   6.947 -0.4788  0.6467 -1.1154
 6401SOL    HW230837   2.947   2.294   7.033  0.6386 -1.1003 -0.1885
 6402SOL     OW30838   4.390   1.235   6.740 -0.1785  0.0396 -0.0267
 6402SOL    HW130839   4.405   1.257   6.832  0.8029  0.4899 -0.2905
 6402SOL    HW230840   4.402   1.319   6.695  0.5465 -0.9912 -1.7965
 6403SOL     OW30841   2.592   3.559  15.736 -0.4600 -0.2661 -0.0543
 6403SOL    HW130842   2.529   3.629  15.716 -0.3550 -0.0170  0.4936
 6403SOL    HW230843   2.532   3.493  15.771 -0.6494 -0.5061 -0.8419
 6404SOL     OW30844   2.413   1.808  13.390  0.2808 -0.1900 -0.0019
 6404SOL    HW130845   2.501   1.845  13.396 -0.2997  1.4276 -1.7151
 6404SOL    HW230846   2.427   1.729  13.443 -2.0029 -0.7385 -0.2173
 6405SOL     OW30847   2.935   1.176  14.083 -0.1731  0.3457  0.3868
 6405SOL    HW130848   2.891   1.091  14.087  2.0598 -0.9141 -1.5500
 6405SOL    HW230849   2.862   1.237  14.078 -0.1421  0.2501 -1.4330
 6406SOL     OW30850   4.663   3.378   5.962 -0.0946  0.3241 -0.1159
 6406SOL    HW130851   4.642   3.352   5.872 -2.3352 -0.3823  0.6076
 6406SOL    HW230852   4.698   3.298   6.001  0.0806  0.4980  0.0819
 6407SOL     OW30853   0.736   2.507   6.346  0.2842  0.4065 -0.6787
 6407SOL    HW130854   0.742   2.579   6.283  0.7984 -0.4811 -1.6597
 6407SOL    HW230855   0.779   2.551   6.419 -0.0628 -3.1735  1.6767
 6408SOL     OW30856   1.034   1.841   4.946  0.4789 -0.3562 -0.5051
 6408SOL    HW130857   1.090   1.878   5.015  0.0253  1.7920 -1.2680
 6408SOL    HW230858   1.088   1.769   4.914  2.1332  1.0442 -0.9159
 6409SOL     OW30859   2.023   2.498   2.320 -0.9848 -0.0081 -0.0720
 6409SOL    HW130860   1.998   2.559   2.390 -0.8823  0.2591 -0.2654
 6409SOL    HW230861   2.035   2.413   2.363 -2.4405 -0.7114 -1.0904
 6410SOL     OW30862   3.685   1.587   7.666 -0.1129  0.4110 -0.0499
 6410SOL    HW130863   3.694   1.521   7.597 -2.3223 -0.7820  0.8065
 6410SOL    HW230864   3.610   1.642   7.641 -1.0771 -1.0184 -0.3086
 6411SOL     OW30865   3.258   1.070   5.554 -0.1095  0.3051 -0.0322
 6411SOL    HW130866   3.213   1.044   5.473  1.6298 -0.2800 -0.8182
 6411SOL    HW230867   3.347   1.081   5.521 -0.7863  1.1330 -1.6171
 6412SOL     OW30868   1.060   2.053   3.247  0.1167 -0.1324 -0.4466
 6412SOL    HW130869   1.116   2.127   3.223 -1.1594  1.2795  0.8895
 6412SOL    HW230870   0.978   2.089   3.279  1.1367 -0.6529  2.7740
 6413SOL     OW30871   1.138   0.145   4.531 -0.1869 -0.4356 -0.2091
 6413SOL    HW130872   1.217   0.122   4.482 -0.2165 -0.2113 -0.3622
 6413SOL    HW230873   1.168   0.121   4.619 -0.9954 -0.9412 -0.0721
 6414SOL     OW30874   3.234   1.841  13.807 -0.1877 -0.6687 -0.3160
 6414SOL    HW130875   3.317   1.856  13.853 -0.5932 -0.1445  0.2357
 6414SOL    HW230876   3.202   1.765  13.854 -3.3411 -0.0277 -1.4300
 6415SOL     OW30877   1.665   1.773   8.438 -0.3174 -0.5454 -0.0739
 6415SOL    HW130878   1.625   1.859   8.433 -0.0730 -0.3900  0.6534
 6415SOL    HW230879   1.707   1.768   8.352 -1.2460  2.5639 -0.6934
 6416SOL     OW30880   3.473   3.155   0.574  0.4379 -0.8192  0.5255
 6416SOL    HW130881   3.527   3.177   0.650  2.6571  0.6900 -1.5157
 6416SOL    HW230882   3.452   3.237   0.529 -1.6929 -1.2020  0.8078
 6417SOL     OW30883   3.185   0.716   2.350 -0.6330  0.0845  0.0544
 6417SOL    HW130884   3.164   0.628   2.382 -0.6272 -0.3540 -1.1722
 6417SOL    HW230885   3.281   0.718   2.355 -0.6320 -2.3297  1.1378
 6418SOL     OW30886   1.145   1.811   2.404 -0.0803  0.4167  0.4712
 6418SOL    HW130887   1.129   1.742   2.340  1.2622 -0.4173  1.0288
 6418SOL    HW230888   1.222   1.853   2.366  1.2753 -0.8762  1.7683
 6419SOL     OW30889   3.184   3.723   9.282  0.6273 -1.0150  0.2447
 6419SOL    HW130890   3.166   3.669   9.359  0.6863 -2.3723 -0.6937
 6419SOL    HW230891   3.235   3.789   9.328  1.8505 -0.6981 -1.5570
 6420SOL     OW30892   3.571   0.699   6.360 -0.1416  0.2936 -0.2037
 6420SOL    HW130893   3.512   0.772   6.343 -1.3186 -0.0099  2.6346
 6420SOL    HW230894   3.506   0.633   6.386  0.1461 -0.1716 -0.6640
 6421SOL     OW30895   3.358   2.899   0.658 -0.3667 -0.5513  0.2846
 6421SOL    HW130896   3.356   2.943   0.743 -1.8486 -0.4211  0.1686
 6421SOL    HW230897   3.423   2.952   0.611 -0.6376 -0.1857  0.3164
 6422SOL     OW30898   3.967   0.571   7.070 -0.0204  0.4846  0.6294
 6422SOL    HW130899   4.013   0.655   7.058 -1.7694  1.4532  0.6787
 6422SOL    HW230900   3.874   0.593   7.079 -0.4255 -1.6847  1.7901
 6423SOL     OW30901   0.039   4.148   7.013 -0.1192  0.7069 -0.4379
 6423SOL    HW130902   0.133   4.160   7.004  0.2675 -1.1597  1.2324
 6423SOL    HW230903   0.004   4.236   7.025 -0.2761  0.3731  1.5633
 6424SOL     OW30904   3.202   2.705   5.346  0.3746 -0.4466 -0.0755
 6424SOL    HW130905   3.297   2.703   5.341  0.3258  0.2869 -1.2756
 6424SOL    HW230906   3.182   2.681   5.256  0.8023  4.3855 -1.4838
 6425SOL     OW30907   1.341   0.349   2.712  0.2881 -0.3274  0.3844
 6425SOL    HW130908   1.430   0.321   2.733  0.1380 -0.2631  1.1165
 6425SOL    HW230909   1.344   0.444   2.708  2.1749 -0.3095  2.1501
 6426SOL     OW30910   4.661   1.116   5.944 -0.6165 -0.3794 -0.9620
 6426SOL    HW130911   4.684   1.059   6.018 -2.2816 -0.3019 -0.3886
 6426SOL    HW230912   4.623   1.053   5.882  0.4056 -0.8914 -1.0640
 6427SOL     OW30913   3.208   0.781  14.526 -0.3497 -0.0881 -0.2461
 6427SOL    HW130914   3.206   0.797  14.431  0.8143 -0.2799 -0.2949
 6427SOL    HW230915   3.172   0.692  14.523  2.0061 -0.9955 -1.7041
 6428SOL     OW30916   1.831   0.224   3.482  0.6100 -0.4246  0.0066
 6428SOL    HW130917   1.788   0.284   3.543 -2.2116 -0.2054 -2.1924
 6428SOL    HW230918   1.763   0.157   3.475  1.0474 -0.7794 -0.8983
 6429SOL     OW30919   0.370   1.782  17.600  0.3778 -0.0314 -0.4095
 6429SOL    HW130920   0.435   1.833  17.648 -0.5382  1.3744 -0.6415
 6429SOL    HW230921   0.408   1.694  17.605 -1.6607 -0.8844 -0.0399
 6430SOL     OW30922   3.926   0.600  10.438 -0.4209 -0.1284 -0.6264
 6430SOL    HW130923   3.992   0.595  10.369 -2.0012 -0.4930 -2.1149
 6430SOL    HW230924   3.914   0.695  10.434  0.3115  0.1127  2.9616
 6431SOL     OW30925   0.816   1.886   4.600  0.6636  0.1429  0.5754
 6431SOL    HW130926   0.847   1.796   4.592  0.9530  0.3440 -0.5153
 6431SOL    HW230927   0.740   1.863   4.654 -0.7911  0.5506 -1.2891
 6432SOL     OW30928   2.924   3.450   4.790 -0.1180 -0.4503  0.1833
 6432SOL    HW130929   2.900   3.420   4.702 -0.0605 -3.6221  1.2377
 6432SOL    HW230930   2.864   3.393   4.839 -2.1895  2.5646  1.1757
 6433SOL     OW30931   1.142   0.180   8.619 -0.4085  0.0062  0.2334
 6433SOL    HW130932   1.213   0.143   8.670 -0.8420 -0.9525  0.1500
 6433SOL    HW230933   1.083   0.107   8.639 -1.7922  1.0070 -0.1670
 6434SOL     OW30934   4.565   0.130   4.966  0.6038  0.1035 -0.4367
 6434SOL    HW130935   4.544   0.223   4.972 -1.6867 -0.3716 -1.0064
 6434SOL    HW230936   4.625   0.132   5.041 -1.2667 -3.1948  1.1678
 6435SOL     OW30937   1.322   0.893   5.308  0.0845  0.1314  0.3385
 6435SOL    HW130938   1.245   0.878   5.253 -0.5459 -0.8760  1.4740
 6435SOL    HW230939   1.294   0.952   5.378  1.2254 -0.3060  1.1613
 6436SOL     OW30940   4.533   2.998   5.668 -0.1342  0.0067  0.0131
 6436SOL    HW130941   4.479   3.045   5.732  0.3798  0.1801  0.3218
 6436SOL    HW230942   4.612   2.986   5.721 -0.6464 -0.1734  0.7480
 6437SOL     OW30943   0.970   1.602  15.014 -1.1896  0.1519 -0.1844
 6437SOL    HW130944   1.036   1.562  14.957 -0.6541 -0.4943  0.8733
 6437SOL    HW230945   1.018   1.666  15.067 -3.3563  1.7128 -0.0990
 6438SOL     OW30946   2.947   4.509   4.101  0.2859  0.3269 -0.0078
 6438SOL    HW130947   2.873   4.454   4.075  0.7641 -0.3670  0.0902
 6438SOL    HW230948   2.905   4.595   4.094 -0.6467 -0.0704  0.6898
 6439SOL     OW30949   2.446   0.625  11.308 -0.1198  0.4082 -0.3575
 6439SOL    HW130950   2.366   0.647  11.261 -0.7351 -0.4112  0.2996
 6439SOL    HW230951   2.447   0.697  11.372 -0.1178 -0.9551  1.1778
 6440SOL     OW30952   2.382   1.332   7.534  0.1775  0.2987  0.0277
 6440SOL    HW130953   2.311   1.349   7.596 -0.4614 -2.6445  0.0901
 6440SOL    HW230954   2.337   1.334   7.450 -2.3529 -0.3854  1.3623
 6441SOL     OW30955   4.245   0.584  14.747  0.2564 -0.6763  0.2305
 6441SOL    HW130956   4.329   0.565  14.788 -0.8727 -2.3793  1.7348
 6441SOL    HW230957   4.257   0.530  14.669 -1.8424 -0.5499 -0.1846
 6442SOL     OW30958   4.377   0.403   2.588 -0.1680 -0.5827 -0.0512
 6442SOL    HW130959   4.293   0.434   2.622 -0.1673 -0.9994  0.3368
 6442SOL    HW230960   4.438   0.454   2.642  0.2837  0.8432 -1.9265
 6443SOL     OW30961   3.763   3.246  13.523 -0.3268 -0.3532 -0.5089
 6443SOL    HW130962   3.701   3.246  13.596  1.6214 -0.3697  1.1440
 6443SOL    HW230963   3.768   3.341  13.508 -1.3171 -0.0299  1.1666
 6444SOL     OW30964   0.294   0.543  14.000 -0.1634  0.0795 -0.5316
 6444SOL    HW130965   0.292   0.632  14.034  0.7398 -0.9340  2.2647
 6444SOL    HW230966   0.337   0.547  13.915 -0.4050 -1.0409 -0.7155
 6445SOL     OW30967   3.142   3.917   9.567 -0.6728  0.4589 -0.5990
 6445SOL    HW130968   3.111   3.841   9.617  1.1781  0.6282  0.8050
 6445SOL    HW230969   3.227   3.944   9.601 -0.1236  0.5628 -2.0409
 6446SOL     OW30970   1.665   4.455  12.484  0.0004 -0.1653 -0.0291
 6446SOL    HW130971   1.718   4.530  12.508  1.1611 -0.9040 -0.2547
 6446SOL    HW230972   1.583   4.463  12.533 -1.6006  1.6239 -2.9771
 6447SOL     OW30973   1.328   2.197   5.806  0.1879  0.4165  0.2032
 6447SOL    HW130974   1.279   2.279   5.798  2.4586  1.5463 -2.3101
 6447SOL    HW230975   1.297   2.140   5.735 -1.5416 -0.4089  1.6305
 6448SOL     OW30976   3.469   1.671  15.172  0.2114  0.2766  0.0474
 6448SOL    HW130977   3.555   1.650  15.136  0.5027 -0.0369  0.9291
 6448SOL    HW230978   3.488   1.671  15.266 -0.7319 -2.2607  0.2421
 6449SOL     OW30979   2.949   1.738  12.497 -0.3345  0.1338  0.3730
 6449SOL    HW130980   2.855   1.753  12.510 -1.1169 -2.6710 -2.1342
 6449SOL    HW230981   2.990   1.824  12.492 -0.5068  0.1710 -0.4630
 6450SOL     OW30982   3.341   1.296  12.856  0.0233 -0.6177  0.3718
 6450SOL    HW130983   3.371   1.241  12.929  0.0531 -1.0572  0.0293
 6450SOL    HW230984   3.264   1.247  12.826 -1.2864  2.6528 -1.5987
 6451SOL     OW30985   3.610   3.270  15.364 -0.5166  0.3380  0.1346
 6451SOL    HW130986   3.525   3.227  15.358 -0.3149  0.0295 -0.5878
 6451SOL    HW230987   3.608   3.324  15.285 -0.0715  0.2812  0.0810
 6452SOL     OW30988   2.669   0.210  13.604  0.0464 -0.0799  0.1345
 6452SOL    HW130989   2.661   0.241  13.694 -1.8406 -0.0579 -0.0554
 6452SOL    HW230990   2.765   0.207  13.600  0.1783  2.2212  2.0467
 6453SOL     OW30991   3.132   3.461   9.443  0.0150 -0.3204  0.7029
 6453SOL    HW130992   3.124   3.392   9.509 -0.6812 -1.7428 -0.8762
 6453SOL    HW230993   3.047   3.453   9.398  0.5622 -1.6683 -0.0871
 6454SOL     OW30994   4.225   1.233   1.854  0.7766  0.1534  0.4197
 6454SOL    HW130995   4.177   1.175   1.912  1.2981 -0.7935 -0.1024
 6454SOL    HW230996   4.284   1.173   1.808 -0.8711 -0.3909 -0.9508
 6455SOL     OW30997   4.132   1.027   6.467 -1.0763 -0.2381  0.0138
 6455SOL    HW130998   4.206   1.051   6.411 -2.1099  2.5306 -0.1892
 6455SOL    HW230999   4.143   0.932   6.466 -1.1344 -0.2564  0.9261
 6456SOL     OW31000   4.506   0.995   9.857  0.4711 -0.5162 -0.4891
 6456SOL    HW131001   4.552   0.979   9.940  2.1052 -0.9424 -1.4704
 6456SOL    HW231002   4.485   0.907   9.827  1.6428 -0.5976 -1.0706
 6457SOL     OW31003   4.031   4.224   5.646  0.5720  0.5989 -0.2759
 6457SOL    HW131004   4.055   4.317   5.646  0.3881  0.6471 -0.0034
 6457SOL    HW231005   3.935   4.229   5.648  0.5188 -0.7135  0.5002
 6458SOL     OW31006   2.482   2.103   2.354  0.4421 -0.6353 -0.0194
 6458SOL    HW131007   2.576   2.100   2.338  0.2560 -1.9815 -0.8050
 6458SOL    HW231008   2.459   2.015   2.327  0.9782 -0.7620 -0.0537
 6459SOL     OW31009   3.071   4.463   9.175  1.0511  0.6159 -0.0468
 6459SOL    HW131010   3.127   4.387   9.160 -0.4002  0.6854 -5.7242
 6459SOL    HW231011   3.058   4.475   9.081 -1.1532  1.5071  0.3688
 6460SOL     OW31012   3.204   4.447  14.136 -0.3836  0.1608 -0.2340
 6460SOL    HW131013   3.203   4.506  14.061 -3.4955  0.3789 -0.0208
 6460SOL    HW231014   3.257   4.371  14.112  0.2142  0.4246  0.2504
 6461SOL     OW31015   4.318   1.784   7.836  0.7351  0.5048 -0.3572
 6461SOL    HW131016   4.405   1.814   7.863  1.2894 -0.5379 -0.9924
 6461SOL    HW231017   4.268   1.859   7.803  1.9508  0.3778 -2.4697
 6462SOL     OW31018   4.077   4.483  15.473 -0.0233  0.3038  0.5127
 6462SOL    HW131019   4.018   4.481  15.398 -0.2108 -1.4718  0.7055
 6462SOL    HW231020   4.054   4.407  15.527  0.1943  0.3980  0.7357
 6463SOL     OW31021   0.624   2.773   7.292 -0.0879  0.5074  0.5322
 6463SOL    HW131022   0.548   2.776   7.350  1.6131  2.2962  2.6511
 6463SOL    HW231023   0.624   2.864   7.265 -0.1411  0.9284  1.9448
 6464SOL     OW31024   4.006   2.001   3.088 -0.1592  0.2036 -0.3288
 6464SOL    HW131025   4.077   1.963   3.036  1.2549  1.4881  0.6350
 6464SOL    HW231026   4.043   2.090   3.091  0.8020 -0.2080  0.1661
 6465SOL     OW31027   3.500   0.323  15.565 -0.1698  0.3880 -0.1204
 6465SOL    HW131028   3.595   0.318  15.559 -0.3071 -1.6536 -0.4490
 6465SOL    HW231029   3.498   0.410  15.604 -1.9915 -0.0326  0.7118
 6466SOL     OW31030   4.458   2.202   0.577  0.1885  0.4361  0.3898
 6466SOL    HW131031   4.406   2.230   0.503  1.9134  0.4235 -0.8275
 6466SOL    HW231032   4.398   2.224   0.648 -0.9591 -0.0496 -0.4380
 6467SOL     OW31033   0.961   2.574   2.538 -0.1021 -1.0560 -0.0656
 6467SOL    HW131034   1.053   2.554   2.521  0.3580  1.4930 -0.5070
 6467SOL    HW231035   0.980   2.636   2.608 -1.6446 -0.4113 -0.2101
 6468SOL     OW31036   4.060   0.516   5.606  0.1055  0.0518 -0.5894
 6468SOL    HW131037   4.101   0.600   5.583 -2.0990  1.1849 -0.3847
 6468SOL    HW231038   3.978   0.536   5.651  0.1418 -0.4356 -0.3132
 6469SOL     OW31039   4.411   2.037   8.636 -0.8280 -0.4807 -0.3726
 6469SOL    HW131040   4.484   2.055   8.577 -1.0733  0.5543 -0.3504
 6469SOL    HW231041   4.423   1.945   8.662  0.3752 -0.1773  0.1233
 6470SOL     OW31042   0.349   0.470   7.905 -0.1179  0.4836 -0.4963
 6470SOL    HW131043   0.278   0.468   7.840 -0.7302 -2.3801  0.2638
 6470SOL    HW231044   0.343   0.561   7.932 -0.3622  0.6489 -1.1085
 6471SOL     OW31045   0.197   3.968   9.538 -0.4929 -0.1717  0.1058
 6471SOL    HW131046   0.244   4.000   9.615  0.9375  0.5690 -1.0893
 6471SOL    HW231047   0.116   3.943   9.583 -1.0225 -0.6214 -1.0975
 6472SOL     OW31048   3.860   0.733   8.340  0.2889 -0.7989  0.8766
 6472SOL    HW131049   3.833   0.775   8.259  0.9009 -0.9671  0.5895
 6472SOL    HW231050   3.793   0.668   8.360 -0.2786 -0.5686 -0.2664
 6473SOL     OW31051   2.675   1.332   8.002  0.4877  0.0499 -0.1340
 6473SOL    HW131052   2.678   1.265   7.933 -0.0897 -1.6178  1.4448
 6473SOL    HW231053   2.690   1.292   8.088  1.5133  3.2856  1.1858
 6474SOL     OW31054   0.572   1.903   7.637 -0.0159  0.1860  0.1881
 6474SOL    HW131055   0.581   1.990   7.598  1.9542  0.8430  2.1132
 6474SOL    HW231056   0.630   1.862   7.574 -1.4792 -1.5101 -0.0407
 6475SOL     OW31057   0.791   4.225   5.225 -0.3885  0.4477  0.1384
 6475SOL    HW131058   0.720   4.289   5.234 -1.3568 -0.6364  0.1473
 6475SOL    HW231059   0.777   4.171   5.303  1.1750 -0.2075 -0.0327
 6476SOL     OW31060   3.250   2.301   4.535 -0.4014 -0.2009 -0.2552
 6476SOL    HW131061   3.332   2.280   4.491 -0.1141 -0.2637  0.3124
 6476SOL    HW231062   3.216   2.214   4.557 -3.5616  1.2876  0.8846
 6477SOL     OW31063   0.554   0.031   4.999 -0.1409  0.0056 -0.2897
 6477SOL    HW131064   0.648   0.024   5.016 -0.2568 -0.5675  0.1044
 6477SOL    HW231065   0.558   0.059   4.907 -0.5682 -1.6243 -0.7935
 6478SOL     OW31066   4.013   4.176   3.397  0.0064 -0.3493  0.0516
 6478SOL    HW131067   4.102   4.201   3.422 -0.7770  2.8600 -0.3582
 6478SOL    HW231068   3.953   4.230   3.449 -0.5120 -0.8030 -0.0713
 6479SOL     OW31069   4.194   1.760   3.536  0.0577  0.5666 -0.0254
 6479SOL    HW131070   4.145   1.750   3.617  2.1534 -1.8594  0.9316
 6479SOL    HW231071   4.125   1.803   3.485 -1.2817 -1.8334 -0.2163
 6480SOL     OW31072   0.557   3.365   1.665 -0.2249 -0.4299 -0.4131
 6480SOL    HW131073   0.500   3.311   1.611 -1.2702  1.0579 -0.8075
 6480SOL    HW231074   0.593   3.304   1.729 -0.8828 -0.3234  0.0566
 6481SOL     OW31075   4.085   4.203   9.202 -0.0810  0.0362  0.3005
 6481SOL    HW131076   4.046   4.284   9.236 -0.0763 -0.3273  1.1545
 6481SOL    HW231077   4.016   4.137   9.199 -1.4030  1.3006  3.1270
 6482SOL     OW31078   2.943   2.680   2.630 -0.2591 -0.3511 -0.0531
 6482SOL    HW131079   3.004   2.618   2.590  1.5589  1.0242  0.5943
 6482SOL    HW231080   2.952   2.664   2.724  1.0641  0.2775 -0.0747
 6483SOL     OW31081   3.632   1.837  15.853  0.1725  0.2674 -0.2630
 6483SOL    HW131082   3.640   1.889  15.773  0.0468 -1.5372 -1.4544
 6483SOL    HW231083   3.669   1.885  15.928 -1.2391 -1.3001  1.4413
 6484SOL     OW31084   2.466   2.530   7.384 -0.5174  0.6825  0.3455
 6484SOL    HW131085   2.420   2.584   7.320 -0.5542  1.3698  0.9527
 6484SOL    HW231086   2.496   2.456   7.331 -2.2772  0.1315  0.1353
 6485SOL     OW31087   0.247   2.090   9.468  0.3689  0.2078 -0.3113
 6485SOL    HW131088   0.197   2.017   9.505 -1.3868  1.4285 -0.2554
 6485SOL    HW231089   0.196   2.096   9.387  0.0566  0.3441 -0.1037
 6486SOL     OW31090   0.530   2.615   8.946  0.1168  0.5142 -0.0630
 6486SOL    HW131091   0.557   2.651   9.031 -0.9580 -0.1648  0.5678
 6486SOL    HW231092   0.567   2.526   8.948 -0.0960  0.4333  0.3025
 6487SOL     OW31093   2.495   3.117   6.073 -0.2549 -0.5494 -0.3520
 6487SOL    HW131094   2.475   3.033   6.114  2.6023 -0.9555  0.1766
 6487SOL    HW231095   2.584   3.136   6.103  0.3713 -1.6244 -1.5192
 6488SOL     OW31096   2.159   4.447   7.917 -1.1903  0.3894  0.0622
 6488SOL    HW131097   2.122   4.519   7.969 -1.5468  0.3639 -0.1573
 6488SOL    HW231098   2.247   4.485   7.919 -1.5257  1.2379 -1.8556
 6489SOL     OW31099   3.456   1.329   7.407  0.2974 -0.0363  0.3692
 6489SOL    HW131100   3.410   1.337   7.490 -1.6538  0.5912 -0.7713
 6489SOL    HW231101   3.535   1.380   7.426  0.0650  0.9123 -1.2341
 6490SOL     OW31102   1.089   0.074   2.952 -0.1469 -0.2730  0.3600
 6490SOL    HW131103   1.096   4.723   2.926  0.3900 -1.2119  3.8535
 6490SOL    HW231104   1.177   0.090   2.985 -0.3089  2.9628 -0.7530
 6491SOL     OW31105   2.834   0.983  10.245  0.1541 -0.3415 -0.2722
 6491SOL    HW131106   2.884   1.064  10.232 -1.1404  0.4455 -0.4094
 6491SOL    HW231107   2.773   1.018  10.310  1.2003  2.5574 -0.8616
 6492SOL     OW31108   1.054   3.601   0.980  0.0536  0.0156 -0.4466
 6492SOL    HW131109   0.988   3.551   1.028 -0.9103  1.5728 -0.1585
 6492SOL    HW231110   1.090   3.530   0.926  1.1094 -0.4615  0.8689
 6493SOL     OW31111   0.239   0.289   2.921  1.1684  0.0755 -0.4212
 6493SOL    HW131112   0.263   0.269   2.830 -0.3276 -0.3039 -0.7412
 6493SOL    HW231113   0.272   0.378   2.931  1.6248 -0.1457  0.0379
 6494SOL     OW31114   4.206   2.303   7.632 -0.6025 -0.1230  0.3163
 6494SOL    HW131115   4.243   2.384   7.595  3.4346 -2.8111 -1.5522
 6494SOL    HW231116   4.190   2.340   7.719 -1.8930  2.4809 -1.0070
 6495SOL     OW31117   1.099   3.503   6.696  0.1877  0.0866  0.0239
 6495SOL    HW131118   1.014   3.460   6.707  0.9574 -1.3264  0.4263
 6495SOL    HW231119   1.145   3.427   6.662 -0.5704 -1.3052  2.1162
 6496SOL     OW31120   1.931   3.059   1.881 -0.0444 -0.5659  0.5784
 6496SOL    HW131121   1.854   3.111   1.905 -0.2516 -0.6260  0.0403
 6496SOL    HW231122   1.896   2.995   1.819 -1.6848  1.9276 -1.0706
 6497SOL     OW31123   2.030   1.258  11.796 -0.2045  0.1870 -0.7761
 6497SOL    HW131124   1.951   1.207  11.780 -0.2358  1.2118 -3.8975
 6497SOL    HW231125   2.069   1.272  11.710  1.8841 -0.3717  0.0928
 6498SOL     OW31126   4.380   1.861  11.703 -0.0067 -0.2225  0.3397
 6498SOL    HW131127   4.419   1.863  11.791 -1.6190  2.2154  1.0089
 6498SOL    HW231128   4.286   1.853  11.717 -0.0650  0.2381  0.2121
 6499SOL     OW31129   1.647   1.621   1.389 -0.8106 -0.2461  0.0871
 6499SOL    HW131130   1.718   1.685   1.397 -0.4964 -0.7732  1.5330
 6499SOL    HW231131   1.582   1.653   1.451  0.5328  2.6965 -0.0283
 6500SOL     OW31132   2.604   4.105   4.115 -0.5177 -0.3294 -0.2544
 6500SOL    HW131133   2.646   4.030   4.074 -1.7925 -1.8656  1.2455
 6500SOL    HW231134   2.574   4.052   4.189  2.1728 -0.2335  0.9220
 6501SOL     OW31135   4.114   3.111   4.653 -0.2847 -0.5247  0.3134
 6501SOL    HW131136   4.064   3.182   4.694  0.6354 -2.5800  5.0708
 6501SOL    HW231137   4.091   3.038   4.710 -0.9439  2.1153  3.4494
 6502SOL     OW31138   4.665   4.070   1.617 -0.0935 -0.3973  0.1013
 6502SOL    HW131139   4.621   4.153   1.634 -0.5019 -0.3381 -1.2170
 6502SOL    HW231140   4.605   4.015   1.668 -1.5721  0.9600 -0.1854
 6503SOL     OW31141   1.314   3.646  14.933 -0.0783 -0.4032 -0.3754
 6503SOL    HW131142   1.258   3.570  14.918 -0.3727 -0.1759 -0.4348
 6503SOL    HW231143   1.322   3.678  14.843 -0.3301 -2.3289 -1.0631
 6504SOL     OW31144   1.664   3.897   8.139  0.1912 -0.3562 -0.0585
 6504SOL    HW131145   1.660   3.815   8.089 -0.0919 -0.7495  0.6050
 6504SOL    HW231146   1.757   3.887   8.157 -0.1238 -1.0907  1.2094
 6505SOL     OW31147   0.374   0.738  12.898 -0.7722 -0.2843 -0.8939
 6505SOL    HW131148   0.333   0.652  12.884  2.7760 -2.2679  0.8707
 6505SOL    HW231149   0.467   0.716  12.908 -1.0713 -0.8444  0.6884
 6506SOL     OW31150   3.548   3.275   7.799 -0.2386 -0.8107 -0.2153
 6506SOL    HW131151   3.604   3.257   7.723 -1.3631  0.5326 -1.3668
 6506SOL    HW231152   3.470   3.271   7.743  0.1725 -2.6867 -0.6401
 6507SOL     OW31153   0.544   2.580   1.012 -0.2684 -0.0484 -0.3437
 6507SOL    HW131154   0.631   2.620   1.012 -0.6165  0.7009 -1.1426
 6507SOL    HW231155   0.501   2.657   0.975 -0.4844  0.6308  1.3290
 6508SOL     OW31156   4.391   0.241  12.413 -0.1681  0.2971  0.2195
 6508SOL    HW131157   4.483   0.220  12.428 -0.5641 -1.8147 -0.2312
 6508SOL    HW231158   4.395   0.228  12.318  1.5836 -0.3704  0.3855
 6509SOL     OW31159   2.898   0.041   4.069  0.0963  0.0285  0.3764
 6509SOL    HW131160   2.847   0.117   4.097  1.4451  0.7954  0.7365
 6509SOL    HW231161   2.921   0.050   3.976 -0.6327 -0.8388  0.1070
 6510SOL     OW31162   2.248   2.738   3.094 -0.5335 -0.0762  0.4314
 6510SOL    HW131163   2.326   2.740   3.150  0.3383 -2.0281 -0.6967
 6510SOL    HW231164   2.296   2.740   3.011  1.1528  4.1684  1.5186
 6511SOL     OW31165   0.129   2.910   1.329  0.4764  0.0701  0.3256
 6511SOL    HW131166   0.034   2.898   1.328  0.4038  0.3687  3.7229
 6511SOL    HW231167   0.133   2.902   1.233 -4.2311  1.3933 -0.0184
 6512SOL     OW31168   4.339   2.590   9.171 -0.3175  0.2284  0.4604
 6512SOL    HW131169   4.433   2.589   9.158 -0.5152 -1.4032 -0.9066
 6512SOL    HW231170   4.307   2.577   9.082  0.2649  0.3953  0.2310
 6513SOL     OW31171   1.075   0.206   3.423  0.0985 -0.1358 -0.4655
 6513SOL    HW131172   1.011   0.268   3.459 -0.7489 -1.2208 -0.1164
 6513SOL    HW231173   1.078   0.235   3.331 -1.6062 -1.1628 -0.8364
 6514SOL     OW31174   0.270   4.178  11.638  0.0247 -0.4633 -0.4193
 6514SOL    HW131175   0.339   4.118  11.611  0.2504 -0.4206  0.0719
 6514SOL    HW231176   0.226   4.127  11.706  0.9890  0.5588  0.9628
 6515SOL     OW31177   1.469   1.286   5.963 -0.0833  0.3913  0.2141
 6515SOL    HW131178   1.413   1.254   6.033  0.8397 -0.4317  0.5668
 6515SOL    HW231179   1.521   1.209   5.941  0.3725  0.8869 -0.4633
 6516SOL     OW31180   4.359   3.110   3.633 -0.1532  0.6454 -0.2512
 6516SOL    HW131181   4.338   3.165   3.708 -1.0770  2.5693 -1.8961
 6516SOL    HW231182   4.299   3.139   3.564 -2.1757  0.3566  1.3834
 6517SOL     OW31183   1.341   4.526   3.186 -0.6006 -0.3818 -0.0780
 6517SOL    HW131184   1.277   4.503   3.254 -1.1747 -0.3641 -0.6190
 6517SOL    HW231185   1.358   4.619   3.201 -0.6510 -0.3927  0.0483
 6518SOL     OW31186   0.464   3.435  11.433 -0.2466 -0.1248 -0.3792
 6518SOL    HW131187   0.401   3.425  11.504 -0.5607  0.1876 -0.6106
 6518SOL    HW231188   0.409   3.384  11.373 -0.5855  0.3639 -0.4893
 6519SOL     OW31189   2.551   4.498  10.141  0.1744 -0.4702  0.5053
 6519SOL    HW131190   2.520   4.453  10.219 -0.6831 -1.4838 -0.4263
 6519SOL    HW231191   2.475   4.486  10.084 -0.3656  1.1635  0.8915
 6520SOL     OW31192   0.194   3.608   2.817  0.2505  0.0565  0.4099
 6520SOL    HW131193   0.148   3.647   2.891 -0.6901  0.8855 -0.6078
 6520SOL    HW231194   0.162   3.664   2.746  1.8770  0.1875 -0.2416
 6521SOL     OW31195   4.708   3.294   8.213  0.0434 -0.2167 -0.4743
 6521SOL    HW131196   0.061   3.289   8.231  0.4581  3.0699 -1.6446
 6521SOL    HW231197   4.700   3.301   8.118 -0.0146  0.1086 -0.4459
 6522SOL     OW31198   1.467   2.217  11.512  0.3010  0.5573  0.3924
 6522SOL    HW131199   1.482   2.162  11.435 -0.6655  0.7889  0.0445
 6522SOL    HW231200   1.422   2.298  11.487  1.4532  0.9819 -0.2717
 6523SOL     OW31201   0.829   1.492  15.210 -0.0804 -0.0720 -0.0148
 6523SOL    HW131202   0.871   1.540  15.138 -0.6050 -1.5982 -1.3280
 6523SOL    HW231203   0.744   1.533  15.223 -0.0088 -0.2424  0.9323
 6524SOL     OW31204   1.038   4.052   1.258 -0.2878  1.1590 -0.3452
 6524SOL    HW131205   1.098   3.985   1.224 -0.0647  1.6438 -0.9172
 6524SOL    HW231206   0.964   3.999   1.286  1.1613 -0.6604  0.0057
 6525SOL     OW31207   2.933   1.300   4.862  0.0542  0.4712  0.3921
 6525SOL    HW131208   2.942   1.344   4.778  2.8583  0.8606  0.9197
 6525SOL    HW231209   2.957   1.211   4.836 -2.1067  0.3660 -1.2835
 6526SOL     OW31210   1.714   3.540  14.477  0.2565  0.0228  0.6179
 6526SOL    HW131211   1.705   3.555  14.383  0.4189 -0.2730  0.5558
 6526SOL    HW231212   1.778   3.470  14.474 -0.4395 -0.6310  0.9565
 6527SOL     OW31213   4.606   1.283   2.833  0.2104 -0.3287 -0.0062
 6527SOL    HW131214   4.574   1.292   2.743  3.1189  0.4741 -0.9765
 6527SOL    HW231215   4.646   1.369   2.850  1.0437 -0.6167 -0.4977
 6528SOL     OW31216   3.280   3.881   5.948  0.7557  0.8943  0.3498
 6528SOL    HW131217   3.359   3.875   6.002  1.0900  1.0246 -0.1174
 6528SOL    HW231218   3.264   3.793   5.914 -0.2156  0.6373  1.4858
 6529SOL     OW31219   3.664   3.981   4.619 -0.1779 -0.2276  0.0923
 6529SOL    HW131220   3.753   4.016   4.623  0.0847 -0.9104  0.2210
 6529SOL    HW231221   3.606   4.057   4.613  0.9014  0.6818  1.0614
 6530SOL     OW31222   4.689   4.241  16.868 -0.0231 -0.1956  0.1930
 6530SOL    HW131223   4.719   4.152  16.888 -0.6340  0.1638  2.7320
 6530SOL    HW231224   4.739   4.291  16.932 -0.6663  0.1059  0.4647
 6531SOL     OW31225   1.176   0.987   2.602  0.0038 -0.7356 -0.0261
 6531SOL    HW131226   1.218   1.045   2.538  0.5195 -0.3916  0.6285
 6531SOL    HW231227   1.185   0.902   2.557 -2.1766 -0.9513 -0.0638
 6532SOL     OW31228   4.050   3.520   0.809  0.1921 -0.3231  0.0243
 6532SOL    HW131229   4.141   3.539   0.832  0.4943 -3.0855  1.0532
 6532SOL    HW231230   4.041   3.434   0.850 -0.2442 -0.0999  0.4067
 6533SOL     OW31231   0.584   0.793  15.627 -0.1653  0.2637  0.0583
 6533SOL    HW131232   0.521   0.760  15.563  0.3481 -0.1953 -0.2103
 6533SOL    HW231233   0.661   0.809  15.572  0.4885  1.0183  1.1830
 6534SOL     OW31234   3.109   1.940   6.360  0.0926 -0.4769  0.6454
 6534SOL    HW131235   3.113   1.997   6.283 -0.4852  1.5591  2.1184
 6534SOL    HW231236   3.171   1.873   6.333 -0.0742  0.9322 -3.2727
 6535SOL     OW31237   1.863   4.267   3.527 -0.5725 -0.3844 -0.2703
 6535SOL    HW131238   1.852   4.341   3.466  4.1157  0.5934  0.0565
 6535SOL    HW231239   1.881   4.196   3.465  0.2653  0.1174 -0.6008
 6536SOL     OW31240   0.865   2.267   4.239 -0.0035  0.0499 -0.4488
 6536SOL    HW131241   0.854   2.207   4.313  1.5834 -0.4581 -0.6113
 6536SOL    HW231242   0.803   2.240   4.171  0.5823 -0.3422 -0.8368
 6537SOL     OW31243   1.182   2.844   8.214  0.1479 -0.4284  0.0685
 6537SOL    HW131244   1.155   2.777   8.151 -2.1745  0.0002  0.5989
 6537SOL    HW231245   1.181   2.924   8.161  0.5532 -0.1457  0.4808
 6538SOL     OW31246   0.135   1.901   3.376  0.3780 -0.2376 -0.8159
 6538SOL    HW131247   0.129   1.970   3.442  0.4598 -1.0038 -0.0144
 6538SOL    HW231248   0.199   1.842   3.416  0.9294  0.3729 -0.7968
 6539SOL     OW31249   3.844   3.743   7.351  0.0772  0.5173  0.6042
 6539SOL    HW131250   3.841   3.820   7.294 -1.4049  0.4320  0.5612
 6539SOL    HW231251   3.802   3.776   7.431 -2.3990 -1.8043  0.2663
 6540SOL     OW31252   2.806   3.095  11.211  0.0438 -0.0770 -0.5690
 6540SOL    HW131253   2.873   3.122  11.273  1.7343  0.6948 -2.7281
 6540SOL    HW231254   2.794   3.179  11.166  1.7596  1.0078  1.0119
 6541SOL     OW31255   2.451   4.007   6.563 -0.7795  0.1698  1.0113
 6541SOL    HW131256   2.373   4.027   6.511 -1.4863  0.1999  2.0798
 6541SOL    HW231257   2.447   3.913   6.550  0.7068 -0.1164  2.6682
 6542SOL     OW31258   2.875   4.208   8.585  0.1890 -0.0004 -0.1807
 6542SOL    HW131259   2.959   4.194   8.629 -0.2688 -1.4752  0.2376
 6542SOL    HW231260   2.824   4.133   8.616  0.4344 -0.1708 -0.1900
 6543SOL     OW31261   4.619   3.639   5.152 -0.3628 -0.0204  0.1675
 6543SOL    HW131262   4.537   3.667   5.111  0.5119  1.1852 -0.7576
 6543SOL    HW231263   4.621   3.704   5.223 -2.3815  0.0563  0.1489
 6544SOL     OW31264   3.575   1.457   2.401 -0.5822  0.8391  0.3563
 6544SOL    HW131265   3.632   1.397   2.449 -1.5459  0.6230  1.2259
 6544SOL    HW231266   3.511   1.468   2.472 -0.5775 -1.1581  0.6831
 6545SOL     OW31267   2.160   1.416  17.088 -0.1854  0.0166  0.2140
 6545SOL    HW131268   2.180   1.500  17.130 -2.6099  0.7630 -0.1622
 6545SOL    HW231269   2.229   1.359  17.123 -0.7198 -0.6690  0.1632
 6546SOL     OW31270   1.673   0.589   7.212 -0.6205 -0.0616 -0.3010
 6546SOL    HW131271   1.650   0.499   7.233 -3.2004  1.2525  2.6441
 6546SOL    HW231272   1.594   0.635   7.242 -2.3263 -1.5380 -2.5460
 6547SOL     OW31273   1.497   0.305  10.013 -0.1171 -0.2939 -0.5792
 6547SOL    HW131274   1.416   0.356  10.006  0.3185  0.3203 -1.1411
 6547SOL    HW231275   1.469   0.219  10.042 -0.0318 -0.2380 -0.3279
 6548SOL     OW31276   4.240   2.522   8.112 -0.8032  0.4033  0.5287
 6548SOL    HW131277   4.181   2.448   8.129  0.2805 -0.7728 -0.7957
 6548SOL    HW231278   4.217   2.547   8.023 -0.0178  1.2388  0.5635
 6549SOL     OW31279   4.464   2.628   2.501 -0.1098  0.2005 -0.1356
 6549SOL    HW131280   4.429   2.583   2.577  0.1110  2.4427  1.2937
 6549SOL    HW231281   4.525   2.566   2.461  0.2004  0.5567 -0.2181
 6550SOL     OW31282   1.058   2.378   5.943  0.1051  0.0512  0.3327
 6550SOL    HW131283   1.072   2.331   6.025  2.4589 -0.6170 -0.4489
 6550SOL    HW231284   0.967   2.406   5.951 -0.0622 -1.0019  2.0592
 6551SOL     OW31285   1.426   0.417   3.698 -0.0817  0.0513 -0.6889
 6551SOL    HW131286   1.393   0.506   3.701 -2.6052 -0.8941 -0.4181
 6551SOL    HW231287   1.392   0.372   3.621 -0.0156 -2.6945  0.8546
 6552SOL     OW31288   2.706   4.250   7.775  0.5444 -0.5696 -0.7887
 6552SOL    HW131289   2.698   4.224   7.867 -0.6857 -0.8060 -0.9719
 6552SOL    HW231290   2.788   4.300   7.773  0.8707 -1.1563 -1.8660
 6553SOL     OW31291   2.712   3.842  15.908 -0.1624 -0.0614  0.2422
 6553SOL    HW131292   2.700   3.786  15.831 -0.2507 -0.5604  0.6129
 6553SOL    HW231293   2.803   3.872  15.898  0.8857 -2.3352  2.8826
 6554SOL     OW31294   0.919   2.809   7.177 -0.3284  0.5568 -0.5555
 6554SOL    HW131295   0.831   2.795   7.142 -0.5171  0.9729 -0.2475
 6554SOL    HW231296   0.979   2.760   7.122  0.0455  0.6063 -0.1914
 6555SOL     OW31297   4.669   2.970  11.255  0.4013  0.0695  0.4292
 6555SOL    HW131298   4.595   2.925  11.297 -0.5308 -0.7369 -2.0938
 6555SOL    HW231299   4.706   2.998  11.339  0.2369  0.1224  0.4852
 6556SOL     OW31300   1.620   2.151   7.759  0.4402  0.0142 -0.4520
 6556SOL    HW131301   1.565   2.114   7.828  2.0535  1.1144  1.4231
 6556SOL    HW231302   1.588   2.241   7.750 -0.7703 -0.4788 -1.1260
 6557SOL     OW31303   3.236   1.682   9.281 -0.4398 -0.1244  0.1220
 6557SOL    HW131304   3.279   1.752   9.231 -0.9999  1.4547  1.8496
 6557SOL    HW231305   3.242   1.610   9.218 -1.2855 -0.5663  0.5421
 6558SOL     OW31306   1.986   1.462   8.930 -0.1707  0.3825 -0.3318
 6558SOL    HW131307   1.903   1.510   8.930  0.4993  1.5115  1.0960
 6558SOL    HW231308   2.035   1.505   8.999 -0.4408  2.0586 -1.1674
 6559SOL     OW31309   0.165   0.104   8.377 -0.3319 -0.2614  0.3448
 6559SOL    HW131310   0.205   0.081   8.293 -0.0447 -0.3222  0.4979
 6559SOL    HW231311   0.083   0.144   8.347 -0.3912 -1.3597 -0.9520
 6560SOL     OW31312   1.762   2.074   4.249  0.1407  0.1470  0.0730
 6560SOL    HW131313   1.848   2.101   4.282  1.1516  0.8067 -3.0582
 6560SOL    HW231314   1.741   2.011   4.318  1.7988 -1.2401 -0.6822
 6561SOL     OW31315   0.095   2.230   4.241  0.4531  0.0068 -0.2193
 6561SOL    HW131316   0.113   2.214   4.149 -4.6881 -0.3475 -1.1657
 6561SOL    HW231317   0.114   2.323   4.254  0.1377  0.2248 -1.3133
 6562SOL     OW31318   3.846   0.061   1.630  0.2401  0.1814 -0.3419
 6562SOL    HW131319   3.900   0.140   1.632  0.8855 -0.2951  1.1497
 6562SOL    HW231320   3.755   0.090   1.636 -0.7482 -2.8523 -0.6248
 6563SOL     OW31321   0.703   3.396  16.772 -0.0970 -0.3246 -0.2078
 6563SOL    HW131322   0.732   3.434  16.689  1.6552  1.9055  1.4044
 6563SOL    HW231323   0.717   3.475  16.825  0.6580 -0.5731 -0.0236
 6564SOL     OW31324   0.089   4.653   4.445  0.6259 -0.5825  0.2888
 6564SOL    HW131325   0.003   4.681   4.414  1.3164  0.6114 -0.5289
 6564SOL    HW231326   0.100   4.688   4.534  0.7912  3.3363 -1.2756
 6565SOL     OW31327   2.920   3.851   4.507  0.1529  0.7561  0.3676
 6565SOL    HW131328   2.933   3.946   4.505  0.7041  0.6656 -0.4639
 6565SOL    HW231329   2.937   3.830   4.599 -4.1170 -1.4673  0.6436
 6566SOL     OW31330   0.911   0.243  15.528  0.2895 -0.7756 -0.2506
 6566SOL    HW131331   0.932   0.336  15.528 -0.1983 -0.6745  0.6187
 6566SOL    HW231332   0.834   0.259  15.473 -0.3799 -1.8684  0.3873
 6567SOL     OW31333   4.666   4.517   5.630  0.2250 -0.4582  0.4083
 6567SOL    HW131334   4.575   4.513   5.601  0.8497 -0.4837 -1.5078
 6567SOL    HW231335   4.698   4.427   5.628  0.3394 -0.3916 -0.4999
 6568SOL     OW31336   4.175   0.283  11.619  0.1794  0.8813  0.2049
 6568SOL    HW131337   4.254   0.303  11.668  1.3657  1.7214 -2.0349
 6568SOL    HW231338   4.119   0.256  11.692 -0.2582  0.1321 -0.3986
 6569SOL     OW31339   1.379   3.752   9.903  0.7293 -0.3710 -0.5425
 6569SOL    HW131340   1.330   3.823   9.945 -0.1288 -1.6703  0.6346
 6569SOL    HW231341   1.452   3.793   9.858  0.7714 -1.0474 -1.0903
 6570SOL     OW31342   1.137   4.120   5.048  0.1385  0.4159  0.2158
 6570SOL    HW131343   1.198   4.114   5.121 -0.6492  0.3749  0.8729
 6570SOL    HW231344   1.139   4.213   5.026  0.2037  0.3089 -0.2213
 6571SOL     OW31345   2.274   1.582  11.260 -0.7208  0.0820  0.4131
 6571SOL    HW131346   2.269   1.585  11.165 -0.0237  0.7235  0.3937
 6571SOL    HW231347   2.364   1.549  11.265 -1.2174 -0.9844  2.3151
 6572SOL     OW31348   4.699   2.041   1.187  0.3713 -0.1192  0.1254
 6572SOL    HW131349   4.643   2.005   1.256  1.9851 -0.4311  1.2695
 6572SOL    HW231350   4.653   2.009   1.110 -0.8472  0.1179  0.7447
 6573SOL     OW31351   1.459   3.203  13.069 -0.1221 -0.5268  0.6719
 6573SOL    HW131352   1.494   3.160  12.991  0.9161  1.7146 -0.1228
 6573SOL    HW231353   1.435   3.289  13.034 -0.3307 -1.1473 -0.6846
 6574SOL     OW31354   3.365   0.826   4.156 -0.6784  0.4642 -0.2865
 6574SOL    HW131355   3.341   0.893   4.220  0.5930 -1.5804  2.3169
 6574SOL    HW231356   3.306   0.846   4.083  0.1785 -1.2399 -1.4605
 6575SOL     OW31357   0.049   3.832  17.100 -0.0704  0.1928  0.0419
 6575SOL    HW131358   0.081   3.745  17.077 -0.5524  0.0825 -0.2103
 6575SOL    HW231359   4.702   3.810  17.130  0.3166 -0.6146  0.5943
 6576SOL     OW31360   2.715   0.542   8.245 -0.6031  0.3415 -0.0720
 6576SOL    HW131361   2.673   0.494   8.174  1.5909 -1.3039 -0.2426
 6576SOL    HW231362   2.642   0.578   8.296 -1.3792  0.0754 -0.9979
 6577SOL     OW31363   1.513   2.891   3.770  0.6205  0.2451  0.8547
 6577SOL    HW131364   1.525   2.923   3.680  1.3435 -1.2935  0.4071
 6577SOL    HW231365   1.453   2.959   3.802 -1.6780 -0.9023 -1.0010
 6578SOL     OW31366   3.936   0.512  13.263 -0.2902 -0.1451 -0.0811
 6578SOL    HW131367   4.004   0.445  13.264 -1.3969 -1.2576  0.3148
 6578SOL    HW231368   3.862   0.465  13.226 -0.5897 -0.1609  0.5492
 6579SOL     OW31369   4.395   1.797   9.397 -0.1971  0.5205  0.4166
 6579SOL    HW131370   4.305   1.769   9.415 -0.1714  0.4374  0.4158
 6579SOL    HW231371   4.434   1.774   9.481 -0.3672 -0.8730  0.1098
 6580SOL     OW31372   0.790   1.205   1.844 -0.1491 -0.2403 -0.1516
 6580SOL    HW131373   0.825   1.271   1.784 -1.7608  0.3656 -0.4111
 6580SOL    HW231374   0.795   1.136   1.777 -2.1856 -0.2708 -0.2531
 6581SOL     OW31375   0.477   4.596  11.620  0.1978  0.5173  0.2967
 6581SOL    HW131376   0.542   4.526  11.624 -0.8923 -0.7008 -3.4839
 6581SOL    HW231377   0.508   4.629  11.535  1.1989  0.9043  0.8093
 6582SOL     OW31378   2.423   1.587   8.197  0.4782  0.1158 -0.4011
 6582SOL    HW131379   2.424   1.652   8.127 -0.3753  1.0909  0.4964
 6582SOL    HW231380   2.384   1.643   8.263  1.0856  0.9013 -0.7093
 6583SOL     OW31381   1.180   1.912   9.415  0.2657  0.5544  0.4432
 6583SOL    HW131382   1.247   1.971   9.448 -0.3475  0.0287  2.6484
 6583SOL    HW231383   1.207   1.894   9.326  1.0230  0.5030  0.6880
 6584SOL     OW31384   4.514   2.340  11.932  0.0727 -0.2952  0.2130
 6584SOL    HW131385   4.528   2.343  11.838  0.3318  0.4546  0.2774
 6584SOL    HW231386   4.418   2.330  11.931  0.0455  0.0545 -1.0456
 6585SOL     OW31387   3.862   1.625  15.210  0.0806 -0.1471  0.1811
 6585SOL    HW131388   3.923   1.562  15.171 -0.0689  0.6299 -1.2865
 6585SOL    HW231389   3.781   1.578  15.187  0.0067  0.0902 -0.0501
 6586SOL     OW31390   2.054   1.664  14.703 -0.4013  0.0684 -0.2974
 6586SOL    HW131391   2.026   1.721  14.775  0.1692 -2.4711  1.9043
 6586SOL    HW231392   2.108   1.600  14.747 -0.5273  0.7539  0.8481
 6587SOL     OW31393   1.957   3.265   6.503 -0.2505  0.1015  0.0269
 6587SOL    HW131394   2.043   3.233   6.533  1.1749  2.1323 -1.9126
 6587SOL    HW231395   1.913   3.181   6.516  1.4119 -1.1121 -2.2542
 6588SOL     OW31396   0.947   3.797  17.117 -0.2398  0.2782 -0.5061
 6588SOL    HW131397   0.941   3.742  17.039  1.1773  1.5919 -1.5488
 6588SOL    HW231398   0.867   3.777  17.164 -0.3527 -1.3668 -1.4121
 6589SOL     OW31399   1.584   2.224   8.820  0.5344  0.0780 -0.0678
 6589SOL    HW131400   1.628   2.219   8.905 -1.0183 -3.4740  0.4850
 6589SOL    HW231401   1.594   2.135   8.787 -0.5059 -0.1925  0.3611
 6590SOL     OW31402   3.649   2.448   2.632 -0.5511  0.2446  0.0191
 6590SOL    HW131403   3.613   2.419   2.549  0.6453  1.1535 -0.8176
 6590SOL    HW231404   3.616   2.538   2.636 -0.7183  0.3473 -3.8573
 6591SOL     OW31405   0.483   0.366   1.105  0.1492  0.2810  0.2346
 6591SOL    HW131406   0.398   0.355   1.148 -0.3296  1.8018 -0.3310
 6591SOL    HW231407   0.540   0.395   1.176 -1.2365  2.7738  0.3500
 6592SOL     OW31408   1.946   0.753   6.537 -0.0966  0.1317  0.0370
 6592SOL    HW131409   1.905   0.766   6.622 -1.2628 -1.2384 -0.3100
 6592SOL    HW231410   1.909   0.817   6.476  2.6675 -0.8105 -2.6837
 6593SOL     OW31411   3.188   1.707  12.622  0.3094 -0.2568 -0.0457
 6593SOL    HW131412   3.194   1.796  12.656  1.8990 -0.2814 -0.2721
 6593SOL    HW231413   3.107   1.704  12.572  0.9665  1.1305 -1.2007
 6594SOL     OW31414   0.966   1.448   1.761  0.1188  0.4666 -0.2130
 6594SOL    HW131415   0.923   1.488   1.686  0.2039 -0.1418 -0.5842
 6594SOL    HW231416   1.032   1.388   1.725 -0.1668 -1.2902  2.1382
 6595SOL     OW31417   0.755   3.066   8.677 -0.4111  0.1048  0.0167
 6595SOL    HW131418   0.732   3.023   8.759  0.2925  1.1595  0.7713
 6595SOL    HW231419   0.844   3.096   8.695 -0.0375 -1.0944  0.1135
 6596SOL     OW31420   0.214   1.846   7.826 -0.4780  0.7064  0.3222
 6596SOL    HW131421   0.217   1.841   7.731 -2.1909 -0.3334  0.3299
 6596SOL    HW231422   0.281   1.782   7.851 -0.1886  0.4037 -1.2254
 6597SOL     OW31423   1.871   3.812   2.673 -0.1989 -0.6173 -0.6179
 6597SOL    HW131424   1.936   3.854   2.616 -1.8704  1.0069 -1.3208
 6597SOL    HW231425   1.836   3.751   2.608  0.1484 -1.1818 -0.2724
 6598SOL     OW31426   3.879   0.973   2.874 -0.2583  0.3135  0.1061
 6598SOL    HW131427   3.862   0.942   2.963  0.2583 -1.6377 -0.4824
 6598SOL    HW231428   3.791   0.979   2.837 -1.0276 -0.5912  1.8039
 6599SOL     OW31429   1.259   0.896   4.121 -0.7394  0.4493  0.0141
 6599SOL    HW131430   1.262   0.954   4.044 -0.5896  1.4961  0.7991
 6599SOL    HW231431   1.200   0.942   4.180  0.0901  0.8912  0.4988
 6600SOL     OW31432   4.106   3.566   8.899  0.8306  0.2654  0.1853
 6600SOL    HW131433   4.033   3.509   8.875  0.3421  1.8433 -2.0733
 6600SOL    HW231434   4.137   3.521   8.977  2.2455 -4.1383 -2.8928
 6601SOL     OW31435   4.342   1.184   5.933  0.2562 -0.9669 -0.0570
 6601SOL    HW131436   4.354   1.106   5.987  1.3143 -0.1463  0.8664
 6601SOL    HW231437   4.297   1.142   5.859 -1.4238  0.5761  0.0738
 6602SOL     OW31438   2.842   0.500  15.488 -0.2980 -0.2597 -0.3377
 6602SOL    HW131439   2.802   0.578  15.526  2.7391  0.1671  1.9718
 6602SOL    HW231440   2.820   0.498  15.395  0.7140  2.6122 -0.6166
 6603SOL     OW31441   2.353   2.316   8.483  0.2358 -0.0827 -0.4186
 6603SOL    HW131442   2.296   2.351   8.551 -0.9194  2.1708 -2.5139
 6603SOL    HW231443   2.343   2.221   8.490 -0.4741  0.0270  0.0868
 6604SOL     OW31444   1.055   4.647   6.154  0.1939 -0.1082  0.0833
 6604SOL    HW131445   1.051   4.553   6.142  0.6462 -0.1771  0.4794
 6604SOL    HW231446   1.148   4.665   6.147  0.2004  0.1366  0.7632
 6605SOL     OW31447   1.909   1.647   6.247  0.4989  0.1594 -0.1656
 6605SOL    HW131448   1.914   1.719   6.185  1.1363  0.8852  0.7332
 6605SOL    HW231449   1.814   1.638   6.246  0.6211 -1.3009  1.2441
 6606SOL     OW31450   0.339   0.226   5.183  0.2127 -0.1310  0.1504
 6606SOL    HW131451   0.252   0.254   5.213 -0.0404 -1.9711  1.1114
 6606SOL    HW231452   0.368   0.310   5.148  1.4057 -1.0415 -1.0763
 6607SOL     OW31453   2.802   1.388   6.241 -0.2426  0.3279  0.3783
 6607SOL    HW131454   2.884   1.404   6.196 -0.1995  0.7538  0.6102
 6607SOL    HW231455   2.751   1.466   6.222  0.0437  0.1639 -1.0058
 6608SOL     OW31456   2.247   2.933   8.228 -0.8219  0.4060 -0.0554
 6608SOL    HW131457   2.287   2.918   8.313 -0.7847 -4.8212 -0.9893
 6608SOL    HW231458   2.257   2.846   8.190 -0.7874  0.4228 -0.0856
 6609SOL     OW31459   4.660   2.810   4.626  0.5827 -0.0388 -0.0539
 6609SOL    HW131460   4.706   2.891   4.646 -1.1817  0.6291  1.2652
 6609SOL    HW231461   4.725   2.758   4.672  0.9859  1.2508  0.8435
 6610SOL     OW31462   0.441   3.631  16.797 -0.3237 -0.1108 -0.1987
 6610SOL    HW131463   0.466   3.621  16.706 -0.9939  0.3880 -0.4340
 6610SOL    HW231464   0.383   3.555  16.806  0.4777 -0.7548 -0.5455
 6611SOL     OW31465   4.243   1.878  13.810 -0.6661  0.6179 -0.2382
 6611SOL    HW131466   4.155   1.916  13.810  0.4784  3.2521  0.2648
 6611SOL    HW231467   4.284   1.958  13.778 -1.6878  0.6575 -1.4702
 6612SOL     OW31468   0.362   0.918   3.662  0.1114  0.0652 -0.2109
 6612SOL    HW131469   0.351   0.907   3.567 -2.5514  0.9954 -0.0009
 6612SOL    HW231470   0.451   0.883   3.667 -0.2674 -1.1791 -2.0622
 6613SOL     OW31471   0.532   3.962   9.626  0.1175 -0.1149  0.0830
 6613SOL    HW131472   0.522   4.049   9.587 -0.3209 -0.0197  0.4024
 6613SOL    HW231473   0.446   3.957   9.668 -0.0136 -0.6306 -0.2593
 6614SOL     OW31474   4.548   1.849   4.005  0.3419 -0.3663  0.6467
 6614SOL    HW131475   4.503   1.842   4.089 -0.0326  0.2524  0.4979
 6614SOL    HW231476   4.643   1.850   4.017  0.4876 -2.2679 -0.2849
 6615SOL     OW31477   0.942   2.389  13.644  0.0885  0.5725  0.1111
 6615SOL    HW131478   0.920   2.304  13.607  2.1637  0.8655 -1.8161
 6615SOL    HW231479   0.966   2.442  13.567  0.1851 -2.3094 -1.8136
 6616SOL     OW31480   0.778   1.906   6.696  0.1909 -0.0771 -0.5196
 6616SOL    HW131481   0.820   1.854   6.764 -1.6458 -3.4283 -1.9384
 6616SOL    HW231482   0.698   1.935   6.740  0.1922 -0.2709 -0.3918
 6617SOL     OW31483   0.199   4.481   8.270 -0.5225 -0.9905 -0.3500
 6617SOL    HW131484   0.146   4.485   8.349  0.3311  0.4342  0.1521
 6617SOL    HW231485   0.163   4.401   8.232  1.7513 -2.7174  1.1896
 6618SOL     OW31486   4.003   0.490  13.004 -0.0147  0.3574  0.0880
 6618SOL    HW131487   4.027   0.574  12.965 -1.5855  1.1596  0.8411
 6618SOL    HW231488   4.014   0.520  13.094  1.0951  0.1392  0.0252
 6619SOL     OW31489   1.591   4.594   4.585 -0.0022 -0.0358 -0.0162
 6619SOL    HW131490   1.509   4.606   4.632  0.4541  1.6893  0.3780
 6619SOL    HW231491   1.632   4.681   4.583 -0.4511  0.1819  0.3234
 6620SOL     OW31492   3.671   4.546   1.524 -0.1466 -0.0254 -0.0757
 6620SOL    HW131493   3.610   4.547   1.451  0.8310 -0.2464 -0.9036
 6620SOL    HW231494   3.673   4.640   1.538 -2.2230  0.4533 -2.9844
 6621SOL     OW31495   2.531   2.130   2.657 -0.1196  0.2268  0.6590
 6621SOL    HW131496   2.451   2.162   2.699 -1.4212  0.5983 -2.1222
 6621SOL    HW231497   2.501   2.080   2.582 -2.2467  1.1082  0.9399
 6622SOL     OW31498   3.702   3.494  17.065 -0.0319  0.2552  0.9878
 6622SOL    HW131499   3.744   3.410  17.084 -1.4642 -1.0679 -1.6035
 6622SOL    HW231500   3.771   3.557  17.085  1.8482 -1.0637 -1.3397
 6623SOL     OW31501   4.363   3.172   2.515 -0.0726  0.1454 -0.2130
 6623SOL    HW131502   4.433   3.189   2.578  0.0988 -0.6952 -0.1729
 6623SOL    HW231503   4.398   3.086   2.489 -0.2574  0.1948 -0.6258
 6624SOL     OW31504   2.725   4.024   4.763 -0.1314  0.1873  0.4030
 6624SOL    HW131505   2.746   4.085   4.834  1.3639  0.4486 -0.2462
 6624SOL    HW231506   2.690   4.088   4.701 -0.1361 -0.9943 -0.8236
 6625SOL     OW31507   0.815   3.699   9.892  0.4494 -0.2862  0.0670
 6625SOL    HW131508   0.818   3.690   9.987  1.3796  0.9712  0.1534
 6625SOL    HW231509   0.908   3.720   9.881  0.2371  0.8181  0.3448
 6626SOL     OW31510   2.379   1.291  13.737  0.0916  0.0369  0.0141
 6626SOL    HW131511   2.315   1.300  13.808  1.5142  1.0421  1.1546
 6626SOL    HW231512   2.442   1.361  13.754  0.2676 -0.2264  0.4469
 6627SOL     OW31513   3.877   1.824  12.505 -0.0765 -0.2610 -0.5881
 6627SOL    HW131514   3.786   1.852  12.514 -0.4076 -0.3474 -3.4879
 6627SOL    HW231515   3.916   1.907  12.476  1.0501 -1.3092 -2.0729
 6628SOL     OW31516   1.834   1.670   1.146 -0.6852  0.0067 -0.6621
 6628SOL    HW131517   1.763   1.647   1.207 -0.2345  1.0444  0.2455
 6628SOL    HW231518   1.784   1.722   1.083  2.0685  1.2602 -1.7978
 6629SOL     OW31519   2.879   3.418   8.087 -0.2381 -0.0321 -0.1250
 6629SOL    HW131520   2.892   3.329   8.056  2.5342  0.8971 -1.6024
 6629SOL    HW231521   2.918   3.422   8.175  2.2817  0.7121 -1.2887
 6630SOL     OW31522   1.370   2.243   0.609  0.1646 -0.7214  0.0908
 6630SOL    HW131523   1.370   2.154   0.646  3.6795 -0.5836  0.3525
 6630SOL    HW231524   1.281   2.268   0.634  0.3149  0.5638 -0.6845
 6631SOL     OW31525   0.501   4.482   1.654 -0.1404 -0.0731  0.6277
 6631SOL    HW131526   0.501   4.387   1.647  3.3692 -0.0024 -0.4011
 6631SOL    HW231527   0.596   4.485   1.669 -0.5251  2.7775  2.4412
 6632SOL     OW31528   3.071   2.268   5.954 -0.1744  0.3174 -1.0214
 6632SOL    HW131529   3.036   2.219   5.879  0.5025 -2.1091  0.2539
 6632SOL    HW231530   3.138   2.315   5.905  0.9169 -1.4786 -1.2570
 6633SOL     OW31531   0.748   0.373   7.357  0.3260  0.2591 -0.0156
 6633SOL    HW131532   0.807   0.302   7.332  0.8055  0.8775 -0.6568
 6633SOL    HW231533   0.714   0.352   7.444 -0.5127 -1.8049 -0.8559
 6634SOL     OW31534   1.242   2.417   0.411  0.0892  0.3758 -0.0697
 6634SOL    HW131535   1.266   2.332   0.449 -0.8305  1.5554  3.0756
 6634SOL    HW231536   1.264   2.408   0.318 -2.1693  1.7361 -0.7184
 6635SOL     OW31537   0.845   3.564   7.256  0.2604  0.1543  0.0936
 6635SOL    HW131538   0.871   3.572   7.164  1.8664  1.7577  0.6647
 6635SOL    HW231539   0.929   3.539   7.295 -0.8025 -0.1100  2.1879
 6636SOL     OW31540   3.386   2.431   5.090 -0.0015 -0.2984 -0.5993
 6636SOL    HW131541   3.369   2.393   5.004 -2.5107  0.6239 -0.4968
 6636SOL    HW231542   3.316   2.495   5.101  0.7397  0.4872 -0.4612
 6637SOL     OW31543   1.985   2.961  11.067 -0.1472 -0.5290  0.0027
 6637SOL    HW131544   1.969   2.866  11.067 -1.1128 -0.3659  0.5258
 6637SOL    HW231545   1.899   2.990  11.037  0.4532  0.7034 -0.5257
 6638SOL     OW31546   3.139   4.651  13.937  0.4451 -0.0950  0.1383
 6638SOL    HW131547   3.203   4.708  13.893  0.3809 -0.9861 -1.0828
 6638SOL    HW231548   3.062   4.694  13.901  1.4730  0.3770 -1.4950
 6639SOL     OW31549   2.820   0.164   8.108  0.4049  0.5748 -0.3761
 6639SOL    HW131550   2.754   0.160   8.177  2.3948 -1.2407  1.4022
 6639SOL    HW231551   2.881   0.105   8.152  0.3605 -0.3670 -1.6017
 6640SOL     OW31552   2.324   3.291  15.572  0.3086  0.0406 -0.2858
 6640SOL    HW131553   2.329   3.339  15.655 -1.8107 -1.6669  0.8352
 6640SOL    HW231554   2.245   3.331  15.537 -1.1351 -4.7937 -2.6398
 6641SOL     OW31555   2.269   2.453  15.866  0.1390  0.1593  0.2598
 6641SOL    HW131556   2.236   2.366  15.887 -0.2918  0.1265 -0.5695
 6641SOL    HW231557   2.291   2.443  15.774  0.0861  2.4412 -0.0076
 6642SOL     OW31558   0.966   4.606   5.849 -0.5553 -0.2488  0.8032
 6642SOL    HW131559   1.003   4.663   5.916  0.3794  1.2339 -0.9874
 6642SOL    HW231560   0.904   4.669   5.813  1.0291  0.0243 -1.4659
 6643SOL     OW31561   2.293   1.920  11.690  0.2543 -0.1603  0.3578
 6643SOL    HW131562   2.200   1.898  11.696 -0.4309  1.3337 -4.4241
 6643SOL    HW231563   2.332   1.886  11.770 -2.3995 -0.5319  1.4809
 6644SOL     OW31564   2.725   3.131   8.638 -0.0936  0.2264 -0.7734
 6644SOL    HW131565   2.672   3.173   8.705 -0.9894 -0.9334 -0.7483
 6644SOL    HW231566   2.733   3.197   8.569  1.4467 -1.1974 -1.9741
 6645SOL     OW31567   1.740   2.640   2.704  0.1297  0.2509  0.1422
 6645SOL    HW131568   1.800   2.587   2.757  0.4395 -1.8546 -2.3434
 6645SOL    HW231569   1.782   2.619   2.621 -1.3154 -3.3075  0.3380
 6646SOL     OW31570   2.546   1.866   8.245 -0.1100 -0.3524 -0.5732
 6646SOL    HW131571   2.611   1.803   8.213 -1.0237 -0.0111 -3.1170
 6646SOL    HW231572   2.512   1.897   8.161  1.0804  0.9544 -0.5771
 6647SOL     OW31573   0.671   1.387   5.359 -0.6319  0.6012  0.2991
 6647SOL    HW131574   0.581   1.374   5.330  0.3463 -1.8813 -1.5535
 6647SOL    HW231575   0.700   1.438   5.283  1.0252 -0.5167  0.1835
 6648SOL     OW31576   4.672   1.512  11.609 -0.5778  0.3961 -0.2048
 6648SOL    HW131577   4.718   1.508  11.525 -0.8116  0.6661 -0.3447
 6648SOL    HW231578   4.614   1.587  11.597  0.0329  1.0653  0.9432
 6649SOL     OW31579   4.684   4.528   7.328  0.2217  0.2276 -0.0143
 6649SOL    HW131580   4.598   4.523   7.370  0.3688  0.7104  0.3383
 6649SOL    HW231581   4.671   4.469   7.253  1.3715  1.4311 -1.1502
 6650SOL     OW31582   3.626   4.648   1.279 -0.2544 -0.1039  0.3754
 6650SOL    HW131583   3.618   4.670   1.186 -1.1616  0.7639  0.6537
 6650SOL    HW231584   3.716   4.663   1.308  0.5895  0.5969 -2.5886
 6651SOL     OW31585   0.495   3.986   4.808 -0.3304 -0.8656 -0.5047
 6651SOL    HW131586   0.492   4.035   4.891 -1.7283  2.5181 -2.5365
 6651SOL    HW231587   0.580   4.023   4.782 -0.1357  0.6276  2.2717
 6652SOL     OW31588   0.900   0.594  17.076  0.2618 -0.0204 -0.5108
 6652SOL    HW131589   0.986   0.596  17.034  0.1079  0.6291 -0.8027
 6652SOL    HW231590   0.833   0.573  17.011 -0.0222 -0.3914 -0.0882
 6653SOL     OW31591   0.714   3.332  16.409  0.0758 -0.0734 -0.3037
 6653SOL    HW131592   0.769   3.391  16.359  1.5459 -0.1325  1.2570
 6653SOL    HW231593   0.744   3.354  16.497  0.2559  1.5017 -0.7695
 6654SOL     OW31594   1.068   1.652   6.808 -0.6662 -0.1874  0.2730
 6654SOL    HW131595   1.107   1.727   6.763 -0.4705 -0.8242 -0.6109
 6654SOL    HW231596   0.994   1.690   6.855 -0.8529  0.2733 -0.3878
 6655SOL     OW31597   3.908   3.733   6.965 -0.2199 -0.2145  0.2931
 6655SOL    HW131598   3.959   3.799   6.919  0.2679 -1.3660 -0.8264
 6655SOL    HW231599   3.837   3.788   6.997 -2.3687 -0.8695 -3.3906
 6656SOL     OW31600   2.893   1.982   7.919 -0.2895  0.2647 -0.0263
 6656SOL    HW131601   2.943   2.022   7.991  0.6717 -0.8084 -0.1001
 6656SOL    HW231602   2.895   1.894   7.956  0.2346  0.7631  1.1296
 6657SOL     OW31603   3.133   4.572  14.407 -0.3226  0.0632 -0.0693
 6657SOL    HW131604   3.180   4.546  14.328  0.4397  0.6605  0.1933
 6657SOL    HW231605   3.047   4.540  14.380 -0.0529  0.1547 -1.0439
 6658SOL     OW31606   2.508   3.721   8.688  0.1166  0.0828  0.2271
 6658SOL    HW131607   2.511   3.813   8.664  0.2828  1.1588  4.3828
 6658SOL    HW231608   2.419   3.713   8.722 -0.2533 -0.8949 -0.9759
 6659SOL     OW31609   1.137   0.422   8.742 -0.7482  0.2697 -0.4642
 6659SOL    HW131610   1.115   0.340   8.699 -1.2512  0.1119  0.0962
 6659SOL    HW231611   1.209   0.394   8.798 -0.7032  1.3218  0.0079
 6660SOL     OW31612   2.770   2.624   5.283  0.4178 -0.8828 -0.1742
 6660SOL    HW131613   2.734   2.703   5.243  3.4436 -0.2776 -1.6675
 6660SOL    HW231614   2.743   2.643   5.373  1.0959  1.2737 -0.4287
 6661SOL     OW31615   0.689   3.667   3.706  0.1496 -0.3663 -0.1796
 6661SOL    HW131616   0.629   3.700   3.773  0.2732 -1.1513  0.3196
 6661SOL    HW231617   0.678   3.575   3.733  2.1113 -1.4171 -2.9200
 6662SOL     OW31618   4.628   2.063   8.466  0.3981  0.1086  0.8953
 6662SOL    HW131619   4.692   2.069   8.395 -1.3029  1.9809 -0.4791
 6662SOL    HW231620   4.685   2.094   8.537  1.5315 -2.0895  0.9372
 6663SOL     OW31621   1.371   4.500   8.250 -0.0364 -0.0699  0.5266
 6663SOL    HW131622   1.366   4.576   8.307  1.1414  0.1486  0.3431
 6663SOL    HW231623   1.379   4.428   8.313  0.5486 -1.8203 -1.5358
 6664SOL     OW31624   3.776   4.636   1.858 -0.6769  0.3952  0.2823
 6664SOL    HW131625   3.712   4.672   1.798 -0.4902 -1.2371 -0.8937
 6664SOL    HW231626   3.724   4.563   1.891 -0.5697  0.2388  0.1001
 6665SOL     OW31627   3.111   0.682  17.501  0.7220  0.5953 -0.5580
 6665SOL    HW131628   3.070   0.597  17.515  0.7280  0.6664 -0.0891
 6665SOL    HW231629   3.199   0.672  17.536  0.1390  0.7529  0.9588
 6666SOL     OW31630   2.901   4.469   1.790 -0.5523 -0.2591  0.0568
 6666SOL    HW131631   2.851   4.493   1.868  2.1850  0.4774  1.5677
 6666SOL    HW231632   2.920   4.552   1.747  1.8417 -0.5639  0.5547
 6667SOL     OW31633   0.592   4.506   9.199  0.6239 -0.8264 -0.0504
 6667SOL    HW131634   0.543   4.424   9.197  0.1786 -0.5450 -0.6404
 6667SOL    HW231635   0.659   4.492   9.132  0.9739 -0.0243  0.1299
 6668SOL     OW31636   4.491   0.585  14.865 -0.4358 -0.3700  0.0235
 6668SOL    HW131637   4.531   0.529  14.798  3.4634  1.6602  0.6748
 6668SOL    HW231638   4.564   0.637  14.897 -0.0228 -1.6259  1.1272
 6669SOL     OW31639   2.132   3.375   6.759 -0.1433 -0.1083  0.1138
 6669SOL    HW131640   2.216   3.417   6.773 -1.6513  2.3225  1.7400
 6669SOL    HW231641   2.153   3.322   6.681 -1.2329  0.5143 -0.6081
 6670SOL     OW31642   1.354   2.408   6.200  0.1597 -0.4763  0.3869
 6670SOL    HW131643   1.326   2.497   6.177  1.1568 -0.2467  0.0929
 6670SOL    HW231644   1.272   2.360   6.216 -0.0058 -0.4264 -0.3012
 6671SOL     OW31645   3.272   3.731   8.545 -0.2229  0.0523  0.7986
 6671SOL    HW131646   3.265   3.722   8.450  2.2283  0.1010  0.6129
 6671SOL    HW231647   3.291   3.642   8.574  1.1315  0.2265  0.4277
 6672SOL     OW31648   2.152   0.378   6.226 -0.1900 -0.2824  0.0434
 6672SOL    HW131649   2.101   0.335   6.295  1.5215 -2.9663 -0.3644
 6672SOL    HW231650   2.138   0.467   6.256 -1.8994 -0.7885  0.7461
 6673SOL     OW31651   0.059   1.180  16.192 -0.8709 -0.0802 -0.8982
 6673SOL    HW131652   4.719   1.132  16.177 -0.1399 -1.8096  0.7019
 6673SOL    HW231653   0.031   1.270  16.208 -1.8792 -0.0072 -3.1441
 6674SOL     OW31654   4.198   1.398   7.554  0.3933 -0.2666  0.7098
 6674SOL    HW131655   4.132   1.360   7.613 -0.6485 -1.9646 -1.5458
 6674SOL    HW231656   4.206   1.485   7.593  0.1294 -0.2357  0.6997
 6675SOL     OW31657   2.380   2.690  13.308 -0.3191 -0.5548 -0.7589
 6675SOL    HW131658   2.298   2.656  13.270 -1.0965 -1.4458  1.7045
 6675SOL    HW231659   2.345   2.760  13.363 -0.8879 -2.6001  1.4774
 6676SOL     OW31660   2.144   1.368  13.296 -0.0552  0.2014 -0.1539
 6676SOL    HW131661   2.088   1.437  13.331 -0.1249  0.4437 -0.7391
 6676SOL    HW231662   2.169   1.318  13.374 -0.5642  1.6084  0.9189
 6677SOL     OW31663   4.512   4.644   6.486  0.5523 -0.2133  0.7990
 6677SOL    HW131664   4.590   4.673   6.439 -0.7539 -1.2695 -2.0461
 6677SOL    HW231665   4.465   4.610   6.410  0.2303 -0.6434  1.1883
 6678SOL     OW31666   1.044   2.071   2.135 -0.4821 -0.3286 -0.5977
 6678SOL    HW131667   1.017   1.995   2.186 -0.5190 -0.6774 -1.1397
 6678SOL    HW231668   1.022   2.052   2.043 -1.9828  0.2364 -0.3557
 6679SOL     OW31669   4.272   3.886  11.555 -0.1183 -0.4171  0.4626
 6679SOL    HW131670   4.323   3.967  11.556 -2.0360  0.8087 -1.6273
 6679SOL    HW231671   4.188   3.911  11.516  0.2908  2.9452  1.7726
 6680SOL     OW31672   1.415   0.658   9.049 -0.0464 -0.0962 -0.7049
 6680SOL    HW131673   1.453   0.661   9.137 -2.3014 -0.4068  0.2811
 6680SOL    HW231674   1.335   0.607   9.062  1.6361 -2.6227 -0.2605
 6681SOL     OW31675   0.014   1.724   5.839 -0.1571  0.0156  0.4736
 6681SOL    HW131676   4.667   1.748   5.867 -0.4236 -0.1825 -0.1907
 6681SOL    HW231677   0.033   1.782   5.765  0.1031  1.3689  1.5849
 6682SOL     OW31678   3.207   3.871   3.550 -0.2638 -0.0438  0.1883
 6682SOL    HW131679   3.128   3.898   3.503  0.2732 -0.3622 -0.8752
 6682SOL    HW231680   3.198   3.922   3.631  2.4115  1.4758 -0.4763
 6683SOL     OW31681   1.893   3.913   4.535  0.6347  0.0170  0.2896
 6683SOL    HW131682   1.812   3.865   4.552 -0.4172  1.5943 -0.2845
 6683SOL    HW231683   1.862   4.001   4.557 -1.6723 -1.3689  2.5098
 6684SOL     OW31684   3.324   3.136   8.744 -0.2529  0.0247 -0.0065
 6684SOL    HW131685   3.395   3.074   8.727  0.8896  1.4662 -0.5321
 6684SOL    HW231686   3.272   3.090   8.810  2.6375  0.2252  2.4633
 6685SOL     OW31687   1.587   3.814  10.605 -0.4190 -0.3474 -0.1448
 6685SOL    HW131688   1.616   3.730  10.641 -2.7610 -0.9845  0.2302
 6685SOL    HW231689   1.640   3.876  10.655 -0.9112  0.4894 -0.6811
 6686SOL     OW31690   4.721   3.158   1.870  0.1751  0.4422 -0.1044
 6686SOL    HW131691   0.040   3.181   1.800  0.4928  0.5126  0.1901
 6686SOL    HW231692   4.704   3.237   1.921 -2.5207  0.8396 -1.5913
 6687SOL     OW31693   0.507   4.470   4.731 -0.4408  0.0390  0.4692
 6687SOL    HW131694   0.548   4.544   4.685  0.9672  0.1511  1.9037
 6687SOL    HW231695   0.413   4.489   4.731 -0.6427 -0.9537  3.1468
 6688SOL     OW31696   3.737   3.133  16.211 -0.1921  0.3367  0.2367
 6688SOL    HW131697   3.757   3.046  16.245  3.3926  1.2273  0.3418
 6688SOL    HW231698   3.770   3.110  16.124 -0.1235 -0.5952  0.5119
 6689SOL     OW31699   4.399   2.675  16.944  0.1099 -0.9301  0.1145
 6689SOL    HW131700   4.453   2.629  16.880 -0.7010 -0.5396 -0.8476
 6689SOL    HW231701   4.319   2.626  16.925 -0.1234  0.4200 -2.3659
 6690SOL     OW31702   2.357   3.956  14.123 -0.3459 -0.4617 -0.0596
 6690SOL    HW131703   2.302   4.034  14.117 -0.2550 -0.4571 -0.8204
 6690SOL    HW231704   2.436   3.981  14.076 -1.6347  0.9292 -1.4971
 6691SOL     OW31705   4.473   0.629   9.504 -0.0079  0.0757 -0.3015
 6691SOL    HW131706   4.519   0.598   9.582  2.4006  2.3636 -0.8307
 6691SOL    HW231707   4.511   0.576   9.434  1.1193  1.7293 -0.9404
 6692SOL     OW31708   0.714   2.794   3.228  0.1474  0.0914 -0.2299
 6692SOL    HW131709   0.757   2.848   3.162  2.1162  1.5604  2.2356
 6692SOL    HW231710   0.742   2.705   3.211 -0.0943  0.2125 -1.2392
 6693SOL     OW31711   2.298   1.554  12.162 -0.4385 -0.1481  0.1470
 6693SOL    HW131712   2.303   1.582  12.254  0.5045 -0.4283  0.1864
 6693SOL    HW231713   2.340   1.469  12.178 -1.6581 -0.8684 -0.4483
 6694SOL     OW31714   2.471   0.703   9.265  0.3564 -0.0815 -0.6514
 6694SOL    HW131715   2.437   0.669   9.348  0.2073  1.6635  0.0109
 6694SOL    HW231716   2.561   0.673   9.266  0.4207  0.1380  0.1512
 6695SOL     OW31717   1.334   0.796   4.418  0.2548 -0.2467 -0.4776
 6695SOL    HW131718   1.378   0.711   4.412  1.9385  0.7056 -1.4438
 6695SOL    HW231719   1.319   0.813   4.326 -0.3791  1.2106 -0.1007
 6696SOL     OW31720   3.104   3.554  12.225  0.5392  0.2300 -0.1340
 6696SOL    HW131721   3.197   3.545  12.207  0.1933 -1.2276 -1.2782
 6696SOL    HW231722   3.075   3.466  12.201 -0.9097  0.8595 -0.7259
 6697SOL     OW31723   0.122   0.790   6.940 -0.0167 -0.2161 -0.6077
 6697SOL    HW131724   0.038   0.808   6.898 -0.8972 -1.5925  0.5704
 6697SOL    HW231725   0.153   0.706   6.906 -1.3558 -0.6415 -0.7825
 6698SOL     OW31726   2.435   3.331   5.716 -0.3566 -0.5249 -0.0576
 6698SOL    HW131727   2.420   3.414   5.762 -0.2305  0.2399 -1.3771
 6698SOL    HW231728   2.431   3.271   5.790  1.2223 -2.6520 -1.6989
 6699SOL     OW31729   0.425   2.200   9.246  0.1203 -0.6870  0.2994
 6699SOL    HW131730   0.347   2.150   9.270 -1.0358  1.4535  1.0506
 6699SOL    HW231731   0.399   2.288   9.272 -0.0628 -0.9591  1.0351
 6700SOL     OW31732   1.835   2.150  16.931  0.0571  0.1712  0.2602
 6700SOL    HW131733   1.826   2.096  16.853  3.1236 -0.5677  0.4241
 6700SOL    HW231734   1.923   2.183  16.914 -0.8832  2.0598 -1.0024
 6701SOL     OW31735   3.388   1.461   5.828  0.5914  0.1341 -0.2733
 6701SOL    HW131736   3.473   1.469   5.871  0.6364 -1.4093 -0.0720
 6701SOL    HW231737   3.407   1.404   5.753  0.7543  2.1932 -1.8010
 6702SOL     OW31738   0.958   4.084  16.403 -0.6102 -0.7954  0.2728
 6702SOL    HW131739   0.924   4.173  16.413  2.0373  0.0540  1.6308
 6702SOL    HW231740   1.034   4.095  16.347  0.8104  1.5858  2.6771
 6703SOL     OW31741   4.075   1.834   6.701  0.3836  0.2493 -0.7886
 6703SOL    HW131742   4.111   1.761   6.751 -1.0784 -0.5016 -0.8192
 6703SOL    HW231743   4.011   1.865   6.765  0.8416 -0.4209  0.0021
 6704SOL     OW31744   0.989   4.467   1.873  0.2639  0.1937  0.3169
 6704SOL    HW131745   1.033   4.389   1.839  1.3120  0.9610 -0.0899
 6704SOL    HW231746   1.034   4.488   1.955  1.8458 -0.8463 -0.2818
 6705SOL     OW31747   0.405   1.658   3.992 -0.6230 -0.0866  0.5264
 6705SOL    HW131748   0.435   1.677   4.080  0.9988  0.0547 -0.0594
 6705SOL    HW231749   0.480   1.621   3.945 -0.2963  1.3168 -0.0737
 6706SOL     OW31750   4.144   1.808   9.460 -0.6989 -0.5588  0.1124
 6706SOL    HW131751   4.075   1.858   9.503  0.7060  0.4868  1.1826
 6706SOL    HW231752   4.095   1.763   9.392 -0.0457 -1.3918  0.1944
 6707SOL     OW31753   0.610   1.672   5.652 -0.0578  0.0813  0.4188
 6707SOL    HW131754   0.684   1.649   5.709  2.0072 -1.0261 -2.7156
 6707SOL    HW231755   0.558   1.591   5.653  1.4963 -0.9208 -0.4759
 6708SOL     OW31756   4.291   3.798   3.057  0.0392 -0.0431  0.5196
 6708SOL    HW131757   4.376   3.834   3.032 -0.3533  1.2892  1.0895
 6708SOL    HW231758   4.261   3.861   3.123 -0.3152  0.3050  0.0279
 6709SOL     OW31759   3.936   4.735   4.937  0.6476  0.2011 -0.0273
 6709SOL    HW131760   3.885   0.053   4.992  0.1326  0.0184 -0.3047
 6709SOL    HW231761   3.988   0.050   4.880 -1.3689  1.1529 -0.9516
 6710SOL     OW31762   3.703   0.746  10.197  0.6260  0.2597  0.5800
 6710SOL    HW131763   3.785   0.773  10.238  1.0812  1.7814 -1.3536
 6710SOL    HW231764   3.662   0.825  10.163  1.1830  0.0088 -0.6843
 6711SOL     OW31765   0.795   1.498  17.610  0.5867 -0.2853 -0.5368
 6711SOL    HW131766   0.823   1.524  17.698 -1.4491  0.1392 -0.0119
 6711SOL    HW231767   0.767   1.409  17.628  0.8607 -0.5241 -1.2937
 6712SOL     OW31768   0.884   4.035   8.863 -0.3723  0.5698  0.3725
 6712SOL    HW131769   0.795   3.999   8.857  0.3116 -0.8485 -1.3876
 6712SOL    HW231770   0.907   4.072   8.778  0.5084 -0.3079  0.2309
 6713SOL     OW31771   2.700   1.511   4.296  0.3306 -0.0645 -0.3946
 6713SOL    HW131772   2.733   1.427   4.326  0.3011  0.1733  0.3042
 6713SOL    HW231773   2.764   1.566   4.341  0.0333  0.4927 -0.6505
 6714SOL     OW31774   1.796   3.303  10.207  0.2522  0.5379 -0.0788
 6714SOL    HW131775   1.818   3.374  10.147  0.5704 -1.1720 -2.0054
 6714SOL    HW231776   1.869   3.290  10.267 -0.3341  1.6763  0.8700
 6715SOL     OW31777   1.707   2.303   4.447 -0.1823 -0.6232 -0.4588
 6715SOL    HW131778   1.760   2.259   4.514 -0.4881 -0.1556  0.0856
 6715SOL    HW231779   1.697   2.227   4.389  0.3491  2.1486 -4.2078
 6716SOL     OW31780   1.571   4.003   7.405  0.6275  0.1945 -0.2794
 6716SOL    HW131781   1.528   3.925   7.440  0.4626  0.6772  0.5889
 6716SOL    HW231782   1.644   3.965   7.354 -0.4491 -0.9231 -0.9805
 6717SOL     OW31783   1.150   2.061  17.249 -0.2461 -0.4531 -0.3277
 6717SOL    HW131784   1.139   2.040  17.156 -1.5207 -0.9241 -0.0839
 6717SOL    HW231785   1.098   1.986  17.279 -0.4292  0.2722  1.1257
 6718SOL     OW31786   0.240   1.914   1.652  0.5819 -0.4998  0.1142
 6718SOL    HW131787   0.275   2.001   1.634  0.0364 -0.3092 -0.0146
 6718SOL    HW231788   0.168   1.898   1.591 -0.8632 -0.9555  1.9405
 6719SOL     OW31789   1.064   0.314   8.378 -0.7499 -0.1978  0.2002
 6719SOL    HW131790   1.079   0.406   8.397  1.0617 -0.5352  0.4431
 6719SOL    HW231791   1.105   0.271   8.453  0.5181 -0.7313 -0.8088
 6720SOL     OW31792   0.246   1.564   1.199 -0.1842 -0.3824 -0.1884
 6720SOL    HW131793   0.340   1.556   1.180 -0.4062 -0.0309 -1.4557
 6720SOL    HW231794   0.223   1.628   1.131  0.4691 -0.3740 -0.4043
 6721SOL     OW31795   4.379   3.317   9.020  0.8883  0.5174 -0.0956
 6721SOL    HW131796   4.298   3.341   9.063  0.2110 -2.7003  0.4568
 6721SOL    HW231797   4.361   3.341   8.929 -1.2271  0.8680  0.4353
 6722SOL     OW31798   1.958   2.115   8.609 -0.1155  0.3299  0.9064
 6722SOL    HW131799   1.908   2.037   8.585 -0.5424  0.5115  1.2182
 6722SOL    HW231800   2.042   2.076   8.636 -0.5217 -0.9454  0.3082
 6723SOL     OW31801   2.096   4.605  14.382  0.0181 -0.0751 -0.8726
 6723SOL    HW131802   2.135   4.517  14.380 -2.9467 -1.4130  0.6514
 6723SOL    HW231803   2.071   4.621  14.291  2.1548 -2.2667 -1.8524
 6724SOL     OW31804   4.415   0.371   5.451 -0.0489  0.0618  0.0930
 6724SOL    HW131805   4.384   0.460   5.467 -1.0752  0.0339 -1.8496
 6724SOL    HW231806   4.355   0.314   5.500 -1.8430 -0.9306 -3.2519
 6725SOL     OW31807   4.032   3.297   0.948  0.1107 -0.2254 -0.1117
 6725SOL    HW131808   4.060   3.292   1.039 -0.1587 -0.0159 -0.0169
 6725SOL    HW231809   3.940   3.271   0.955 -0.3572  1.1692 -1.0688
 6726SOL     OW31810   0.316   1.610   3.138 -0.4097  0.0529  0.2867
 6726SOL    HW131811   0.327   1.551   3.064 -1.7762 -1.1977  1.0902
 6726SOL    HW231812   0.328   1.553   3.214 -0.0869 -0.3132 -0.0465
 6727SOL     OW31813   2.962   3.569   8.729  0.1657 -0.4346 -0.0571
 6727SOL    HW131814   2.955   3.557   8.635  1.0357 -0.5389 -0.1119
 6727SOL    HW231815   3.052   3.601   8.736  0.7723 -1.8748 -1.2812
 6728SOL     OW31816   2.626   4.112   6.730  1.0116 -0.3164  0.0668
 6728SOL    HW131817   2.606   4.086   6.820  1.0941 -0.0691  0.1573
 6728SOL    HW231818   2.560   4.068   6.678  0.5175 -0.8134  1.1312
 6729SOL     OW31819   0.445   4.517   8.182  0.0862 -0.1026 -0.3228
 6729SOL    HW131820   0.355   4.508   8.212  0.1322  0.3988 -0.0358
 6729SOL    HW231821   0.437   4.486   8.092 -1.6358 -0.1117 -0.1533
 6730SOL     OW31822   2.570   0.075  16.364  0.0562 -0.1292 -0.1340
 6730SOL    HW131823   2.543   0.071  16.455 -0.1738 -4.9301 -0.4546
 6730SOL    HW231824   2.626   4.739  16.375  2.7877  2.0152  1.0022
 6731SOL     OW31825   3.842   0.907   2.396 -0.2635 -0.3422 -0.5670
 6731SOL    HW131826   3.924   0.866   2.421 -1.1268 -2.1342 -0.6930
 6731SOL    HW231827   3.787   0.909   2.474 -0.6970 -0.5620 -0.8671
 6732SOL     OW31828   2.284   4.005   5.244  0.4127 -0.0348  0.0327
 6732SOL    HW131829   2.210   4.060   5.218  0.4427 -0.5853 -1.2125
 6732SOL    HW231830   2.325   3.981   5.161 -1.3487  0.8146 -1.0908
 6733SOL     OW31831   3.678   3.201   6.877 -0.6132 -0.6425 -0.0917
 6733SOL    HW131832   3.652   3.246   6.957  2.0694 -0.6192  0.7848
 6733SOL    HW231833   3.676   3.277   6.818 -0.7123  1.3231  2.4535
 6734SOL     OW31834   3.581   3.569  17.338  0.2237  0.4298 -0.1041
 6734SOL    HW131835   3.528   3.560  17.260 -2.4398  1.1594  1.6342
 6734SOL    HW231836   3.661   3.604  17.299 -0.2047  2.3567  0.7592
 6735SOL     OW31837   3.084   2.578   3.408 -0.1100  0.1014  0.0030
 6735SOL    HW131838   3.080   2.672   3.391  3.3231  0.3807  0.7199
 6735SOL    HW231839   3.011   2.570   3.469  0.5375  1.4547  0.9662
 6736SOL     OW31840   2.837   0.271  15.963 -0.1172  0.6371 -0.2616
 6736SOL    HW131841   2.819   0.363  15.944 -0.1026  1.0715  1.8177
 6736SOL    HW231842   2.908   0.244  15.905  0.1854 -0.1085  0.4502
 6737SOL     OW31843   0.933   2.612   6.061 -0.1471 -0.3415 -0.0391
 6737SOL    HW131844   0.887   2.658   6.132 -0.7609 -2.4285  0.9209
 6737SOL    HW231845   0.900   2.658   5.984  0.6299 -3.3553 -2.1562
 6738SOL     OW31846   1.891   4.332  14.409  0.2592 -0.2636 -0.5079
 6738SOL    HW131847   1.877   4.270  14.337 -1.1236 -0.5318 -0.0197
 6738SOL    HW231848   1.954   4.392  14.368 -1.5294  1.1729 -1.1703
 6739SOL     OW31849   3.086   2.031   3.765  0.4570  0.0876 -1.1269
 6739SOL    HW131850   3.081   1.962   3.831 -0.3733  1.7163  0.5249
 6739SOL    HW231851   3.091   2.001   3.675 -0.3485 -2.3139 -0.3566
 6740SOL     OW31852   1.848   4.037   0.076 -0.3287 -0.0710 -0.3348
 6740SOL    HW131853   1.818   3.958   0.031  0.2997 -0.6524  0.2751
 6740SOL    HW231854   1.783   4.102   0.050 -1.1231  0.0915  2.0714
 6741SOL     OW31855   0.744   3.441   1.492  0.3755 -0.2400  0.0408
 6741SOL    HW131856   0.805   3.499   1.536 -0.7021  1.4955 -0.7474
 6741SOL    HW231857   0.684   3.411   1.561  0.8004 -1.1071  0.0393
 6742SOL     OW31858   0.462   1.753   2.000  0.2922  0.3421 -0.0449
 6742SOL    HW131859   0.544   1.792   2.028  0.6365  0.9267 -1.8522
 6742SOL    HW231860   0.476   1.669   2.044  1.4226  0.9605  0.7670
 6743SOL     OW31861   4.146   2.912   9.679 -0.1350  0.2850  0.1237
 6743SOL    HW131862   4.159   2.881   9.590 -1.5006 -2.6537  0.9652
 6743SOL    HW231863   4.108   2.835   9.722  1.3722  1.5593  3.7708
 6744SOL     OW31864   2.797   4.391   9.730 -0.6571 -0.0506 -0.0126
 6744SOL    HW131865   2.808   4.347   9.646  1.3757  1.1660 -0.3875
 6744SOL    HW231866   2.738   4.332   9.777  0.0161 -0.8714 -0.2058
 6745SOL     OW31867   4.697   1.268   6.712  0.7102 -0.3674 -0.2394
 6745SOL    HW131868   4.693   1.342   6.650 -1.9400  0.9124  1.4743
 6745SOL    HW231869   4.615   1.224   6.690 -0.0194  1.0793 -0.4308
 6746SOL     OW31870   1.447   0.052   3.662  0.2163 -0.1296  0.2000
 6746SOL    HW131871   1.473   4.707   3.628  1.6713  0.4987 -0.2646
 6746SOL    HW231872   1.517   0.070   3.725  0.3735 -0.0939  0.0141
 6747SOL     OW31873   2.288   0.844   3.227  0.4991  0.0631  0.4755
 6747SOL    HW131874   2.329   0.927   3.202  3.5288 -1.3173  0.8567
 6747SOL    HW231875   2.366   0.794   3.251 -0.1129 -0.3178  1.6699
 6748SOL     OW31876   3.931   1.726   3.649  0.0126  0.5927 -0.1145
 6748SOL    HW131877   3.857   1.694   3.700 -1.2389  0.5029 -2.0035
 6748SOL    HW231878   3.941   1.649   3.594  0.5573  0.2298  0.4967
 6749SOL     OW31879   2.581   1.234   7.247  0.4139 -0.1167  0.0690
 6749SOL    HW131880   2.499   1.229   7.198  0.2707 -1.8331  0.5047
 6749SOL    HW231881   2.587   1.146   7.283  0.3165  0.9297  2.6105
 6750SOL     OW31882   0.413   1.171   7.732  0.4942 -0.5249  0.0335
 6750SOL    HW131883   0.435   1.184   7.824 -0.0960 -0.0212  0.1049
 6750SOL    HW231884   0.497   1.168   7.686 -0.4284 -0.2342 -1.6795
 6751SOL     OW31885   1.083   4.700  13.422  0.2033  0.5017  0.2562
 6751SOL    HW131886   1.055   4.609  13.432 -1.4585  1.0019  0.2883
 6751SOL    HW231887   1.131   4.699  13.340 -0.7301  0.3823 -0.2863
 6752SOL     OW31888   4.073   0.626   8.724  0.1624 -0.3688 -0.0087
 6752SOL    HW131889   4.090   0.583   8.640  0.0514  0.3683 -0.4063
 6752SOL    HW231890   4.015   0.558   8.756 -0.3718 -0.5873 -1.4225
 6753SOL     OW31891   2.955   2.044   6.557  0.2253  0.0293 -0.2709
 6753SOL    HW131892   3.006   1.998   6.490 -1.7173 -0.8643 -1.1325
 6753SOL    HW231893   3.018   2.050   6.629 -1.5352  0.2566  1.2407
 6754SOL     OW31894   2.703   0.764   5.775  0.0553  0.2704 -0.2889
 6754SOL    HW131895   2.668   0.681   5.743  1.7117 -0.8096  0.6816
 6754SOL    HW231896   2.625   0.810   5.807  0.1435 -0.6477  1.2670
 6755SOL     OW31897   0.631   1.851  12.273 -0.7659  0.3621 -0.1806
 6755SOL    HW131898   0.662   1.939  12.249 -3.0600  1.6131  1.4473
 6755SOL    HW231899   0.711   1.805  12.296 -0.5759  0.7155 -0.1284
 6756SOL     OW31900   3.838   2.858   5.304  0.0023  0.3511  0.8269
 6756SOL    HW131901   3.928   2.887   5.311 -0.7560  2.3928  1.9875
 6756SOL    HW231902   3.845   2.762   5.299  0.5482  0.3433  1.9686
 6757SOL     OW31903   2.969   4.194   9.834  0.3763  0.4119 -0.1926
 6757SOL    HW131904   2.923   4.231   9.910 -2.1976 -0.8442 -1.1673
 6757SOL    HW231905   2.954   4.265   9.771  0.6322  0.0203 -0.6864
 6758SOL     OW31906   1.160   0.578  16.705 -0.7544  0.0135 -0.4125
 6758SOL    HW131907   1.140   0.565  16.797 -1.1136  1.0958 -0.3391
 6758SOL    HW231908   1.194   0.667  16.705  0.9170 -0.6159 -0.3533
 6759SOL     OW31909   1.667   0.464   2.414  0.4045 -0.0298 -0.5928
 6759SOL    HW131910   1.719   0.502   2.485 -1.2712 -0.6301  0.9517
 6759SOL    HW231911   1.630   0.542   2.373  0.4128  0.5232  0.4529
 6760SOL     OW31912   2.848   4.482   5.412 -0.3364  0.6068  0.2666
 6760SOL    HW131913   2.776   4.424   5.386 -0.1132 -0.3275  1.7527
 6760SOL    HW231914   2.853   4.464   5.506 -0.0836  0.9951  0.3285
 6761SOL     OW31915   0.177   3.010   3.535 -0.3362  0.4242 -0.4152
 6761SOL    HW131916   0.083   3.015   3.516 -0.4252  0.0769 -0.0734
 6761SOL    HW231917   0.188   3.097   3.573 -0.5682 -0.0790  0.8042
 6762SOL     OW31918   1.068   1.942  12.705  0.0733 -0.6039 -0.0559
 6762SOL    HW131919   1.031   1.855  12.720  1.4403 -1.0350  0.8369
 6762SOL    HW231920   1.042   1.958  12.614 -0.9545 -0.7965  0.2090
 6763SOL     OW31921   3.105   2.462   0.860 -0.0712 -0.2223  0.2587
 6763SOL    HW131922   3.034   2.526   0.867  0.5757  0.5880 -0.7231
 6763SOL    HW231923   3.087   2.405   0.785  3.7562  1.1141 -1.6610
 6764SOL     OW31924   3.276   0.417   3.735 -0.0980 -0.7032  0.5575
 6764SOL    HW131925   3.286   0.494   3.792 -1.8663  0.9866 -1.3996
 6764SOL    HW231926   3.188   0.384   3.749 -0.4765 -0.0222 -0.1761
 6765SOL     OW31927   4.359   1.998  13.164  0.4599  0.0846 -0.4437
 6765SOL    HW131928   4.363   1.919  13.110  1.0489  2.3517 -3.7415
 6765SOL    HW231929   4.417   2.057  13.117  0.6433  1.7614  1.8706
 6766SOL     OW31930   0.516   2.581   3.745 -0.5273  0.0820 -0.8746
 6766SOL    HW131931   0.440   2.537   3.783 -1.2366  0.7767 -1.4939
 6766SOL    HW231932   0.547   2.621   3.826  0.8735 -0.3416 -1.1963
 6767SOL     OW31933   1.067   2.699   7.951 -0.2325  0.1111  0.1367
 6767SOL    HW131934   1.046   2.761   7.881  1.5196  0.5747  0.0232
 6767SOL    HW231935   1.027   2.625   7.905 -0.9830 -0.5451  1.8558
 6768SOL     OW31936   0.271   0.537   6.860 -0.0032 -0.3451  0.0182
 6768SOL    HW131937   0.296   0.502   6.774 -1.4699 -0.9931 -0.1563
 6768SOL    HW231938   0.224   0.462   6.897 -0.9541 -1.1508 -2.7991
 6769SOL     OW31939   1.716   0.829   2.939 -0.3162  0.1824 -0.4437
 6769SOL    HW131940   1.676   0.759   2.888  0.2195  1.0319 -2.0244
 6769SOL    HW231941   1.673   0.809   3.022  1.4648 -1.7153 -0.0060
 6770SOL     OW31942   3.055   0.425  12.552 -0.0353  0.4321 -0.0538
 6770SOL    HW131943   3.066   0.517  12.530  0.7215  0.4043  0.2090
 6770SOL    HW231944   2.992   0.428  12.624 -0.9719 -2.1275 -0.7437
 6771SOL     OW31945   3.615   0.585   8.490 -0.0972 -0.4444  0.4818
 6771SOL    HW131946   3.674   0.509   8.485  1.9690  1.0394  2.6238
 6771SOL    HW231947   3.630   0.622   8.577 -0.1224 -2.5070  1.3748
 6772SOL     OW31948   1.696   1.958   8.748 -0.0629  0.1743  0.4381
 6772SOL    HW131949   1.745   1.963   8.831  1.3314  2.8361 -0.5351
 6772SOL    HW231950   1.739   1.887   8.700  0.2465  0.1864  0.6958
 6773SOL     OW31951   3.393   3.093  15.301 -0.1602  0.6578  0.5517
 6773SOL    HW131952   3.345   3.153  15.244 -0.8428  0.4977  0.9560
 6773SOL    HW231953   3.346   3.012  15.278 -1.6385  2.0922 -1.5429
 6774SOL     OW31954   1.527   2.087   5.519 -0.2777  0.2983  1.0185
 6774SOL    HW131955   1.599   2.100   5.457 -1.6409 -0.7714 -0.8016
 6774SOL    HW231956   1.580   2.070   5.596  0.1886 -0.3351  0.5606
 6775SOL     OW31957   2.135   2.731   7.052  0.7222 -0.0812  0.3981
 6775SOL    HW131958   2.143   2.678   6.973 -0.2356  0.4031 -0.0211
 6775SOL    HW231959   2.079   2.801   7.019  2.7002  1.0537 -0.5532
 6776SOL     OW31960   3.478   1.431  14.538  0.0002 -0.1228  0.1568
 6776SOL    HW131961   3.399   1.469  14.576 -1.1117 -2.2413 -0.0389
 6776SOL    HW231962   3.440   1.360  14.487  0.0358  0.1751 -0.2910
 6777SOL     OW31963   2.095   2.512   7.641 -0.1200  0.1162  0.1390
 6777SOL    HW131964   2.033   2.453   7.599 -0.3196  0.3581  0.0959
 6777SOL    HW231965   2.032   2.547   7.705  0.2686  2.3168 -0.6740
 6778SOL     OW31966   3.353   3.564  17.725 -0.1556  0.0791 -0.0357
 6778SOL    HW131967   3.410   3.489  17.743  1.7488  1.9175  1.4208
 6778SOL    HW231968   3.371   3.617   0.041 -2.9445  1.2247 -0.1709
 6779SOL     OW31969   2.322   2.095   1.677 -0.0486 -0.1572  0.4847
 6779SOL    HW131970   2.392   2.114   1.615 -0.3022  0.3754  0.3649
 6779SOL    HW231971   2.265   2.171   1.670 -1.9516 -1.4969  1.4099
 6780SOL     OW31972   1.717   3.190   3.732 -0.4090 -0.7063  0.7966
 6780SOL    HW131973   1.663   3.151   3.663  1.3146  0.6604 -1.3163
 6780SOL    HW231974   1.743   3.108   3.775 -0.1335  0.1007  2.1655
 6781SOL     OW31975   3.965   2.113   4.287 -0.6349  0.2051 -0.4558
 6781SOL    HW131976   3.934   2.170   4.217 -0.0964  1.2277  0.1485
 6781SOL    HW231977   3.927   2.028   4.264 -0.2925 -0.0596 -0.0692
 6782SOL     OW31978   0.824   1.575   3.171  0.0784 -0.8750  0.6452
 6782SOL    HW131979   0.812   1.592   3.078 -0.5175 -1.4946  0.6056
 6782SOL    HW231980   0.835   1.662   3.208 -0.7266 -0.1737 -0.7922
 6783SOL     OW31981   0.229   4.378  11.888 -0.3761 -0.0592 -0.6599
 6783SOL    HW131982   0.185   4.446  11.837 -2.2624  2.9156  4.9369
 6783SOL    HW231983   0.213   4.294  11.846  2.3654  0.0601 -1.9510
 6784SOL     OW31984   3.230   4.309   2.455  0.0191  0.4311 -0.1629
 6784SOL    HW131985   3.249   4.225   2.498  1.4965 -0.1329 -1.9114
 6784SOL    HW231986   3.272   4.370   2.515  0.5764 -0.6486  0.5491
 6785SOL     OW31987   1.902   2.077   4.023 -0.1297 -0.5494 -0.0227
 6785SOL    HW131988   1.938   1.988   4.024 -1.1753 -0.9609  0.7626
 6785SOL    HW231989   1.851   2.069   4.103 -1.2120 -2.8692 -0.9217
 6786SOL     OW31990   0.342   2.063  15.500  0.0931  0.6259  1.0989
 6786SOL    HW131991   0.361   2.064  15.406 -1.1809  0.0964  0.8240
 6786SOL    HW231992   0.281   2.135  15.514  1.0593  0.9734  3.5093
 6787SOL     OW31993   1.758   4.169   3.775 -0.3162 -0.1626 -0.5141
 6787SOL    HW131994   1.728   4.254   3.807 -1.1152 -1.3683  1.9151
 6787SOL    HW231995   1.783   4.196   3.686 -1.2036 -1.0355 -1.0190
 6788SOL     OW31996   0.640   0.566   2.787 -0.4572 -0.2570 -0.1835
 6788SOL    HW131997   0.689   0.639   2.751 -0.0988 -1.0169 -1.2438
 6788SOL    HW231998   0.708   0.498   2.791  0.6165  0.8361  0.1821
 6789SOL     OW31999   2.561   3.750   3.240  0.0561  0.3806 -0.1277
 6789SOL    HW132000   2.507   3.772   3.164  0.5845 -2.8229 -1.4519
 6789SOL    HW232001   2.512   3.673   3.269  2.0136 -0.8898 -0.2020
 6790SOL     OW32002   0.755   3.631   4.356 -0.2128 -0.5101  0.1141
 6790SOL    HW132003   0.801   3.571   4.415 -1.0851 -1.6742 -0.3722
 6790SOL    HW232004   0.815   3.705   4.366 -0.2994 -0.2501 -1.3147
 6791SOL     OW32005   1.625   2.026   2.494  0.0073  0.4369  0.3750
 6791SOL    HW132006   1.696   2.047   2.555  1.7385 -1.3265 -1.0118
 6791SOL    HW232007   1.613   2.108   2.447  1.0400  2.3787  3.5344
 6792SOL     OW32008   2.459   3.195   9.125 -0.2426  0.0976 -0.0042
 6792SOL    HW132009   2.384   3.210   9.068 -1.2102 -0.5899  1.1204
 6792SOL    HW232010   2.533   3.218   9.068 -1.1255  1.6807 -0.5251
 6793SOL     OW32011   1.121   4.409  14.132 -0.4026 -0.2058 -0.3254
 6793SOL    HW132012   1.064   4.485  14.121 -1.5113 -1.0581 -0.4638
 6793SOL    HW232013   1.141   4.391  14.040 -1.1222 -1.3047 -0.2515
 6794SOL     OW32014   2.481   0.614   8.944  0.0023 -0.2601  0.0297
 6794SOL    HW132015   2.524   0.636   9.027  0.8583 -1.4943 -0.0740
 6794SOL    HW232016   2.400   0.592   8.989 -0.1765  1.1166  0.3742
 6795SOL     OW32017   4.256   2.559   3.853  0.1475  0.9572 -0.6753
 6795SOL    HW132018   4.230   2.584   3.764  0.2427  0.7566 -0.7607
 6795SOL    HW232019   4.316   2.628   3.880  0.0003  0.5935  0.5814
 6796SOL     OW32020   2.394   0.177   3.673  0.1794 -0.1176  0.1993
 6796SOL    HW132021   2.424   0.130   3.595 -2.4612 -1.2183 -0.1605
 6796SOL    HW232022   2.395   0.105   3.736  2.6827  0.4566  0.8089
 6797SOL     OW32023   3.964   3.138  17.414 -0.3862  0.9967 -0.1514
 6797SOL    HW132024   4.020   3.215  17.408  0.4077  0.4892  0.7114
 6797SOL    HW232025   3.984   3.102  17.501  0.3119  3.5272  0.7592
 6798SOL     OW32026   2.690   3.295   9.496 -0.1547 -0.4264  0.1507
 6798SOL    HW132027   2.635   3.367   9.464  1.7122  1.4234  1.0691
 6798SOL    HW232028   2.761   3.345   9.535  1.8056 -1.8553 -1.5929
 6799SOL     OW32029   1.474   4.022   2.839 -0.3976  0.0170 -0.0749
 6799SOL    HW132030   1.498   4.073   2.917 -0.9782  0.2951 -0.0836
 6799SOL    HW232031   1.552   4.042   2.787  0.1735  2.6170  1.7519
 6800SOL     OW32032   3.714   0.829   5.898 -0.5701  0.1627  0.4620
 6800SOL    HW132033   3.710   0.760   5.964  0.6747 -0.0807  0.2876
 6800SOL    HW232034   3.763   0.900   5.940  2.3625 -2.2638  1.1551
 6801SOL     OW32035   0.295   0.386   2.141  0.3345  0.1932 -0.1739
 6801SOL    HW132036   0.305   0.291   2.152 -3.6820 -0.5388 -2.9680
 6801SOL    HW232037   0.253   0.388   2.055  2.3205  0.0267 -1.1655
 6802SOL     OW32038   3.009   0.513   7.788 -0.1505  0.0489 -0.2876
 6802SOL    HW132039   3.060   0.575   7.736 -0.1362  0.2222 -0.0641
 6802SOL    HW232040   3.044   0.431   7.752 -0.9926 -0.0437 -0.9035
 6803SOL     OW32041   3.400   2.487   8.741 -0.1729 -0.0596 -0.3449
 6803SOL    HW132042   3.355   2.403   8.741  0.7142 -0.5425  0.3085
 6803SOL    HW232043   3.416   2.503   8.834 -0.5119 -1.4946 -0.0428
 6804SOL     OW32044   4.264   0.533   4.265  0.2723  0.1138 -0.3749
 6804SOL    HW132045   4.168   0.529   4.258  0.1808  1.6001  0.0903
 6804SOL    HW232046   4.270   0.535   4.360 -0.7321 -1.6442 -0.2715
 6805SOL     OW32047   2.055   1.818  15.030  0.2458  0.0297  0.4012
 6805SOL    HW132048   2.091   1.906  15.043  0.7454  0.1472 -1.8300
 6805SOL    HW232049   1.963   1.838  15.016 -0.0127 -0.9144  0.7742
 6806SOL     OW32050   2.471   0.845   7.902 -0.4210 -0.0785 -0.6503
 6806SOL    HW132051   2.480   0.766   7.848  1.5862  1.0757 -2.0274
 6806SOL    HW232052   2.560   0.881   7.893  0.0956 -0.7185  1.9118
 6807SOL     OW32053   1.171   2.270   3.152 -0.2461 -0.7137 -0.3442
 6807SOL    HW132054   1.106   2.328   3.113 -0.2568 -1.4396 -1.3966
 6807SOL    HW232055   1.253   2.306   3.119 -1.3457  2.3600  0.3019
 6808SOL     OW32056   0.846   4.560   7.351 -0.0153 -0.2691  0.2900
 6808SOL    HW132057   0.827   4.520   7.266 -0.4891  1.4384 -0.3958
 6808SOL    HW232058   0.766   4.613   7.357 -0.0264 -0.2505 -0.0111
 6809SOL     OW32059   0.807   4.720  14.551 -0.3148 -0.6240 -0.2881
 6809SOL    HW132060   0.895   4.705  14.515 -0.0466 -0.6325  0.3873
 6809SOL    HW232061   0.749   4.673  14.491 -1.2637 -1.0594  0.9792
 6810SOL     OW32062   0.364   0.681   3.461  0.3193  0.1335  0.0086
 6810SOL    HW132063   0.411   0.735   3.397  0.0946 -0.2076 -0.4454
 6810SOL    HW232064   0.438   0.657   3.517  1.2276  1.0045 -0.8166
 6811SOL     OW32065   3.429   3.799   7.553 -0.0421  0.3690  0.4718
 6811SOL    HW132066   3.339   3.831   7.560 -0.6425 -1.7112  2.4188
 6811SOL    HW232067   3.446   3.820   7.461  0.4498 -1.9267  0.0456
 6812SOL     OW32068   0.238   1.815  11.333 -0.9837 -0.5342  0.4202
 6812SOL    HW132069   0.168   1.872  11.366 -1.4027 -0.2735 -0.9255
 6812SOL    HW232070   0.206   1.788  11.247 -0.6655  0.0735  0.1133
 6813SOL     OW32071   3.689   3.360   6.662  0.0273 -0.1459  0.0197
 6813SOL    HW132072   3.661   3.327   6.576 -0.4641  0.4003 -0.0273
 6813SOL    HW232073   3.629   3.435   6.659  0.7297  0.3161 -2.2346
 6814SOL     OW32074   1.285   3.411   8.622  0.2937 -0.9782  0.5624
 6814SOL    HW132075   1.273   3.331   8.673 -0.4352 -1.6508 -0.6603
 6814SOL    HW232076   1.225   3.470   8.666  0.2998 -0.7017  0.2046
 6815SOL     OW32077   1.305   2.149   0.028 -0.7566 -0.0551  0.5981
 6815SOL    HW132078   1.234   2.172  17.730 -1.4129 -0.2165  1.3249
 6815SOL    HW232079   1.301   2.055   0.048 -0.4514 -0.1625  0.1511
 6816SOL     OW32080   3.677   2.000   3.734  0.2812 -0.3511  0.1260
 6816SOL    HW132081   3.726   1.990   3.652  0.1644 -1.3662  0.1888
 6816SOL    HW232082   3.602   1.941   3.723 -1.3792  1.5045  1.5818
 6817SOL     OW32083   1.396   4.029   5.985  0.4206  0.3692  0.4102
 6817SOL    HW132084   1.376   4.120   5.964  5.2052  1.3718  0.2961
 6817SOL    HW232085   1.310   3.997   6.013 -0.7306  2.5497 -0.6148
 6818SOL     OW32086   3.486   2.932  16.242 -0.0752  0.1104  0.6682
 6818SOL    HW132087   3.535   2.877  16.180  0.6837  1.2610  0.2570
 6818SOL    HW232088   3.457   3.005  16.188  0.8980 -0.2744 -0.4047
 6819SOL     OW32089   2.883   3.224  14.419  0.3507  0.5767 -0.0674
 6819SOL    HW132090   2.960   3.195  14.467 -0.9652 -2.0038  0.5037
 6819SOL    HW232091   2.821   3.253  14.485 -0.5017  1.5320 -1.2784
 6820SOL     OW32092   2.647   2.979  10.104  0.2207  0.2142  0.1823
 6820SOL    HW132093   2.693   3.050  10.061 -1.4639 -0.6951 -3.1004
 6820SOL    HW232094   2.558   3.010  10.089  1.3440  3.3291  0.0015
 6821SOL     OW32095   0.094   1.716   7.523  0.0260 -0.0020 -0.0662
 6821SOL    HW132096   0.179   1.759   7.512 -0.2996  0.5265 -0.5442
 6821SOL    HW232097   0.042   1.758   7.454  3.0904  0.7733 -1.9420
 6822SOL     OW32098   1.180   1.850  12.210  0.0435  0.5862  0.0112
 6822SOL    HW132099   1.255   1.824  12.264  0.4165  1.1347 -0.2450
 6822SOL    HW232100   1.155   1.770  12.163  0.9219  0.9578 -1.0957
 6823SOL     OW32101   1.039   2.298   4.701 -0.5747 -0.3317  0.4326
 6823SOL    HW132102   1.022   2.205   4.715 -0.3770 -0.3562  0.5157
 6823SOL    HW232103   1.050   2.320   4.793  2.3083  0.5356 -0.1309
 6824SOL     OW32104   0.621   0.564  16.217  0.3176 -0.1231 -0.3690
 6824SOL    HW132105   0.600   0.472  16.233  3.1811 -0.6646  0.2646
 6824SOL    HW232106   0.626   0.604  16.304 -0.4191 -0.3942 -0.2088
 6825SOL     OW32107   0.759   4.555   2.189  0.0971  0.1655 -0.5659
 6825SOL    HW132108   0.719   4.512   2.112  0.2289  1.6010 -1.4314
 6825SOL    HW232109   0.755   4.478   2.245 -3.0679  0.2551 -0.6596
 6826SOL     OW32110   3.896   3.955  15.328  0.2128 -0.1687 -0.2228
 6826SOL    HW132111   3.904   4.050  15.326  1.3247 -0.2946 -1.4213
 6826SOL    HW232112   3.880   3.921  15.240 -0.7673 -0.3398  0.0163
 6827SOL     OW32113   1.998   4.522   9.211  0.6132  0.5560  0.0146
 6827SOL    HW132114   1.980   4.610   9.242  0.9960  0.1901  1.2661
 6827SOL    HW232115   2.047   4.473   9.277 -0.3430  0.0735  0.3716
 6828SOL     OW32116   4.107   1.013   6.767  0.1797 -0.1004  0.3645
 6828SOL    HW132117   4.129   0.999   6.675 -0.6897  1.3503 -0.0563
 6828SOL    HW232118   4.019   1.044   6.748 -0.1091 -0.5059  1.0329
 6829SOL     OW32119   2.698   4.403   1.597 -0.6889  0.1920  0.5871
 6829SOL    HW132120   2.741   4.362   1.523 -2.3708 -0.1953 -0.1591
 6829SOL    HW232121   2.771   4.423   1.656  0.3537 -1.1846 -0.2300
 6830SOL     OW32122   3.038   0.112   2.093 -0.2574  0.6622  0.3571
 6830SOL    HW132123   3.075   0.031   2.128  1.3726  2.0985  1.9421
 6830SOL    HW232124   2.947   0.088   2.106  0.1855 -0.4678  1.3750
 6831SOL     OW32125   2.393   3.656   4.399  0.6165  0.0950  0.0201
 6831SOL    HW132126   2.451   3.632   4.471 -1.2399 -2.8159  0.5460
 6831SOL    HW232127   2.314   3.604   4.418 -0.0386  0.1622 -2.4015
 6832SOL     OW32128   0.380   3.074   1.868  0.3319 -0.4470  0.2428
 6832SOL    HW132129   0.408   3.165   1.866  0.0964 -0.3650  0.5957
 6832SOL    HW232130   0.346   3.060   1.956 -1.7119 -2.8586 -0.9288
 6833SOL     OW32131   1.282   3.270   4.279  0.0675  0.2405  0.0348
 6833SOL    HW132132   1.320   3.342   4.330 -0.5797 -1.0644  2.3468
 6833SOL    HW232133   1.344   3.253   4.208 -2.2267  1.9459 -2.3775
 6834SOL     OW32134   0.474   0.125   8.132  0.1260  0.1934 -0.2470
 6834SOL    HW132135   0.498   0.218   8.132  2.1224 -0.3140 -1.2157
 6834SOL    HW232136   0.379   0.133   8.128  0.0920  0.1904  0.5054
 6835SOL     OW32137   1.646   0.757   9.511  0.2515  0.1925 -0.3626
 6835SOL    HW132138   1.667   0.830   9.570 -0.0796  0.2850 -0.3607
 6835SOL    HW232139   1.734   0.726   9.489  0.6928  1.4867 -0.3849
 6836SOL     OW32140   4.281   0.843   5.272 -0.3576 -0.2736  0.7002
 6836SOL    HW132141   4.211   0.905   5.290  1.1846  1.4181  0.8351
 6836SOL    HW232142   4.338   0.894   5.215  0.7015  1.6863  3.5277
 6837SOL     OW32143   0.996   2.880   8.873  0.2384 -0.0100 -0.6850
 6837SOL    HW132144   1.071   2.826   8.899  0.1798  1.6146  2.7603
 6837SOL    HW232145   1.039   2.963   8.852 -0.9635  1.7558  3.7667
 6838SOL     OW32146   3.463   4.130   8.479  0.2640  0.2044  0.0983
 6838SOL    HW132147   3.426   4.216   8.460 -0.7729 -0.1095  0.6603
 6838SOL    HW232148   3.382   4.085   8.455 -0.1456  0.3408  1.2052
 6839SOL     OW32149   1.705   2.287   5.153 -0.1726  0.8100  0.4319
 6839SOL    HW132150   1.759   2.346   5.206  1.6010 -1.4122  1.0574
 6839SOL    HW232151   1.630   2.286   5.212 -0.1566  1.9040  0.4815
 6840SOL     OW32152   0.937   2.306   1.761 -0.1653  0.1708 -0.1536
 6840SOL    HW132153   0.909   2.344   1.844  1.5103 -1.5378  1.2147
 6840SOL    HW232154   0.911   2.367   1.692 -0.6594 -0.6273 -0.6782
 6841SOL     OW32155   4.001   2.371   7.219 -0.0873 -0.6108 -0.3360
 6841SOL    HW132156   3.950   2.432   7.273 -0.5330 -1.1859 -0.1085
 6841SOL    HW232157   3.999   2.289   7.269 -1.2373  0.0942  0.8001
 6842SOL     OW32158   3.501   1.431   3.423  0.0690 -0.1111 -0.4541
 6842SOL    HW132159   3.409   1.424   3.448  0.4157 -0.3120  0.7382
 6842SOL    HW232160   3.545   1.394   3.500 -0.5728  0.6822  0.2890
 6843SOL     OW32161   1.073   2.647   4.172  0.0191 -0.1554  0.0944
 6843SOL    HW132162   1.159   2.643   4.214 -0.8273 -4.0674  1.4064
 6843SOL    HW232163   1.019   2.603   4.238  0.1386 -1.1827 -0.5083
 6844SOL     OW32164   0.917   0.437   3.404  0.4678 -0.0316  0.2808
 6844SOL    HW132165   0.907   0.420   3.310 -0.0603 -1.2395  0.5592
 6844SOL    HW232166   0.864   0.517   3.401 -1.6754 -1.4230  0.9733
 6845SOL     OW32167   1.594   2.987   9.050 -0.1540 -0.1456 -0.4152
 6845SOL    HW132168   1.679   3.025   9.068  0.0574 -1.7479  2.0481
 6845SOL    HW232169   1.543   3.053   9.097 -0.1788 -0.5977  0.2033
 6846SOL     OW32170   2.894   0.728  13.230 -0.2813 -0.1356  0.6764
 6846SOL    HW132171   2.852   0.800  13.276  3.4136  0.9468  2.4039
 6846SOL    HW232172   2.959   0.773  13.175 -2.2191  1.1676 -0.5220
 6847SOL     OW32173   2.555   1.504  11.295  0.1295  0.1004  0.1393
 6847SOL    HW132174   2.512   1.553  11.365  0.5287  0.5114  0.0972
 6847SOL    HW232175   2.617   1.451  11.344 -0.2628 -0.8014 -0.3283
 6848SOL     OW32176   1.630   1.229   3.114  0.0676  0.6399  0.0578
 6848SOL    HW132177   1.562   1.162   3.112  1.8024 -1.1246 -0.5077
 6848SOL    HW232178   1.704   1.174   3.140 -1.2317 -1.9946 -1.8352
 6849SOL     OW32179   3.909   0.547   3.282  0.3063 -0.7207  0.3032
 6849SOL    HW132180   4.002   0.530   3.268 -0.3030 -3.6500 -0.2299
 6849SOL    HW232181   3.904   0.548   3.378 -0.8456  1.0265  0.2206
 6850SOL     OW32182   0.813   2.065  11.720  0.0065 -0.6363  0.5139
 6850SOL    HW132183   0.854   2.151  11.717 -1.5812  0.0342 -1.6216
 6850SOL    HW232184   0.886   2.014  11.757  1.8547 -0.0764 -2.3873
 6851SOL     OW32185   1.421   2.920   6.508 -0.5649  0.0120  0.3259
 6851SOL    HW132186   1.429   2.909   6.413  1.7406  3.2388  0.1644
 6851SOL    HW232187   1.419   3.015   6.518 -0.4501 -0.3357  3.5412
 6852SOL     OW32188   2.538   1.497   5.130 -0.1675 -0.4150  0.3394
 6852SOL    HW132189   2.444   1.482   5.146 -0.3584  2.5347  1.9372
 6852SOL    HW232190   2.560   1.511   5.222  0.4014  0.3838  0.0808
 6853SOL     OW32191   3.627   0.936   3.692 -0.3206  0.0917 -0.2734
 6853SOL    HW132192   3.573   0.861   3.666  1.4566 -1.7971  1.3954
 6853SOL    HW232193   3.605   0.959   3.783 -2.6858  0.7375 -1.0042
 6854SOL     OW32194   0.893   2.720  17.138 -0.0670  0.0399 -0.4578
 6854SOL    HW132195   0.852   2.659  17.077  3.0924  1.1175 -3.6202
 6854SOL    HW232196   0.978   2.716  17.096  0.7705  2.4829  0.9432
 6855SOL     OW32197   0.006   3.133   8.832 -0.6029  0.1754 -0.5553
 6855SOL    HW132198   0.095   3.147   8.865 -1.1963 -1.5278  1.7951
 6855SOL    HW232199   0.009   3.167   8.743 -2.4356  1.1034 -0.2431
 6856SOL     OW32200   3.039   0.034   6.270 -0.5289  0.3663  0.4032
 6856SOL    HW132201   3.048   0.002   6.360 -0.9886  0.7904  0.6033
 6856SOL    HW232202   2.964   0.094   6.267 -0.7580  0.0849  0.5560
 6857SOL     OW32203   3.189   2.016   3.246 -0.0384  0.3399  0.1966
 6857SOL    HW132204   3.193   2.042   3.338  0.9589  0.3774  0.1461
 6857SOL    HW232205   3.225   2.094   3.203  0.7151  0.5862  1.2675
 6858SOL     OW32206   0.069   0.471   7.794  0.1280  0.2803 -0.1568
 6858SOL    HW132207   4.731   0.438   7.751 -0.6070 -1.2188  2.2927
 6858SOL    HW232208   0.041   0.557   7.825 -2.0705 -0.4872  0.0208
 6859SOL     OW32209   3.249   1.749   2.918 -0.7570  0.1263  0.2989
 6859SOL    HW132210   3.330   1.775   2.874 -1.1264 -1.2363 -1.1876
 6859SOL    HW232211   3.208   1.836   2.921 -0.3225  0.3135  0.8420
 6860SOL     OW32212   2.293   2.494   6.399 -0.4025  0.2079  1.0825
 6860SOL    HW132213   2.236   2.509   6.474 -1.7413 -1.4320  0.3838
 6860SOL    HW232214   2.267   2.570   6.347 -1.6380 -1.2541 -0.4564
 6861SOL     OW32215   4.607   2.171  17.220 -0.6677 -0.2158 -0.1059
 6861SOL    HW132216   4.559   2.236  17.168 -1.2000 -1.0514 -0.6555
 6861SOL    HW232217   4.534   2.137  17.272 -1.6715  0.7364 -0.8920
 6862SOL     OW32218   0.264   1.765  11.603 -0.3372  0.0102 -0.1346
 6862SOL    HW132219   0.350   1.763  11.643  0.0043  0.3884 -0.8512
 6862SOL    HW232220   0.274   1.775  11.508  1.5582 -0.7257  0.0059
 6863SOL     OW32221   0.663   2.228  15.191 -0.0228  0.1386  0.6914
 6863SOL    HW132222   0.744   2.274  15.170 -0.3227 -0.2915 -1.3849
 6863SOL    HW232223   0.654   2.230  15.286 -0.2378 -0.3603  0.6837
 6864SOL     OW32224   3.822   4.500   5.333  0.2848  0.2191  0.2220
 6864SOL    HW132225   3.815   4.405   5.322 -2.0727  0.3683  0.4454
 6864SOL    HW232226   3.883   4.528   5.264  0.6727 -0.8993  0.1182
 6865SOL     OW32227   4.094   1.675   4.616 -0.3600 -0.7914  0.2418
 6865SOL    HW132228   4.176   1.715   4.589 -0.6434 -0.6551 -0.4071
 6865SOL    HW232229   4.102   1.580   4.623 -0.6543 -0.8706 -0.5556
 6866SOL     OW32230   2.785   4.164   2.796 -0.7890 -0.2683 -0.1158
 6866SOL    HW132231   2.823   4.101   2.857  0.0156  0.1427 -0.1867
 6866SOL    HW232232   2.714   4.204   2.845 -0.6648 -0.0125 -0.1481
 6867SOL     OW32233   0.583   2.037   2.332 -0.2994  1.3471  0.0091
 6867SOL    HW132234   0.568   2.112   2.389  0.3286  0.1331  1.7746
 6867SOL    HW232235   0.608   2.094   2.259 -2.6435  0.2244 -1.6440
 6868SOL     OW32236   0.552   0.909   8.220  0.4179  0.1616 -0.5259
 6868SOL    HW132237   0.461   0.910   8.252  0.6126 -0.1278  0.0503
 6868SOL    HW232238   0.587   0.976   8.278  1.6417 -2.4717  1.7999
 6869SOL     OW32239   0.105   3.918   6.685 -0.3116 -0.3950 -0.3600
 6869SOL    HW132240   0.030   3.969   6.714 -0.5569 -0.7623 -0.3492
 6869SOL    HW232241   0.090   3.902   6.592 -0.0600  1.9349 -0.7937
 6870SOL     OW32242   4.696   0.740   5.356  0.3542  0.0634  0.5257
 6870SOL    HW132243   4.614   0.692   5.349  0.7285 -0.6168  0.7780
 6870SOL    HW232244   4.730   0.710   5.272  1.8117 -1.9823  1.8610
 6871SOL     OW32245   0.588   0.926   7.065 -0.6074  0.2231  0.1644
 6871SOL    HW132246   0.617   0.911   7.155  0.4098 -1.0854 -0.3884
 6871SOL    HW232247   0.503   0.884   7.078 -1.1370  1.4047  0.5172
 6872SOL     OW32248   1.656   1.813   1.838 -0.0771 -0.4027 -0.3747
 6872SOL    HW132249   1.583   1.837   1.780  0.4919  0.1751 -0.8523
 6872SOL    HW232250   1.731   1.801   1.780  1.2727 -1.2104  1.5351
 6873SOL     OW32251   2.954   3.863   4.775  0.6958 -0.0775  0.4006
 6873SOL    HW132252   2.968   3.887   4.866 -2.3577 -0.4562  0.9639
 6873SOL    HW232253   2.879   3.918   4.755  0.7646  0.4372  1.5697
 6874SOL     OW32254   3.180   3.928   2.747  0.1822 -0.6983  0.0075
 6874SOL    HW132255   3.104   3.922   2.689 -0.8307  1.4628  1.1344
 6874SOL    HW232256   3.140   3.942   2.832 -1.0768  0.6876 -0.8279
 6875SOL     OW32257   2.234   3.319   9.458  0.2121  0.6777  0.1696
 6875SOL    HW132258   2.226   3.268   9.377  2.0806 -1.1677  1.1632
 6875SOL    HW232259   2.312   3.364   9.426  1.3362 -1.7363 -0.4962
 6876SOL     OW32260   4.693   3.347   1.247  0.3116 -0.6653 -0.2022
 6876SOL    HW132261   0.025   3.290   1.270  0.5479  0.5233  2.0462
 6876SOL    HW232262   4.623   3.283   1.231 -0.6423  0.9926 -2.7957
 6877SOL     OW32263   1.796   3.160   7.435  0.6355 -0.1361 -0.5136
 6877SOL    HW132264   1.820   3.168   7.343  2.4528 -0.9039 -0.0979
 6877SOL    HW232265   1.709   3.124   7.419  0.4731 -0.0517  0.1802
 6878SOL     OW32266   0.576   3.409  17.144 -0.2621  0.2032 -0.3419
 6878SOL    HW132267   0.595   3.315  17.138  0.7106  0.4485 -0.8715
 6878SOL    HW232268   0.486   3.417  17.111 -0.9232  1.2661  1.6556
 6879SOL     OW32269   3.014   3.261   5.421  0.2081  0.3106 -0.7456
 6879SOL    HW132270   2.944   3.196   5.423 -1.6551  2.3990  1.8300
 6879SOL    HW232271   3.098   3.220   5.442  1.1225  2.1441 -0.8359
 6880SOL     OW32272   1.352   2.720  11.804 -0.2895 -0.3470 -0.4125
 6880SOL    HW132273   1.375   2.775  11.729 -0.2710 -1.4136 -1.1813
 6880SOL    HW232274   1.377   2.634  11.770 -1.9965 -1.3668  0.8797
 6881SOL     OW32275   0.989   2.438  14.627 -0.1264  0.0893 -0.1183
 6881SOL    HW132276   0.947   2.365  14.582 -0.2839  0.8125 -1.1259
 6881SOL    HW232277   1.067   2.450  14.573 -1.1210 -0.3155 -1.6339
 6882SOL     OW32278   0.976   0.972  15.788 -0.4713  0.4247 -0.4648
 6882SOL    HW132279   0.937   0.969  15.875 -0.2815 -4.1690 -0.5398
 6882SOL    HW232280   1.051   1.032  15.789  0.1269 -0.3632  2.3424
 6883SOL     OW32281   3.201   4.522   8.492 -0.3917 -0.1167  0.0154
 6883SOL    HW132282   3.210   4.615   8.514 -0.4541 -0.9903  3.7426
 6883SOL    HW232283   3.134   4.488   8.551 -0.2803 -1.0960 -0.4264
 6884SOL     OW32284   1.615   1.310   4.406 -0.4094  0.5006  0.0763
 6884SOL    HW132285   1.604   1.315   4.501  1.0669  1.2080  0.2248
 6884SOL    HW232286   1.553   1.379   4.381 -0.2837  1.0669  1.3266
 6885SOL     OW32287   0.601   1.572   1.766 -0.7021 -0.0267  0.2030
 6885SOL    HW132288   0.617   1.550   1.674 -0.9573  1.0884 -0.1115
 6885SOL    HW232289   0.525   1.626   1.746 -1.3490 -0.7300  0.7772
 6886SOL     OW32290   0.656   2.226   4.061  0.5572 -0.2416  0.4364
 6886SOL    HW132291   0.721   2.262   4.000 -1.6876 -0.3244 -2.0141
 6886SOL    HW232292   0.576   2.247   4.013  0.1481  0.2959  1.3458
 6887SOL     OW32293   2.215   2.497  15.003  0.1025  0.5880 -0.2543
 6887SOL    HW132294   2.271   2.485  14.926 -3.4715 -0.4168 -2.7020
 6887SOL    HW232295   2.139   2.546  14.971  0.5036  1.1147 -0.4036
 6888SOL     OW32296   0.882   4.141   4.957  0.4919  0.0862  0.1417
 6888SOL    HW132297   0.855   4.191   5.035  1.3154  1.8056 -0.6615
 6888SOL    HW232298   0.975   4.130   4.975 -0.1135 -3.1753  1.3212
 6889SOL     OW32299   3.177   4.620   5.342 -0.2259  0.4172  0.4892
 6889SOL    HW132300   3.238   4.694   5.341  0.1746  0.0726 -0.6966
 6889SOL    HW232301   3.107   4.653   5.285  0.5326 -0.0959 -0.7544
 6890SOL     OW32302   3.158   3.124   3.861 -0.1835 -0.0328 -0.1260
 6890SOL    HW132303   3.178   3.058   3.795 -0.8447  0.3920 -0.7553
 6890SOL    HW232304   3.229   3.188   3.864  0.3790 -0.6324 -0.5700
 6891SOL     OW32305   3.187   2.575  13.329  0.2323 -0.0132 -0.2824
 6891SOL    HW132306   3.201   2.520  13.406 -1.4318  1.6518  1.2152
 6891SOL    HW232307   3.173   2.506  13.265 -0.4195  1.4665 -1.7358
 6892SOL     OW32308   1.639   0.865   0.339  0.2779 -0.0264  0.3141
 6892SOL    HW132309   1.545   0.864   0.323  0.3726 -1.1273 -0.1643
 6892SOL    HW232310   1.667   0.789   0.390  0.7515  0.7145  1.1661
 6893SOL     OW32311   2.895   1.756   8.075  0.7898 -0.3791 -0.1804
 6893SOL    HW132312   2.887   1.807   8.155  0.9238 -2.1517  0.9618
 6893SOL    HW232313   2.831   1.688   8.096  2.3466 -1.1513  2.0071
 6894SOL     OW32314   4.141   0.912   4.616 -0.4551 -0.8464  0.6281
 6894SOL    HW132315   4.049   0.894   4.635 -0.2552 -1.4186  1.0240
 6894SOL    HW232316   4.171   0.921   4.706 -1.2568 -2.6140  1.0627
 6895SOL     OW32317   0.799   1.958  13.593  0.0667 -0.4698 -0.1777
 6895SOL    HW132318   0.778   2.027  13.530 -1.6431 -1.4656 -0.6916
 6895SOL    HW232319   0.835   2.012  13.664  0.4320  2.0189 -2.2303
 6896SOL     OW32320   4.705   0.354   4.098  0.4068  0.0477 -0.5087
 6896SOL    HW132321   4.619   0.396   4.098 -0.5538 -1.9058  0.4632
 6896SOL    HW232322   4.717   0.356   4.193 -1.2398  0.0480 -0.2985
 6897SOL     OW32323   2.523   3.368   4.153 -0.6410 -0.1932 -0.3324
 6897SOL    HW132324   2.461   3.410   4.094  1.5420  1.6100 -1.3554
 6897SOL    HW232325   2.511   3.276   4.129  0.0852 -0.2876 -0.3615
 6898SOL     OW32326   3.973   2.871   9.064 -0.8989  0.0684  0.3331
 6898SOL    HW132327   4.034   2.798   9.052  0.0748  0.7070  1.4295
 6898SOL    HW232328   3.899   2.862   9.004  0.3976 -0.8246 -1.1170
 6899SOL     OW32329   2.727   3.165   8.220  0.3117  0.1916  0.4765
 6899SOL    HW132330   2.742   3.174   8.126  1.0328 -0.0574  0.5706
 6899SOL    HW232331   2.632   3.150   8.221  0.6588 -2.0841 -0.8966
 6900SOL     OW32332   4.719   1.035   7.826  0.3956  0.6120  0.4902
 6900SOL    HW132333   4.682   1.111   7.781 -1.0821  0.3646  1.2802
 6900SOL    HW232334   0.067   1.068   7.833  1.1560 -1.3859  0.0052
 6901SOL     OW32335   2.297   0.769   3.830 -0.0769 -0.3772 -0.1666
 6901SOL    HW132336   2.288   0.692   3.887  1.6055  1.6541  2.8680
 6901SOL    HW232337   2.210   0.777   3.792  0.2647 -0.9594 -1.0844
 6902SOL     OW32338   3.646   2.509   1.288 -0.2132 -0.4705  0.4413
 6902SOL    HW132339   3.585   2.567   1.243 -1.1919 -1.0456  1.0393
 6902SOL    HW232340   3.718   2.501   1.225 -1.1960  1.6771 -0.9362
 6903SOL     OW32341   0.813   3.203   6.319  0.6385  0.1314  0.2239
 6903SOL    HW132342   0.903   3.199   6.351  1.1345 -3.3218 -1.6111
 6903SOL    HW232343   0.792   3.287   6.359  2.6845  1.4603 -1.5155
 6904SOL     OW32344   1.171   0.553   9.121 -0.0933 -0.0211 -0.0521
 6904SOL    HW132345   1.178   0.537   9.215  2.5622  1.6224  0.0285
 6904SOL    HW232346   1.086   0.519   9.094 -0.3235 -0.3974  1.1669
 6905SOL     OW32347   1.373   3.281   7.141 -0.7946 -0.4340 -0.2232
 6905SOL    HW132348   1.464   3.268   7.114 -1.4170 -0.6133 -2.2715
 6905SOL    HW232349   1.367   3.226   7.218 -2.1706 -0.6208 -0.4628
 6906SOL     OW32350   2.086   4.110   6.867 -0.1194  0.5158  0.5008
 6906SOL    HW132351   2.172   4.152   6.871  1.0470 -1.7546 -0.6004
 6906SOL    HW232352   2.052   4.153   6.945  0.0025 -1.7795  1.8065
 6907SOL     OW32353   2.440   3.807   4.015 -0.1726 -0.1221  0.3185
 6907SOL    HW132354   2.522   3.857   4.011  0.0262 -0.3679  1.3631
 6907SOL    HW232355   2.456   3.728   3.963 -0.8684  0.0346 -0.1401
 6908SOL     OW32356   3.439   0.025   4.303 -0.8379 -0.4332 -0.0927
 6908SOL    HW132357   3.398   4.729   4.225  0.9959 -1.3127 -0.6253
 6908SOL    HW232358   3.405   4.705   4.368 -0.9953  1.5452  1.7049
 6909SOL     OW32359   1.077   1.715   4.595  0.2470 -0.5691  0.1679
 6909SOL    HW132360   1.093   1.769   4.672  1.2663  0.9390 -1.1115
 6909SOL    HW232361   1.139   1.748   4.531  1.7007 -0.4264  1.6600
 6910SOL     OW32362   0.295   4.511  15.003 -0.0513 -0.3047  0.0394
 6910SOL    HW132363   0.345   4.545  14.929  0.0555 -2.2887 -0.7915
 6910SOL    HW232364   0.226   4.576  15.011  0.2061 -0.0940  0.5411
 6911SOL     OW32365   4.468   2.442  12.207 -0.1826 -0.0594  0.2686
 6911SOL    HW132366   4.544   2.431  12.264 -2.5085 -0.0001  3.3814
 6911SOL    HW232367   4.479   2.394  12.125 -1.7120  1.0048 -0.5753
 6912SOL     OW32368   2.694   4.259  15.167 -0.0348  0.5241 -0.0865
 6912SOL    HW132369   2.767   4.197  15.163  0.2579  0.7418  1.9468
 6912SOL    HW232370   2.629   4.198  15.200 -0.0664 -0.3850 -1.8675
 6913SOL     OW32371   4.290   1.454   2.901  0.6398  0.6616  0.3535
 6913SOL    HW132372   4.364   1.506   2.869  0.5801  0.1796 -0.5838
 6913SOL    HW232373   4.265   1.490   2.986  0.7652  0.0687  0.6390
 6914SOL     OW32374   4.225   2.840  15.144  0.0054 -0.2055 -0.5007
 6914SOL    HW132375   4.175   2.922  15.149 -1.6286 -1.1531 -1.4503
 6914SOL    HW232376   4.287   2.864  15.075  0.3596 -0.4350 -0.2661
 6915SOL     OW32377   1.337   0.464   4.396 -0.4264 -1.0018  0.0500
 6915SOL    HW132378   1.260   0.498   4.351 -0.1215 -0.6743 -0.2126
 6915SOL    HW232379   1.300   0.439   4.481 -1.6975 -0.0874 -0.2302
 6916SOL     OW32380   0.193   3.947   4.010  0.3384 -0.3134  0.6589
 6916SOL    HW132381   0.191   3.886   4.084  1.1361 -0.1947  0.7748
 6916SOL    HW232382   0.102   3.974   3.996  0.6017  1.2238  1.9412
 6917SOL     OW32383   4.290   1.632   7.065 -0.2407 -0.3458  0.6350
 6917SOL    HW132384   4.328   1.627   7.153 -1.3023  1.3198  1.2043
 6917SOL    HW232385   4.365   1.667   7.017 -0.6081 -0.9179 -0.3453
 6918SOL     OW32386   3.723   0.360  13.176 -0.0647  0.0051 -0.1157
 6918SOL    HW132387   3.664   0.336  13.248  2.0456  1.5992  2.1135
 6918SOL    HW232388   3.766   0.278  13.153  0.1939  0.6275 -1.8373
 6919SOL     OW32389   3.774   3.704   5.091 -0.4412 -0.1133 -0.1698
 6919SOL    HW132390   3.691   3.730   5.051  1.7973  4.3100 -1.9350
 6919SOL    HW232391   3.744   3.691   5.181 -1.2871 -0.8797 -0.5565
 6920SOL     OW32392   2.526   1.034   1.344  0.1464  0.1378  0.1726
 6920SOL    HW132393   2.491   1.093   1.277 -1.2316 -0.0024  0.7636
 6920SOL    HW232394   2.507   1.089   1.419 -3.1119 -1.0627  0.2494
 6921SOL     OW32395   2.637   1.531   8.718 -0.6266 -0.3583 -0.0744
 6921SOL    HW132396   2.633   1.557   8.626 -1.5201 -2.2868 -0.5639
 6921SOL    HW232397   2.611   1.440   8.709  0.4738 -0.5332 -1.4360
 6922SOL     OW32398   0.286   1.799   5.224 -0.2101 -0.3105  0.3600
 6922SOL    HW132399   0.265   1.849   5.146 -0.6970 -0.9367  0.0927
 6922SOL    HW232400   0.237   1.852   5.288  2.5773  2.1505  0.5016
 6923SOL     OW32401   0.882   3.104   3.591 -0.5480  0.4368 -0.2363
 6923SOL    HW132402   0.811   3.102   3.655  0.7343  1.2668  1.2003
 6923SOL    HW232403   0.922   3.186   3.621 -1.9385  1.5365 -1.3511
 6924SOL     OW32404   2.115   0.380   1.918 -0.8039 -0.3504  0.7413
 6924SOL    HW132405   2.074   0.379   1.832  2.2506 -0.2237 -0.7227
 6924SOL    HW232406   2.089   0.293   1.948 -1.7287 -0.5469 -0.6416
 6925SOL     OW32407   1.800   2.103  12.048 -0.4000  0.0176 -0.2571
 6925SOL    HW132408   1.716   2.124  12.006 -0.2118  1.1319 -0.0820
 6925SOL    HW232409   1.794   2.008  12.057 -0.7470  0.3037  2.6203
 6926SOL     OW32410   2.424   1.775   3.014  0.0843  0.3267  0.9080
 6926SOL    HW132411   2.357   1.712   2.987 -0.6807  1.3176  0.4895
 6926SOL    HW232412   2.464   1.725   3.085  0.2770  0.3190  0.7939
 6927SOL     OW32413   2.602   3.602  12.419 -0.0915 -0.1835 -0.7832
 6927SOL    HW132414   2.595   3.686  12.375  2.3215  0.8113  0.7565
 6927SOL    HW232415   2.507   3.589  12.428 -0.0769  1.4298  1.6192
 6928SOL     OW32416   3.233   4.411   5.091 -0.0396  0.5792  0.4783
 6928SOL    HW132417   3.140   4.407   5.111  0.3583 -1.0416  1.9902
 6928SOL    HW232418   3.276   4.468   5.155 -0.0144 -0.1614  1.1123
 6929SOL     OW32419   4.538   0.585   6.590 -0.4482 -0.0644 -0.4246
 6929SOL    HW132420   4.511   0.524   6.659 -1.2894 -0.0293 -0.7263
 6929SOL    HW232421   4.551   0.525   6.516  1.2972 -0.3805  0.1417
 6930SOL     OW32422   0.120   3.369  10.634  0.0620  0.7729 -0.3446
 6930SOL    HW132423   0.105   3.317  10.713 -0.2864 -0.7398 -1.4017
 6930SOL    HW232424   0.071   3.328  10.562  2.4170 -0.6481 -1.1586
 6931SOL     OW32425   3.776   4.391  17.137  0.4103 -0.3430  0.2527
 6931SOL    HW132426   3.699   4.395  17.080 -2.4123  1.7643  4.2476
 6931SOL    HW232427   3.832   4.420  17.065 -2.2380  1.6121 -0.9914
 6932SOL     OW32428   2.416   2.978   4.627 -0.0276  0.2093  0.1930
 6932SOL    HW132429   2.478   3.051   4.632  0.9062 -0.4456 -1.9472
 6932SOL    HW232430   2.339   3.032   4.613 -0.0108 -0.2670 -1.6981
 6933SOL     OW32431   2.341   1.156  16.192  0.0192  0.0357  0.1952
 6933SOL    HW132432   2.292   1.145  16.273  0.0945 -0.3565  0.1847
 6933SOL    HW232433   2.318   1.247  16.172 -0.1151  0.9260  4.2919
 6934SOL     OW32434   2.539   1.416   6.577 -0.8248  0.3468 -0.6178
 6934SOL    HW132435   2.619   1.454   6.614 -0.7807  1.3119 -1.7020
 6934SOL    HW232436   2.538   1.329   6.615  1.0871  0.8166  0.5215
 6935SOL     OW32437   4.040   1.299   3.220 -0.5319  0.4981  0.0065
 6935SOL    HW132438   4.084   1.262   3.144  0.6543  1.5134  0.2074
 6935SOL    HW232439   3.949   1.268   3.218 -0.5047  0.3418  1.0893
 6936SOL     OW32440   3.107   0.980   2.331 -0.0201 -0.3328 -0.0364
 6936SOL    HW132441   3.164   0.910   2.300  1.5495  0.9958 -0.1795
 6936SOL    HW232442   3.105   0.962   2.425 -1.6358  0.9664  0.1888
 6937SOL     OW32443   0.784   0.263  16.176  0.3679 -0.1542  0.4249
 6937SOL    HW132444   0.738   0.179  16.172  1.5146 -0.6713 -2.3784
 6937SOL    HW232445   0.832   0.266  16.258  0.6600 -0.8055  0.2767
 6938SOL     OW32446   3.131   2.199   2.155  0.5934 -0.4949 -0.0153
 6938SOL    HW132447   3.172   2.279   2.123  0.3456 -2.5195 -5.2942
 6938SOL    HW232448   3.039   2.221   2.145  1.2243  2.9587  1.8903
 6939SOL     OW32449   3.044   2.281  15.081  0.1250 -0.2219  0.0686
 6939SOL    HW132450   3.037   2.341  15.155 -0.9750  1.8501 -1.7170
 6939SOL    HW232451   3.121   2.232  15.111  0.7399  0.7938  0.1337
 6940SOL     OW32452   2.791   0.065  13.169  0.3486 -0.3157 -0.4328
 6940SOL    HW132453   2.863   0.060  13.231 -0.3227 -0.3637  0.3470
 6940SOL    HW232454   2.735   0.127  13.217  0.9199 -1.1628  1.3212
 6941SOL     OW32455   0.958   4.373  16.453  0.1704  0.3597 -0.4979
 6941SOL    HW132456   0.922   4.461  16.445 -0.8818 -0.0038  0.2249
 6941SOL    HW232457   1.022   4.372  16.382 -1.0086 -0.4143 -1.5507
 6942SOL     OW32458   1.814   4.626   3.626 -0.4786  0.0777  0.4098
 6942SOL    HW132459   1.795   4.709   3.671  0.2731  0.1169  0.6559
 6942SOL    HW232460   1.779   4.562   3.688 -0.5667 -0.3270 -0.0559
 6943SOL     OW32461   1.016   3.197   7.734 -0.1297  0.4844 -0.5685
 6943SOL    HW132462   1.086   3.252   7.700  0.1426  0.5377  0.0939
 6943SOL    HW232463   0.988   3.248   7.810  0.9320 -1.3473  1.0175
 6944SOL     OW32464   2.252   0.246   8.758 -0.3013  0.4120 -0.0635
 6944SOL    HW132465   2.332   0.299   8.765 -0.5197  0.7581 -0.2014
 6944SOL    HW232466   2.219   0.241   8.847 -0.0374  1.5154  0.0990
 6945SOL     OW32467   2.460   3.829   0.203  0.3310 -0.1256 -0.4344
 6945SOL    HW132468   2.434   3.747   0.245  0.4300 -1.7447 -3.5250
 6945SOL    HW232469   2.437   3.894   0.269  1.5954 -0.5434  0.4103
 6946SOL     OW32470   3.940   4.154  17.556 -0.0346 -0.3537 -0.5723
 6946SOL    HW132471   3.896   4.239  17.551  0.9336  0.2955  1.8349
 6946SOL    HW232472   4.015   4.166  17.499  0.5250  1.4391  0.5348
 6947SOL     OW32473   3.446   0.696  11.395 -0.6535 -0.0251 -0.2756
 6947SOL    HW132474   3.372   0.747  11.362 -0.4571  0.4354 -0.0075
 6947SOL    HW232475   3.435   0.689  11.490 -2.6801  0.4571 -0.4780
 6948SOL     OW32476   4.080   0.276  13.855  0.4560 -0.3779  0.3065
 6948SOL    HW132477   4.142   0.286  13.782  1.2693  1.3184  1.2352
 6948SOL    HW232478   4.084   0.180  13.856  0.8081 -0.3810 -1.2012
 6949SOL     OW32479   0.421   4.145  10.560 -0.4031 -0.3388  0.8046
 6949SOL    HW132480   0.465   4.189  10.633 -2.1493  0.0021  1.6525
 6949SOL    HW232481   0.398   4.059  10.595  1.6797 -1.3052 -0.1850
 6950SOL     OW32482   2.977   0.152   9.732 -0.2913 -0.5562  0.1942
 6950SOL    HW132483   2.938   0.067   9.754  2.2703 -2.1692 -1.5275
 6950SOL    HW232484   3.065   0.119   9.745 -0.6613 -1.1511  1.1252
 6951SOL     OW32485   1.751   1.504   2.976 -0.3932 -0.4080 -0.4135
 6951SOL    HW132486   1.662   1.520   2.945  0.0197  0.1992 -1.3246
 6951SOL    HW232487   1.747   1.536   3.066 -1.9102  2.3846 -1.4692
 6952SOL     OW32488   2.984   0.730   9.155  0.1403 -1.1445 -0.1854
 6952SOL    HW132489   3.001   0.673   9.080 -1.9559 -2.1865  0.1105
 6952SOL    HW232490   3.010   0.669   9.225  3.3459 -0.6355 -0.9628
 6953SOL     OW32491   4.261   0.591   1.998 -0.8949  0.4238  0.2147
 6953SOL    HW132492   4.172   0.559   1.983 -1.8835  3.3973 -0.3179
 6953SOL    HW232493   4.244   0.679   2.033  1.5964  1.0437 -0.0762
 6954SOL     OW32494   0.273   0.784   5.951  0.2690  0.5104  0.4539
 6954SOL    HW132495   0.232   0.870   5.939 -0.0770  0.1774 -0.7929
 6954SOL    HW232496   0.356   0.798   5.906 -0.5598  0.6064 -1.0545
 6955SOL     OW32497   1.469   3.123   6.214  0.5166 -0.0166  0.2012
 6955SOL    HW132498   1.527   3.184   6.167  0.2015 -0.9129 -1.3766
 6955SOL    HW232499   1.520   3.042   6.209  1.6534  0.6898  0.6561
 6956SOL     OW32500   0.308   2.575   6.825 -0.2042  0.1814 -0.0626
 6956SOL    HW132501   0.361   2.643   6.868 -1.4443  0.9584  0.2606
 6956SOL    HW232502   0.238   2.560   6.888  1.5523  0.2500  1.9321
 6957SOL     OW32503   3.393   0.887   6.906  0.2368  0.1386 -0.8591
 6957SOL    HW132504   3.328   0.902   6.837  0.8167  0.9025 -1.2331
 6957SOL    HW232505   3.424   0.798   6.891  0.8598  0.0362  1.0268
 6958SOL     OW32506   2.306   1.246   6.831  0.0556 -0.4896  0.0283
 6958SOL    HW132507   2.281   1.331   6.793  0.3098 -0.9316 -1.1394
 6958SOL    HW232508   2.223   1.200   6.831 -0.6304  0.7746  1.5887
 6959SOL     OW32509   0.768   3.455   8.445 -0.4148  0.1356 -0.1295
 6959SOL    HW132510   0.830   3.526   8.429 -2.2593  1.9828  0.9553
 6959SOL    HW232511   0.778   3.403   8.364  1.6071 -2.9686  2.0984
 6960SOL     OW32512   4.413   4.204  13.453 -0.2856 -0.0073 -0.3555
 6960SOL    HW132513   4.427   4.286  13.405 -0.3761  1.3599  1.9436
 6960SOL    HW232514   4.464   4.227  13.531  0.0991  2.4837 -1.3295
 6961SOL     OW32515   0.020   4.653   4.812  0.2709 -0.3382 -0.5261
 6961SOL    HW132516   4.695   4.637   4.879  0.1056 -1.4988 -0.9593
 6961SOL    HW232517   0.084   4.584   4.828  0.4001 -0.0392  0.2326
 6962SOL     OW32518   1.996   1.915   6.983 -0.0511 -0.3064 -0.0502
 6962SOL    HW132519   2.000   2.010   6.975  0.5760 -0.1274  2.3095
 6962SOL    HW232520   1.919   1.903   6.927 -0.3159  1.0042  0.0396
 6963SOL     OW32521   2.601   4.017   1.680  0.1789  0.0089  0.2055
 6963SOL    HW132522   2.556   3.966   1.613  0.8823 -2.8624  1.9097
 6963SOL    HW232523   2.601   3.951   1.749  0.0882  0.0861  0.2805
 6964SOL     OW32524   2.213   3.197   6.582  0.0667  0.3492 -0.0973
 6964SOL    HW132525   2.271   3.214   6.508 -1.8410 -0.0638 -1.6618
 6964SOL    HW232526   2.230   3.103   6.594  0.6631  0.4231 -0.3581
 6965SOL     OW32527   4.306   4.256  10.767  0.6787  0.3334 -0.0559
 6965SOL    HW132528   4.335   4.329  10.712  1.6575 -0.1344 -0.1529
 6965SOL    HW232529   4.379   4.195  10.768  0.7609  0.4341  0.3505
 6966SOL     OW32530   3.306   3.790   8.270  0.7645 -0.4300 -0.2198
 6966SOL    HW132531   3.249   3.752   8.203  0.9733  0.8238 -1.1066
 6966SOL    HW232532   3.386   3.739   8.262  0.1983 -1.5596  1.3995
 6967SOL     OW32533   2.831   3.254   1.090 -0.3819  0.1472  0.2330
 6967SOL    HW132534   2.778   3.264   1.169  2.8232  0.0302  2.3856
 6967SOL    HW232535   2.881   3.182   1.128  2.3121  1.7734 -0.2421
 6968SOL     OW32536   1.482   1.794   6.793 -0.5418 -0.1671  0.7099
 6968SOL    HW132537   1.444   1.725   6.847 -3.2769  0.7661 -0.0117
 6968SOL    HW232538   1.410   1.856   6.787  0.0007  0.4397  0.5129
 6969SOL     OW32539   2.929   3.344  12.419 -0.1475  0.0282 -0.2764
 6969SOL    HW132540   2.999   3.287  12.386 -1.3051 -1.4944 -0.0847
 6969SOL    HW232541   2.953   3.339  12.512  1.1561  2.8879 -0.4426
 6970SOL     OW32542   1.421   2.970   1.334  0.0248  0.2945  0.3332
 6970SOL    HW132543   1.450   3.059   1.311 -1.2762  0.0835 -2.1518
 6970SOL    HW232544   1.508   2.929   1.329 -0.1000  0.0153  0.4752
 6971SOL     OW32545   3.427   3.844   9.621  0.2949  0.3467 -0.4095
 6971SOL    HW132546   3.432   3.919   9.562 -0.2601 -0.0251 -0.9314
 6971SOL    HW232547   3.412   3.771   9.560  0.8495  1.2713 -1.6375
 6972SOL     OW32548   0.499   3.841   7.824  0.1764  0.2424 -0.1534
 6972SOL    HW132549   0.490   3.799   7.739  0.2976 -0.5442  0.2167
 6972SOL    HW232550   0.523   3.924   7.785  0.3682 -0.4312 -1.4508
 6973SOL     OW32551   1.452   4.145   9.724  0.4698 -0.6340 -0.6779
 6973SOL    HW132552   1.424   4.075   9.664  0.4253 -1.7763  0.6770
 6973SOL    HW232553   1.478   4.211   9.659 -2.8675  1.0432 -0.2757
 6974SOL     OW32554   3.903   0.801  12.209  0.2547 -0.4572  0.0504
 6974SOL    HW132555   3.904   0.705  12.215 -1.9175 -0.4519  0.1670
 6974SOL    HW232556   3.822   0.833  12.248 -1.6682 -3.5521 -1.4199
 6975SOL     OW32557   0.018   3.593   5.480  0.3704  0.0898  0.0564
 6975SOL    HW132558   0.107   3.629   5.477 -0.7175  2.8090  1.2562
 6975SOL    HW232559   4.730   3.580   5.390 -1.6406 -1.0751  0.8626
 6976SOL     OW32560   4.707   1.553  14.868  0.3354  0.1506 -0.2720
 6976SOL    HW132561   4.664   1.563  14.954  1.3115  1.1221  0.1102
 6976SOL    HW232562   4.661   1.479  14.828 -1.9055  0.4940  1.6527
 6977SOL     OW32563   1.625   2.435   1.539 -0.3703  0.1592 -0.2452
 6977SOL    HW132564   1.688   2.393   1.481  1.4341  0.2305  1.6360
 6977SOL    HW232565   1.548   2.448   1.485 -0.2223  0.2802 -0.4266
 6978SOL     OW32566   2.645   1.195  14.044 -0.5479  0.6481 -0.7639
 6978SOL    HW132567   2.574   1.140  14.078  1.3583 -0.0473  2.1380
 6978SOL    HW232568   2.645   1.161  13.955  2.4793 -2.5356  0.4228
 6979SOL     OW32569   1.644   2.466   5.371 -0.2907  0.2440 -0.6531
 6979SOL    HW132570   1.561   2.455   5.417  0.0096 -0.6494 -0.3133
 6979SOL    HW232571   1.702   2.483   5.445  0.5620 -5.0434 -0.0827
 6980SOL     OW32572   3.783   3.609   1.030  0.1697 -0.4922  0.0054
 6980SOL    HW132573   3.768   3.560   1.111 -1.6422  0.0783 -0.0004
 6980SOL    HW232574   3.870   3.640   1.057  0.3206  0.0725 -1.1466
 6981SOL     OW32575   0.202   4.728   8.127 -0.1987 -0.6773 -0.1969
 6981SOL    HW132576   0.114   4.709   8.095 -1.2518  1.6508  1.3276
 6981SOL    HW232577   0.204   4.644   8.173 -0.2493 -0.5594  0.0172
 6982SOL     OW32578   3.537   4.098   5.427  0.0584  0.3245  0.3085
 6982SOL    HW132579   3.577   4.120   5.343  0.1191  2.2520  0.8459
 6982SOL    HW232580   3.489   4.019   5.400  0.8345  0.1931 -0.6798
 6983SOL     OW32581   1.411   0.141   2.974 -0.3609  0.6692  0.9694
 6983SOL    HW132582   1.418   0.097   3.059 -0.3613 -1.9457 -0.3941
 6983SOL    HW232583   1.487   0.198   2.975 -1.4515  2.1503 -1.1348
 6984SOL     OW32584   0.593   2.319   5.476  0.3622 -0.4039 -0.5761
 6984SOL    HW132585   0.633   2.274   5.551  1.2635  0.4535 -0.5412
 6984SOL    HW232586   0.645   2.295   5.399  0.0654  2.2399 -1.6064
 6985SOL     OW32587   0.869   3.918   6.103 -0.4573 -0.0992 -0.9724
 6985SOL    HW132588   0.809   3.972   6.155 -0.8831 -0.3581 -1.1902
 6985SOL    HW232589   0.845   3.828   6.125  0.3653 -0.2450 -0.6928
 6986SOL     OW32590   3.687   0.499   4.311  0.3634  0.5919 -0.1296
 6986SOL    HW132591   3.641   0.577   4.342  0.4796  0.6532 -0.1124
 6986SOL    HW232592   3.619   0.432   4.298  1.2778  0.1845 -2.7651
 6987SOL     OW32593   1.158   2.106  12.060 -0.3302  0.3725 -0.2300
 6987SOL    HW132594   1.154   2.184  12.006  2.3052 -0.5542 -1.7460
 6987SOL    HW232595   1.139   2.040  11.993  1.4633  1.4791 -1.8212
 6988SOL     OW32596   2.583   1.211   2.883 -0.0853 -0.0455  0.6084
 6988SOL    HW132597   2.631   1.222   2.965  1.7646  0.0307 -0.4733
 6988SOL    HW232598   2.650   1.244   2.823  0.2692 -1.7033  0.1165
 6989SOL     OW32599   1.574   3.881  11.473 -0.4224  0.3012 -0.8158
 6989SOL    HW132600   1.643   3.896  11.538 -2.5779 -0.2441  1.5538
 6989SOL    HW232601   1.522   3.961  11.480  1.7994  1.7652 -0.7269
 6990SOL     OW32602   3.396   1.224  11.054  0.1858 -0.5438  0.2262
 6990SOL    HW132603   3.441   1.205  11.136  0.3099 -2.7364 -0.3593
 6990SOL    HW232604   3.344   1.144  11.044  0.4340 -0.6847  0.0577
 6991SOL     OW32605   0.866   3.451   3.392 -0.5049 -0.8681  0.8034
 6991SOL    HW132606   0.855   3.510   3.317  1.4571 -0.1834  1.0479
 6991SOL    HW232607   0.778   3.429   3.422 -0.1106  0.1490  2.7518
 6992SOL     OW32608   1.190   1.040   1.565  0.1205  0.7450 -0.0441
 6992SOL    HW132609   1.117   0.981   1.587  0.0742 -0.3721 -3.2440
 6992SOL    HW232610   1.144   1.105   1.511 -0.6414 -1.3331 -1.9233
 6993SOL     OW32611   4.349   2.180   1.907  0.2768  0.1051  0.4041
 6993SOL    HW132612   4.292   2.201   1.832  1.4212 -1.4902 -0.9194
 6993SOL    HW232613   4.289   2.217   1.971  2.5072  1.5013  1.6902
 6994SOL     OW32614   3.679   0.760   7.174  0.4293 -0.4265  0.6049
 6994SOL    HW132615   3.652   0.713   7.252  3.0551  3.1113  3.6113
 6994SOL    HW232616   3.699   0.846   7.211 -0.9405 -0.2322  0.8736
 6995SOL     OW32617   4.364   2.266   1.137  0.4345 -0.5863 -0.1730
 6995SOL    HW132618   4.454   2.300   1.142  0.3386 -0.8180  2.9521
 6995SOL    HW232619   4.342   2.264   1.043  0.4845 -0.4606 -0.1875
 6996SOL     OW32620   4.136   4.236   3.851 -0.0984  0.4496  0.6732
 6996SOL    HW132621   4.157   4.314   3.902  0.1834  0.3805  0.6614
 6996SOL    HW232622   4.042   4.245   3.835 -0.0312 -1.8565 -0.9492
 6997SOL     OW32623   2.808   2.728   6.136 -0.8875 -0.3121  0.8010
 6997SOL    HW132624   2.745   2.710   6.066  1.2312 -0.5806 -1.0242
 6997SOL    HW232625   2.898   2.710   6.108 -1.1529 -0.3796 -0.0076
 6998SOL     OW32626   0.457   0.604   8.197 -0.6892  0.3801  0.1050
 6998SOL    HW132627   0.515   0.665   8.242  0.2622  1.0640 -2.0515
 6998SOL    HW232628   0.405   0.664   8.144 -3.4569 -2.4828 -0.4063
 6999SOL     OW32629   3.821   0.204  12.319 -0.4428 -0.1762  0.1503
 6999SOL    HW132630   3.800   0.236  12.406 -0.0479 -2.5614  1.1183
 6999SOL    HW232631   3.916   0.210  12.313 -0.4226 -0.4078  0.2688
 7000SOL     OW32632   3.187   3.640   2.347 -0.3000 -0.3084  0.3250
 7000SOL    HW132633   3.252   3.610   2.411 -0.7855  0.7974  1.3193
 7000SOL    HW232634   3.149   3.557   2.319  0.7440  0.1040 -2.2936
 7001SOL     OW32635   1.240   3.287   6.683  0.0624  0.0832 -0.2845
 7001SOL    HW132636   1.265   3.215   6.742 -2.9713  1.0736  2.2556
 7001SOL    HW232637   1.323   3.333   6.674  0.8074 -1.1062  0.5042
 7002SOL     OW32638   3.804   4.452  11.483  0.0905 -0.0302 -0.2717
 7002SOL    HW132639   3.824   4.478  11.393  1.7448 -3.3959 -0.8762
 7002SOL    HW232640   3.855   4.518  11.530  0.6041 -0.9293  0.4259
 7003SOL     OW32641   4.388   2.627   9.917  0.2287 -0.0646 -0.3035
 7003SOL    HW132642   4.378   2.707   9.866 -5.4023 -0.8864 -0.5234
 7003SOL    HW232643   4.360   2.563   9.851 -0.2352 -1.1197  0.9088
 7004SOL     OW32644   4.511   0.349   5.774 -0.2537 -0.4397  0.4942
 7004SOL    HW132645   4.508   0.258   5.802  0.7880 -0.1878  1.4380
 7004SOL    HW232646   4.606   0.364   5.767 -0.7252  1.6692 -1.5587
 7005SOL     OW32647   3.291   2.477   3.248  0.2206  0.0790 -0.4441
 7005SOL    HW132648   3.215   2.495   3.304 -0.9070  0.1546 -1.9811
 7005SOL    HW232649   3.324   2.566   3.250  1.6830 -0.5136  2.1210
 7006SOL     OW32650   3.313   2.581   4.401 -0.6521  0.0392 -0.3731
 7006SOL    HW132651   3.381   2.586   4.468 -0.9654  0.2162 -0.0723
 7006SOL    HW232652   3.261   2.514   4.445  1.6695 -1.2125  0.4612
 7007SOL     OW32653   4.063   3.471   6.343  0.1054 -0.2440  0.5598
 7007SOL    HW132654   3.972   3.441   6.336 -0.1368  0.5796  0.0821
 7007SOL    HW232655   4.109   3.409   6.286 -0.8695  0.2652 -0.7883
 7008SOL     OW32656   1.576   4.107   6.315 -0.7230  1.0781  0.7917
 7008SOL    HW132657   1.484   4.132   6.307 -1.3168 -1.2778  0.0754
 7008SOL    HW232658   1.572   4.068   6.403 -0.8748  1.6960  1.0565
 7009SOL     OW32659   3.069   1.003   9.089 -0.5552 -0.2789 -0.5520
 7009SOL    HW132660   3.155   0.970   9.064 -0.7179 -1.4986  0.4876
 7009SOL    HW232661   3.030   0.930   9.139 -1.4495  0.6024  0.0424
 7010SOL     OW32662   2.032   3.885  10.826  0.0121 -0.4812  0.0059
 7010SOL    HW132663   2.085   3.951  10.869 -0.7155 -0.9234  1.5811
 7010SOL    HW232664   2.003   3.828  10.898  0.7201 -0.3620  0.3842
 7011SOL     OW32665   1.233   4.058   8.173  0.1694 -0.6748  0.4704
 7011SOL    HW132666   1.232   3.971   8.212 -2.6370 -0.7129  0.3417
 7011SOL    HW232667   1.202   4.114   8.245  1.2144  1.2855 -0.6137
 7012SOL     OW32668   2.410   2.701   6.625  0.3142 -0.0226 -0.0260
 7012SOL    HW132669   2.370   2.614   6.630  0.1919  0.2580  3.2950
 7012SOL    HW232670   2.477   2.685   6.690 -1.4833  1.1690  2.1365
 7013SOL     OW32671   1.301   1.271  12.286 -0.0220 -0.2275  0.2395
 7013SOL    HW132672   1.317   1.324  12.364 -0.5786  3.3374 -2.0888
 7013SOL    HW232673   1.339   1.195  12.332  1.1573  0.7312  0.8547
 7014SOL     OW32674   3.432   4.117   9.208 -0.0090  0.2971  0.5033
 7014SOL    HW132675   3.449   4.025   9.187  2.8727  0.9124  0.2019
 7014SOL    HW232676   3.518   4.152   9.186 -1.1234  2.8735  0.2525
 7015SOL     OW32677   4.103   3.100   0.777 -0.0026 -0.8233  0.3010
 7015SOL    HW132678   4.015   3.109   0.741  1.0328  1.2105 -1.7344
 7015SOL    HW232679   4.111   3.174   0.838  2.6585 -1.8442  1.2057
 7016SOL     OW32680   0.501   3.784   8.251 -0.6766  0.1597 -0.0819
 7016SOL    HW132681   0.569   3.852   8.259 -0.9089  0.2835  0.8197
 7016SOL    HW232682   0.459   3.783   8.337 -1.5611 -1.6147 -0.5422
 7017SOL     OW32683   3.953   1.597   3.974  0.0173  0.3516  0.2058
 7017SOL    HW132684   3.950   1.505   3.948 -2.1256  1.3630 -3.1269
 7017SOL    HW232685   3.912   1.609   4.060  0.4557  0.0968  0.4464
 7018SOL     OW32686   4.171   3.547   7.683  0.2535  0.0508  0.1059
 7018SOL    HW132687   4.116   3.624   7.666  0.0971 -0.0723  0.0665
 7018SOL    HW232688   4.117   3.501   7.746  1.3242 -1.3471  0.0164
 7019SOL     OW32689   3.103   1.851  15.185 -0.0459  0.5057 -0.4608
 7019SOL    HW132690   3.123   1.768  15.229  0.2507  1.8632  1.9773
 7019SOL    HW232691   3.009   1.835  15.174 -0.0555  0.3686 -0.1737
 7020SOL     OW32692   1.938   1.315   1.204  0.2816  0.6831  0.3266
 7020SOL    HW132693   1.890   1.326   1.287 -0.8521 -2.6698  0.1239
 7020SOL    HW232694   1.865   1.296   1.146  0.7827 -1.0723  0.2538
 7021SOL     OW32695   0.885   3.671   8.339 -0.4453  0.2563 -0.4132
 7021SOL    HW132696   0.881   3.766   8.348 -0.6799  0.1408  0.6837
 7021SOL    HW232697   0.846   3.650   8.254  1.1929  4.2502 -2.1648
 7022SOL     OW32698   1.989   1.366   5.362  0.6166 -0.1141 -0.2970
 7022SOL    HW132699   2.034   1.286   5.388 -0.4756 -1.1545 -1.6055
 7022SOL    HW232700   1.914   1.372   5.421  1.2024  0.9268  0.3378
 7023SOL     OW32701   2.424   0.907   5.656  0.5352 -0.3148  0.3895
 7023SOL    HW132702   2.472   0.953   5.726  1.9114 -1.5750  0.2866
 7023SOL    HW232703   2.467   0.949   5.581 -0.2655 -0.2792 -0.0417
 7024SOL     OW32704   3.698   2.845   7.148  0.1595  0.6005 -0.3556
 7024SOL    HW132705   3.687   2.823   7.241  3.1281 -2.2117 -0.6689
 7024SOL    HW232706   3.611   2.862   7.111 -0.7215 -0.9868  0.9604
 7025SOL     OW32707   1.041   1.888  10.461 -0.1004  0.1699  0.0592
 7025SOL    HW132708   1.003   1.801  10.466 -0.2986  0.1062 -2.7667
 7025SOL    HW232709   1.085   1.894  10.376 -0.6526  2.3035 -0.0885
 7026SOL     OW32710   2.201   0.045  15.179  0.2396  0.3410 -0.7666
 7026SOL    HW132711   2.168   0.131  15.206  0.0924  0.0326  0.0579
 7026SOL    HW232712   2.126   4.726  15.182  1.3687 -1.0542 -0.2618
 7027SOL     OW32713   1.554   2.971  12.226  0.6633  0.4335  0.0413
 7027SOL    HW132714   1.579   2.905  12.290  0.5902 -0.2538 -0.6372
 7027SOL    HW232715   1.466   2.939  12.211  0.9227  1.3785 -3.5394
 7028SOL     OW32716   3.995   2.211   9.245 -0.4836 -0.4441  0.2839
 7028SOL    HW132717   4.090   2.226   9.248 -0.6444  0.9317 -1.9900
 7028SOL    HW232718   3.984   2.116   9.239 -3.5866 -0.0937  0.7056
 7029SOL     OW32719   1.921   2.762   7.238  0.4239  0.3393 -0.0519
 7029SOL    HW132720   1.996   2.799   7.191 -0.4660  0.4098 -1.4238
 7029SOL    HW232721   1.926   2.807   7.323 -0.5437  1.1059 -0.3995
 7030SOL     OW32722   2.641   0.999   6.991 -0.1789 -0.2776 -0.3281
 7030SOL    HW132723   2.613   1.063   7.057  0.4084 -2.8405  2.3856
 7030SOL    HW232724   2.701   1.056   6.943 -2.6278 -0.0702 -3.1142
 7031SOL     OW32725   2.644   4.624   5.056  0.2147 -0.4404  0.2748
 7031SOL    HW132726   2.676   4.661   5.139  1.7397 -0.7867 -0.1573
 7031SOL    HW232727   2.558   4.662   5.039 -0.3067 -2.3470 -1.2886
 7032SOL     OW32728   4.343   2.088   7.944 -0.0427 -0.3455 -0.0195
 7032SOL    HW132729   4.319   2.088   7.852  2.1679  0.1502 -0.5723
 7032SOL    HW232730   4.433   2.119   7.940 -0.1380 -0.2016 -0.9759
 7033SOL     OW32731   3.653   1.074   4.871 -0.2579 -0.4657 -1.0108
 7033SOL    HW132732   3.677   0.988   4.906 -0.4114  1.4252  3.7496
 7033SOL    HW232733   3.711   1.132   4.921  0.6782 -2.5552  0.3421
 7034SOL     OW32734   0.864   0.584   6.179 -0.2249 -0.4155 -0.2051
 7034SOL    HW132735   0.960   0.585   6.169  0.0519 -0.5881  2.4617
 7034SOL    HW232736   0.858   0.594   6.274 -1.1130 -0.6782 -0.2345
 7035SOL     OW32737   2.435   1.898   5.786  0.2701  0.7836  0.3251
 7035SOL    HW132738   2.394   1.833   5.842 -0.5139  0.9714 -0.0398
 7035SOL    HW232739   2.386   1.894   5.704 -1.0044  2.3540  1.0198
 7036SOL     OW32740   3.230   3.379  10.347  0.1889 -0.2192  0.1185
 7036SOL    HW132741   3.214   3.355  10.439  1.9125 -0.1893  0.4112
 7036SOL    HW232742   3.142   3.374  10.308 -1.0652 -0.8107  3.0160
 7037SOL     OW32743   0.680   3.604   5.086 -0.4384 -0.3912 -0.5114
 7037SOL    HW132744   0.689   3.692   5.050 -1.4061  0.0291  0.2628
 7037SOL    HW232745   0.621   3.566   5.020 -2.0507  0.7168  0.2971
 7038SOL     OW32746   0.259   2.772   4.489 -0.1412 -0.0993 -0.2187
 7038SOL    HW132747   0.351   2.769   4.462  0.0554  0.4737  0.3734
 7038SOL    HW232748   0.250   2.681   4.517 -1.0436 -0.0827 -0.4642
 7039SOL     OW32749   2.158   1.627  16.348  0.8627  0.1578  0.0916
 7039SOL    HW132750   2.109   1.707  16.332 -1.6824 -1.2238  1.0177
 7039SOL    HW232751   2.105   1.591  16.420 -0.3821  1.1661 -0.3228
 7040SOL     OW32752   0.484   2.037  17.406 -0.1618 -0.3787 -0.6856
 7040SOL    HW132753   0.416   2.076  17.461  0.9290 -0.1672  0.5050
 7040SOL    HW232754   0.449   1.950  17.389 -0.4662 -0.8272  2.3127
 7041SOL     OW32755   3.660   3.469   3.707 -0.0497 -0.3937 -0.4531
 7041SOL    HW132756   3.654   3.419   3.789  0.0850  2.3999  1.2404
 7041SOL    HW232757   3.727   3.412   3.669 -1.2119 -2.0934  0.0287
 7042SOL     OW32758   2.207   0.360   3.558  0.8522 -0.4817 -0.1860
 7042SOL    HW132759   2.251   0.296   3.614  2.0307  0.2803 -0.2434
 7042SOL    HW232760   2.165   0.418   3.621 -0.9763 -0.7439 -1.1516
 7043SOL     OW32761   1.144   4.107   4.707  0.7059  0.2142 -0.5762
 7043SOL    HW132762   1.158   4.140   4.618 -0.1119 -2.2956 -1.6596
 7043SOL    HW232763   1.136   4.191   4.751  0.5392 -0.2861  0.3604
 7044SOL     OW32764   3.501   1.110   9.899 -0.1001  0.2499  0.1163
 7044SOL    HW132765   3.545   1.033   9.863 -0.2879  0.9542 -1.6001
 7044SOL    HW232766   3.570   1.173   9.921 -1.0134  1.4390 -0.4429
 7045SOL     OW32767   1.429   0.009  13.831  0.0933 -0.2844 -0.0403
 7045SOL    HW132768   1.486   0.012  13.753 -1.3047  0.0976 -1.0467
 7045SOL    HW232769   1.444   0.092  13.874  0.0960 -0.7824  0.9115
 7046SOL     OW32770   0.273   0.829  14.016  0.3564 -0.8298  1.0530
 7046SOL    HW132771   0.257   0.910  14.064  0.1420 -0.3469  0.1694
 7046SOL    HW232772   0.268   0.856  13.924  0.3036 -1.5676  0.8375
 7047SOL     OW32773   3.450   0.380  13.630  0.3890 -0.4016 -0.0247
 7047SOL    HW132774   3.520   0.434  13.666  0.8390  0.3784 -2.0545
 7047SOL    HW232775   3.453   0.300  13.682  0.7671  1.1186  2.2719
 7048SOL     OW32776   4.669   2.305   9.357 -0.0822  0.1920  0.0760
 7048SOL    HW132777   4.731   2.372   9.328  1.0489 -0.1274  1.7301
 7048SOL    HW232778   4.703   2.221   9.328  2.9341  1.5361 -0.2723
 7049SOL     OW32779   4.594   1.774   4.697 -0.1165 -0.1854  0.0658
 7049SOL    HW132780   4.682   1.736   4.705 -0.1838 -0.2512  0.4503
 7049SOL    HW232781   4.554   1.775   4.783  0.9388  1.4869  0.5544
 7050SOL     OW32782   1.143   0.180   4.103  0.2340  0.4464  0.2144
 7050SOL    HW132783   1.159   0.090   4.130 -0.1192  0.6854  1.2241
 7050SOL    HW232784   1.216   0.229   4.140  0.3832 -0.4183  1.0760
 7051SOL     OW32785   4.671   1.770  16.379  0.0189 -0.8464  1.2556
 7051SOL    HW132786   4.711   1.857  16.385 -1.7293  0.0032  0.7561
 7051SOL    HW232787   4.721   1.739  16.304  1.6088 -0.2351  2.0605
 7052SOL     OW32788   2.572   4.057  17.100  0.0836 -0.2753 -0.2469
 7052SOL    HW132789   2.617   4.108  17.167 -0.4806 -1.8174  1.3013
 7052SOL    HW232790   2.547   4.130  17.043 -1.0172 -1.6071 -1.4741
 7053SOL     OW32791   1.996   2.349   3.401  0.2928 -0.0125 -0.0811
 7053SOL    HW132792   2.033   2.339   3.489 -0.9129  1.4253  0.5946
 7053SOL    HW232793   2.031   2.275   3.352  1.4625  0.1987  0.4417
 7054SOL     OW32794   1.061   0.370  15.764  0.3634 -0.8024 -0.2434
 7054SOL    HW132795   1.033   0.461  15.759 -0.0062 -0.8177  1.6977
 7054SOL    HW232796   0.996   0.334  15.824 -0.3597 -0.8053 -1.0214
 7055SOL     OW32797   3.138   4.662   4.254  0.3217 -0.5228  0.5200
 7055SOL    HW132798   3.135   4.566   4.253  2.6351 -0.5870 -1.0061
 7055SOL    HW232799   3.069   4.681   4.190  1.5340 -0.6505 -0.8317
 7056SOL     OW32800   4.704   3.238   7.933 -0.1008  0.0775 -0.3499
 7056SOL    HW132801   4.653   3.165   7.898  0.2335 -1.7634  3.0065
 7056SOL    HW232802   0.049   3.229   7.892  0.5924  1.1871  0.8941
 7057SOL     OW32803   3.202   4.031   8.308  0.3834 -0.0013 -0.4064
 7057SOL    HW132804   3.260   3.958   8.286  0.9077  0.5253 -0.7838
 7057SOL    HW232805   3.124   3.979   8.327  0.6508 -0.0011  0.6669
 7058SOL     OW32806   1.245   3.560   9.259 -0.3367 -0.3114 -0.1480
 7058SOL    HW132807   1.172   3.590   9.206  1.6206  2.7044 -1.1228
 7058SOL    HW232808   1.316   3.598   9.208  1.9837 -3.7142  0.5534
 7059SOL     OW32809   2.549   0.814   4.192  0.1071  0.1602 -0.3215
 7059SOL    HW132810   2.474   0.770   4.151  0.2054 -0.2742 -0.0311
 7059SOL    HW232811   2.550   0.900   4.150 -2.1334  0.3448 -0.0170
 7060SOL     OW32812   1.764   2.448   2.470 -0.2252  0.1799  0.2847
 7060SOL    HW132813   1.726   2.385   2.409  0.9167 -0.5111  0.2882
 7060SOL    HW232814   1.853   2.412   2.476 -0.7295 -0.8134  1.8462
 7061SOL     OW32815   3.723   2.027   1.637  0.1068 -0.3693 -0.3821
 7061SOL    HW132816   3.717   2.073   1.721  0.1276 -2.1203  0.5828
 7061SOL    HW232817   3.769   2.087   1.579  0.8253 -2.2292 -1.7301
 7062SOL     OW32818   3.723   0.100  13.961 -0.3805 -0.3473 -0.3067
 7062SOL    HW132819   3.722   0.016  13.914  4.5904 -0.3302 -0.4112
 7062SOL    HW232820   3.643   0.142  13.930  0.0555  0.0349 -0.9340
 7063SOL     OW32821   4.028   2.609  11.797  0.3392 -0.1828 -0.0052
 7063SOL    HW132822   4.007   2.643  11.884  2.2733  0.5528  0.1939
 7063SOL    HW232823   4.117   2.646  11.792 -0.0961  0.6912 -1.2572
 7064SOL     OW32824   4.491   2.892   8.081  0.2311  0.0997 -0.1786
 7064SOL    HW132825   4.478   2.903   8.176 -0.6934 -2.3945 -0.0191
 7064SOL    HW232826   4.514   2.799   8.079 -1.7603 -0.3844 -0.9970
 7065SOL     OW32827   1.071   4.003  13.443 -0.0026  0.2896  0.4948
 7065SOL    HW132828   1.037   4.017  13.354 -0.6768  1.7848  0.9798
 7065SOL    HW232829   1.124   3.925  13.426 -0.0269  0.3378  0.1980
 7066SOL     OW32830   0.595   0.665  17.075  0.2566  0.2780 -0.5704
 7066SOL    HW132831   0.506   0.699  17.069  0.4978  0.7097 -1.7140
 7066SOL    HW232832   0.621   0.737  17.133  0.8646 -0.4739  0.0878
 7067SOL     OW32833   1.871   2.665   3.771  0.5272 -0.1058 -0.4359
 7067SOL    HW132834   1.850   2.572   3.759  0.7091 -0.4999  2.2504
 7067SOL    HW232835   1.883   2.677   3.865 -1.6261  1.7431 -0.4086
 7068SOL     OW32836   4.524   4.133   6.394 -0.0337  0.6053 -0.0998
 7068SOL    HW132837   4.486   4.131   6.306  0.8515 -0.4044 -0.4654
 7068SOL    HW232838   4.446   4.142   6.449 -0.7821  0.4348 -1.1354
 7069SOL     OW32839   0.411   0.051   3.289 -0.0923  0.2971  0.4349
 7069SOL    HW132840   0.447   0.003   3.363  0.3623  1.3321  0.8888
 7069SOL    HW232841   0.458   0.133   3.304 -0.5429  0.8884 -1.3350
 7070SOL     OW32842   0.205   1.012   6.548  0.1047  0.1974 -0.4391
 7070SOL    HW132843   0.134   0.949   6.533  1.8722 -1.8916  0.0492
 7070SOL    HW232844   0.278   0.964   6.510  0.5114  2.7614 -2.9038
 7071SOL     OW32845   4.185   0.927   4.882  0.4176  0.0197 -0.2108
 7071SOL    HW132846   4.145   0.849   4.921  1.3685  0.2627  1.2759
 7071SOL    HW232847   4.119   0.981   4.925 -1.2035 -1.0273 -1.3867
 7072SOL     OW32848   0.307   2.432   2.931 -0.1931 -0.0233  0.1204
 7072SOL    HW132849   0.233   2.372   2.935  0.0967 -0.5306 -2.5325
 7072SOL    HW232850   0.356   2.384   2.998  0.6478  0.5678 -0.0589
 7073SOL     OW32851   4.013   1.905   1.196  0.6895  0.0950 -0.2000
 7073SOL    HW132852   3.930   1.927   1.152 -0.6421  1.0446  2.8039
 7073SOL    HW232853   4.025   1.996   1.222 -3.5287  0.5264  0.2886
 7074SOL     OW32854   4.116   4.047  12.731 -0.2186  0.4142 -0.1501
 7074SOL    HW132855   4.076   3.978  12.784  0.2340  1.8777  2.0903
 7074SOL    HW232856   4.164   4.096  12.797  1.2076  1.2978 -1.8425
 7075SOL     OW32857   3.975   3.500  12.786 -0.4562 -0.0383 -0.0521
 7075SOL    HW132858   3.914   3.448  12.839 -0.7837 -0.7269 -1.1037
 7075SOL    HW232859   3.979   3.446  12.707  0.3296  1.3542 -0.9568
 7076SOL     OW32860   2.277   1.325   8.224 -0.1669  0.4535  0.3536
 7076SOL    HW132861   2.325   1.268   8.284  1.3706 -0.3433 -1.6158
 7076SOL    HW232862   2.304   1.414   8.247  0.1365  0.2040  0.9898
 7077SOL     OW32863   1.286   1.053   3.906  0.3461 -0.3992 -0.2132
 7077SOL    HW132864   1.246   1.133   3.873  2.5652  0.8950  0.2531
 7077SOL    HW232865   1.360   1.097   3.947  0.2544 -1.9063  1.5762
 7078SOL     OW32866   3.354   2.614   5.992 -0.0421 -0.4823  0.3039
 7078SOL    HW132867   3.405   2.568   6.059  1.6264  1.5552  0.4413
 7078SOL    HW232868   3.345   2.542   5.930 -0.2962 -0.1707 -0.0223
 7079SOL     OW32869   3.936   1.656  12.688  0.3384  0.3385 -0.4099
 7079SOL    HW132870   3.874   1.654  12.761  0.9348 -0.6306  0.0728
 7079SOL    HW232871   3.906   1.718  12.621  0.3203 -1.4149 -2.0192
 7080SOL     OW32872   4.577   0.149   8.219  0.3680  0.0118 -0.0714
 7080SOL    HW132873   4.648   0.120   8.162  1.9447  2.5102  0.5872
 7080SOL    HW232874   4.534   0.221   8.172 -2.2808 -0.0371  2.2372
 7081SOL     OW32875   1.294   2.110   7.627 -0.2437 -0.5772  0.0380
 7081SOL    HW132876   1.353   2.041   7.598  1.1755 -0.0040  1.5519
 7081SOL    HW232877   1.349   2.186   7.608 -0.3566 -0.1411  1.4709
 7082SOL     OW32878   0.790   2.307  14.155  0.0976 -0.4297 -0.2493
 7082SOL    HW132879   0.826   2.365  14.222  0.6842 -1.3098  0.2030
 7082SOL    HW232880   0.847   2.231  14.161 -0.5666 -0.9700 -0.7606
 7083SOL     OW32881   4.725   2.294   2.728  0.3361 -0.0733  0.4399
 7083SOL    HW132882   0.041   2.267   2.800  0.4334  0.3809  0.5358
 7083SOL    HW232883   4.736   2.218   2.671 -0.2103 -0.1494  0.4318
 7084SOL     OW32884   3.431   2.846   5.143  0.1461 -0.0145 -0.3321
 7084SOL    HW132885   3.473   2.776   5.093  0.6740  0.5649 -0.6809
 7084SOL    HW232886   3.474   2.833   5.228  0.1174  0.3057 -0.2675
 7085SOL     OW32887   1.143   0.622  11.830  0.1588  0.3287 -0.2256
 7085SOL    HW132888   1.124   0.655  11.742  0.9614 -1.0449 -0.9116
 7085SOL    HW232889   1.127   0.529  11.814 -1.1753  0.6518 -0.7544
 7086SOL     OW32890   1.521   3.354  12.047  0.1647  0.0656  0.3554
 7086SOL    HW132891   1.548   3.443  12.026  1.7442 -0.7675 -1.0707
 7086SOL    HW232892   1.559   3.298  11.980 -1.9401 -0.9179 -0.0157
 7087SOL     OW32893   0.156   2.401   0.839  0.5576 -0.3428  0.5135
 7087SOL    HW132894   0.215   2.394   0.914 -0.6454 -0.0713  1.5096
 7087SOL    HW232895   0.176   2.325   0.785 -1.2623 -0.6824  0.3016
 7088SOL     OW32896   0.811   4.734   4.062  0.3692 -0.4336  0.0115
 7088SOL    HW132897   0.886   4.730   4.002  1.4729  1.5372  1.2603
 7088SOL    HW232898   0.742   4.687   4.015  1.5033 -1.7186 -0.3840
 7089SOL     OW32899   4.502   1.201   4.235  0.4507  0.2628  0.0836
 7089SOL    HW132900   4.503   1.129   4.172 -0.1836  2.1288 -2.0560
 7089SOL    HW232901   4.542   1.278   4.195  1.2743 -0.2170 -0.0271
 7090SOL     OW32902   2.186   3.830  11.829 -0.4873  0.1132 -0.1536
 7090SOL    HW132903   2.123   3.866  11.892 -2.5314 -2.1457 -0.8931
 7090SOL    HW232904   2.141   3.748  11.810  1.5517 -0.4639 -2.4541
 7091SOL     OW32905   0.726   3.949  17.573  0.2104  0.1183 -0.2652
 7091SOL    HW132906   0.671   3.907  17.639  0.6520  1.5585  1.0030
 7091SOL    HW232907   0.812   3.916  17.597  0.8952  0.6450 -2.0076
 7092SOL     OW32908   3.525   0.383   7.593 -0.9339 -0.0269  0.0016
 7092SOL    HW132909   3.609   0.428   7.605 -1.2012  0.3447  0.4782
 7092SOL    HW232910   3.553   0.292   7.603 -0.2471  0.2074  0.2343
 7093SOL     OW32911   2.125   2.627  12.346  0.2225  0.2095 -0.1095
 7093SOL    HW132912   2.135   2.627  12.441  0.2481  0.9748 -0.1165
 7093SOL    HW232913   2.199   2.680  12.318  0.2791  0.7519  1.0574
 7094SOL     OW32914   0.416   0.404  17.047 -0.4835  0.1169  0.3734
 7094SOL    HW132915   0.392   0.493  17.020  0.2882 -0.2205 -1.4318
 7094SOL    HW232916   0.458   0.416  17.132 -0.2778  1.6569  0.0506
 7095SOL     OW32917   3.101   4.680   6.554  0.8110 -0.4505 -0.3267
 7095SOL    HW132918   3.095   0.018   6.607  1.0070 -0.6146 -0.0631
 7095SOL    HW232919   3.154   4.616   6.601 -0.2915  0.3032  1.9088
 7096SOL     OW32920   1.480   2.482   2.150 -0.6160  0.0439 -0.3966
 7096SOL    HW132921   1.487   2.545   2.221 -1.3845  2.5378 -2.5626
 7096SOL    HW232922   1.448   2.545   2.086  0.5660 -0.4059 -1.4409
 7097SOL     OW32923   3.352   1.963  15.520 -0.0065 -0.1236 -0.0593
 7097SOL    HW132924   3.309   1.880  15.538  2.1822 -1.2782 -0.1009
 7097SOL    HW232925   3.300   2.014  15.458 -1.2246 -0.7096  0.4796
 7098SOL     OW32926   2.646   1.509   2.965  0.4187  0.0682  0.0101
 7098SOL    HW132927   2.716   1.562   2.926 -0.6396  1.5539  0.1104
 7098SOL    HW232928   2.577   1.508   2.898  0.8634  0.8375 -0.4696
 7099SOL     OW32929   2.881   2.053  11.260  0.1838  0.5433 -0.0643
 7099SOL    HW132930   2.831   2.031  11.182 -1.0473 -0.0546  0.8880
 7099SOL    HW232931   2.824   2.002  11.318  1.8690 -1.8208 -0.5097
 7100SOL     OW32932   3.675   1.209   6.188  0.2152 -0.1320 -0.4123
 7100SOL    HW132933   3.614   1.139   6.170  2.2802 -2.4454  1.5615
 7100SOL    HW232934   3.649   1.221   6.280 -0.7942  3.0537 -1.1031
 7101SOL     OW32935   1.935   2.952  13.396 -0.3263  0.2380 -0.2553
 7101SOL    HW132936   2.029   2.967  13.385 -0.3733  0.9357  0.2542
 7101SOL    HW232937   1.907   3.000  13.318  0.9020  0.1602 -0.7414
 7102SOL     OW32938   0.628   1.751   3.461  0.4224  0.4906 -0.2133
 7102SOL    HW132939   0.623   1.655   3.460 -1.5444  0.5655  1.8046
 7102SOL    HW232940   0.714   1.772   3.426  0.7589 -1.4938 -0.6039
 7103SOL     OW32941   3.761   0.773   4.426 -0.2231  0.3348  0.1545
 7103SOL    HW132942   3.688   0.815   4.380  3.1611  1.2618 -4.3709
 7103SOL    HW232943   3.796   0.711   4.362  0.7902  0.0111  1.0283
 7104SOL     OW32944   1.214   3.408   7.742  1.0088  0.5727  0.4710
 7104SOL    HW132945   1.221   3.478   7.677 -0.6008 -0.3132 -0.6457
 7104SOL    HW232946   1.182   3.449   7.822  0.5882 -1.0253  1.1027
 7105SOL     OW32947   3.833   1.653   4.759 -0.5235  0.3302 -0.4481
 7105SOL    HW132948   3.857   1.745   4.759  0.8609 -0.0350 -1.4073
 7105SOL    HW232949   3.894   1.607   4.701 -0.2815  1.3345 -0.9734
 7106SOL     OW32950   0.467   0.192   4.280 -0.0101  0.3104  0.1544
 7106SOL    HW132951   0.444   0.284   4.272 -1.5069 -0.3284 -3.1082
 7106SOL    HW232952   0.562   0.199   4.293 -0.0356  1.7281 -0.4640
 7107SOL     OW32953   0.967   0.944   4.966 -0.1545 -0.1369  0.1475
 7107SOL    HW132954   1.000   1.016   5.019  0.0369  0.0020 -0.1585
 7107SOL    HW232955   0.980   0.976   4.876 -2.1239  1.7794  0.5378
 7108SOL     OW32956   3.012   2.249   9.386  0.1627 -0.4681 -0.2280
 7108SOL    HW132957   3.078   2.243   9.317  0.8884 -2.3585  0.6392
 7108SOL    HW232958   3.057   2.301   9.453 -1.4007  1.6158 -0.7723
 7109SOL     OW32959   4.165   2.571   5.663 -0.8346  0.3554  0.3718
 7109SOL    HW132960   4.203   2.659   5.654 -0.0095  0.1238  1.5722
 7109SOL    HW232961   4.215   2.543   5.740 -1.3257  1.6084  1.1629
 7110SOL     OW32962   4.347   1.497   3.682 -0.4333  0.5256 -0.0618
 7110SOL    HW132963   4.313   1.421   3.730  0.1395  0.1014 -0.3252
 7110SOL    HW232964   4.328   1.564   3.748  0.5910  1.8772 -1.1498
 7111SOL     OW32965   1.469   1.002  11.055  0.1447 -0.2874 -0.0051
 7111SOL    HW132966   1.544   1.046  11.015  0.2817  0.2124  0.7901
 7111SOL    HW232967   1.434   0.949  10.984 -0.9613 -1.4317  1.3917
 7112SOL     OW32968   1.873   4.688   3.190  0.4077 -0.2171  0.2512
 7112SOL    HW132969   1.919   0.017   3.145 -1.3449 -1.3720 -3.3698
 7112SOL    HW232970   1.828   4.652   3.113  0.5835  2.4933 -1.1320
 7113SOL     OW32971   1.310   4.608   4.721  0.1248  0.2850  0.0198
 7113SOL    HW132972   1.367   4.623   4.796  1.5242  0.1872 -1.0103
 7113SOL    HW232973   1.224   4.634   4.754  1.4721  0.1171  3.5789
 7114SOL     OW32974   1.600   0.032   9.368  0.3064 -0.4769 -0.0417
 7114SOL    HW132975   1.542   4.725   9.428  1.5526 -0.6039  1.0767
 7114SOL    HW232976   1.602   4.714   9.293  1.2233  1.1206 -1.2890
 7115SOL     OW32977   0.917   4.487   9.603 -0.1954 -0.5575 -0.3128
 7115SOL    HW132978   0.951   4.466   9.689  0.3201 -0.0891 -0.4036
 7115SOL    HW232979   0.884   4.577   9.603 -2.0947 -1.2377 -0.0421
 7116SOL     OW32980   1.742   2.572   4.427  0.0155 -0.1012  0.2955
 7116SOL    HW132981   1.747   2.477   4.431 -0.3349 -0.2064 -1.6338
 7116SOL    HW232982   1.779   2.576   4.338 -0.8093  0.6588 -0.0167
 7117SOL     OW32983   3.777   3.263   3.081  0.0939  0.5385  1.1668
 7117SOL    HW132984   3.759   3.300   3.167  0.2206  0.5943  1.1683
 7117SOL    HW232985   3.871   3.264   3.066 -0.0822 -2.0359 -0.2360
 7118SOL     OW32986   0.983   0.246   9.010 -0.6723 -0.0002 -0.2857
 7118SOL    HW132987   1.074   0.253   8.981 -0.7325  2.8740  0.2238
 7118SOL    HW232988   0.963   0.338   9.027  1.3068  0.6826 -1.6306
 7119SOL     OW32989   0.708   1.712  14.064  0.5644  0.4482  0.1027
 7119SOL    HW132990   0.720   1.693  13.971  0.1425  0.0354  0.1291
 7119SOL    HW232991   0.617   1.681  14.070  0.3034  0.1587 -5.0856
 7120SOL     OW32992   0.606   2.484  12.857 -0.6115 -0.6230  0.2007
 7120SOL    HW132993   0.589   2.571  12.820 -0.5241  0.0762  1.7700
 7120SOL    HW232994   0.566   2.495  12.944  0.7878 -1.0994  0.9049
 7121SOL     OW32995   0.209   2.293   6.977  0.1343  0.1081 -0.0380
 7121SOL    HW132996   0.114   2.295   6.962 -0.2339 -1.6607  2.0322
 7121SOL    HW232997   0.223   2.362   7.042 -2.0153  0.9501 -0.4736
 7122SOL     OW32998   2.211   3.926   4.104  0.3944 -0.5512  0.3348
 7122SOL    HW132999   2.302   3.895   4.101  0.3890 -0.4705 -0.5912
 7122SOL    HW233000   2.194   3.954   4.014 -2.2722 -1.1951  0.6416
 7123SOL     OW33001   0.814   1.247  14.621  0.8920 -0.3889 -0.2326
 7123SOL    HW133002   0.755   1.290  14.684  0.6840 -1.2355  0.1549
 7123SOL    HW233003   0.781   1.157  14.619  0.9615 -0.4656  1.8291
 7124SOL     OW33004   3.948   1.831   1.693  0.6967 -0.2919 -0.0064
 7124SOL    HW133005   3.969   1.808   1.603 -0.4721  0.7169 -0.5422
 7124SOL    HW233006   3.892   1.902   1.662 -1.0053 -1.1936  0.9452
 7125SOL     OW33007   4.048   2.329   8.164  0.0379 -0.2777 -0.1849
 7125SOL    HW133008   3.973   2.387   8.148  0.5536  1.5114  4.0060
 7125SOL    HW233009   4.055   2.323   8.259 -1.1352  0.3125 -0.0575
 7126SOL     OW33010   2.419   0.961   3.640  0.9486 -0.6007 -0.2592
 7126SOL    HW133011   2.418   0.879   3.689 -0.4816 -0.3595  0.1302
 7126SOL    HW233012   2.346   0.946   3.580  1.0389 -0.1567 -0.4816
 7127SOL     OW33013   2.057   4.236  10.380 -0.1912  0.0323  0.9019
 7127SOL    HW133014   2.134   4.207  10.429 -0.7393 -0.9957  1.1541
 7127SOL    HW233015   1.988   4.200  10.437 -1.1997  0.3280 -0.1363
 7128SOL     OW33016   2.292   3.509   6.337  0.0174  0.9832 -0.3816
 7128SOL    HW133017   2.313   3.417   6.351  0.8057  1.2097 -0.1156
 7128SOL    HW233018   2.375   3.555   6.335  0.6893 -0.1373  2.5725
 7129SOL     OW33019   2.538   1.181   7.691  0.4334 -0.4427  0.4400
 7129SOL    HW133020   2.510   1.244   7.624 -1.8960 -0.7920  1.0639
 7129SOL    HW233021   2.555   1.103   7.638  0.0880  0.4174 -0.9403
 7130SOL     OW33022   1.446   0.492   0.215  0.0512 -0.2492  0.7078
 7130SOL    HW133023   1.517   0.552   0.241  0.9002 -0.0758 -2.0588
 7130SOL    HW233024   1.448   0.516   0.123 -1.6253  0.4594  0.8652
 7131SOL     OW33025   1.972   1.308   6.065  0.1824 -0.9736 -0.3094
 7131SOL    HW133026   1.894   1.362   6.073  0.0270 -1.4676  1.5831
 7131SOL    HW233027   1.942   1.223   6.096  1.2071 -0.2720  2.6559
 7132SOL     OW33028   0.306   1.150   0.726 -0.3053 -0.0491 -0.2724
 7132SOL    HW133029   0.359   1.204   0.784 -0.2688 -0.0668 -0.2887
 7132SOL    HW233030   0.238   1.212   0.701 -1.1021 -1.3263 -1.2899
 7133SOL     OW33031   3.393   1.217   8.426 -0.3097  0.0996  0.4933
 7133SOL    HW133032   3.339   1.292   8.403 -1.7081 -1.6496 -1.9424
 7133SOL    HW233033   3.325   1.150   8.425  1.2151 -1.4129 -3.0407
 7134SOL     OW33034   2.499   0.737   3.424  0.3453 -0.7872  0.3971
 7134SOL    HW133035   2.522   0.714   3.514  1.1540 -2.8992 -0.3703
 7134SOL    HW233036   2.454   0.658   3.396 -1.8170  0.3000  0.7488
 7135SOL     OW33037   2.321   3.805  13.918 -0.1915 -0.4580  0.9326
 7135SOL    HW133038   2.412   3.777  13.917  0.4335  1.6876 -1.6965
 7135SOL    HW233039   2.313   3.842  14.006  1.0697  0.5305  0.6286
 7136SOL     OW33040   0.183   3.727   6.825 -0.1189  0.0434  0.3960
 7136SOL    HW133041   0.157   3.807   6.780 -0.2389  0.1412  0.6371
 7136SOL    HW233042   0.171   3.753   6.916  1.4067  0.3538  0.5184
 7137SOL     OW33043   1.311   2.241  17.367 -0.8272 -0.0713  0.1995
 7137SOL    HW133044   1.252   2.170  17.342 -3.0702  1.7286  0.3494
 7137SOL    HW233045   1.350   2.257  17.281 -0.6929 -1.4363  0.0088
 7138SOL     OW33046   4.329   4.321  14.219  0.0901  0.0244 -0.0089
 7138SOL    HW133047   4.234   4.310  14.225  0.1704 -0.6379  0.0962
 7138SOL    HW233048   4.347   4.328  14.125 -3.4367 -0.7183 -0.7579
 7139SOL     OW33049   4.194   2.110   5.927  0.7729 -0.2606 -0.3956
 7139SOL    HW133050   4.151   2.176   5.872 -1.3266  0.8770  2.5915
 7139SOL    HW233051   4.281   2.112   5.887  0.7879 -1.4168 -0.4027
 7140SOL     OW33052   0.180   3.417   0.737 -0.4949 -0.1928  0.3192
 7140SOL    HW133053   0.135   3.347   0.784  0.5862 -2.0244 -1.4038
 7140SOL    HW233054   0.223   3.364   0.670 -1.1490 -2.5251  1.7480
 7141SOL     OW33055   3.419   1.828   8.710 -0.3388  0.0104 -0.3046
 7141SOL    HW133056   3.427   1.785   8.795 -4.2855  2.3149  1.2214
 7141SOL    HW233057   3.513   1.840   8.695 -0.3597 -2.2786 -2.3683
 7142SOL     OW33058   2.406   0.074   0.356 -0.2362  0.4007 -0.0204
 7142SOL    HW133059   2.383   0.167   0.364  1.3035  0.6924  1.0542
 7142SOL    HW233060   2.321   0.037   0.334  0.3253 -1.1036  0.3435
 7143SOL     OW33061   2.255   0.907   9.119  0.1710  0.1244 -0.8340
 7143SOL    HW133062   2.306   0.828   9.136  2.4116  1.2856 -2.1442
 7143SOL    HW233063   2.191   0.909   9.191 -1.0573  0.7959 -1.9460
 7144SOL     OW33064   3.103   0.865  13.097 -0.3139  0.1175  0.4155
 7144SOL    HW133065   3.162   0.841  13.168 -1.3986  0.0240  1.2897
 7144SOL    HW233066   3.104   0.959  13.115  0.2030 -0.0979  1.5161
 7145SOL     OW33067   0.266   1.878  10.881 -0.4274 -0.5084 -0.5887
 7145SOL    HW133068   0.234   1.885  10.791 -0.9726  2.1646 -0.2008
 7145SOL    HW233069   0.271   1.973  10.896  2.3997 -0.7139 -0.2418
 7146SOL     OW33070   0.876   1.798   3.328 -0.4831  0.1370  0.2101
 7146SOL    HW133071   0.967   1.790   3.356 -0.6934  1.2419  1.1860
 7146SOL    HW233072   0.872   1.868   3.263 -0.9813  1.3669  1.5701
 7147SOL     OW33073   0.262   1.080   0.220  0.0461  0.2433 -0.8293
 7147SOL    HW133074   0.272   1.175   0.224 -1.0863  0.4848 -3.9469
 7147SOL    HW233075   0.190   1.066   0.281 -1.3654 -1.5010 -2.8992
 7148SOL     OW33076   3.504   1.534   9.899  0.1246 -0.0563  0.0845
 7148SOL    HW133077   3.416   1.537   9.938 -0.6447  1.1119 -1.7477
 7148SOL    HW233078   3.480   1.499   9.813  0.2576  0.3319 -0.1092
 7149SOL     OW33079   3.283   0.926   6.400 -1.0061  0.0818 -0.6427
 7149SOL    HW133080   3.239   1.006   6.371 -0.3364 -0.0337 -1.9596
 7149SOL    HW233081   3.306   0.879   6.319  0.5712 -1.6545  0.8210
 7150SOL     OW33082   3.604   3.255   0.794 -0.5921  0.0248 -0.2299
 7150SOL    HW133083   3.693   3.236   0.823  0.0723  2.3811 -0.6797
 7150SOL    HW233084   3.580   3.330   0.848 -1.3570  0.8893 -1.7680
 7151SOL     OW33085   1.056   0.936  12.150  0.2924 -0.1727 -1.0746
 7151SOL    HW133086   1.100   0.851  12.151 -0.4633 -0.5579 -0.0042
 7151SOL    HW233087   0.968   0.921  12.185  0.8156  1.1077  0.7670
 7152SOL     OW33088   2.230   1.487   6.704  0.2455 -0.1663  0.3711
 7152SOL    HW133089   2.211   1.555   6.770 -1.3371  0.3898 -0.6571
 7152SOL    HW233090   2.207   1.524   6.619  0.7512 -1.8597 -0.4820
 7153SOL     OW33091   0.597   0.860  12.528  0.9114 -0.9543  0.0553
 7153SOL    HW133092   0.661   0.919  12.488  0.7887 -2.4327 -2.3518
 7153SOL    HW233093   0.523   0.886  12.472  2.6306  1.4501 -1.1011
 7154SOL     OW33094   0.113   0.768   8.934 -0.1071 -0.0398  0.4956
 7154SOL    HW133095   0.049   0.737   8.869  0.9363 -1.2104  0.0335
 7154SOL    HW233096   0.093   0.861   8.938 -1.8384 -0.4011  0.4188
 7155SOL     OW33097   4.035   3.545  13.189  0.1445 -0.5575 -0.3561
 7155SOL    HW133098   3.956   3.497  13.163 -0.2884 -0.3441  0.5444
 7155SOL    HW233099   4.034   3.626  13.138  0.9534  0.3461  1.0653
 7156SOL     OW33100   2.927   2.979   4.964  0.0826  0.0507 -0.0354
 7156SOL    HW133101   3.018   2.988   4.934  0.1032  1.2944  0.4025
 7156SOL    HW233102   2.907   3.070   4.986 -0.2532 -0.0746  0.1643
 7157SOL     OW33103   4.636   1.473   0.347  0.2659  0.0405  0.0654
 7157SOL    HW133104   4.623   1.451   0.439 -1.5340 -2.1760 -0.7073
 7157SOL    HW233105   4.612   1.384   0.320  1.4375 -0.4754  0.7298
 7158SOL     OW33106   3.682   2.000   7.735 -0.1688 -0.5639 -0.3299
 7158SOL    HW133107   3.705   1.935   7.670  1.1042 -0.0332 -0.4190
 7158SOL    HW233108   3.736   1.975   7.810  1.9471 -0.9696 -2.0051
 7159SOL     OW33109   2.505   0.891   0.831  0.1315 -0.5220 -0.0874
 7159SOL    HW133110   2.413   0.913   0.848  0.8408  2.6020 -0.2911
 7159SOL    HW233111   2.524   0.851   0.916  1.4783 -0.4734 -0.3661
 7160SOL     OW33112   4.618   2.859   0.283  0.2203 -0.4463  0.1375
 7160SOL    HW133113   4.644   2.942   0.325 -0.9844  0.6422 -1.2629
 7160SOL    HW233114   4.706   2.834   0.255 -0.5365  0.0453 -2.6624
 7161SOL     OW33115   4.409   0.056   2.337  1.0254 -0.1612  0.0209
 7161SOL    HW133116   4.468   0.112   2.287  0.2336 -0.5394 -1.3163
 7161SOL    HW233117   4.392   0.115   2.411  1.2055 -0.9561  0.7029
 7162SOL     OW33118   2.236   2.349   2.794  0.3129  0.0696  0.1087
 7162SOL    HW133119   2.185   2.320   2.870  0.8486  1.4226  0.9896
 7162SOL    HW233120   2.221   2.278   2.732 -0.5527 -0.3748  0.8254
 7163SOL     OW33121   1.698   1.029   6.982  0.0623 -0.0478  0.3897
 7163SOL    HW133122   1.674   0.938   6.998 -0.6624  0.3542  1.5584
 7163SOL    HW233123   1.773   1.029   7.041 -1.5086  0.8763  2.3920
 7164SOL     OW33124   0.806   0.014   6.368  0.1655  0.1378  0.4039
 7164SOL    HW133125   0.804   4.680   6.428  1.6286 -0.0073  0.2706
 7164SOL    HW233126   0.862   0.003   6.291 -0.0309  0.2208  0.2500
 7165SOL     OW33127   0.069   3.535   1.112  0.2733 -0.5414 -1.1103
 7165SOL    HW133128   0.155   3.519   1.151 -0.7921  0.5752  1.6923
 7165SOL    HW233129   0.008   3.476   1.156  0.0447 -0.0937 -0.8254
 7166SOL     OW33130   3.180   0.906  12.315 -0.3359  0.1632  0.3444
 7166SOL    HW133131   3.234   0.982  12.335 -0.7663  0.8494 -1.0836
 7166SOL    HW233132   3.167   0.918  12.221  0.4738  0.9294  0.3344
 7167SOL     OW33133   0.450   1.165   7.048 -0.2364 -0.2865  0.0114
 7167SOL    HW133134   0.393   1.130   6.980  1.7799 -0.3375 -1.6640
 7167SOL    HW233135   0.512   1.093   7.056  1.2210  1.0381  0.9196
 7168SOL     OW33136   2.021   1.064   4.663 -0.3401 -0.0915  0.5391
 7168SOL    HW133137   2.031   1.159   4.657 -0.1503 -0.0101  1.9936
 7168SOL    HW233138   2.017   1.048   4.569  1.8234 -0.1213  0.4620
 7169SOL     OW33139   0.134   2.060  15.717 -0.0888 -0.2798 -0.0783
 7169SOL    HW133140   0.184   1.989  15.676  1.2849  0.3171  0.5709
 7169SOL    HW233141   0.044   2.030  15.704 -0.4925  1.2509 -0.7737
 7170SOL     OW33142   2.970   2.907   4.415  0.0304 -0.2454  0.5428
 7170SOL    HW133143   2.935   2.855   4.343 -0.8235  0.7616  0.2408
 7170SOL    HW233144   2.896   2.891   4.474  0.1041 -0.5234  0.5617
 7171SOL     OW33145   0.995   3.613   3.710 -0.1815 -0.9698  0.2462
 7171SOL    HW133146   1.012   3.621   3.804 -0.8441  0.7408  0.2202
 7171SOL    HW233147   0.901   3.629   3.701 -0.0212  0.5074  1.3566
 7172SOL     OW33148   1.327   1.332   7.214  0.4784  0.8778  0.5409
 7172SOL    HW133149   1.358   1.274   7.144  2.3991 -2.0960  3.8427
 7172SOL    HW233150   1.238   1.328   7.178  0.5171  2.3518  0.2842
 7173SOL     OW33151   1.662   3.776   2.275 -0.2449 -0.1575  0.0984
 7173SOL    HW133152   1.633   3.740   2.192 -1.2087 -0.3664  0.5254
 7173SOL    HW233153   1.599   3.847   2.294  0.1398  1.0659 -3.2479
 7174SOL     OW33154   0.802   0.519   6.567 -0.6280  0.0661  0.6477
 7174SOL    HW133155   0.879   0.544   6.617 -0.5928  1.8919 -0.3434
 7174SOL    HW233156   0.839   0.438   6.532  0.2538 -0.1491  2.0862
 7175SOL     OW33157   4.212   0.761   3.420 -0.4789  0.2420  0.0777
 7175SOL    HW133158   4.133   0.741   3.471 -0.4903  0.8273  0.2983
 7175SOL    HW233159   4.248   0.844   3.452  3.3424 -1.2980 -0.2698
 7176SOL     OW33160   1.400   1.789  14.363 -0.3145 -0.0565 -0.0911
 7176SOL    HW133161   1.340   1.770  14.291  1.2907 -2.4562 -0.7748
 7176SOL    HW233162   1.463   1.718  14.357  0.1798  0.4980 -1.2832
 7177SOL     OW33163   3.246   0.510  14.422  0.1337 -0.1136 -0.0556
 7177SOL    HW133164   3.236   0.415  14.433  0.0185 -0.1037 -0.0747
 7177SOL    HW233165   3.322   0.525  14.478 -1.5490  2.1026  1.6469
 7178SOL     OW33166   3.335   1.064   4.256 -0.2266 -0.5680 -0.2789
 7178SOL    HW133167   3.268   1.127   4.233  0.5355  0.0124 -0.9103
 7178SOL    HW233168   3.410   1.124   4.257 -1.7540  1.2970  0.3892
 7179SOL     OW33169   0.267   4.652   8.567 -0.1352  0.6085  0.1671
 7179SOL    HW133170   0.185   4.607   8.588 -0.2833  0.7769 -0.0500
 7179SOL    HW233171   0.236   4.700   8.490 -1.5187  2.1720  1.7028
 7180SOL     OW33172   1.465   1.399   3.719 -0.5274 -0.0768  0.1159
 7180SOL    HW133173   1.397   1.448   3.766  0.6125  1.3862  0.2539
 7180SOL    HW233174   1.464   1.448   3.636 -0.1026 -0.4300 -0.0978
 7181SOL     OW33175   2.257   1.826  16.109 -0.1053 -0.3596 -1.0201
 7181SOL    HW133176   2.164   1.817  16.131 -0.2230 -1.8259 -2.1448
 7181SOL    HW233177   2.274   1.887  16.181  0.3623 -0.4563 -1.0480
 7182SOL     OW33178   0.065   0.131   7.896  0.1614  0.1905 -0.5637
 7182SOL    HW133179   0.037   0.199   7.835 -1.6231 -1.2512 -1.3399
 7182SOL    HW233180   0.014   0.056   7.867 -0.9047  0.6419  0.1598
 7183SOL     OW33181   1.462   3.794   5.624 -0.1969  0.4714 -0.3293
 7183SOL    HW133182   1.440   3.758   5.710  0.0159 -0.3436 -0.6113
 7183SOL    HW233183   1.512   3.871   5.650  2.3883 -0.9553 -1.0985
 7184SOL     OW33184   1.534   0.894   6.055 -0.2162 -0.1450  0.5680
 7184SOL    HW133185   1.463   0.935   6.105 -0.2493  1.2757 -0.6421
 7184SOL    HW233186   1.488   0.810   6.054  0.5998 -0.5903  0.8035
 7185SOL     OW33187   1.976   2.267   8.937 -0.2972 -0.1027  0.9548
 7185SOL    HW133188   1.986   2.309   8.851 -0.3871  1.5532  1.7478
 7185SOL    HW233189   1.931   2.334   8.989 -0.5806  0.1797  0.3407
 7186SOL     OW33190   0.752   1.705  14.840  0.0738  0.0242 -0.5090
 7186SOL    HW133191   0.835   1.665  14.866 -0.6321  0.9091  3.0379
 7186SOL    HW233192   0.746   1.761  14.917 -2.0404 -1.0631  0.1159
 7187SOL     OW33193   4.392   0.795   7.521 -0.7957 -0.7720  0.4016
 7187SOL    HW133194   4.373   0.721   7.579  0.5724 -0.3425  1.3711
 7187SOL    HW233195   4.337   0.781   7.443  0.6667 -0.8484 -0.6095
 7188SOL     OW33196   2.853   1.894   2.959 -0.0119  0.6852  0.1464
 7188SOL    HW133197   2.766   1.932   2.953 -1.4467 -2.6234 -0.3519
 7188SOL    HW233198   2.843   1.814   2.907 -1.3454  0.9541  0.0058
 7189SOL     OW33199   3.599   2.795   8.116  0.1181  0.1509 -0.1127
 7189SOL    HW133200   3.579   2.768   8.205  0.4870  1.0324  0.2372
 7189SOL    HW233201   3.561   2.882   8.122 -1.0058 -0.5135  2.5344
 7190SOL     OW33202   0.540   0.172  10.337  0.0911 -0.4126 -0.0961
 7190SOL    HW133203   0.455   0.174  10.381 -0.9296 -2.8611 -1.9127
 7190SOL    HW233204   0.526   0.221  10.256  1.2891 -0.3476 -0.2601
 7191SOL     OW33205   0.573   3.634   1.949 -0.1049  0.3465 -0.2160
 7191SOL    HW133206   0.569   3.573   2.023  1.2612  0.4088 -0.0949
 7191SOL    HW233207   0.505   3.694   1.982 -0.1322  0.0682  0.2412
 7192SOL     OW33208   3.813   3.457   0.660  0.9611 -0.3613  0.2454
 7192SOL    HW133209   3.834   3.369   0.629  1.2111  0.8176 -2.9529
 7192SOL    HW233210   3.884   3.499   0.710  0.2327  0.3130  0.7080
 7193SOL     OW33211   1.285   2.631   0.717 -0.3168  0.3735 -0.3720
 7193SOL    HW133212   1.292   2.706   0.659  0.1798 -0.3886 -1.2961
 7193SOL    HW233213   1.283   2.675   0.802 -1.6570  1.3472 -0.9140
 7194SOL     OW33214   1.867   4.408   6.410 -0.3538 -0.3027  0.0436
 7194SOL    HW133215   1.921   4.388   6.334 -0.5198 -1.2074  0.1660
 7194SOL    HW233216   1.919   4.374   6.482  1.5884  1.5939 -0.4573
 7195SOL     OW33217   4.381   4.470   8.001 -0.1433 -0.1812 -0.1872
 7195SOL    HW133218   4.334   4.389   7.978  0.7106 -1.1634  1.5571
 7195SOL    HW233219   4.404   4.464   8.093  0.8099 -1.9832 -0.5469
 7196SOL     OW33220   3.699   1.532   2.747 -0.4207 -0.1231  0.3612
 7196SOL    HW133221   3.764   1.601   2.734 -1.3088  0.7799  0.7827
 7196SOL    HW233222   3.730   1.485   2.825 -0.0455 -2.0370 -0.9220
 7197SOL     OW33223   1.431   4.421   5.625  0.4601  0.4378  0.3254
 7197SOL    HW133224   1.458   4.345   5.574 -4.1099 -1.3054  0.5594
 7197SOL    HW233225   1.339   4.436   5.604  0.7890  0.4995 -1.0668
 7198SOL     OW33226   2.722   2.218   6.847  0.0681 -0.2175 -0.9794
 7198SOL    HW133227   2.798   2.257   6.891 -0.3569 -0.7146  0.1840
 7198SOL    HW233228   2.649   2.248   6.900  1.6264  0.9562  0.4973
 7199SOL     OW33229   1.697   0.325   0.366  0.0702 -0.0297 -0.3525
 7199SOL    HW133230   1.679   0.245   0.415  0.6072 -1.1648 -2.0359
 7199SOL    HW233231   1.655   0.309   0.282 -1.7123  0.6777  0.3890
 7200SOL     OW33232   0.728   0.846   2.915 -0.2364  0.3045  0.0531
 7200SOL    HW133233   0.675   0.878   2.842  1.1849 -0.8049 -1.4608
 7200SOL    HW233234   0.725   0.929   2.963 -0.3807 -0.9298  2.1971
 7201SOL     OW33235   0.413   0.961  15.225  0.1524  0.3239  0.4116
 7201SOL    HW133236   0.413   0.919  15.140  0.1472 -0.5963  0.8715
 7201SOL    HW233237   0.319   0.978  15.233  0.1554  0.5169  0.0046
 7202SOL     OW33238   0.308   3.706  13.953 -0.2173  0.1986 -0.0106
 7202SOL    HW133239   0.259   3.627  13.976 -1.1457 -0.0994 -3.0167
 7202SOL    HW233240   0.254   3.772  13.997  1.2351  0.2729  1.6541
 7203SOL     OW33241   2.797   4.156   0.711 -0.2791  0.1923  0.3129
 7203SOL    HW133242   2.785   4.223   0.644  1.8345  2.4118  2.1192
 7203SOL    HW233243   2.875   4.113   0.675 -0.8256 -0.0355 -0.5896
 7204SOL     OW33244   2.744   4.000   8.679 -0.0232 -0.2886  0.3249
 7204SOL    HW133245   2.767   3.915   8.717  2.9666  0.7153  0.7373
 7204SOL    HW233246   2.677   3.974   8.615 -1.1668  0.6403  1.1359
 7205SOL     OW33247   0.740   2.849   5.516  0.4471 -0.0243 -0.1038
 7205SOL    HW133248   0.812   2.796   5.551  1.2270 -0.1775 -1.9402
 7205SOL    HW233249   0.667   2.790   5.537  3.6385 -2.9464  2.7275
 7206SOL     OW33250   0.770   2.444   2.845  1.1103  0.2008 -0.2296
 7206SOL    HW133251   0.806   2.361   2.814 -1.6579 -0.7790 -0.9180
 7206SOL    HW233252   0.709   2.477   2.779 -0.5358  4.4375  3.3542
 7207SOL     OW33253   3.335   3.500   9.149 -0.4029  0.1114 -0.4537
 7207SOL    HW133254   3.308   3.411   9.126  2.1843 -0.8981  0.3862
 7207SOL    HW233255   3.268   3.549   9.197 -2.1069 -0.9851 -1.6800
 7208SOL     OW33256   0.189   2.523   8.113  0.5797 -0.0819 -0.1021
 7208SOL    HW133257   0.155   2.456   8.173 -0.8557  1.5436  0.8955
 7208SOL    HW233258   0.122   2.591   8.106  0.6248 -0.0434 -0.1529
 7209SOL     OW33259   4.315   1.708  15.726 -0.1631 -0.1432  0.2525
 7209SOL    HW133260   4.246   1.646  15.703 -1.4529  0.5896  2.0992
 7209SOL    HW233261   4.354   1.735  15.643  0.3511 -1.3541  0.1008
 7210SOL     OW33262   0.741   1.268  15.974  0.3367  0.0148 -0.2265
 7210SOL    HW133263   0.753   1.339  15.911 -2.1511  0.6458  0.0171
 7210SOL    HW233264   0.723   1.200  15.909  1.9778  0.6757 -1.3623
 7211SOL     OW33265   0.594   2.705   9.619  0.0310  0.6104 -0.3548
 7211SOL    HW133266   0.675   2.661   9.641  0.7546  1.9502 -0.3463
 7211SOL    HW233267   0.538   2.638   9.657  1.6136 -1.0161 -0.9026
 7212SOL     OW33268   4.091   1.854   7.613 -0.0233  0.7314  0.4471
 7212SOL    HW133269   4.101   1.936   7.661 -2.2176  0.7247  0.9409
 7212SOL    HW233270   3.996   1.852   7.597  0.3081  0.5140 -1.4750
 7213SOL     OW33271   4.446   4.126  11.499 -0.0091  0.5014 -0.4473
 7213SOL    HW133272   4.496   4.150  11.578 -0.9700 -0.1164  0.3433
 7213SOL    HW233273   4.514   4.159  11.439  1.2203 -0.8381  0.2085
 7214SOL     OW33274   4.131   2.697   2.668 -0.1380 -0.2191 -0.0363
 7214SOL    HW133275   4.150   2.787   2.643 -1.1384 -0.8364 -3.0100
 7214SOL    HW233276   4.060   2.681   2.606 -0.8191  0.3042  0.6124
 7215SOL     OW33277   0.184   2.778   0.690 -0.0279  0.3738  0.4071
 7215SOL    HW133278   0.186   2.689   0.656  1.6600  0.9227 -0.9423
 7215SOL    HW233279   0.252   2.775   0.757  1.3148 -0.0030 -0.9650
 7216SOL     OW33280   2.722   2.566  14.364  0.3775  0.1711 -0.7166
 7216SOL    HW133281   2.791   2.614  14.319  0.0542  1.4223  0.1175
 7216SOL    HW233282   2.646   2.588  14.310 -1.3874  1.6864  2.3282
 7217SOL     OW33283   1.554   0.980   1.397 -0.2506 -0.7461  0.2144
 7217SOL    HW133284   1.485   0.915   1.396  0.0185 -1.0325  0.2564
 7217SOL    HW233285   1.572   0.980   1.303  0.9208 -0.3260  0.4305
 7218SOL     OW33286   2.748   0.458   7.415 -0.2752  0.1541  0.1311
 7218SOL    HW133287   2.761   0.539   7.366 -2.9580  0.4917 -0.0022
 7218SOL    HW233288   2.758   0.390   7.348  1.1577 -1.0347  1.5299
 7219SOL     OW33289   3.732   0.778  16.616 -0.0658 -0.6287  0.3503
 7219SOL    HW133290   3.710   0.854  16.562  0.2359  0.8048  2.2421
 7219SOL    HW233291   3.695   0.808  16.699  1.3600  0.3901  0.6084
 7220SOL     OW33292   3.805   3.994   6.965 -0.4491 -0.4277 -0.3022
 7220SOL    HW133293   3.734   4.044   6.924  0.0108  0.0580 -0.5014
 7220SOL    HW233294   3.880   4.045   6.935 -1.3744  1.0362 -0.1374
 7221SOL     OW33295   2.870   3.951   9.242  0.2070 -0.0224 -0.3076
 7221SOL    HW133296   2.927   4.004   9.299 -0.4295  1.3551 -0.9388
 7221SOL    HW233297   2.897   3.982   9.156 -0.2320  1.4354  0.0698
 7222SOL     OW33298   0.464   1.683  15.824  0.1143 -0.3200 -0.3158
 7222SOL    HW133299   0.389   1.731  15.790  1.8315  1.3401 -1.7911
 7222SOL    HW233300   0.450   1.619  15.754  1.0882  1.5630 -2.2409
 7223SOL     OW33301   2.049   0.077   5.228  0.4240 -0.2454  0.4768
 7223SOL    HW133302   2.002   0.147   5.184  0.6526 -0.1772  0.3410
 7223SOL    HW233303   2.130   0.126   5.242  0.0017 -0.1055  2.4574
 7224SOL     OW33304   1.631   4.377   0.099  0.3757  0.1414 -0.6275
 7224SOL    HW133305   1.545   4.406   0.128 -0.4864 -1.4464 -1.6244
 7224SOL    HW233306   1.610   4.303   0.042 -1.8935  1.1682 -1.0953
 7225SOL     OW33307   4.149   3.286   5.183  0.2733  0.3072 -0.2978
 7225SOL    HW133308   4.180   3.351   5.120 -1.6611  0.0422 -1.5291
 7225SOL    HW233309   4.180   3.330   5.262  0.3522  4.0659 -2.4182
 7226SOL     OW33310   3.183   2.275   0.339  0.0480  0.0064 -0.5930
 7226SOL    HW133311   3.260   2.330   0.325  1.2791 -0.5867  3.9065
 7226SOL    HW233312   3.225   2.193   0.311  2.5530 -0.0597  3.1983
 7227SOL     OW33313   2.111   1.847  11.887  0.2563 -0.1412  0.0354
 7227SOL    HW133314   2.112   1.888  11.973  0.2472  2.8738 -1.4128
 7227SOL    HW233315   2.054   1.772  11.905  0.4496 -0.1884  0.4635
 7228SOL     OW33316   2.881   2.655   8.221  0.1814 -0.6386 -0.5640
 7228SOL    HW133317   2.795   2.678   8.257  0.2643  0.2193 -0.9064
 7228SOL    HW233318   2.913   2.733   8.175  2.3134  0.8231  3.3089
 7229SOL     OW33319   0.237   0.474   7.588  0.4253  0.0711 -0.5805
 7229SOL    HW133320   0.188   0.516   7.658  0.4465 -0.1785 -0.4167
 7229SOL    HW233321   0.256   0.387   7.621 -0.6607 -0.2526 -0.8147
 7230SOL     OW33322   2.130   2.495   4.726  0.2111 -0.1794  0.1706
 7230SOL    HW133323   2.197   2.558   4.698  0.8279 -0.9074  0.0040
 7230SOL    HW233324   2.093   2.541   4.801  1.2759  0.6642  0.1684
 7231SOL     OW33325   3.135   4.288   6.068 -0.1477  0.4879  0.1476
 7231SOL    HW133326   3.056   4.325   6.106  0.0227  1.4807 -0.4779
 7231SOL    HW233327   3.104   4.199   6.050  1.5063  0.2213 -1.4126
 7232SOL     OW33328   0.773   3.420  11.458  0.0925  0.0760 -0.3171
 7232SOL    HW133329   0.807   3.479  11.391  1.1834  1.2387  1.2612
 7232SOL    HW233330   0.682   3.447  11.476  0.1837 -1.9899  3.2500
 7233SOL     OW33331   1.128   2.469   1.375 -0.5286  0.2146 -0.4949
 7233SOL    HW133332   1.166   2.382   1.365  2.3179  1.5064 -0.6886
 7233SOL    HW233333   1.136   2.502   1.464 -1.7799  0.7338 -0.5698
 7234SOL     OW33334   3.670   3.946  12.635  0.5928 -0.0855 -0.3504
 7234SOL    HW133335   3.708   3.911  12.555 -0.9180  1.5346 -1.7672
 7234SOL    HW233336   3.628   3.867  12.671 -0.9793 -0.0840 -2.1918
 7235SOL     OW33337   0.194   2.623  16.537 -0.0437 -0.3181  0.3735
 7235SOL    HW133338   0.179   2.704  16.487 -0.0768  0.3761  1.4922
 7235SOL    HW233339   0.239   2.567  16.473  0.3628 -0.8777  1.1494
 7236SOL     OW33340   1.483   0.462  17.708 -0.1380 -0.0338  0.1075
 7236SOL    HW133341   1.448   0.540  17.666 -1.8665 -1.0933 -0.4166
 7236SOL    HW233342   1.571   0.464  17.671 -0.3426  0.7349 -0.3454
 7237SOL     OW33343   2.826   2.492   6.644 -0.6486  0.2219  0.2434
 7237SOL    HW133344   2.736   2.477   6.616 -1.2271 -0.7607  2.5771
 7237SOL    HW233345   2.873   2.438   6.579  1.2702  0.2836  1.5611
 7238SOL     OW33346   3.604   0.038   6.907  0.1047 -0.3747  0.6988
 7238SOL    HW133347   3.559   0.014   6.826 -0.1867  1.2897  0.3777
 7238SOL    HW233348   3.698   0.020   6.896 -0.1127 -0.6496 -0.7384
 7239SOL     OW33349   2.004   1.013  17.238 -0.1372  0.5817 -0.2706
 7239SOL    HW133350   2.095   1.041  17.245  0.5811 -2.3938  2.6395
 7239SOL    HW233351   1.960   1.067  17.303  1.9692  2.5878 -0.5027
 7240SOL     OW33352   1.374   0.809   5.732 -0.2847  0.1367  0.2089
 7240SOL    HW133353   1.323   0.760   5.668 -1.2113  1.0721  0.2255
 7240SOL    HW233354   1.308   0.836   5.796 -0.5351 -0.0121  0.0149
 7241SOL     OW33355   4.146   3.322   8.694 -0.3508 -0.1784 -0.5968
 7241SOL    HW133356   4.068   3.365   8.658 -1.7949  0.5442  3.3597
 7241SOL    HW233357   4.102   3.280   8.768 -2.0175 -1.4245 -2.2865
 7242SOL     OW33358   0.866   1.776   1.710 -0.5263  0.1544  0.2646
 7242SOL    HW133359   0.843   1.823   1.630 -2.3841 -2.7693 -0.9075
 7242SOL    HW233360   0.783   1.735   1.734 -1.4252  1.9529  0.2564
 7243SOL     OW33361   4.359   3.578   7.485 -0.5107 -0.3358 -0.5423
 7243SOL    HW133362   4.300   3.627   7.429 -0.7258 -1.2059 -1.0771
 7243SOL    HW233363   4.315   3.579   7.570 -1.2202  1.5302 -0.9261
 7244SOL     OW33364   4.305   2.709   9.415 -0.7033 -0.4629  0.1856
 7244SOL    HW133365   4.321   2.658   9.336 -1.9681 -0.3371 -0.1591
 7244SOL    HW233366   4.217   2.741   9.394 -1.8391 -2.9221  1.1062
 7245SOL     OW33367   2.169   1.385   4.382  0.4444  0.2920  0.5687
 7245SOL    HW133368   2.076   1.400   4.399  0.4909 -1.5465  2.4940
 7245SOL    HW233369   2.194   1.450   4.448 -2.1071  2.8546 -0.9965
 7246SOL     OW33370   3.686   2.286   9.086 -0.1915 -0.2417 -0.2407
 7246SOL    HW133371   3.775   2.265   9.059  0.7313  4.1513 -0.6074
 7246SOL    HW233372   3.694   2.288   9.181 -0.8700  0.0971 -0.1932
 7247SOL     OW33373   1.617   3.051   5.611 -0.1690  0.1628 -0.2705
 7247SOL    HW133374   1.548   3.105   5.648 -1.4819 -1.4952 -0.2907
 7247SOL    HW233375   1.694   3.084   5.658 -0.7720 -0.2795  1.0383
 7248SOL     OW33376   2.234   1.431  14.364  0.2894 -0.3272  0.2257
 7248SOL    HW133377   2.172   1.369  14.327 -0.7690  1.2023 -0.5540
 7248SOL    HW233378   2.322   1.403  14.338  0.0651 -1.3257  0.5488
 7249SOL     OW33379   4.353   0.366   9.239 -0.1309  0.3768 -0.5578
 7249SOL    HW133380   4.349   0.429   9.167  1.9937 -0.3651 -1.3321
 7249SOL    HW233381   4.442   0.384   9.269  0.3204 -0.1176 -1.5947
 7250SOL     OW33382   3.257   1.666   7.683  0.1068 -0.1179 -0.1833
 7250SOL    HW133383   3.200   1.740   7.658 -1.6628 -0.7928  1.8552
 7250SOL    HW233384   3.211   1.619   7.752 -1.3801  1.9579  0.2678
 7251SOL     OW33385   3.846   1.543   0.972  0.5463  0.2858 -0.5286
 7251SOL    HW133386   3.925   1.511   1.015 -0.6931  1.0159  2.2751
 7251SOL    HW233387   3.881   1.577   0.889  2.9944 -1.2545 -0.1261
 7252SOL     OW33388   0.420   0.815   2.211  0.6764 -0.5566 -0.0261
 7252SOL    HW133389   0.504   0.770   2.221  2.4732  2.4750 -1.5087
 7252SOL    HW233390   0.441   0.908   2.213 -0.8801 -0.2239  1.0930
 7253SOL     OW33391   3.712   3.425   5.055  0.0980 -0.2985  0.5810
 7253SOL    HW133392   3.750   3.409   5.141  0.1294 -4.7417 -0.2336
 7253SOL    HW233393   3.720   3.520   5.060 -0.6527 -0.0701 -2.1257
 7254SOL     OW33394   2.165   2.687   1.770  0.6359  0.4594  0.3136
 7254SOL    HW133395   2.077   2.724   1.759  0.1280 -0.7334  0.3364
 7254SOL    HW233396   2.136   2.597   1.755 -0.8619  1.0752 -0.5741
 7255SOL     OW33397   1.608   3.842   3.493  0.1375  0.4467  0.4197
 7255SOL    HW133398   1.551   3.766   3.477  0.3014  0.3784  0.1599
 7255SOL    HW233399   1.613   3.842   3.589  2.7422 -1.3845  0.2765
 7256SOL     OW33400   1.846   4.225   5.586  0.5477 -0.3423  0.4024
 7256SOL    HW133401   1.896   4.303   5.609  0.8426 -0.1013 -1.0475
 7256SOL    HW233402   1.909   4.178   5.532 -0.0995  0.4286 -1.0228
 7257SOL     OW33403   2.740   0.032   4.506  0.0461  0.8865 -0.5192
 7257SOL    HW133404   2.824   0.058   4.545 -0.0628 -0.2294  0.4702
 7257SOL    HW233405   2.756   4.679   4.496 -0.5404  1.0182 -2.5115
 7258SOL     OW33406   1.127   0.658  11.570  0.1426 -0.0821  0.2573
 7258SOL    HW133407   1.147   0.616  11.486  0.6536  0.8497 -0.0896
 7258SOL    HW233408   1.033   0.639  11.568  0.0592  0.3512  0.1957
 7259SOL     OW33409   3.993   2.452   8.468  0.0921  0.3316  0.0017
 7259SOL    HW133410   4.066   2.393   8.489  0.2277  1.1120  1.7729
 7259SOL    HW233411   4.015   2.518   8.534 -0.0311  1.0204 -0.6450
 7260SOL     OW33412   0.019   3.045   6.463 -0.1125  0.2796 -0.0081
 7260SOL    HW133413   0.011   3.140   6.451  1.2073  0.5027  0.7705
 7260SOL    HW233414   4.713   3.023   6.543 -2.5142  0.6139 -1.3228
 7261SOL     OW33415   1.867   2.261  10.913 -0.2853 -0.0155 -0.3701
 7261SOL    HW133416   1.932   2.325  10.942  1.2043  0.3659 -4.5660
 7261SOL    HW233417   1.896   2.253  10.822 -1.2350  1.0506 -0.7635
 7262SOL     OW33418   1.246   4.277   3.468 -0.2524 -0.2572 -0.1669
 7262SOL    HW133419   1.295   4.279   3.550 -1.0568 -0.0210  0.3106
 7262SOL    HW233420   1.184   4.207   3.485  1.4429 -1.5976  0.4808
 7263SOL     OW33421   2.089   3.907   7.829  0.7391 -0.1081  0.0984
 7263SOL    HW133422   2.088   3.988   7.777 -1.9764 -2.0007 -2.7659
 7263SOL    HW233423   1.997   3.886   7.818  0.2373  1.9396  0.3905
 7264SOL     OW33424   0.169   4.321   2.315 -0.2760  0.1297 -0.1453
 7264SOL    HW133425   0.172   4.407   2.358  0.2106 -0.8361  1.7318
 7264SOL    HW233426   0.103   4.325   2.245  1.2637 -1.5468 -1.6734
 7265SOL     OW33427   1.569   0.664   0.618 -0.1016  0.0838 -0.0154
 7265SOL    HW133428   1.593   0.602   0.686  0.0264 -0.4696 -0.5604
 7265SOL    HW233429   1.585   0.607   0.543 -1.3051  2.4853 -2.1047
 7266SOL     OW33430   2.053   1.963   4.684  0.2362 -0.1756 -0.6712
 7266SOL    HW133431   2.081   2.051   4.711 -1.4166  0.0902  0.1293
 7266SOL    HW233432   2.083   1.927   4.768  1.6531  1.9139 -0.2600
 7267SOL     OW33433   3.002   2.629   3.966  0.1453 -0.0554  0.2035
 7267SOL    HW133434   3.089   2.599   3.938  0.3306  1.7682 -1.2044
 7267SOL    HW233435   2.943   2.561   3.933  0.8100 -1.5317  2.0784
 7268SOL     OW33436   4.652   0.907   2.770 -0.1441  0.4661  0.4592
 7268SOL    HW133437   4.715   0.883   2.838  1.1171  0.1959 -0.8232
 7268SOL    HW233438   4.569   0.892   2.816  0.9858 -3.6404  1.1365
 7269SOL     OW33439   4.331   0.224   8.664 -0.1185  0.4127 -0.3809
 7269SOL    HW133440   4.346   0.316   8.644 -0.8276  0.6009 -0.0498
 7269SOL    HW233441   4.301   0.191   8.579 -0.1518 -0.7211  0.0689
 7270SOL     OW33442   1.284   4.497   8.578  0.3456  0.2208  0.5026
 7270SOL    HW133443   1.331   4.415   8.568 -1.9474 -1.1051  0.4684
 7270SOL    HW233444   1.192   4.474   8.563  1.4098 -1.7925 -2.9920
 7271SOL     OW33445   1.454   4.689  13.544 -0.0451 -0.2469 -0.0539
 7271SOL    HW133446   1.417   4.602  13.530 -1.6701  0.3247  0.6983
 7271SOL    HW233447   1.519   4.682  13.475  0.0325  1.8636 -0.2031
 7272SOL     OW33448   1.663   1.295   7.561  0.4457  0.1358  0.1988
 7272SOL    HW133449   1.591   1.357   7.574  0.5478  0.9710 -3.2607
 7272SOL    HW233450   1.618   1.229   7.508  1.7693  0.4072 -1.2399
 7273SOL     OW33451   3.045   4.114  11.384  0.4345 -0.2247  0.5078
 7273SOL    HW133452   3.070   4.197  11.424 -1.3223 -0.4221  1.9968
 7273SOL    HW233453   2.962   4.092  11.426 -0.6765  0.3527 -1.3891
 7274SOL     OW33454   0.398   2.717   0.355  0.4563  0.6350  0.0598
 7274SOL    HW133455   0.430   2.685   0.439 -0.8103 -1.6930 -0.3190
 7274SOL    HW233456   0.461   2.679   0.293 -0.1598  0.7083 -0.6214
 7275SOL     OW33457   1.839   2.502   7.245 -0.1684  0.3842  0.3245
 7275SOL    HW133458   1.882   2.587   7.257  0.5593 -0.0608  0.8992
 7275SOL    HW233459   1.856   2.480   7.153 -0.2307  2.6164 -0.2164
 7276SOL     OW33460   1.574   4.533  15.683 -0.0371  0.8501  0.3937
 7276SOL    HW133461   1.664   4.541  15.715  0.3236 -2.2681  0.1709
 7276SOL    HW233462   1.603   4.522  15.592 -1.8631  1.0297 -0.2079
 7277SOL     OW33463   1.904   2.308   3.149 -0.1164 -0.4568 -0.9805
 7277SOL    HW133464   1.913   2.345   3.237  0.9149  0.6803 -1.5653
 7277SOL    HW233465   1.958   2.367   3.096 -0.8597 -0.4842 -1.7497
 7278SOL     OW33466   3.093   2.364   4.038 -0.6808 -0.0199  1.1290
 7278SOL    HW133467   3.113   2.304   3.967 -1.7686  0.9502  0.0072
 7278SOL    HW233468   3.180   2.396   4.061 -0.1277 -1.5139  1.0972
 7279SOL     OW33469   4.331   1.320   8.452  0.2349 -0.2419 -0.2893
 7279SOL    HW133470   4.421   1.335   8.480  0.0957  2.0486 -1.0127
 7279SOL    HW233471   4.320   1.225   8.456  1.8269 -0.3939  0.2922
 7280SOL     OW33472   0.485   3.723   3.054  0.0267 -0.6173 -0.2684
 7280SOL    HW133473   0.403   3.770   3.071  1.5988  2.3928 -0.9979
 7280SOL    HW233474   0.461   3.650   2.998  0.5089 -0.5616 -0.5434
 7281SOL     OW33475   2.929   0.204   8.869  0.1100  0.1044 -0.8480
 7281SOL    HW133476   2.921   0.299   8.882  0.4914  0.0742 -0.3969
 7281SOL    HW233477   2.887   0.188   8.954 -1.2387 -0.7790 -1.6763
 7282SOL     OW33478   3.234   0.799   8.070 -0.2746 -0.0963  0.2312
 7282SOL    HW133479   3.162   0.862   8.073  1.0357  1.4507 -0.8550
 7282SOL    HW233480   3.277   0.819   8.153 -1.3464  0.4979  0.6460
 7283SOL     OW33481   1.494   0.636   8.602 -0.2197  0.6858 -0.3307
 7283SOL    HW133482   1.557   0.663   8.670 -0.8030  1.1524  0.0245
 7283SOL    HW233483   1.475   0.716   8.553  0.3690  0.8086 -0.3522
 7284SOL     OW33484   1.753   3.643   2.492  0.2930 -0.5984  0.5618
 7284SOL    HW133485   1.777   3.553   2.468 -1.9278 -0.8416 -0.8624
 7284SOL    HW233486   1.739   3.685   2.407 -1.9735 -1.6407  0.4190
 7285SOL     OW33487   3.570   3.025   8.692  0.0527  0.0556 -0.2197
 7285SOL    HW133488   3.648   3.079   8.702 -0.5118  0.2828  2.8421
 7285SOL    HW233489   3.593   2.945   8.644  1.6855 -0.4679  1.4355
 7286SOL     OW33490   1.575   1.801  17.012 -0.2096  0.3338  0.1029
 7286SOL    HW133491   1.580   1.890  17.045  3.4815  0.5968 -1.2091
 7286SOL    HW233492   1.567   1.819  16.918  1.9648  1.8690  0.2242
 7287SOL     OW33493   3.599   2.387  12.647 -0.0299  0.2455  0.0450
 7287SOL    HW133494   3.640   2.466  12.612 -1.3305  1.3472  1.0275
 7287SOL    HW233495   3.663   2.329  12.605  0.5879 -0.9901  2.7126
 7288SOL     OW33496   1.623   1.467  16.261  0.3052  0.4455 -0.2560
 7288SOL    HW133497   1.598   1.430  16.176  0.1098 -0.8085  0.3559
 7288SOL    HW233498   1.535   1.496  16.284  0.5157  0.1871  0.8464
 7289SOL     OW33499   2.412   2.344   6.134 -0.1915 -0.1794 -0.1226
 7289SOL    HW133500   2.446   2.404   6.068 -0.9442 -1.2143 -1.4469
 7289SOL    HW233501   2.371   2.407   6.193  0.2160  0.0961 -0.1311
 7290SOL     OW33502   0.248   2.954   0.495 -0.0737 -0.3668  0.1198
 7290SOL    HW133503   0.205   2.901   0.563  3.0608 -1.5287  1.1848
 7290SOL    HW233504   0.299   2.888   0.449  0.8471  1.1849 -1.0668
 7291SOL     OW33505   4.723   2.423   8.300  0.4346 -0.3697  0.1195
 7291SOL    HW133506   4.690   2.434   8.389 -0.0355 -0.3510 -0.0583
 7291SOL    HW233507   0.010   2.332   8.299  0.7882 -0.2651  0.5529
 7292SOL     OW33508   0.089   0.337   5.231 -0.1590 -0.0857  0.6123
 7292SOL    HW133509   0.089   0.394   5.308 -1.9714 -0.6391  1.0261
 7292SOL    HW233510   0.075   0.394   5.155  3.0960  0.4623  0.3993
 7293SOL     OW33511   0.380   2.336  11.632 -0.5782  0.2406  0.1199
 7293SOL    HW133512   0.357   2.388  11.709  1.0289  4.3402 -2.1571
 7293SOL    HW233513   0.443   2.278  11.675  0.9152  0.2014 -2.1576
 7294SOL     OW33514   1.525   0.383   0.626  0.1840 -0.2338  0.3412
 7294SOL    HW133515   1.501   0.325   0.699  0.1079 -0.3508  0.2247
 7294SOL    HW233516   1.586   0.325   0.579  0.2333 -1.2220  1.6156
 7295SOL     OW33517   3.389   2.337  12.792 -0.5623 -0.3057 -0.2508
 7295SOL    HW133518   3.476   2.354  12.757 -0.1599 -2.0927 -0.1089
 7295SOL    HW233519   3.381   2.428  12.821  0.4899  0.3489 -2.0200
 7296SOL     OW33520   3.144   3.333  15.935 -0.4842  0.0109  0.2676
 7296SOL    HW133521   3.185   3.247  15.934  0.9745  0.7083 -1.3558
 7296SOL    HW233522   3.137   3.369  16.023 -3.7923  0.5751 -0.2245
 7297SOL     OW33523   4.296   4.287  16.220  0.0323 -0.1625 -0.0136
 7297SOL    HW133524   4.386   4.317  16.214 -0.3854  1.4212  1.6074
 7297SOL    HW233525   4.271   4.319  16.307 -3.3342  1.1958 -1.5078
 7298SOL     OW33526   3.800   2.070  14.255  0.0871  0.3839  0.0884
 7298SOL    HW133527   3.785   2.002  14.320  0.9239 -1.1938 -1.3566
 7298SOL    HW233528   3.824   2.142  14.313 -0.3597 -0.4413  1.2835
 7299SOL     OW33529   3.834   0.140  13.058  0.6500  0.0988 -0.2281
 7299SOL    HW133530   3.765   0.076  13.045  0.4084  0.0580  1.2666
 7299SOL    HW233531   3.848   0.161  12.965 -1.2857 -1.5937 -0.8903
 7300SOL     OW33532   1.663   2.687   4.110  0.4151  0.3551 -0.4032
 7300SOL    HW133533   1.640   2.709   4.200  1.9533 -0.0285  0.0825
 7300SOL    HW233534   1.588   2.727   4.065 -1.4471 -3.1017 -0.3165
 7301SOL     OW33535   1.021   4.343   5.771 -0.1880 -0.0792  0.3044
 7301SOL    HW133536   1.001   4.426   5.815 -0.3720  0.1000 -0.1135
 7301SOL    HW233537   0.928   4.318   5.775 -0.2349  0.7417  4.1037
 7302SOL     OW33538   2.634   2.639   6.350 -0.2892 -0.4086  0.6901
 7302SOL    HW133539   2.539   2.649   6.341 -0.0082  1.7980  0.3484
 7302SOL    HW233540   2.670   2.662   6.265  0.0947  2.3100  1.5985
 7303SOL     OW33541   1.197   1.017  11.925 -0.0904 -0.1429 -0.2636
 7303SOL    HW133542   1.140   1.005  12.001 -0.9516  0.8575 -0.7473
 7303SOL    HW233543   1.270   0.960  11.949  1.4558  1.4410 -1.1643
 7304SOL     OW33544   2.335   0.944  17.617 -0.5505 -0.5273 -0.4389
 7304SOL    HW133545   2.240   0.951  17.612 -0.4455  1.2044 -0.0292
 7304SOL    HW233546   2.368   0.985  17.697  0.6574 -0.0631 -1.1665
 7305SOL     OW33547   0.096   1.528  11.396 -0.0013  0.2815 -0.2700
 7305SOL    HW133548   0.188   1.503  11.405  0.0376  1.0072  1.4598
 7305SOL    HW233549   0.111   1.622  11.381 -1.3892  0.9886  2.8229
 7306SOL     OW33550   2.062   3.377  12.729 -0.0308  0.1829  0.6257
 7306SOL    HW133551   2.018   3.452  12.688  0.5675 -0.9467 -2.0472
 7306SOL    HW233552   2.068   3.411  12.818 -2.2503 -1.2016  1.3139
 7307SOL     OW33553   2.220   1.912  10.352  0.3188 -0.5432 -0.0089
 7307SOL    HW133554   2.184   1.823  10.361  0.9138 -0.9247 -1.5119
 7307SOL    HW233555   2.287   1.912  10.420  1.7298  1.9403 -1.4300
 7308SOL     OW33556   2.269   2.651   4.003 -0.3820 -0.5312  0.0158
 7308SOL    HW133557   2.280   2.557   4.018 -0.3761 -0.2459  1.7828
 7308SOL    HW233558   2.229   2.687   4.082 -2.4870 -0.2070 -1.2090
 7309SOL     OW33559   4.093   2.973  17.060  0.6601  0.0342  0.3194
 7309SOL    HW133560   3.999   2.976  17.077  0.3539  2.2829 -1.8418
 7309SOL    HW233561   4.086   2.963  16.965  2.7525 -1.6571  0.3440
 7310SOL     OW33562   3.713   4.209   2.518  0.5046  0.4656 -0.2406
 7310SOL    HW133563   3.787   4.209   2.458  0.4443 -0.7678 -0.3113
 7310SOL    HW233564   3.679   4.299   2.517  0.1794  0.4017  3.0503
 7311SOL     OW33565   0.866   1.559  12.118 -0.2790  0.4563  0.4149
 7311SOL    HW133566   0.841   1.484  12.063  0.4383 -0.6696  1.6165
 7311SOL    HW233567   0.849   1.635  12.063  1.6060 -0.2260 -1.0790
 7312SOL     OW33568   4.031   1.355  14.320  0.3518  0.0551  0.5837
 7312SOL    HW133569   3.946   1.311  14.322  0.5666 -0.3415  1.1364
 7312SOL    HW233570   4.004   1.445  14.338  0.5420 -0.3215  2.7802
 7313SOL     OW33571   3.619   4.293   5.035  0.2317 -0.1656  0.1300
 7313SOL    HW133572   3.679   4.350   4.988  0.3578  0.6900  1.3314
 7313SOL    HW233573   3.639   4.208   4.995 -1.3603 -0.3694 -0.2436
 7314SOL     OW33574   3.828   1.281  11.729  0.1120 -0.6092  0.4345
 7314SOL    HW133575   3.908   1.291  11.780 -0.5784  2.0410  1.0007
 7314SOL    HW233576   3.851   1.326  11.647 -0.3926 -1.9669 -0.4627
 7315SOL     OW33577   2.423   0.833   6.891  0.2041 -0.2779  0.0371
 7315SOL    HW133578   2.364   0.841   6.815 -1.0137 -0.1744  1.0036
 7315SOL    HW233579   2.487   0.904   6.891 -1.0823  0.8833 -0.4436
 7316SOL     OW33580   1.609   1.602   0.292 -0.0891  0.2139  0.0408
 7316SOL    HW133581   1.609   1.646   0.207  0.3329 -1.3347 -0.7706
 7316SOL    HW233582   1.564   1.517   0.284  0.3752 -0.0662  0.3984
 7317SOL     OW33583   4.084   0.160  14.748 -0.2437  0.4212 -0.1349
 7317SOL    HW133584   4.073   0.243  14.702  0.9433 -0.0889 -1.3102
 7317SOL    HW233585   4.172   0.161  14.786  0.8459 -0.3530 -2.6702
 7318SOL     OW33586   0.820   1.304  15.433 -0.0325 -0.6675  0.1784
 7318SOL    HW133587   0.735   1.269  15.407  0.3267 -1.4225  0.0235
 7318SOL    HW233588   0.825   1.355  15.352  1.7756 -1.4066 -0.1915
 7319SOL     OW33589   0.127   3.853   2.642  1.3159  0.1136 -0.1107
 7319SOL    HW133590   0.135   3.883   2.551  0.6484 -0.3466 -0.3212
 7319SOL    HW233591   0.085   3.928   2.684  1.1517 -0.3710  0.5873
 7320SOL     OW33592   3.952   3.158   2.229 -0.0315  0.2807  0.1585
 7320SOL    HW133593   3.904   3.091   2.278  1.9739 -0.1069  1.6115
 7320SOL    HW233594   4.018   3.107   2.182 -0.0472 -2.3953  3.0787
 7321SOL     OW33595   4.178   1.368   2.632  0.0701 -0.4931 -0.1510
 7321SOL    HW133596   4.239   1.298   2.609  1.5896  1.0781 -0.9275
 7321SOL    HW233597   4.204   1.385   2.722  0.1122 -0.1599 -0.2259
 7322SOL     OW33598   3.731   1.116  11.919 -0.0564 -0.2871 -0.4653
 7322SOL    HW133599   3.767   1.176  11.854  0.0300  0.7779  0.5684
 7322SOL    HW233600   3.810   1.102  11.971  0.0454  0.5444 -0.3953
 7323SOL     OW33601   2.597   4.568   9.125  0.1225 -0.1722  0.2341
 7323SOL    HW133602   2.575   4.659   9.145 -1.2665 -0.3125 -0.6418
 7323SOL    HW233603   2.642   4.585   9.042  2.0316 -2.3929  0.7994
 7324SOL     OW33604   3.626   3.051  17.523  0.0362 -0.1814  0.2394
 7324SOL    HW133605   3.715   3.059  17.491 -0.0221  1.4252  0.5105
 7324SOL    HW233606   3.635   3.035  17.617 -0.6400  1.8618  0.6516
 7325SOL     OW33607   4.465   1.120   1.223  0.3462  0.2896 -0.0255
 7325SOL    HW133608   4.438   1.194   1.169 -0.0275  0.2969  0.1746
 7325SOL    HW233609   4.560   1.134   1.222  0.4948 -0.7351 -0.6894
 7326SOL     OW33610   2.235   3.168   4.617  0.4901 -0.0057 -0.0552
 7326SOL    HW133611   2.231   3.255   4.577  1.5403  0.5526  1.0474
 7326SOL    HW233612   2.143   3.145   4.628 -0.2106  2.7549 -0.1373
 7327SOL     OW33613   1.736   1.566   1.665  0.0366 -0.2445 -0.1914
 7327SOL    HW133614   1.649   1.605   1.655  0.8377  1.8091  0.9756
 7327SOL    HW233615   1.723   1.492   1.724 -1.8306 -1.7966 -2.5738
 7328SOL     OW33616   3.871   4.649   4.229  0.5173 -0.5591 -0.1410
 7328SOL    HW133617   3.846   4.690   4.147  0.3519 -1.6434 -0.6374
 7328SOL    HW233618   3.967   4.646   4.228  0.4975 -1.7160  0.6188
 7329SOL     OW33619   1.085   3.386  14.531  0.3032  0.3328 -0.3719
 7329SOL    HW133620   1.018   3.444  14.495  0.7328 -0.4003 -2.3689
 7329SOL    HW233621   1.078   3.317  14.465 -0.0525 -0.8983  0.9428
 7330SOL     OW33622   3.193   2.051   5.386 -0.9020  0.4495  0.3093
 7330SOL    HW133623   3.109   2.069   5.429 -0.4537  1.7955  0.5961
 7330SOL    HW233624   3.197   2.124   5.324 -1.2734  1.4477  1.4624
 7331SOL     OW33625   0.643   3.240   6.793  0.1646  0.1258 -0.3876
 7331SOL    HW133626   0.557   3.205   6.816 -0.1633  1.5216  0.5121
 7331SOL    HW233627   0.649   3.319   6.848  0.8406 -0.3706  0.2581
 7332SOL     OW33628   0.573   1.948  17.703  0.2460  0.2007  0.5314
 7332SOL    HW133629   0.588   2.041  17.692  1.6684 -0.0375  0.5232
 7332SOL    HW233630   0.653   1.903  17.675 -0.2666 -0.1635 -0.3484
 7333SOL     OW33631   4.700   0.372   5.498 -0.4379 -0.2427  0.7750
 7333SOL    HW133632   4.635   0.316   5.456 -0.0596  0.8331 -1.2412
 7333SOL    HW233633   4.671   0.386   5.588 -3.6797 -0.1657 -0.2497
 7334SOL     OW33634   2.878   1.502   7.591  0.1772 -0.2150 -0.1211
 7334SOL    HW133635   2.872   1.575   7.530 -0.1411  0.4722  0.7227
 7334SOL    HW233636   2.827   1.541   7.663 -0.8913 -1.1936 -0.3613
 7335SOL     OW33637   1.088   3.747   2.468 -0.1544 -0.6769  0.1709
 7335SOL    HW133638   1.152   3.694   2.516  0.4908  0.9121  1.0870
 7335SOL    HW233639   1.038   3.681   2.420  1.4050 -3.2331  2.0711
 7336SOL     OW33640   2.851   1.000   5.366  0.0561 -0.0485 -0.2064
 7336SOL    HW133641   2.940   0.968   5.349  0.5267  0.0781  1.9591
 7336SOL    HW233642   2.840   1.078   5.311  0.1428  2.6802  3.6477
 7337SOL     OW33643   1.372   0.113   4.410  0.8724  0.2603  0.4326
 7337SOL    HW133644   1.432   0.138   4.480  0.8910 -1.0021  0.8612
 7337SOL    HW233645   1.387   0.177   4.340  1.1244 -0.4869 -0.1915
 7338SOL     OW33646   0.770   3.065  17.311 -0.0460  0.1698  0.2313
 7338SOL    HW133647   0.822   3.033  17.237  1.7319  2.6603  0.4465
 7338SOL    HW233648   0.698   3.100  17.257 -0.0103 -0.5753 -0.3033
 7339SOL     OW33649   2.479   4.707  11.009  0.3068 -0.1001  0.0784
 7339SOL    HW133650   2.537   4.648  10.960 -0.8942  1.7037 -3.5205
 7339SOL    HW233651   2.538   0.004  11.074  0.8726  0.3442 -0.7052
 7340SOL     OW33652   3.833   4.352  14.079  0.5373  0.2562 -0.5455
 7340SOL    HW133653   3.812   4.283  14.016  0.1020  1.6365 -1.9170
 7340SOL    HW233654   3.917   4.316  14.106  0.2967  1.4040  1.7217
 7341SOL     OW33655   0.759   4.030   4.748  0.0089 -0.3974  0.1183
 7341SOL    HW133656   0.771   4.080   4.829  0.5743 -2.3447  1.2318
 7341SOL    HW233657   0.833   4.067   4.699 -0.2936  1.9349  1.4089
 7342SOL     OW33658   3.476   4.570  14.726 -0.1069 -0.1762  0.3112
 7342SOL    HW133659   3.480   4.491  14.673 -1.8827 -0.9351  1.3177
 7342SOL    HW233660   3.389   4.568  14.766 -0.4468  1.3170 -0.3505
 7343SOL     OW33661   0.827   1.902   7.374 -0.6140 -0.4056 -0.5696
 7343SOL    HW133662   0.764   1.833   7.395 -0.4836 -0.6295 -0.9123
 7343SOL    HW233663   0.793   1.988   7.401 -0.0206 -0.3507  0.0087
 7344SOL     OW33664   0.320   0.676  17.102  0.2715  0.3016 -0.1753
 7344SOL    HW133665   0.231   0.684  17.069  0.2255  0.9201  0.0985
 7344SOL    HW233666   0.299   0.642  17.189 -0.0129 -1.6047 -0.9777
 7345SOL     OW33667   0.301   3.237   8.267  0.4915  0.4724 -0.5009
 7345SOL    HW133668   0.364   3.204   8.331  2.0034  1.6662 -1.3803
 7345SOL    HW233669   0.357   3.303   8.227  2.5872  0.3271  2.1855
 7346SOL     OW33670   4.604   1.721   2.139  0.9574 -0.0228  0.3851
 7346SOL    HW133671   4.698   1.720   2.155  1.4380  0.3515 -2.4655
 7346SOL    HW233672   4.617   1.739   2.046 -1.2542  1.1631  0.3079
 7347SOL     OW33673   2.937   1.561   3.930  0.7217  0.1119 -0.2654
 7347SOL    HW133674   2.991   1.597   4.001 -0.1859  0.1747  0.3923
 7347SOL    HW233675   2.940   1.470   3.958 -2.7272  0.0484 -0.1718
 7348SOL     OW33676   0.078   4.522   5.888 -0.3807  0.5962 -0.1670
 7348SOL    HW133677   0.033   4.499   5.807  0.5983  1.1581 -0.8706
 7348SOL    HW233678   0.170   4.516   5.863 -0.3294 -0.6343  0.3035
 7349SOL     OW33679   1.127   2.485  12.687  0.2199 -0.1384 -0.1755
 7349SOL    HW133680   1.036   2.502  12.713 -0.2941 -2.6293 -0.3323
 7349SOL    HW233681   1.123   2.389  12.686  2.6350 -0.2485  0.5285
 7350SOL     OW33682   2.456   3.611   2.001  0.1378 -0.0253  0.6009
 7350SOL    HW133683   2.361   3.600   2.008 -0.0895  2.2748  0.9247
 7350SOL    HW233684   2.485   3.624   2.091 -1.1008  0.6973  0.9000
 7351SOL     OW33685   1.973   0.720  17.432  0.1891  0.1819 -0.6001
 7351SOL    HW133686   2.025   0.746  17.357  0.8538  0.2721 -0.1102
 7351SOL    HW233687   2.009   0.776  17.501  0.1089 -0.8482  0.2989
 7352SOL     OW33688   0.615   1.432   7.907 -0.2324 -0.5721  0.2402
 7352SOL    HW133689   0.568   1.431   7.990  2.0299  2.3683  1.5432
 7352SOL    HW233690   0.686   1.370   7.926 -0.0923  0.0219  1.6309
 7353SOL     OW33691   3.977   0.440   2.957  0.8572 -0.2894  0.0677
 7353SOL    HW133692   4.041   0.442   3.028  0.6987 -1.8970  0.2524
 7353SOL    HW233693   3.896   0.467   2.999  0.8086  0.8719 -0.7693
 7354SOL     OW33694   0.162   3.331   2.827  0.2491 -0.4229 -0.3190
 7354SOL    HW133695   0.258   3.330   2.831  0.3142 -0.8591 -1.9840
 7354SOL    HW233696   0.154   3.415   2.781 -0.0151  0.0669  0.6274
 7355SOL     OW33697   2.909   4.116   6.770 -0.5668  0.0390  0.4745
 7355SOL    HW133698   2.931   4.057   6.698  0.2632  0.1335  0.6457
 7355SOL    HW233699   2.817   4.091   6.767 -0.3758 -0.4243 -1.3994
 7356SOL     OW33700   1.933   2.354   7.454 -0.0562  0.0551  0.3185
 7356SOL    HW133701   1.887   2.271   7.456  1.5600 -0.8402  0.7227
 7356SOL    HW233702   1.895   2.390   7.375  0.0528 -0.2783  0.1128
 7357SOL     OW33703   3.883   2.984   2.435  0.1807  0.0168  0.2866
 7357SOL    HW133704   3.865   2.923   2.507  0.5717 -2.7264 -1.9237
 7357SOL    HW233705   3.967   2.961   2.396 -0.1978 -0.4945 -0.2275
 7358SOL     OW33706   2.892   3.075   0.095  0.0616  0.0211 -0.0004
 7358SOL    HW133707   2.934   3.147   0.047  0.0161 -0.7900 -1.2444
 7358SOL    HW233708   2.941   3.077   0.178 -0.5307  0.0808  0.3429
 7359SOL     OW33709   4.637   3.206  11.112 -0.5558 -0.1792 -0.3356
 7359SOL    HW133710   4.624   3.273  11.179 -0.1873 -0.9114  0.4617
 7359SOL    HW233711   4.657   3.128  11.163 -2.9164  0.2731  1.2406
 7360SOL     OW33712   2.631   0.132   9.911  0.1235 -0.1634 -0.2932
 7360SOL    HW133713   2.634   0.118   9.816  1.6536  0.1392 -0.2812
 7360SOL    HW233714   2.682   0.055   9.937  1.4606  0.5380 -0.8576
 7361SOL     OW33715   0.770   1.737  17.160 -0.1863  0.2065 -0.4848
 7361SOL    HW133716   0.711   1.694  17.222 -2.2873 -0.3822 -2.9117
 7361SOL    HW233717   0.771   1.825  17.197 -2.1893  0.2479 -0.5379
 7362SOL     OW33718   0.550   2.441   8.666 -0.3359 -0.0615  0.5217
 7362SOL    HW133719   0.616   2.448   8.735 -0.3976 -0.9540  0.6777
 7362SOL    HW233720   0.473   2.431   8.721  0.2592 -0.4725  1.2813
 7363SOL     OW33721   2.254   3.782   9.031 -0.0579 -0.4478 -0.1958
 7363SOL    HW133722   2.244   3.794   8.937 -0.0054  4.0917  0.3753
 7363SOL    HW233723   2.349   3.781   9.030 -0.0873 -0.1589 -2.1288
 7364SOL     OW33724   0.549   0.670  11.225  0.0577  0.1732  0.0293
 7364SOL    HW133725   0.530   0.583  11.191  1.2003 -0.4154  0.8969
 7364SOL    HW233726   0.498   0.720  11.161 -0.7016  0.0454  0.5328
 7365SOL     OW33727   2.153   1.306   4.140 -0.4693  0.5777  0.0272
 7365SOL    HW133728   2.156   1.325   4.234 -2.3052 -1.0925  0.4389
 7365SOL    HW233729   2.083   1.241   4.144  1.9918 -2.0177  1.1303
 7366SOL     OW33730   0.311   0.404   8.322 -0.1097  0.6876  0.5031
 7366SOL    HW133731   0.304   0.373   8.232 -0.1618  1.3354  0.2851
 7366SOL    HW233732   0.360   0.484   8.306 -0.4940  0.8310  0.0647
 7367SOL     OW33733   3.779   4.141   3.924  0.8648  0.3869 -0.2066
 7367SOL    HW133734   3.810   4.052   3.909 -2.0015 -0.6184 -0.2507
 7367SOL    HW233735   3.693   4.142   3.881 -0.7154  1.3763  2.9386
 7368SOL     OW33736   3.738   1.292   7.156 -0.3122 -0.5827  0.4183
 7368SOL    HW133737   3.813   1.237   7.181 -1.3387 -2.0953  0.2069
 7368SOL    HW233738   3.663   1.239   7.182 -0.6191 -1.2627 -1.8324
 7369SOL     OW33739   2.224   0.650   8.372  0.3088  0.5894 -0.1674
 7369SOL    HW133740   2.261   0.642   8.284  0.3932 -1.1622  0.0272
 7369SOL    HW233741   2.137   0.612   8.359  0.1980  0.8675 -0.2370
 7370SOL     OW33742   1.490   0.255  16.744 -0.2604 -0.2556 -0.1434
 7370SOL    HW133743   1.422   0.217  16.799 -1.3399 -0.3478 -1.5375
 7370SOL    HW233744   1.465   0.231  16.655 -0.1047 -2.1446  0.3277
 7371SOL     OW33745   1.743   0.993   5.072  0.0450  0.0075 -0.1463
 7371SOL    HW133746   1.798   1.069   5.094 -0.7823  0.6779 -0.4085
 7371SOL    HW233747   1.721   0.978   5.164 -1.4987  1.8253 -0.2298
 7372SOL     OW33748   3.412   4.717   7.429  0.2188  0.2261  0.5473
 7372SOL    HW133749   3.422   0.011   7.340  0.9370 -1.9745 -0.2363
 7372SOL    HW233750   3.320   0.002   7.440 -0.9289 -3.1333 -1.2114
 7373SOL     OW33751   2.177   3.717   6.172 -0.5555  0.6670  0.0988
 7373SOL    HW133752   2.211   3.640   6.216 -0.7574  1.3144  1.3751
 7373SOL    HW233753   2.134   3.762   6.245 -1.2715 -0.3442  0.2981
 7374SOL     OW33754   1.803   4.206  12.419 -0.0701  0.2724 -0.0318
 7374SOL    HW133755   1.848   4.249  12.345  0.1675 -0.5622 -0.3721
 7374SOL    HW233756   1.753   4.278  12.458 -0.9286  0.5031 -1.5565
 7375SOL     OW33757   2.643   0.136   8.295 -0.5153 -0.0860  0.2489
 7375SOL    HW133758   2.639   0.052   8.343 -0.5710  1.3861  2.8307
 7375SOL    HW233759   2.681   0.195   8.360 -0.3226 -0.4944  0.5085
 7376SOL     OW33760   4.686   3.859   8.635 -0.1556  0.4395 -0.3784
 7376SOL    HW133761   4.649   3.834   8.719 -1.1519 -0.8454 -1.1961
 7376SOL    HW233762   0.037   3.841   8.658 -0.4274  0.7014  0.9077
 7377SOL     OW33763   3.955   3.859   5.584  0.5235 -0.4132 -0.5825
 7377SOL    HW133764   3.864   3.844   5.556  0.3614 -1.6192  0.5853
 7377SOL    HW233765   3.942   3.886   5.675  0.5045 -0.4847 -0.5640
 7378SOL     OW33766   2.653   1.540  16.917  0.2206 -0.6790  0.1182
 7378SOL    HW133767   2.646   1.445  16.916  2.4666 -0.8472 -1.3223
 7378SOL    HW233768   2.704   1.558  16.838 -0.1360  1.4007  0.3482
 7379SOL     OW33769   2.157   2.843  14.762  0.3113  0.0479 -0.4244
 7379SOL    HW133770   2.089   2.903  14.793  1.7954  1.3465  0.3260
 7379SOL    HW233771   2.155   2.781  14.835 -0.0504 -0.6124 -1.0006
 7380SOL     OW33772   1.232   3.612  11.200  0.2877 -0.4035  0.2980
 7380SOL    HW133773   1.271   3.574  11.279  1.0568 -0.3410 -0.0509
 7380SOL    HW233774   1.184   3.686  11.237 -2.1296 -1.2250 -1.2127
 7381SOL     OW33775   0.103   0.780   2.631  0.2819  0.3045 -0.7364
 7381SOL    HW133776   0.026   0.830   2.658 -0.9507 -0.1350 -3.4896
 7381SOL    HW233777   0.128   0.841   2.563 -2.0102  2.4728  0.3779
 7382SOL     OW33778   3.908   3.093   7.685  0.2946  0.1098  0.2244
 7382SOL    HW133779   3.980   3.042   7.722  0.1817 -1.1221 -1.2370
 7382SOL    HW233780   3.935   3.185   7.686  0.2935  0.1143 -0.1660
 7383SOL     OW33781   0.980   3.370  11.181  0.3352 -0.0565  0.2828
 7383SOL    HW133782   0.908   3.307  11.190  0.6285 -0.8854 -3.2387
 7383SOL    HW233783   0.928   3.450  11.172  0.8018  0.1507 -0.5346
 7384SOL     OW33784   2.204   2.199  15.911  0.4447 -0.0146 -0.1691
 7384SOL    HW133785   2.146   2.178  15.838  0.4971 -0.6847 -0.0191
 7384SOL    HW233786   2.233   2.110  15.935  1.3800  0.5437  0.7852
 7385SOL     OW33787   0.777   2.197   2.217  0.1204 -0.4521  0.4420
 7385SOL    HW133788   0.848   2.135   2.199 -0.1482 -0.5704 -0.2034
 7385SOL    HW233789   0.810   2.249   2.290 -0.0031  0.6322 -0.2822
 7386SOL     OW33790   3.798   4.427   8.626 -0.1754 -0.0484  0.5595
 7386SOL    HW133791   3.865   4.370   8.663 -0.0927 -1.5790 -2.0069
 7386SOL    HW233792   3.729   4.431   8.692 -0.5595 -1.8680  0.2491
 7387SOL     OW33793   1.396   3.113  16.685 -0.7627  0.3091 -0.1594
 7387SOL    HW133794   1.397   3.052  16.759 -1.4825 -1.7974 -1.8745
 7387SOL    HW233795   1.409   3.067  16.602 -0.0728  0.1961  0.0131
 7388SOL     OW33796   4.490   2.169   3.990  0.3451 -0.2386  0.0714
 7388SOL    HW133797   4.516   2.155   3.899 -1.3191  1.3108 -0.6388
 7388SOL    HW233798   4.426   2.101   4.010 -0.0118 -0.0236 -0.3419
 7389SOL     OW33799   3.221   1.492   4.652  0.1522 -0.0983  0.1419
 7389SOL    HW133800   3.127   1.494   4.671  0.5678  1.3985  2.0503
 7389SOL    HW233801   3.254   1.433   4.720  1.8545  0.0286 -0.5633
 7390SOL     OW33802   3.565   2.132   8.833  0.1705 -0.4532  0.6554
 7390SOL    HW133803   3.605   2.049   8.861  2.1330 -0.0476 -0.8587
 7390SOL    HW233804   3.578   2.185   8.911  0.8289  0.3410  0.0059
 7391SOL     OW33805   1.553   0.078  15.984 -0.5522  0.5991 -0.1477
 7391SOL    HW133806   1.534   0.063  15.892 -0.8285  1.4227 -0.2251
 7391SOL    HW233807   1.505   0.160  15.998 -0.2763  0.2236  3.1756
 7392SOL     OW33808   0.993   4.676   8.080  0.5179 -0.1250  0.4083
 7392SOL    HW133809   0.921   4.673   8.143  0.0264 -2.1067 -0.2636
 7392SOL    HW233810   0.995   0.031   8.087 -0.4377 -0.1304  0.7153
 7393SOL     OW33811   0.360   1.832   5.586  0.0301  0.3485 -0.1241
 7393SOL    HW133812   0.327   1.886   5.658 -0.6164 -0.7819  0.4287
 7393SOL    HW233813   0.428   1.783   5.632 -0.9550 -0.9582 -0.0523
 7394SOL     OW33814   0.761   4.498   4.373  0.1008  0.0039  0.0405
 7394SOL    HW133815   0.693   4.566   4.373 -0.7561 -0.8507 -1.6508
 7394SOL    HW233816   0.764   4.478   4.280 -0.9577  1.3076 -0.2805
 7395SOL     OW33817   4.355   3.896   3.335  0.2081 -0.1058  0.0864
 7395SOL    HW133818   4.409   3.975   3.338  1.0099 -0.5605 -1.8192
 7395SOL    HW233819   4.403   3.840   3.396 -0.0881  0.0589  0.4678
 7396SOL     OW33820   3.110   1.134  16.466 -0.3620  0.1086  0.5906
 7396SOL    HW133821   3.190   1.082  16.463  0.0817  0.8380 -0.5129
 7396SOL    HW233822   3.051   1.085  16.410  1.4785 -0.2286 -1.0507
 7397SOL     OW33823   0.893   0.403   3.119 -0.3733  0.4573  0.0591
 7397SOL    HW133824   0.802   0.408   3.148 -0.0837 -0.2781  1.0813
 7397SOL    HW233825   0.900   0.494   3.091 -0.6682  0.0270 -1.4126
 7398SOL     OW33826   1.662   2.109   6.632  0.3467 -0.3622 -0.0652
 7398SOL    HW133827   1.626   2.050   6.699  2.9146 -0.1152  1.5151
 7398SOL    HW233828   1.641   2.196   6.664  1.3239  0.7141 -2.3985
 7399SOL     OW33829   2.827   1.499   2.479  0.2445 -0.2806  0.4706
 7399SOL    HW133830   2.870   1.580   2.451 -2.3524  1.4053  1.2554
 7399SOL    HW233831   2.765   1.491   2.406  0.3359 -0.4224  0.4100
 7400SOL     OW33832   2.558   4.595   8.186  0.1073 -0.1157  0.0747
 7400SOL    HW133833   2.616   4.628   8.255  1.2794  1.1086 -1.4973
 7400SOL    HW233834   2.617   4.553   8.123  0.5649 -2.8475  2.3057
 7401SOL     OW33835   1.717   2.483   5.972 -1.0938 -0.0810  0.4074
 7401SOL    HW133836   1.805   2.458   5.945 -1.2956 -0.1997 -0.1413
 7401SOL    HW233837   1.717   2.568   5.929 -1.6049  0.5334  1.6091
 7402SOL     OW33838   0.803   1.055  12.489 -0.7747 -0.1634  0.2201
 7402SOL    HW133839   0.875   0.993  12.478 -0.6456  0.0146  0.0704
 7402SOL    HW233840   0.789   1.068  12.395  1.6773  0.5062 -0.0441
 7403SOL     OW33841   0.664   4.240   6.696 -0.1536  0.8447 -0.7833
 7403SOL    HW133842   0.683   4.147   6.682  0.6840  1.0369 -0.9616
 7403SOL    HW233843   0.632   4.256   6.607 -0.3628  0.4292 -0.7841
 7404SOL     OW33844   3.308   2.071   2.655 -0.0450 -0.0896 -0.5446
 7404SOL    HW133845   3.350   1.990   2.687  0.7577  0.2166 -0.8218
 7404SOL    HW233846   3.333   2.135   2.721 -0.1845 -0.0599 -0.5217
 7405SOL     OW33847   1.837   1.560  16.452 -0.4099  0.6477 -0.4349
 7405SOL    HW133848   1.774   1.520  16.392  0.4870 -1.8336  0.2806
 7405SOL    HW233849   1.898   1.488  16.465 -0.0719  0.8043 -1.1512
 7406SOL     OW33850   2.456   2.636   3.597 -0.9623  0.0205  0.1050
 7406SOL    HW133851   2.459   2.542   3.581  1.3258 -0.0319  0.8404
 7406SOL    HW233852   2.365   2.648   3.623 -1.9955 -1.1992 -2.9074
 7407SOL     OW33853   1.697   2.494  12.196 -0.1420  0.1416 -0.2143
 7407SOL    HW133854   1.660   2.541  12.121 -0.0161 -0.8907 -0.9202
 7407SOL    HW233855   1.621   2.496  12.255  1.3254  2.2058  1.5926
 7408SOL     OW33856   2.597   1.671   4.932 -0.1707 -0.1872 -0.4934
 7408SOL    HW133857   2.679   1.707   4.965  0.9813 -2.6302 -0.7173
 7408SOL    HW233858   2.576   1.612   5.005  0.7547 -0.8896 -0.7925
 7409SOL     OW33859   3.367   3.529  12.216  0.6517  0.4491  0.0548
 7409SOL    HW133860   3.454   3.570  12.218  1.3736 -1.0542 -0.4654
 7409SOL    HW233861   3.389   3.436  12.224  2.4404  0.8315 -0.3322
 7410SOL     OW33862   3.088   2.007  11.459 -0.0103 -0.1171  0.3774
 7410SOL    HW133863   3.179   2.026  11.438 -0.1338 -1.1541 -1.0782
 7410SOL    HW233864   3.047   2.021  11.374 -0.2324  4.6888  1.2356
 7411SOL     OW33865   1.347   0.677  12.882  0.2813  0.0312  0.3888
 7411SOL    HW133866   1.428   0.677  12.832  0.3884  0.6566  0.5697
 7411SOL    HW233867   1.293   0.632  12.816 -0.5404  1.1897  0.2666
 7412SOL     OW33868   2.826   0.641   4.436 -0.4780  0.4751  0.3799
 7412SOL    HW133869   2.921   0.633   4.442 -0.3551 -0.0616 -1.9891
 7412SOL    HW233870   2.814   0.679   4.349  1.5329 -1.3981 -0.7195
 7413SOL     OW33871   4.660   2.059  16.957 -0.0628  0.5204  0.2581
 7413SOL    HW133872   4.566   2.064  16.939 -0.0348 -2.6418 -0.6956
 7413SOL    HW233873   4.663   2.076  17.051 -1.4779  1.2361  0.1799
 7414SOL     OW33874   1.188   0.086   7.248  0.3267  0.2695 -0.5775
 7414SOL    HW133875   1.174   0.112   7.157  0.4570  1.0948 -0.3651
 7414SOL    HW233876   1.251   0.018   7.227 -1.2095 -2.1436  2.5638
 7415SOL     OW33877   2.034   4.269  15.313 -0.0999 -0.0107 -0.1803
 7415SOL    HW133878   1.984   4.256  15.393  1.2857 -0.6717  0.5737
 7415SOL    HW233879   1.965   4.267  15.246  1.0649  0.4579 -1.4109
 7416SOL     OW33880   1.651   3.471  12.300  0.0950 -0.4516  0.5652
 7416SOL    HW133881   1.595   3.486  12.376  0.0191  1.5069  0.1104
 7416SOL    HW233882   1.707   3.401  12.335  0.7189 -0.5306 -0.5810
 7417SOL     OW33883   0.765   2.416  11.101  0.1425  0.0046 -0.3522
 7417SOL    HW133884   0.757   2.348  11.035 -1.2454  1.1240 -1.3491
 7417SOL    HW233885   0.729   2.360  11.170  1.1331 -0.3758 -0.1479
 7418SOL     OW33886   4.145   2.832  12.554  0.4834  0.0232  0.1294
 7418SOL    HW133887   4.141   2.808  12.462  0.4676 -0.8868  0.3660
 7418SOL    HW233888   4.058   2.806  12.586 -0.9262  1.3966 -2.5836
 7419SOL     OW33889   2.772   1.553  17.270 -0.5577  0.2989  0.2728
 7419SOL    HW133890   2.747   1.639  17.236 -1.4135  0.6028  1.6664
 7419SOL    HW233891   2.839   1.523  17.208 -0.9297 -0.6558  0.3303
 7420SOL     OW33892   0.030   0.021   5.650 -0.5770  0.4640 -0.2890
 7420SOL    HW133893   0.032   0.027   5.746 -0.1480 -0.9877 -0.2046
 7420SOL    HW233894   4.717   4.683   5.644  0.0811 -0.1911  2.4613
 7421SOL     OW33895   1.630   1.396   5.370  0.5063  0.3253  0.1769
 7421SOL    HW133896   1.610   1.482   5.405  0.1781  0.7332 -1.0108
 7421SOL    HW233897   1.543   1.357   5.381  0.5692 -0.2788 -1.3323
 7422SOL     OW33898   0.356   2.227  10.635  0.1931  0.3383  0.2807
 7422SOL    HW133899   0.435   2.269  10.601  1.0093 -0.3550  1.3127
 7422SOL    HW233900   0.281   2.279  10.605 -0.1490  0.8062  1.9278
 7423SOL     OW33901   0.423   1.708   7.280  0.2676 -0.0300 -0.1508
 7423SOL    HW133902   0.380   1.623   7.279 -1.0972  0.6719 -2.5974
 7423SOL    HW233903   0.398   1.747   7.363 -0.0626 -2.5242  0.9153
 7424SOL     OW33904   3.529   1.265  10.156 -0.0997 -0.3178 -0.1278
 7424SOL    HW133905   3.454   1.216  10.189  0.7872 -0.6165  1.4815
 7424SOL    HW233906   3.499   1.321  10.084  0.1927  0.4009  0.3036
 7425SOL     OW33907   0.633   4.429   1.971 -0.0360 -0.7252 -0.2999
 7425SOL    HW133908   0.544   4.452   1.944  0.1543 -2.4190 -2.4214
 7425SOL    HW233909   0.678   4.488   1.911  1.4516  2.0823  3.5852
 7426SOL     OW33910   2.862   1.898   9.057 -0.0120 -0.1653  0.0071
 7426SOL    HW133911   2.886   1.823   9.111 -0.6868  1.1224  2.0851
 7426SOL    HW233912   2.809   1.855   8.989  0.7429 -0.9664 -0.0824
 7427SOL     OW33913   0.011   0.308   9.501 -0.2738 -0.2248  0.2495
 7427SOL    HW133914   4.676   0.301   9.560 -0.7019 -1.2955 -0.4244
 7427SOL    HW233915   0.083   0.292   9.562  0.2765 -0.5547 -0.4808
 7428SOL     OW33916   3.109   3.798   5.063 -0.2316  0.5000  0.3796
 7428SOL    HW133917   3.127   3.868   5.000  0.4731  0.1415  0.1886
 7428SOL    HW233918   3.028   3.832   5.100 -0.0939  1.5743 -0.2931
 7429SOL     OW33919   1.080   4.259   6.975  0.0925  0.7230 -0.3220
 7429SOL    HW133920   1.157   4.215   7.011 -0.4052  1.0729  1.1787
 7429SOL    HW233921   1.092   4.347   7.010 -0.1666 -0.6365  3.1634
 7430SOL     OW33922   1.206   0.654   1.602  0.2646 -0.3167  1.0164
 7430SOL    HW133923   1.256   0.693   1.529 -0.0029  0.5943  1.3185
 7430SOL    HW233924   1.137   0.720   1.606 -0.1142 -0.5035 -2.6914
 7431SOL     OW33925   4.509   3.225  17.255 -0.3758  0.4545 -0.3562
 7431SOL    HW133926   4.444   3.206  17.188 -0.8688  0.5039  0.1088
 7431SOL    HW233927   4.561   3.286  17.203  0.5818 -0.7030 -0.7598
 7432SOL     OW33928   1.078   1.232   3.846  0.3555 -0.5596 -0.0962
 7432SOL    HW133929   1.007   1.174   3.873  1.3586 -1.5707  0.3942
 7432SOL    HW233930   1.041   1.284   3.775  0.5763 -0.4123 -0.1042
 7433SOL     OW33931   3.353   2.190   7.884  0.4098  0.1611 -0.1299
 7433SOL    HW133932   3.293   2.118   7.905 -0.0563  0.1619 -1.4530
 7433SOL    HW233933   3.302   2.233   7.816  0.4846 -2.3947 -1.8021
 7434SOL     OW33934   0.547   3.677   1.687 -0.0282  0.3910  0.4244
 7434SOL    HW133935   0.561   3.582   1.693 -1.2849 -0.0108 -2.8664
 7434SOL    HW233936   0.526   3.683   1.780  1.3934  1.9365  0.6437
 7435SOL     OW33937   3.266   0.241  10.068  0.1024  0.1542 -0.2041
 7435SOL    HW133938   3.332   0.263  10.134  0.2752  1.0201 -0.6668
 7435SOL    HW233939   3.216   0.323  10.072  2.2665  1.5016 -0.8291
 7436SOL     OW33940   3.651   1.360   3.678 -0.4090  0.2520  0.3902
 7436SOL    HW133941   3.637   1.454   3.686 -0.9070  0.3284 -1.3472
 7436SOL    HW233942   3.639   1.334   3.769 -1.3099 -0.4544  0.0763
 7437SOL     OW33943   0.947   1.036   2.743 -0.2618 -0.0795 -0.1710
 7437SOL    HW133944   1.028   1.031   2.692 -0.1880 -1.9857  0.1521
 7437SOL    HW233945   0.973   0.987   2.821  0.9566  0.7167 -0.0721
 7438SOL     OW33946   0.290   0.930   1.917  0.1844  0.1052 -0.3698
 7438SOL    HW133947   0.319   0.866   1.852  1.5272  0.3520 -0.0209
 7438SOL    HW233948   0.372   0.959   1.957  0.3302 -0.4939 -0.2455
 7439SOL     OW33949   2.709   2.553  10.677 -0.0905  0.3816  0.4949
 7439SOL    HW133950   2.715   2.496  10.754 -1.1618 -0.5337 -0.0923
 7439SOL    HW233951   2.629   2.601  10.701  0.7674  2.0540 -0.0186
 7440SOL     OW33952   4.327   1.507   1.082  0.7081  0.4681 -0.2404
 7440SOL    HW133953   4.257   1.468   1.030 -0.6465 -0.6979  2.4734
 7440SOL    HW233954   4.286   1.542   1.161  0.2493  1.7941 -1.0755
 7441SOL     OW33955   0.775   2.113  12.350 -0.3232  0.1870  0.0276
 7441SOL    HW133956   0.805   2.193  12.306 -0.5104  0.1391 -0.1858
 7441SOL    HW233957   0.691   2.149  12.377  0.2014  0.7032  0.9856
 7442SOL     OW33958   1.170   0.383   3.896  0.2446 -0.2755  0.1065
 7442SOL    HW133959   1.152   0.304   3.948 -0.2277  0.6492  1.3325
 7442SOL    HW233960   1.265   0.395   3.894  0.3483 -1.0744 -0.0827
 7443SOL     OW33961   1.272   3.112   4.632  0.2198  0.2490  0.1072
 7443SOL    HW133962   1.362   3.108   4.665  0.5820  3.8650 -0.4556
 7443SOL    HW233963   1.297   3.171   4.561  0.6502  0.0230  0.0721
 7444SOL     OW33964   4.528   2.049   6.100  0.3418  0.0451 -0.2068
 7444SOL    HW133965   4.451   1.994   6.085 -0.4273  1.8700 -2.8973
 7444SOL    HW233966   4.479   2.112   6.153 -1.1948 -1.0115 -0.3539
 7445SOL     OW33967   2.382   2.470  17.064 -0.2075  0.1682  0.2495
 7445SOL    HW133968   2.287   2.460  17.063 -0.2218  0.4262 -0.4564
 7445SOL    HW233969   2.390   2.549  17.011 -2.4591  0.6476  0.6058
 7446SOL     OW33970   3.437   2.452  16.505  0.3478 -0.4570 -0.1815
 7446SOL    HW133971   3.445   2.513  16.579  0.1183  1.8461 -2.0479
 7446SOL    HW233972   3.440   2.529  16.448 -0.6020  1.3878  2.2626
 7447SOL     OW33973   2.182   0.871  12.510  0.1875 -0.1518 -0.2056
 7447SOL    HW133974   2.110   0.846  12.453 -0.2065 -1.1670  0.7444
 7447SOL    HW233975   2.179   0.803  12.577  2.3962 -0.7758 -0.7321
 7448SOL     OW33976   1.737   0.233  13.735  0.2722 -0.3351 -0.0936
 7448SOL    HW133977   1.670   0.193  13.680  0.4623 -1.2057  0.3092
 7448SOL    HW233978   1.688   0.260  13.812 -0.4116 -1.5256 -0.1192
 7449SOL     OW33979   0.065   0.710   5.764 -0.0248  0.0443  0.0314
 7449SOL    HW133980   0.127   0.720   5.837  1.0722  1.0368 -1.0306
 7449SOL    HW233981   0.083   0.620   5.739  1.0349  0.7248 -1.6402
 7450SOL     OW33982   4.132   1.087   5.307 -0.1390 -0.2598  0.2732
 7450SOL    HW133983   4.153   1.160   5.249 -1.0037  0.3669  0.7332
 7450SOL    HW233984   4.052   1.061   5.261  0.1032  0.7744 -0.7434
 7451SOL     OW33985   2.005   0.187   8.388 -0.1444 -0.5546  0.0339
 7451SOL    HW133986   2.015   0.099   8.426  1.6239  0.4469  1.8928
 7451SOL    HW233987   2.033   0.238   8.464 -0.7826 -1.3381  0.7995
 7452SOL     OW33988   1.370   1.244  16.948  0.2108 -0.1273 -0.2649
 7452SOL    HW133989   1.385   1.248  17.043 -0.2619  0.5590 -0.2202
 7452SOL    HW233990   1.423   1.317  16.918 -0.6012  0.6517  0.1819
 7453SOL     OW33991   0.624   1.609   9.849  0.1537 -0.5205 -0.2975
 7453SOL    HW133992   0.663   1.692   9.821  1.4265 -0.4360  1.7313
 7453SOL    HW233993   0.530   1.628   9.851  0.2317 -0.3535  2.4353
 7454SOL     OW33994   3.536   4.726   0.752 -0.2210 -0.3166 -0.1359
 7454SOL    HW133995   3.509   4.671   0.826  0.2754  2.0848  1.8388
 7454SOL    HW233996   3.621   0.016   0.783 -0.0678 -0.4433 -0.4275
 7455SOL     OW33997   4.140   0.832   9.960 -0.1469  0.1358  0.0599
 7455SOL    HW133998   4.202   0.810  10.029 -0.9723 -0.4274  0.6162
 7455SOL    HW233999   4.084   0.755   9.967  1.7162 -1.0547  1.8286
 7456SOL     OW34000   3.598   1.048  10.345 -0.3524 -0.3453  0.7179
 7456SOL    HW134001   3.673   1.052  10.285 -0.6400  2.1330  0.5265
 7456SOL    HW234002   3.607   1.136  10.382 -0.4540  0.8286 -1.9960
 7457SOL     OW34003   0.318   0.129   1.538  0.1558  0.3492  1.0622
 7457SOL    HW134004   0.256   0.182   1.588  0.0052  1.7800 -0.6373
 7457SOL    HW234005   0.376   0.105   1.610  1.4048 -2.1288 -0.7589
 7458SOL     OW34006   0.273   4.402   5.659 -0.0663 -0.4164 -0.4059
 7458SOL    HW134007   0.197   4.343   5.652  0.5402 -1.0748 -1.4052
 7458SOL    HW234008   0.258   4.446   5.576 -0.8731  0.7086  0.3370
 7459SOL     OW34009   4.704   0.079   5.223 -0.0660  0.0570  0.4967
 7459SOL    HW134010   0.004   0.163   5.206 -0.6351  0.4755  1.2184
 7459SOL    HW234011   4.646   0.096   5.297 -1.3186  2.7842 -1.1050
 7460SOL     OW34012   2.620   0.763   2.379  0.2844  0.2434  0.3094
 7460SOL    HW134013   2.703   0.723   2.406 -0.2043 -0.9695  0.0263
 7460SOL    HW234014   2.652   0.802   2.297  1.0526 -1.3749 -0.1631
 7461SOL     OW34015   1.970   3.294   3.682  0.1670  0.3914  0.7842
 7461SOL    HW134016   1.933   3.207   3.692  1.2756 -0.1646  0.0913
 7461SOL    HW234017   1.931   3.343   3.755  0.2395  0.9123  0.4725
 7462SOL     OW34018   4.343   4.660   4.739  0.2965 -0.5939  0.4131
 7462SOL    HW134019   4.364   4.582   4.687 -1.8405 -0.6577 -0.3495
 7462SOL    HW234020   4.248   4.664   4.734  0.4318 -0.3987 -2.4190
 7463SOL     OW34021   3.520   0.601   1.537  0.3373 -0.1491  0.3510
 7463SOL    HW134022   3.578   0.677   1.532 -0.0281  0.2915  2.9263
 7463SOL    HW234023   3.528   0.570   1.447  1.3682 -0.8336  0.6784
 7464SOL     OW34024   2.551   4.336   4.940 -0.8527  0.2677 -0.0028
 7464SOL    HW134025   2.590   4.270   4.998 -0.3631  1.5890  1.1875
 7464SOL    HW234026   2.539   4.412   4.996  0.8359 -0.6469  1.6465
 7465SOL     OW34027   2.776   0.390  16.956  0.3221  0.2294 -0.0321
 7465SOL    HW134028   2.736   0.439  16.884 -1.5000 -2.4593 -0.8362
 7465SOL    HW234029   2.848   0.452  16.967  0.4815 -0.1469  1.0245
 7466SOL     OW34030   1.179   2.388   0.134  0.0557  0.4023  0.2649
 7466SOL    HW134031   1.158   2.470   0.090 -2.5031 -0.9615 -1.0992
 7466SOL    HW234032   1.181   2.329   0.058 -0.2563 -0.1303  0.6656
 7467SOL     OW34033   2.124   0.872   7.712 -0.2126 -0.4330  0.3774
 7467SOL    HW134034   2.141   0.795   7.658 -1.4235 -1.5892  1.6641
 7467SOL    HW234035   2.098   0.832   7.795 -0.8018 -0.2842  0.2602
 7468SOL     OW34036   0.352   4.401   3.860 -0.2520 -0.3462 -0.1320
 7468SOL    HW134037   0.297   4.327   3.833 -2.7808  0.6387  2.2463
 7468SOL    HW234038   0.390   4.357   3.936  0.6148  0.6708  0.0181
 7469SOL     OW34039   1.949   0.690   3.040 -0.1204  0.3284  0.6957
 7469SOL    HW134040   1.876   0.743   3.009  0.2909  0.8948  0.6842
 7469SOL    HW234041   2.029   0.741   3.024 -0.9528  1.8128  1.3174
 7470SOL     OW34042   4.211   1.734  10.936  0.2027 -0.2881  0.3296
 7470SOL    HW134043   4.300   1.704  10.922  0.5962  0.6166  0.9381
 7470SOL    HW234044   4.191   1.792  10.863  0.6545 -0.6660 -0.0943
 7471SOL     OW34045   1.651   2.893   1.775 -0.3268  0.4905 -0.0654
 7471SOL    HW134046   1.594   2.960   1.814 -0.0626  1.6195 -1.6234
 7471SOL    HW234047   1.590   2.820   1.763  1.7198 -0.7699 -2.7707
 7472SOL     OW34048   1.541   0.117   2.484  0.1284 -0.7192 -0.0720
 7472SOL    HW134049   1.610   0.052   2.467  1.1540 -0.4369  3.1624
 7472SOL    HW234050   1.546   0.127   2.579 -0.2456  1.2451 -0.2632
 7473SOL     OW34051   4.123   4.449   7.225 -0.1195 -0.4081  0.1840
 7473SOL    HW134052   4.184   4.486   7.161  2.8283 -0.2331  3.1154
 7473SOL    HW234053   4.089   4.380   7.167 -0.3904 -1.5038  1.6490
 7474SOL     OW34054   4.330   0.632   0.886  0.3029 -0.4463  0.0383
 7474SOL    HW134055   4.254   0.608   0.940 -0.1380  2.2637  0.6176
 7474SOL    HW234056   4.287   0.677   0.813  0.8221  0.5265  0.3420
 7475SOL     OW34057   0.498   2.778   0.017 -0.0508  0.2340  0.4313
 7475SOL    HW134058   0.568   2.754  17.717 -0.8648 -3.1799  0.8115
 7475SOL    HW234059   0.533   2.722   0.087  0.2264 -0.3887 -0.2013
 7476SOL     OW34060   1.072   3.642   9.074  0.0749 -0.0965 -0.1849
 7476SOL    HW134061   1.001   3.700   9.047  1.9413  1.7709 -1.0567
 7476SOL    HW234062   1.032   3.555   9.063 -1.4967  0.5997  0.0860
 7477SOL     OW34063   2.380   3.544  12.679  0.1073  0.6442  0.0132
 7477SOL    HW134064   2.376   3.544  12.584  0.2599  1.4891  0.0004
 7477SOL    HW234065   2.294   3.576  12.707 -0.6856 -2.3008  0.9092
 7478SOL     OW34066   1.249   4.325  12.481  0.6507 -0.1799 -0.0587
 7478SOL    HW134067   1.234   4.231  12.472 -0.2042 -0.0923  0.5494
 7478SOL    HW234068   1.319   4.329  12.547  0.4072 -0.0995  0.1929
 7479SOL     OW34069   0.952   3.521   5.600  0.1505  0.4473  0.0688
 7479SOL    HW134070   0.909   3.548   5.519 -0.3181  2.4342  0.9984
 7479SOL    HW234071   1.028   3.579   5.604 -0.6771  1.4342  1.2217
 7480SOL     OW34072   3.572   1.139   8.620  0.0061  0.2592 -0.2227
 7480SOL    HW134073   3.506   1.177   8.562  1.3746  0.2652 -1.8163
 7480SOL    HW234074   3.619   1.083   8.557 -1.9778 -0.2101 -1.2796
 7481SOL     OW34075   1.514   4.629  10.988 -0.0498  0.0759  0.1662
 7481SOL    HW134076   1.580   4.603  10.924  0.5915  0.8206  0.5142
 7481SOL    HW234077   1.439   4.577  10.961 -1.3713  1.6627  0.7712
 7482SOL     OW34078   1.536   1.629   2.918 -0.7874 -0.7548  0.0746
 7482SOL    HW134079   1.542   1.711   2.869  0.7580 -1.3730 -0.7649
 7482SOL    HW234080   1.450   1.644   2.958  0.5312  3.5281  1.2801
 7483SOL     OW34081   0.391   1.288  15.553 -0.1380  0.3091 -0.1951
 7483SOL    HW134082   0.414   1.305  15.645  0.6272 -0.3188 -0.2697
 7483SOL    HW234083   0.297   1.277  15.565  0.1053 -0.0224  1.5472
 7484SOL     OW34084   1.768   3.471   6.257 -0.3055 -0.0039  0.8772
 7484SOL    HW134085   1.706   3.503   6.321 -1.7299  1.3265 -1.1659
 7484SOL    HW234086   1.848   3.495   6.304  0.3925  2.6174 -1.6686
 7485SOL     OW34087   1.251   2.532   7.380 -0.4655 -0.4893 -0.2268
 7485SOL    HW134088   1.168   2.532   7.428  0.1299 -0.2669  0.8021
 7485SOL    HW234089   1.269   2.625   7.371 -0.7849 -0.2195  2.0650
 7486SOL     OW34090   3.048   4.642   5.591  0.3376  0.2605  0.0797
 7486SOL    HW134091   3.027   4.554   5.622 -0.4331  0.1179 -0.8805
 7486SOL    HW234092   3.094   4.627   5.509 -0.1793  0.5510 -0.2583
 7487SOL     OW34093   4.455   0.444   3.230  0.2860  0.3011  0.0692
 7487SOL    HW134094   4.487   0.462   3.141 -0.3414 -0.2994 -0.2786
 7487SOL    HW234095   4.518   0.377   3.258 -1.5435 -1.5240 -0.1716
 7488SOL     OW34096   2.885   1.503   7.167 -0.1363  0.8316  0.0505
 7488SOL    HW134097   2.893   1.562   7.242  1.9937 -0.7919  1.1147
 7488SOL    HW234098   2.941   1.538   7.097 -0.4399  3.0430  0.9202
 7489SOL     OW34099   4.498   2.483   4.664  0.1863 -0.4352  0.6070
 7489SOL    HW134100   4.418   2.479   4.612 -1.4621 -0.8384  3.1650
 7489SOL    HW234101   4.549   2.405   4.642 -0.8921 -0.2410 -2.5086
 7490SOL     OW34102   0.321   2.467   1.119  0.0506  0.4401 -0.2456
 7490SOL    HW134103   0.345   2.481   1.211  0.0601  1.4409 -0.3956
 7490SOL    HW234104   0.404   2.505   1.088  0.3463 -0.0254 -0.0233
 7491SOL     OW34105   1.483   3.225   6.489 -0.5091 -0.9728  0.2456
 7491SOL    HW134106   1.455   3.269   6.410  0.4963 -0.7066  0.0406
 7491SOL    HW234107   1.493   3.294   6.554  1.7412  0.8233 -2.0383
 7492SOL     OW34108   4.486   1.177   1.759 -0.3530 -0.0292 -0.1786
 7492SOL    HW134109   4.507   1.092   1.797 -0.1823  0.2520  0.3682
 7492SOL    HW234110   4.502   1.155   1.667  1.9273 -1.8669  0.6661
 7493SOL     OW34111   3.789   3.715  17.242  0.1364  0.6603 -0.0821
 7493SOL    HW134112   3.869   3.763  17.264  0.7338 -0.7439  0.7835
 7493SOL    HW234113   3.741   3.782  17.193  0.6622  0.2939 -1.0886
 7494SOL     OW34114   4.344   1.702  15.322 -0.5018 -0.5838 -0.4635
 7494SOL    HW134115   4.311   1.767  15.384  1.7900 -0.9323  1.1355
 7494SOL    HW234116   4.304   1.621  15.353  1.3527 -0.2337  2.8531
 7495SOL     OW34117   0.466   3.204   9.298  0.2663  0.5060  0.2727
 7495SOL    HW134118   0.410   3.269   9.342  0.2204  2.1200 -2.1663
 7495SOL    HW234119   0.495   3.255   9.222  0.7035  1.0566  0.8113
 7496SOL     OW34120   3.136   0.234   7.974  0.1635  0.2678 -0.2878
 7496SOL    HW134121   3.134   0.325   8.004  0.4619  0.2984 -0.3590
 7496SOL    HW234122   3.214   0.211   8.023  0.1807 -0.2595 -0.5639
 7497SOL     OW34123   1.953   0.972   0.384  0.0008  0.2042  0.4168
 7497SOL    HW134124   1.903   1.052   0.401  0.6405  0.8565 -0.7910
 7497SOL    HW234125   2.029   0.975   0.442  0.1576 -2.1034  0.3200
 7498SOL     OW34126   4.667   3.145   6.167 -0.6834  0.1623  0.1360
 7498SOL    HW134127   4.692   3.094   6.091  0.8557  1.6963 -0.3893
 7498SOL    HW234128   4.602   3.090   6.210 -0.8858 -1.2113 -1.9543
 7499SOL     OW34129   4.133   0.684   3.771  0.1467  0.8112 -0.4902
 7499SOL    HW134130   4.154   0.612   3.830  0.8470 -1.5732 -3.7003
 7499SOL    HW234131   4.089   0.741   3.835  0.0111  1.0751 -0.8171
 7500SOL     OW34132   4.103   3.834   7.987 -0.4093  0.5373 -0.1379
 7500SOL    HW134133   4.009   3.827   8.005 -0.2925  0.0480  0.2914
 7500SOL    HW234134   4.143   3.823   8.073 -1.2303  2.4274  0.4859
 7501SOL     OW34135   2.505   2.965   3.040 -0.0229  0.1320 -0.0356
 7501SOL    HW134136   2.568   3.020   3.086 -0.2568 -1.2433  1.8943
 7501SOL    HW234137   2.496   2.892   3.100 -2.0338  1.1779  0.9489
 7502SOL     OW34138   3.618   0.264   5.333 -0.6214  0.4324  0.0717
 7502SOL    HW134139   3.558   0.253   5.260 -1.3979  0.1834  0.7473
 7502SOL    HW234140   3.684   0.322   5.295 -1.4799 -0.0052 -2.1018
 7503SOL     OW34141   1.588   2.805  13.759 -0.2216  0.1074 -0.3321
 7503SOL    HW134142   1.532   2.751  13.702  0.1823  0.2493 -0.8607
 7503SOL    HW234143   1.643   2.844  13.691 -0.2098 -0.1550 -0.4759
 7504SOL     OW34144   2.534   4.206   3.844 -0.4201 -0.3412 -0.2201
 7504SOL    HW134145   2.480   4.140   3.799  0.9252 -1.2316 -0.5263
 7504SOL    HW234146   2.536   4.165   3.931  0.6830  1.1009  0.4257
 7505SOL     OW34147   3.155   3.330   6.150  0.2272 -0.1241 -0.3470
 7505SOL    HW134148   3.137   3.251   6.100  2.5199 -0.9529  0.1352
 7505SOL    HW234149   3.226   3.373   6.102  0.0023  0.1052 -0.4712
 7506SOL     OW34150   3.665   1.093   1.732 -0.3751  0.5112 -0.7083
 7506SOL    HW134151   3.625   1.082   1.819  2.1783 -1.1062  0.2452
 7506SOL    HW234152   3.599   1.148   1.690  0.7275  0.9569 -1.8265
 7507SOL     OW34153   0.581   1.578  15.262  0.7225  0.1437 -0.2586
 7507SOL    HW134154   0.592   1.672  15.251  0.4470  0.2428  0.3147
 7507SOL    HW234155   0.498   1.569  15.215 -0.8409  1.8246  2.1571
 7508SOL     OW34156   1.828   1.615   7.124  0.1116 -0.1016  0.6417
 7508SOL    HW134157   1.816   1.629   7.030 -0.0810 -0.0193  0.6787
 7508SOL    HW234158   1.740   1.583   7.141  0.4988 -1.3967  0.1702
 7509SOL     OW34159   1.304   2.002   4.683  0.1521  0.0482  0.1529
 7509SOL    HW134160   1.331   2.088   4.715 -0.6052 -0.1865  1.3964
 7509SOL    HW234161   1.210   2.012   4.668  0.0728 -1.9435 -0.7027
 7510SOL     OW34162   1.308   0.734   3.883 -0.1082  0.3759 -0.4255
 7510SOL    HW134163   1.241   0.674   3.917 -0.6542  0.3979 -1.4814
 7510SOL    HW234164   1.316   0.797   3.955  1.7557  0.3680 -0.6264
 7511SOL     OW34165   2.426   2.361   3.588 -0.0198 -0.4450 -0.5799
 7511SOL    HW134166   2.337   2.330   3.604  0.2487 -0.9787 -0.1295
 7511SOL    HW234167   2.438   2.307   3.510  0.6442  1.1047 -1.5412
 7512SOL     OW34168   0.061   2.933   4.172 -0.1104  0.0336  0.5047
 7512SOL    HW134169   0.139   2.988   4.170 -0.5860  0.5992 -1.7132
 7512SOL    HW234170   0.080   2.874   4.245  0.2420 -1.4027 -0.7599
 7513SOL     OW34171   1.324   0.104   6.387 -0.0014 -0.7996  0.4524
 7513SOL    HW134172   1.336   0.048   6.310  0.6160 -0.9001  0.6209
 7513SOL    HW234173   1.276   0.175   6.347  1.2715 -0.5604 -0.6512
 7514SOL     OW34174   0.316   3.985   6.831 -0.5625  0.0922 -0.4464
 7514SOL    HW134175   0.246   3.994   6.766  0.9680 -1.4383 -2.2777
 7514SOL    HW234176   0.304   4.069   6.876  1.3486 -0.4816  1.1272
 7515SOL     OW34177   4.127   1.193  11.412 -0.1631 -0.3764  0.3003
 7515SOL    HW134178   4.081   1.266  11.371 -0.2609 -0.9854 -0.6910
 7515SOL    HW234179   4.150   1.155  11.327 -1.4698  0.0869 -0.2577
 7516SOL     OW34180   2.734   1.221   5.226 -0.2207  0.0779 -0.3818
 7516SOL    HW134181   2.671   1.293   5.234 -0.3002  0.1630 -1.9440
 7516SOL    HW234182   2.797   1.270   5.174  0.0359 -0.8694 -0.9692
 7517SOL     OW34183   0.415   1.900  17.089  0.4590 -0.1910 -0.8213
 7517SOL    HW134184   0.433   1.823  17.034 -1.7070 -0.8599 -0.5990
 7517SOL    HW234185   0.321   1.908  17.069  0.5890  0.9600 -0.9703
 7518SOL     OW34186   3.723   1.295   9.933  0.4358  0.5344 -0.2869
 7518SOL    HW134187   3.801   1.347   9.950  1.7190 -1.9185  1.2304
 7518SOL    HW234188   3.663   1.349   9.984  0.3217  1.1756 -1.0916
 7519SOL     OW34189   0.571   2.945   0.519  0.6495  0.5827 -0.8721
 7519SOL    HW134190   0.502   2.966   0.456 -0.2544  0.7531  0.1831
 7519SOL    HW234191   0.638   2.911   0.459 -0.7645  2.5489 -3.5376
 7520SOL     OW34192   1.371   0.334   6.564 -0.1516  0.0585 -0.2499
 7520SOL    HW134193   1.308   0.406   6.566  1.3542  1.3328  1.1535
 7520SOL    HW234194   1.367   0.300   6.475  0.5369 -0.7468  0.0306
 7521SOL     OW34195   0.775   4.307  15.317 -0.0491 -0.5148  0.2210
 7521SOL    HW134196   0.866   4.332  15.298  0.5078 -2.5408  0.2662
 7521SOL    HW234197   0.747   4.317  15.226 -0.2182  1.7970  0.5232
 7522SOL     OW34198   3.950   0.608   7.745 -0.4522 -0.4444  0.0417
 7522SOL    HW134199   3.985   0.696   7.742  0.5286 -0.9394 -2.8441
 7522SOL    HW234200   3.860   0.616   7.779 -0.0092  1.7279  0.6958
 7523SOL     OW34201   3.882   2.479  15.751  0.6189  0.2004 -0.5710
 7523SOL    HW134202   3.820   2.406  15.744 -0.7591  1.4262 -0.9255
 7523SOL    HW234203   3.908   2.484  15.659  0.4696 -0.4566 -0.6486
 7524SOL     OW34204   1.055   1.385  14.577  0.6327  0.0837  0.4197
 7524SOL    HW134205   1.047   1.471  14.536 -2.0308  0.8999  2.6629
 7524SOL    HW234206   0.967   1.351  14.567  1.4580 -1.9277  0.0122
 7525SOL     OW34207   3.908   4.252   1.330 -0.2279  0.7147  0.1048
 7525SOL    HW134208   3.995   4.290   1.339  0.5884 -0.7479 -1.4879
 7525SOL    HW234209   3.872   4.303   1.402 -0.2970 -0.5227  0.9400
 7526SOL     OW34210   2.596   0.840  14.738  0.2744  0.1134 -0.3125
 7526SOL    HW134211   2.673   0.799  14.698  0.7209 -0.5032  1.1560
 7526SOL    HW234212   2.532   0.807  14.675  0.3631 -1.5207  0.4345
 7527SOL     OW34213   3.893   2.504   5.000 -0.3948 -0.4852  0.1268
 7527SOL    HW134214   3.989   2.510   5.000 -0.4524  0.5465 -0.5868
 7527SOL    HW234215   3.871   2.505   5.093  0.5704  0.7874  0.3600
 7528SOL     OW34216   0.724   4.317   7.539 -0.4745 -0.0235  0.8987
 7528SOL    HW134217   0.653   4.371   7.574  1.8196  2.4401  1.7677
 7528SOL    HW234218   0.757   4.371   7.467  1.2526 -1.9255  0.2657
 7529SOL     OW34219   2.016   0.747   3.782  0.2313 -0.1763  0.1244
 7529SOL    HW134220   2.002   0.777   3.872  2.8056 -0.6049  0.6630
 7529SOL    HW234221   1.991   0.827   3.735 -0.7793 -0.2408  0.5675
 7530SOL     OW34222   0.023   1.739   0.537  0.1428  0.0249 -0.6641
 7530SOL    HW134223   0.090   1.710   0.475 -0.5578  0.7411 -1.7658
 7530SOL    HW234224   0.014   1.832   0.514 -3.5950 -0.8806 -3.0168
 7531SOL     OW34225   3.446   2.958   7.101 -0.1787  0.0436 -0.5603
 7531SOL    HW134226   3.367   2.903   7.104  0.3464 -0.6134  1.2246
 7531SOL    HW234227   3.412   3.041   7.067 -3.8359 -1.4298 -0.5997
 7532SOL     OW34228   0.342   2.746   1.952 -0.0200  0.1907  0.1067
 7532SOL    HW134229   0.342   2.651   1.950 -1.5611  0.1733  1.1903
 7532SOL    HW234230   0.357   2.770   2.043 -3.5366 -1.0433  0.9740
 7533SOL     OW34231   2.699   0.560   3.109  0.0313 -0.2441  0.7793
 7533SOL    HW134232   2.739   0.636   3.066 -4.7494  1.4684 -0.7122
 7533SOL    HW234233   2.606   0.558   3.086 -0.1252  0.7237  1.3165
 7534SOL     OW34234   4.151   4.700   2.727 -0.6350  0.2037  0.3458
 7534SOL    HW134235   4.176   0.028   2.788 -1.1934 -0.1169  0.9473
 7534SOL    HW234236   4.164   0.009   2.647  1.9162  2.3725  2.1105
 7535SOL     OW34237   1.220   0.229   5.362 -0.2092  0.4373  0.0891
 7535SOL    HW134238   1.311   0.253   5.379  0.0223  1.2573 -2.2892
 7535SOL    HW234239   1.170   0.276   5.428  0.4436  1.3470 -0.0622
 7536SOL     OW34240   2.834   3.622   7.144  0.1169 -0.1429  0.0725
 7536SOL    HW134241   2.817   3.539   7.101 -3.3398  0.0136  1.0656
 7536SOL    HW234242   2.760   3.663   7.098 -0.9702 -0.1885  1.7486
 7537SOL     OW34243   0.521   3.405   3.129  0.1914  0.1135  0.2176
 7537SOL    HW134244   0.553   3.322   3.165  0.3870  0.1074  0.0325
 7537SOL    HW234245   0.561   3.413   3.042 -0.3787  2.3735  0.1701
 7538SOL     OW34246   0.874   2.338   3.902 -0.6270  0.0185 -0.1974
 7538SOL    HW134247   0.832   2.403   3.846 -0.2773  0.7334  0.3678
 7538SOL    HW234248   0.957   2.327   3.855  1.4333 -0.5429  3.5750
 7539SOL     OW34249   0.910   1.433  16.103  0.1112  0.0948 -0.1059
 7539SOL    HW134250   0.986   1.403  16.053 -0.8453 -0.5605 -1.1684
 7539SOL    HW234251   0.845   1.365  16.085  0.9850 -0.6755 -0.3312
 7540SOL     OW34252   2.918   0.663   9.691  0.4575  0.3370 -0.4089
 7540SOL    HW134253   2.857   0.702   9.754 -1.6981  0.6494 -2.6590
 7540SOL    HW234254   3.002   0.693   9.726  0.8575 -0.0125 -1.0679
 7541SOL     OW34255   0.213   3.841   8.742  0.2264 -0.6422  0.1411
 7541SOL    HW134256   0.225   3.903   8.814  1.6546  0.1045 -0.7320
 7541SOL    HW234257   0.266   3.768   8.773  0.9713  0.7559  2.1744
 7542SOL     OW34258   3.446   1.674  12.548  0.4126  0.2212 -0.3775
 7542SOL    HW134259   3.353   1.667  12.571  0.8579  1.9876  2.0595
 7542SOL    HW234260   3.476   1.585  12.569  0.0842  0.4568  1.1304
 7543SOL     OW34261   3.160   1.469  16.698  0.2066  0.4581  0.2729
 7543SOL    HW134262   3.197   1.446  16.612  0.1859 -1.8500  0.8780
 7543SOL    HW234263   3.177   1.563  16.698  0.0650  0.4875 -0.4332
 7544SOL     OW34264   3.115   2.008   8.988 -0.4165  0.4415 -0.4625
 7544SOL    HW134265   3.036   1.954   8.989 -1.1063  1.4602  0.3823
 7544SOL    HW234266   3.122   2.023   8.894 -0.0103  0.7466 -0.3826
 7545SOL     OW34267   3.180   4.054   6.573 -0.2719  0.0443  0.2454
 7545SOL    HW134268   3.194   4.114   6.500 -0.2185 -0.5099 -0.2041
 7545SOL    HW234269   3.107   3.997   6.549 -0.6822  0.5202  0.3588
 7546SOL     OW34270   0.468   2.039   1.529  0.2296  0.5728  0.2950
 7546SOL    HW134271   0.445   1.973   1.463 -0.4337  1.2762 -0.1698
 7546SOL    HW234272   0.517   2.102   1.477  1.8226 -0.6160  0.3395
 7547SOL     OW34273   1.256   3.780   8.759 -0.1648 -0.0679  0.0512
 7547SOL    HW134274   1.167   3.765   8.727 -0.2501 -0.5865  0.5356
 7547SOL    HW234275   1.247   3.866   8.799  0.5545  0.6914 -1.4158
 7548SOL     OW34276   4.200   3.282  11.960  0.2109  0.1531 -0.7588
 7548SOL    HW134277   4.246   3.199  11.944 -0.0774 -0.5797  2.2351
 7548SOL    HW234278   4.268   3.335  12.002  0.8789 -0.7406 -0.7137
 7549SOL     OW34279   1.701   1.402  12.364 -0.0883  0.1224  0.5777
 7549SOL    HW134280   1.725   1.371  12.276  0.9859 -0.7068  1.1644
 7549SOL    HW234281   1.643   1.476  12.348 -1.8647 -1.6706 -1.2069
 7550SOL     OW34282   4.128   0.437   6.384 -0.8000 -0.2189 -0.0258
 7550SOL    HW134283   4.037   0.427   6.412 -1.1338 -1.7553 -1.6714
 7550SOL    HW234284   4.172   0.384   6.450  2.8718  0.2498 -2.1110
 7551SOL     OW34285   1.868   2.243   6.500  0.0057 -0.3944  0.2316
 7551SOL    HW134286   1.790   2.199   6.535  0.7137 -0.7208  1.3952
 7551SOL    HW234287   1.933   2.219   6.566  0.0922 -0.7898  0.0055
 7552SOL     OW34288   3.445   0.286   9.786 -0.2999  0.2799  0.5644
 7552SOL    HW134289   3.411   0.375   9.790  1.2149  0.8707  0.2475
 7552SOL    HW234290   3.363   0.239   9.799  0.9359 -1.3195  2.4797
 7553SOL     OW34291   3.134   4.041   7.795  0.0122  0.5128  0.1158
 7553SOL    HW134292   3.084   4.120   7.777  0.5613  2.0057  5.0119
 7553SOL    HW234293   3.091   3.991   7.864  0.6792  0.0350  0.1870
 7554SOL     OW34294   1.686   4.519   2.378  0.8486  0.3487  0.2402
 7554SOL    HW134295   1.759   4.553   2.431  1.5286 -1.8315  0.7180
 7554SOL    HW234296   1.733   4.489   2.300  0.4347  0.4157 -0.0342
 7555SOL     OW34297   4.652   2.656   0.812  0.2105  0.1850 -0.0497
 7555SOL    HW134298   4.704   2.735   0.828  0.7804 -0.4963  1.4908
 7555SOL    HW234299   4.687   2.603   0.884 -0.2814  0.9146  0.7313
 7556SOL     OW34300   4.590   2.533   9.141  0.8162  0.2541 -0.0008
 7556SOL    HW134301   4.609   2.447   9.103 -3.9052 -0.5222 -0.6050
 7556SOL    HW234302   4.631   2.582   9.070 -2.4236  1.0504 -1.2907
 7557SOL     OW34303   1.612   3.652   4.124 -0.3168 -0.9203  0.4844
 7557SOL    HW134304   1.556   3.647   4.047 -0.0485  1.6231  0.1250
 7557SOL    HW234305   1.563   3.712   4.181 -0.0064 -0.1017 -0.0975
 7558SOL     OW34306   2.494   1.017  11.706 -0.2161 -0.1367 -0.1172
 7558SOL    HW134307   2.535   1.057  11.783 -3.2194  0.4652  1.1809
 7558SOL    HW234308   2.472   1.097  11.657 -1.2524 -0.5054 -0.2586
 7559SOL     OW34309   1.406   4.630  15.075  0.6219 -0.0600  0.0903
 7559SOL    HW134310   1.467   4.563  15.044  0.9630  0.5364 -0.5371
 7559SOL    HW234311   1.372   4.662  14.992  1.6919 -2.7109 -1.3700
 7560SOL     OW34312   0.304   2.816   7.087 -0.2775 -0.4996  0.2904
 7560SOL    HW134313   0.246   2.868   7.032 -1.3075 -1.5430  0.3893
 7560SOL    HW234314   0.323   2.880   7.155 -0.3467  1.3700 -1.4474
 7561SOL     OW34315   4.076   2.206   4.890  0.1576  0.3601  0.3346
 7561SOL    HW134316   4.066   2.275   4.825  2.3640  0.3473 -0.0143
 7561SOL    HW234317   4.064   2.255   4.971  0.1803  0.7829  0.0830
 7562SOL     OW34318   2.286   0.379   6.758 -0.5788  0.2901  0.3844
 7562SOL    HW134319   2.243   0.396   6.841 -1.8827  1.1253 -0.4664
 7562SOL    HW234320   2.237   0.434   6.697  0.8242  2.6757  1.3807
 7563SOL     OW34321   3.922   1.126   8.865 -0.1807 -1.0220  0.2348
 7563SOL    HW134322   3.859   1.173   8.812  0.0439 -2.8095 -1.6001
 7563SOL    HW234323   3.997   1.138   8.807 -0.4187  0.6889  0.3079
 7564SOL     OW34324   2.964   0.727   5.837 -0.2354  0.0587 -0.0098
 7564SOL    HW134325   3.003   0.734   5.750 -0.7552 -3.1958 -0.5205
 7564SOL    HW234326   2.871   0.750   5.826  0.2903  1.7522 -0.9222
 7565SOL     OW34327   1.084   1.543  10.915  0.1056  0.0980 -0.8306
 7565SOL    HW134328   0.990   1.540  10.931  0.4294 -1.0738  0.8582
 7565SOL    HW234329   1.096   1.450  10.896  0.8584 -0.3359  1.6971
 7566SOL     OW34330   2.981   1.447   3.631 -0.6092  0.0194 -0.4089
 7566SOL    HW134331   2.899   1.495   3.639 -0.2372  0.6106 -0.1159
 7566SOL    HW234332   2.949   1.360   3.607 -0.4897 -0.4920  1.3124
 7567SOL     OW34333   0.610   3.420   4.226 -0.3411 -0.0993  0.5607
 7567SOL    HW134334   0.645   3.485   4.286 -1.1635 -0.2347  1.1888
 7567SOL    HW234335   0.522   3.454   4.205 -0.3055 -0.6153 -0.4316
 7568SOL     OW34336   2.591   1.321  11.922 -0.0199 -0.3784 -0.1477
 7568SOL    HW134337   2.584   1.413  11.946 -2.5605 -0.8310  0.9322
 7568SOL    HW234338   2.497   1.303  11.917 -0.0859  0.3651 -1.4026
 7569SOL     OW34339   2.593   0.866   7.593 -0.8115 -0.0779 -0.2776
 7569SOL    HW134340   2.659   0.796   7.591  1.8862  2.4921  0.2319
 7569SOL    HW234341   2.515   0.811   7.598  0.0123 -1.0999  1.2966
 7570SOL     OW34342   1.901   3.324   6.897 -0.5872 -0.1943 -0.7121
 7570SOL    HW134343   1.851   3.355   6.821 -0.8379  2.6686  0.6315
 7570SOL    HW234344   1.992   3.343   6.872  0.0412 -1.1395  0.8745
 7571SOL     OW34345   1.301   0.076  10.961 -0.6691  0.3444  0.1460
 7571SOL    HW134346   1.281   0.086  11.054 -1.6846 -0.2499 -0.0061
 7571SOL    HW234347   1.367   0.009  10.947 -3.4500 -2.5209  0.6342
 7572SOL     OW34348   1.608   2.115  12.472  0.3997  0.5847  0.4746
 7572SOL    HW134349   1.645   2.085  12.554 -2.1172  0.8356  1.7122
 7572SOL    HW234350   1.687   2.152  12.434 -0.2264  0.8060 -0.6199
 7573SOL     OW34351   1.901   2.182  15.939  0.1575 -0.0571 -0.2936
 7573SOL    HW134352   1.896   2.278  15.943  2.6646  0.0978 -0.8869
 7573SOL    HW234353   1.925   2.160  15.849  0.6391  0.2357 -0.2364
 7574SOL     OW34354   3.080   0.680   5.553 -0.0722  0.1553 -0.3612
 7574SOL    HW134355   3.057   0.773   5.558 -0.4217  0.0881 -0.6732
 7574SOL    HW234356   3.015   0.653   5.488 -1.3361 -0.3900  1.1495
 7575SOL     OW34357   4.234   0.145   9.133  0.0372  0.1260  0.5599
 7575SOL    HW134358   4.286   0.077   9.175 -0.9278 -0.4569  0.7998
 7575SOL    HW234359   4.273   0.228   9.159 -1.2626  0.8127  0.3177
 7576SOL     OW34360   1.480   0.561   6.927  0.4478 -0.3392  0.2213
 7576SOL    HW134361   1.452   0.484   6.977  0.1179 -0.5527 -0.2924
 7576SOL    HW234362   1.413   0.567   6.859  0.3132 -0.3092  0.3579
 7577SOL     OW34363   0.077   2.561   1.123 -0.8155 -0.1305  0.0454
 7577SOL    HW134364   0.155   2.506   1.109  0.4386  1.7911 -0.5595
 7577SOL    HW234365   0.111   2.647   1.101 -1.8129 -0.1152 -1.4155
 7578SOL     OW34366   1.011   1.058   7.373  0.3053  0.7953  0.3642
 7578SOL    HW134367   1.100   1.022   7.369  0.4745  0.8793  2.9067
 7578SOL    HW234368   0.952   1.002   7.323  1.8404 -0.6771  0.2198
 7579SOL     OW34369   3.097   3.693  14.687 -0.1575 -0.3445 -0.1231
 7579SOL    HW134370   3.022   3.747  14.714 -0.5849 -1.2234  0.4403
 7579SOL    HW234371   3.128   3.658  14.771 -0.0798 -3.0749 -1.2912
 7580SOL     OW34372   1.820   3.299  12.078 -0.0210  0.0680 -0.4736
 7580SOL    HW134373   1.757   3.369  12.098  1.0397  0.7265  0.6030
 7580SOL    HW234374   1.806   3.226  12.139  1.0174  0.3441  0.0964
 7581SOL     OW34375   1.013   4.189  14.270  0.0393  0.8657 -0.6483
 7581SOL    HW134376   1.032   4.244  14.346 -1.5604  0.1753  0.2799
 7581SOL    HW234377   1.024   4.260  14.207 -0.2313  0.4881 -1.1179
 7582SOL     OW34378   2.334   0.999   7.581 -0.3607  0.0502  0.3352
 7582SOL    HW134379   2.253   0.986   7.631 -1.5633  0.6317 -1.4605
 7582SOL    HW234380   2.372   1.076   7.622  1.3792  1.0439 -3.1324
 7583SOL     OW34381   3.486   1.121   7.060  0.6097 -0.2801  0.4272
 7583SOL    HW134382   3.448   1.106   7.147 -2.1746  0.7593 -0.6068
 7583SOL    HW234383   3.455   1.053   7.001 -2.8376  1.4128  0.3008
 7584SOL     OW34384   2.896   4.021   0.930 -0.3159  0.1298 -0.0214
 7584SOL    HW134385   2.867   4.051   0.844 -0.7676 -1.0579 -0.2806
 7584SOL    HW234386   2.845   3.940   0.934 -0.5460  0.2606 -0.2594
 7585SOL     OW34387   3.057   4.262   3.523  0.1951  0.7287  0.8361
 7585SOL    HW134388   2.974   4.292   3.486 -1.0481  0.8513  3.7187
 7585SOL    HW234389   3.047   4.169   3.500  1.0853  1.3676 -2.2428
 7586SOL     OW34390   2.436   4.075   2.667  0.0744  0.0014  0.0980
 7586SOL    HW134391   2.456   4.164   2.638 -1.6595  0.9983  1.9655
 7586SOL    HW234392   2.341   4.082   2.667 -0.0477 -1.7653  0.3488
 7587SOL     OW34393   0.255   2.652  17.754  0.0301 -0.2888 -1.1217
 7587SOL    HW134394   0.340   2.692   0.008  1.4529 -4.2707  1.3562
 7587SOL    HW234395   0.218   2.692   0.071 -0.0902 -0.9159 -0.8605
 7588SOL     OW34396   2.757   3.219   9.015 -0.0077 -0.7496 -0.2447
 7588SOL    HW134397   2.817   3.267   8.959 -0.6295  1.4155  0.9678
 7588SOL    HW234398   2.716   3.293   9.060 -0.6092  0.0304 -2.0908
 7589SOL     OW34399   4.535   2.781  12.220  0.0601  0.3466 -0.3936
 7589SOL    HW134400   4.443   2.781  12.194  0.7259  0.6989 -2.7480
 7589SOL    HW234401   4.533   2.749  12.310 -1.5959 -3.4970 -1.7740
 7590SOL     OW34402   2.431   1.689   7.034 -0.0185  0.2889 -0.2036
 7590SOL    HW134403   2.366   1.738   7.085  0.3925  0.3246  0.2947
 7590SOL    HW234404   2.379   1.668   6.957 -1.4928 -0.4680  0.9972
 7591SOL     OW34405   4.672   2.003   7.632 -0.3343 -0.4306 -0.4738
 7591SOL    HW134406   4.622   2.077   7.598 -0.3374 -0.7984 -1.2718
 7591SOL    HW234407   4.690   1.965   7.546 -0.7950 -1.6860 -0.0083
 7592SOL     OW34408   0.899   2.117  13.795  0.5141  0.4300 -0.3089
 7592SOL    HW134409   0.913   2.074  13.879 -1.2750 -0.3970 -0.4279
 7592SOL    HW234410   0.847   2.192  13.827 -2.5417 -0.1663 -3.7716
 7593SOL     OW34411   2.816   2.994   4.107 -0.1154 -0.2522 -0.4438
 7593SOL    HW134412   2.901   3.037   4.107 -1.6453  2.7207  1.3803
 7593SOL    HW234413   2.822   2.912   4.157 -0.9234 -0.1467 -0.1650
 7594SOL     OW34414   3.680   4.127   3.285 -0.3080  0.4706 -0.4156
 7594SOL    HW134415   3.585   4.135   3.277 -0.3022  0.0209 -0.9269
 7594SOL    HW234416   3.699   4.213   3.247  0.0261  0.5025 -0.1809
 7595SOL     OW34417   2.103   0.703   6.939  0.0063 -0.2494 -0.4874
 7595SOL    HW134418   2.093   0.797   6.954 -2.9890 -1.0430  2.4738
 7595SOL    HW234419   2.151   0.702   6.856  2.0713 -1.2229  0.7120
 7596SOL     OW34420   0.029   3.879   8.990  0.2563  0.1164 -0.4959
 7596SOL    HW134421   4.682   3.872   8.955  0.5200  2.0465 -1.5064
 7596SOL    HW234422   0.031   3.798   9.042  3.1808 -0.2132 -1.1247
 7597SOL     OW34423   2.549   1.022   8.816  0.4726  0.4564  0.0132
 7597SOL    HW134424   2.589   0.941   8.784  1.1854  0.1018  1.7568
 7597SOL    HW234425   2.552   1.010   8.911  0.5760 -1.9175 -0.2701
 7598SOL     OW34426   3.419   4.498   5.723 -0.0375 -0.1481 -0.1709
 7598SOL    HW134427   3.348   4.446   5.760  1.3672 -2.3233 -0.5283
 7598SOL    HW234428   3.407   4.489   5.628 -1.5557  1.5380 -0.1406
 7599SOL     OW34429   0.357   0.063   7.893 -0.6466  0.0393  0.2980
 7599SOL    HW134430   0.406   0.102   7.965  1.2510  0.2417 -1.0930
 7599SOL    HW234431   0.265   0.065   7.919 -0.7915 -0.7894 -0.1562
 7600SOL     OW34432   2.815   0.196   1.360  0.3628  0.7992  0.0317
 7600SOL    HW134433   2.775   0.177   1.275  0.4793  1.4665 -0.1750
 7600SOL    HW234434   2.806   0.108   1.395 -1.0865  1.1573  0.5624
 7601SOL     OW34435   2.211   4.514  10.209 -0.3607 -0.0878  0.6548
 7601SOL    HW134436   2.191   4.580  10.276 -1.1195  0.8407 -0.4890
 7601SOL    HW234437   2.266   4.454  10.260 -1.3292 -1.6961 -0.1992
 7602SOL     OW34438   2.148   3.512   4.615 -0.2772  0.1025 -0.1002
 7602SOL    HW134439   2.106   3.469   4.541 -0.4514 -0.9292  0.5963
 7602SOL    HW234440   2.127   3.605   4.616  0.2863  0.2293  0.6657
 7603SOL     OW34441   1.613   2.358   6.182  0.7016  0.3569  0.2392
 7603SOL    HW134442   1.625   2.424   6.113 -0.5006  0.1301 -0.1861
 7603SOL    HW234443   1.519   2.351   6.201  0.3403 -0.9925 -2.0514
 7604SOL     OW34444   0.327   2.309   0.469 -0.3411 -0.1797  0.0204
 7604SOL    HW134445   0.322   2.293   0.374 -0.6410  0.9810 -0.1577
 7604SOL    HW234446   0.420   2.296   0.486 -0.0510 -2.1154 -3.0022
 7605SOL     OW34447   3.529   2.033   7.336  0.2127  0.2055  0.4363
 7605SOL    HW134448   3.500   1.942   7.329 -0.0184  0.5314 -2.5870
 7605SOL    HW234449   3.520   2.041   7.431 -0.2768  1.5447  0.2728
 7606SOL     OW34450   1.966   4.154   3.966 -0.6730 -0.0590 -0.1511
 7606SOL    HW134451   2.017   4.085   3.922 -1.8556 -0.5490 -0.7603
 7606SOL    HW234452   1.893   4.179   3.909 -2.0427 -1.6421  0.9070
 7607SOL     OW34453   2.912   4.650   3.343 -0.4033 -0.2401  1.0931
 7607SOL    HW134454   2.874   4.564   3.361  0.6793 -0.8081  0.6045
 7607SOL    HW234455   2.951   4.627   3.259 -2.1112 -4.1555  1.3305
 7608SOL     OW34456   0.378   1.368  14.041 -0.0439  0.1384  0.2477
 7608SOL    HW134457   0.399   1.298  14.103  1.5180  0.8949  0.5682
 7608SOL    HW234458   0.410   1.331  13.959 -1.2172  1.6682 -0.8960
 7609SOL     OW34459   3.885   3.880   4.267  0.6492 -0.3148  0.5686
 7609SOL    HW134460   3.955   3.938   4.297  0.6380  1.0483 -2.0726
 7609SOL    HW234461   3.925   3.829   4.197  1.1334  0.1112  0.5317
 7610SOL     OW34462   0.630   2.229  14.922  0.4516  0.2279  0.0162
 7610SOL    HW134463   0.650   2.140  14.893  1.3030 -0.6627  3.3361
 7610SOL    HW234464   0.621   2.213  15.016  0.5961 -1.4769 -0.2683
 7611SOL     OW34465   1.893   1.686  13.045  0.0015 -0.0281  0.4141
 7611SOL    HW134466   1.924   1.617  13.103  1.7525 -0.3311 -0.8586
 7611SOL    HW234467   1.970   1.697  12.988 -1.6964 -2.4066 -2.3406
 7612SOL     OW34468   3.657   2.279   5.307 -0.0904  0.0930 -0.2463
 7612SOL    HW134469   3.617   2.214   5.365 -2.0875  0.7028 -0.9610
 7612SOL    HW234470   3.720   2.334   5.354 -1.1413  0.3666  0.8346
 7613SOL     OW34471   0.098   0.855   8.103 -0.0459  0.4426 -0.1793
 7613SOL    HW134472   0.103   0.926   8.038  1.9115  0.7773  0.3388
 7613SOL    HW234473   0.035   0.793   8.065 -2.0920  2.2412  0.2381
 7614SOL     OW34474   4.689   0.963   1.301 -0.4309  0.2231  0.1386
 7614SOL    HW134475   4.709   0.983   1.210 -2.3340 -0.2334 -0.3899
 7614SOL    HW234476   4.714   0.871   1.307  2.3633  1.0028  0.3441
 7615SOL     OW34477   4.544   1.924   0.272  0.3815  0.4228 -0.8591
 7615SOL    HW134478   4.590   1.980   0.209  0.4967  0.0066 -1.1453
 7615SOL    HW234479   4.581   1.839   0.248  3.2560  0.9233  1.8088
 7616SOL     OW34480   1.038   4.027  13.173  0.3080 -0.0142 -0.1984
 7616SOL    HW134481   1.048   3.989  13.086 -1.0110  2.4421 -1.4132
 7616SOL    HW234482   1.007   4.112  13.142 -0.4432 -0.5034 -0.8046
 7617SOL     OW34483   1.273   3.343   0.350 -0.4119 -0.3400  0.5713
 7617SOL    HW134484   1.262   3.393   0.431  0.2241 -0.5839  0.8124
 7617SOL    HW234485   1.365   3.316   0.356 -0.1510  0.1768 -1.1490
 7618SOL     OW34486   1.119   0.794   9.309 -0.7112  0.3897  0.2578
 7618SOL    HW134487   1.132   0.769   9.217 -1.0045 -0.7376  0.5159
 7618SOL    HW234488   1.074   0.718   9.346  2.5893 -1.4110  0.5927
 7619SOL     OW34489   2.838   0.972   6.428  0.3845  0.0836 -0.6845
 7619SOL    HW134490   2.754   1.019   6.423  1.0415  1.0780 -2.1079
 7619SOL    HW234491   2.894   1.047   6.445 -0.6979  0.6453  0.4259
 7620SOL     OW34492   3.898   0.167   8.340  0.6077 -0.5922  0.8867
 7620SOL    HW134493   3.959   0.097   8.313 -0.0733 -0.2283 -1.5500
 7620SOL    HW234494   3.877   0.137   8.429 -0.6611 -0.5184  0.6105
 7621SOL     OW34495   1.186   1.942   5.183  0.2628 -0.2563  0.2617
 7621SOL    HW134496   1.181   1.858   5.229 -0.3985  0.4041  1.3888
 7621SOL    HW234497   1.280   1.957   5.189  0.1553  0.5476 -0.0864
 7622SOL     OW34498   0.933   3.160   7.415 -0.5547  0.0588 -0.9217
 7622SOL    HW134499   0.915   3.188   7.325 -0.0958  3.1276 -0.0796
 7622SOL    HW234500   0.851   3.175   7.462  0.5569  0.3280  0.9455
 7623SOL     OW34501   1.930   3.404   3.193 -0.8124 -0.2395  0.4577
 7623SOL    HW134502   1.928   3.499   3.187  2.1829  0.0098  3.0593
 7623SOL    HW234503   2.002   3.396   3.256  0.0011  1.9454 -0.2272
 7624SOL     OW34504   2.322   4.303   2.557  0.9218 -0.7908 -0.0604
 7624SOL    HW134505   2.252   4.252   2.598  0.1879  0.0736 -0.2346
 7624SOL    HW234506   2.270   4.334   2.483 -0.4329 -1.1536  0.7391
 7625SOL     OW34507   2.270   2.127  16.181 -0.1035  0.5099  0.7124
 7625SOL    HW134508   2.327   2.114  16.257  1.6059 -1.0487 -0.8699
 7625SOL    HW234509   2.299   2.215  16.157  2.6529 -0.4142  0.6441
 7626SOL     OW34510   2.282   0.493   4.224 -0.4023  0.1891  0.6693
 7626SOL    HW134511   2.355   0.512   4.283  1.3825 -0.7632 -1.2576
 7626SOL    HW234512   2.226   0.449   4.289  0.0491 -2.5566 -0.7849
 7627SOL     OW34513   3.789   3.355  12.271  0.2488  0.0095 -0.1109
 7627SOL    HW134514   3.816   3.359  12.179 -1.9335 -0.6490 -0.7856
 7627SOL    HW234515   3.855   3.295  12.307  0.0541  1.0060  1.8755
 7628SOL     OW34516   3.385   2.995   4.941 -0.7078  0.1318 -0.5097
 7628SOL    HW134517   3.386   2.933   5.014 -2.3685  0.9227  0.1852
 7628SOL    HW234518   3.473   3.032   4.946 -0.5747 -0.2759  0.2738
 7629SOL     OW34519   0.376   2.053  15.231 -0.2758  0.0807  0.7308
 7629SOL    HW134520   0.465   2.086  15.237 -0.1801 -0.2494  1.1377
 7629SOL    HW234521   0.346   2.086  15.146 -0.0972 -2.1025 -0.1857
 7630SOL     OW34522   3.407   1.625  16.708 -0.0590 -0.2686 -0.0192
 7630SOL    HW134523   3.436   1.716  16.704  0.2076 -0.1683  4.0003
 7630SOL    HW234524   3.365   1.615  16.623 -1.4274 -0.6575  0.6982
 7631SOL     OW34525   3.079   3.386   8.277  0.2573  0.1279  0.3275
 7631SOL    HW134526   3.052   3.305   8.321 -2.1189  1.7288  1.8394
 7631SOL    HW234527   3.170   3.376   8.303 -0.1401  0.8635  1.9783
 7632SOL     OW34528   2.307   4.563   8.315 -0.1290 -0.1299  0.0616
 7632SOL    HW134529   2.394   4.584   8.280 -0.7306 -0.3216 -1.5150
 7632SOL    HW234530   2.289   4.491   8.255 -0.4982 -0.2131  0.2737
 7633SOL     OW34531   0.032   0.893   4.114  0.2446  0.6779  0.6296
 7633SOL    HW134532   4.689   0.898   4.069  0.7282 -0.1759 -0.3592
 7633SOL    HW234533   0.100   0.919   4.053 -1.8481 -0.3928 -2.1566
 7634SOL     OW34534   1.438   3.827  17.388  0.3882 -0.7671  0.3331
 7634SOL    HW134535   1.433   3.736  17.414  0.0376 -0.3659  1.6714
 7634SOL    HW234536   1.392   3.877  17.456  1.0404  0.7123 -0.3150
 7635SOL     OW34537   3.666   0.806   1.620  0.4473  0.1906 -0.3517
 7635SOL    HW134538   3.742   0.786   1.674  2.4576 -0.6701 -3.5139
 7635SOL    HW234539   3.709   0.871   1.564  1.2579  0.1385  0.2074
 7636SOL     OW34540   1.005   1.829   1.408 -0.2268  0.5210 -0.7072
 7636SOL    HW134541   0.953   1.904   1.438  0.6294  0.7673  0.1623
 7636SOL    HW234542   1.089   1.863   1.378  0.7315 -0.8278  0.4691
 7637SOL     OW34543   1.082   0.367  15.323  0.2223 -0.3903  0.2619
 7637SOL    HW134544   1.041   0.319  15.395 -1.1670 -0.7988 -0.8062
 7637SOL    HW234545   1.002   0.391  15.276  0.8735 -2.0128 -1.6891
 7638SOL     OW34546   3.000   3.243  11.350 -0.0384 -0.0157  0.1235
 7638SOL    HW134547   2.931   3.287  11.400 -0.9146 -2.1693  0.7767
 7638SOL    HW234548   3.032   3.303  11.282 -1.6289 -0.6443 -1.1942
 7639SOL     OW34549   3.140   0.494   5.150 -0.0378 -0.1070 -0.4768
 7639SOL    HW134550   3.079   0.565   5.129  0.9342  0.9382  0.2144
 7639SOL    HW234551   3.089   0.417   5.125 -1.7146  0.5693  0.8443
 7640SOL     OW34552   2.049   0.485   4.501  0.7290  0.0367  0.2103
 7640SOL    HW134553   1.970   0.509   4.549  0.5890 -0.5905  0.2865
 7640SOL    HW234554   2.072   0.576   4.485  0.3594  0.0265 -0.3479
 7641SOL     OW34555   3.549   4.376  11.419  0.3216 -0.3459  0.1771
 7641SOL    HW134556   3.636   4.409  11.440 -0.4044  0.7702  1.4727
 7641SOL    HW234557   3.496   4.453  11.439  1.4850  1.2607 -2.9218
 7642SOL     OW34558   4.457   3.337   6.176  0.5980  0.3781 -0.6054
 7642SOL    HW134559   4.521   3.277   6.215  0.8542  0.2530 -1.2116
 7642SOL    HW234560   4.510   3.365   6.102  1.2582  0.4634 -0.0962
 7643SOL     OW34561   3.390   1.636   2.257  0.1028  0.6485 -0.4493
 7643SOL    HW134562   3.394   1.656   2.163  0.9778  3.6148  0.2174
 7643SOL    HW234563   3.442   1.555   2.260  1.6258  1.6513 -0.0791
 7644SOL     OW34564   1.205   2.128   3.560  0.2707  0.1797  0.0288
 7644SOL    HW134565   1.259   2.062   3.517 -1.0562  0.3285 -1.8947
 7644SOL    HW234566   1.178   2.193   3.494 -0.5749  1.1909  1.3880
 7645SOL     OW34567   1.740   0.387  14.641  0.4452 -0.0044  0.2019
 7645SOL    HW134568   1.689   0.468  14.649  0.6163  0.0650  0.5551
 7645SOL    HW234569   1.733   0.372  14.547  3.2011  1.6574 -0.2677
 7646SOL     OW34570   3.286   1.014  16.950 -0.9069  0.7090  0.6911
 7646SOL    HW134571   3.356   1.062  16.906 -2.0988  0.8135 -1.1107
 7646SOL    HW234572   3.212   1.065  16.918 -0.9708 -1.1760 -2.1496
 7647SOL     OW34573   0.687   3.102   9.452  0.4266 -0.1250 -0.8892
 7647SOL    HW134574   0.612   3.148   9.415 -0.7400 -0.1853  1.3885
 7647SOL    HW234575   0.668   3.131   9.542  1.2988 -1.0793 -0.3922
 7648SOL     OW34576   3.529   1.242  14.130 -0.5531  0.0616 -0.2858
 7648SOL    HW134577   3.541   1.154  14.095  0.3380  0.8577 -1.9750
 7648SOL    HW234578   3.484   1.289  14.060 -1.1003  1.0948  0.7586
 7649SOL     OW34579   0.859   3.465  11.789 -0.4032  0.1820  0.1261
 7649SOL    HW134580   0.884   3.416  11.867 -2.1708  0.4198  0.8298
 7649SOL    HW234581   0.770   3.482  11.820 -0.4682  2.4100 -1.2845
 7650SOL     OW34582   1.111   1.732   8.429  0.3296 -0.0548 -0.4504
 7650SOL    HW134583   1.182   1.667   8.436 -0.5947 -0.9560  0.6660
 7650SOL    HW234584   1.049   1.691   8.490  0.9582  0.9110  0.8445
 7651SOL     OW34585   0.991   0.996  17.367  0.5361 -0.6331  0.4881
 7651SOL    HW134586   0.980   0.959  17.279  4.3561  0.6038 -0.5429
 7651SOL    HW234587   0.917   1.056  17.378  0.6583 -0.5672  0.9539
 7652SOL     OW34588   1.814   0.931   3.963 -0.4770 -0.2128  0.4719
 7652SOL    HW134589   1.726   0.922   4.001 -0.4751  0.8607  0.7172
 7652SOL    HW234590   1.782   0.982   3.888 -0.2643 -1.2342 -0.3130
 7653SOL     OW34591   0.047   4.630   1.421  0.7265 -0.6731  0.3564
 7653SOL    HW134592   0.136   4.595   1.428  0.1753 -1.9132  1.1737
 7653SOL    HW234593   0.041   4.674   1.506 -0.3657 -0.0056 -0.0694
 7654SOL     OW34594   4.515   3.324  14.006  0.1937 -0.9735 -0.4092
 7654SOL    HW134595   4.430   3.361  14.030 -0.3667 -2.5751  0.0446
 7654SOL    HW234596   4.581   3.391  14.026  1.0901 -1.6899 -0.9880
 7655SOL     OW34597   4.254   2.986   9.096  0.0602  0.3853  0.3041
 7655SOL    HW134598   4.177   3.011   9.147  0.3209  0.2200  0.7807
 7655SOL    HW234599   4.316   2.954   9.162 -0.2598 -0.7937  0.0289
 7656SOL     OW34600   1.856   1.092   6.181 -0.6424  0.4294  0.0918
 7656SOL    HW134601   1.827   1.001   6.172 -2.1427  0.9052  0.2417
 7656SOL    HW234602   1.833   1.111   6.272 -1.0818  0.8358 -0.1048
 7657SOL     OW34603   2.915   2.861   6.875 -0.4128  0.4332 -0.7448
 7657SOL    HW134604   2.980   2.884   6.809  2.3367 -1.6971  1.2067
 7657SOL    HW234605   2.965   2.790   6.915 -0.5036  0.2632 -0.9332
 7658SOL     OW34606   2.923   3.023   7.101 -0.3281  0.2913  0.0666
 7658SOL    HW134607   2.898   2.971   7.025 -0.5554  3.5498 -2.0731
 7658SOL    HW234608   2.855   2.993   7.163  0.6581 -2.5399 -0.2129
 7659SOL     OW34609   4.510   3.964   2.972  0.0023  0.0343  0.0894
 7659SOL    HW134610   4.475   3.995   2.888  0.7794 -1.2490 -0.7013
 7659SOL    HW234611   4.540   4.044   3.015 -0.8634  0.3200  0.1621
 7660SOL     OW34612   1.762   2.623   6.881  0.0682 -0.0312 -0.0730
 7660SOL    HW134613   1.793   2.667   6.801  0.1054 -0.5127 -0.3253
 7660SOL    HW234614   1.667   2.631   6.870 -0.2857 -0.6256  2.8221
 7661SOL     OW34615   2.070   3.101   7.908 -0.2941 -0.0631 -0.3857
 7661SOL    HW134616   2.130   3.174   7.892 -0.3561  0.3829  1.3977
 7661SOL    HW234617   2.044   3.122   7.997 -0.8916  0.3664 -0.6665
 7662SOL     OW34618   3.869   0.276  17.546 -0.0999 -0.2158 -0.3737
 7662SOL    HW134619   3.935   0.331  17.588  0.7933 -1.6805  0.1824
 7662SOL    HW234620   3.791   0.297  17.597  0.1862 -0.6226  0.2411
 7663SOL     OW34621   2.238   3.205   8.952 -0.2017 -0.5651 -0.1518
 7663SOL    HW134622   2.152   3.196   8.912 -1.0286 -0.2772  1.5566
 7663SOL    HW234623   2.273   3.123   8.917  1.1955  0.1729 -0.4777
 7664SOL     OW34624   1.622   4.657   9.709 -0.3091 -0.1734  0.0200
 7664SOL    HW134625   1.598   4.583   9.765  0.4336  0.1140  0.7086
 7664SOL    HW234626   1.710   4.671   9.743 -0.2799 -0.2555 -0.0221
 7665SOL     OW34627   0.704   0.711   7.905  0.2179  0.0593  0.3287
 7665SOL    HW134628   0.720   0.638   7.845  0.9434 -0.4858  1.1862
 7665SOL    HW234629   0.636   0.757   7.856  0.7271 -1.4547 -1.7836
 7666SOL     OW34630   2.455   2.705   2.900 -0.5969 -0.1902 -0.1953
 7666SOL    HW134631   2.522   2.741   2.958  1.1926 -1.0131 -1.7589
 7666SOL    HW234632   2.475   2.749   2.817 -1.1435 -0.9688 -0.7463
 7667SOL     OW34633   1.678   4.029   8.682 -0.1350  0.0625 -0.5425
 7667SOL    HW134634   1.707   3.939   8.665 -1.3725 -0.1299 -1.6183
 7667SOL    HW234635   1.719   4.045   8.767  0.3724 -1.4913 -0.4823
 7668SOL     OW34636   3.119   4.585   3.137 -0.0427  0.1143 -0.2330
 7668SOL    HW134637   3.113   4.629   3.052 -0.8647 -1.1371 -0.8176
 7668SOL    HW234638   3.154   4.652   3.196  1.9676  0.8112 -2.2705
 7669SOL     OW34639   2.040   2.843  13.065 -0.5659 -0.3359  0.7169
 7669SOL    HW134640   2.042   2.760  13.018 -0.0677  0.6493 -0.9988
 7669SOL    HW234641   1.946   2.855  13.079 -0.3479  0.5117  1.5101
 7670SOL     OW34642   4.691   1.625  17.615 -0.1788  0.2640  0.3866
 7670SOL    HW134643   4.640   1.545  17.603  0.7364 -0.1322 -0.8460
 7670SOL    HW234644   0.010   1.632  17.541  1.8273 -1.6744  1.8369
 7671SOL     OW34645   3.860   2.578   3.285  0.2284  0.0154  0.0854
 7671SOL    HW134646   3.863   2.650   3.222  1.5607  1.3046  1.6280
 7671SOL    HW234647   3.843   2.631   3.363 -0.6193 -1.9212  1.2047
 7672SOL     OW34648   2.555   4.608   9.465 -0.3180  0.5807  0.1637
 7672SOL    HW134649   2.493   4.536   9.474  0.4697 -0.1111  0.0340
 7672SOL    HW234650   2.562   4.632   9.557 -0.8936 -1.0182  0.6289
 7673SOL     OW34651   4.257   3.067   7.429  0.7123 -0.1181  0.1631
 7673SOL    HW134652   4.216   3.153   7.439 -0.4132 -0.6455  0.0509
 7673SOL    HW234653   4.328   3.102   7.374 -0.0239 -0.2368 -0.8740
 7674SOL     OW34654   2.622   3.543   9.677 -0.1389  0.3566 -0.5387
 7674SOL    HW134655   2.666   3.598   9.612  1.8496  1.1579  1.4657
 7674SOL    HW234656   2.690   3.478   9.696 -0.1086  1.1310  2.0412
 7675SOL     OW34657   2.510   0.355   4.036 -0.1108 -0.1482 -0.5197
 7675SOL    HW134658   2.445   0.418   4.068  0.1568 -1.1091  1.9279
 7675SOL    HW234659   2.511   0.369   3.941  0.3990 -0.1466 -0.5147
 7676SOL     OW34660   1.024   0.935   6.119  0.3226 -0.1464 -0.7573
 7676SOL    HW134661   0.935   0.907   6.099  0.2483 -1.1097  0.9501
 7676SOL    HW234662   1.011   1.025   6.148  0.9426 -0.9161  1.9085
 7677SOL     OW34663   1.082   3.119   5.441  0.3371 -0.3647  0.2324
 7677SOL    HW134664   1.164   3.107   5.393  0.7987  1.0642  0.6626
 7677SOL    HW234665   1.017   3.092   5.377 -1.0802  1.5213  0.8840
 7678SOL     OW34666   0.273   0.372   1.680 -0.0204 -0.3437 -0.4723
 7678SOL    HW134667   0.282   0.410   1.593 -0.5708 -0.0599 -0.4052
 7678SOL    HW234668   0.352   0.409   1.719 -0.8066 -0.5242  1.3114
 7679SOL     OW34669   1.959   1.802   5.402  0.3678 -0.4419 -0.3453
 7679SOL    HW134670   2.020   1.831   5.335  0.6781  0.8359  0.4928
 7679SOL    HW234671   1.986   1.865   5.469  1.3550 -0.7664 -0.4480
 7680SOL     OW34672   4.251   2.496  12.390  0.2760 -0.2575 -0.4717
 7680SOL    HW134673   4.307   2.444  12.332 -1.4300 -1.8156 -0.7356
 7680SOL    HW234674   4.250   2.580  12.344 -2.0575 -1.1056 -1.9783
 7681SOL     OW34675   3.598   0.959   9.518  0.2612 -0.0036 -0.4716
 7681SOL    HW134676   3.664   0.956   9.587 -0.5521 -2.5688  0.2385
 7681SOL    HW234677   3.526   1.000   9.566  0.6097 -0.1447  0.1680
 7682SOL     OW34678   2.165   0.291  12.019 -0.2869  0.0806  0.0554
 7682SOL    HW134679   2.105   0.242  11.963 -0.0325  0.0208 -0.1694
 7682SOL    HW234680   2.251   0.251  12.005 -0.4291  0.4652 -1.9081
 7683SOL     OW34681   1.178   1.763  14.604 -0.0388 -0.0314 -0.0705
 7683SOL    HW134682   1.181   1.829  14.535 -0.6307  1.5336  1.3863
 7683SOL    HW234683   1.094   1.725  14.578 -0.2036  2.6146 -3.3683
 7684SOL     OW34684   1.237   1.661   4.881  0.2839  0.3815  0.2438
 7684SOL    HW134685   1.302   1.687   4.816 -0.7585  1.6885 -0.2647
 7684SOL    HW234686   1.242   1.566   4.890  0.5750  0.5591  2.0347
 7685SOL     OW34687   0.185   3.341   1.766 -0.1281 -0.4025  0.0642
 7685SOL    HW134688   0.243   3.386   1.827 -0.2715 -0.1327  0.0018
 7685SOL    HW234689   0.154   3.412   1.711 -2.9491 -1.7974 -0.1753
 7686SOL     OW34690   1.079   2.696   8.655 -0.0512  0.8019 -0.1205
 7686SOL    HW134691   1.031   2.771   8.689 -3.3748 -0.6605 -1.6066
 7686SOL    HW234692   1.019   2.669   8.585 -2.5117 -1.4412  2.9118
 7687SOL     OW34693   1.229   0.220   9.336 -0.3575 -0.5136 -0.4718
 7687SOL    HW134694   1.175   0.209   9.258  1.1075 -0.0257 -1.5577
 7687SOL    HW234695   1.321   0.235   9.313 -0.0209 -0.8064  0.6630
 7688SOL     OW34696   0.146   1.625   6.609  0.7337 -0.2795 -0.5334
 7688SOL    HW134697   0.167   1.572   6.686 -2.1965  0.6924  0.9212
 7688SOL    HW234698   0.056   1.596   6.594 -0.0597  0.7664  2.2562
 7689SOL     OW34699   3.316   0.546   7.083 -0.3286 -0.1233 -0.8009
 7689SOL    HW134700   3.319   0.613   7.151 -0.2037 -1.2407  0.2804
 7689SOL    HW234701   3.370   0.483   7.130 -0.8313  0.8135  1.0405
 7690SOL     OW34702   0.113   1.863   8.103 -0.2493  0.0060 -0.0419
 7690SOL    HW134703   0.200   1.863   8.142 -0.3009  2.9466  0.0713
 7690SOL    HW234704   0.142   1.877   8.013 -2.1455  3.0471 -0.1771
 7691SOL     OW34705   4.696   3.496   1.940 -0.0530 -0.3029  0.6151
 7691SOL    HW134706   4.642   3.504   2.018 -0.0961 -0.1206  0.5662
 7691SOL    HW234707   4.638   3.457   1.875  1.5017 -0.6415 -0.5725
 7692SOL     OW34708   0.514   4.490   7.544  0.5212  0.5419  0.2153
 7692SOL    HW134709   0.438   4.539   7.514  0.7820  0.3731 -0.7227
 7692SOL    HW234710   0.513   4.511   7.637 -2.5115  0.5789  0.1449
 7693SOL     OW34711   1.071   0.552   8.514  0.5872 -0.1821  0.2383
 7693SOL    HW134712   1.104   0.640   8.533  1.1762  0.2714 -2.8071
 7693SOL    HW234713   1.096   0.514   8.598  1.2989  1.9766  0.9998
 7694SOL     OW34714   4.573   3.366   8.432  0.0194 -0.1615  0.4138
 7694SOL    HW134715   4.616   3.366   8.347 -0.8302  0.9802 -0.0185
 7694SOL    HW234716   4.614   3.432   8.487 -1.5526  2.3281 -1.3803
 7695SOL     OW34717   2.534   1.542  13.240 -0.6196 -0.9502 -0.0937
 7695SOL    HW134718   2.627   1.521  13.230 -0.3024  1.6328 -2.6219
 7695SOL    HW234719   2.535   1.610  13.307  1.9516 -0.7462 -0.3686
 7696SOL     OW34720   3.765   3.850   8.312 -0.2439 -0.7469  0.1523
 7696SOL    HW134721   3.815   3.785   8.362 -0.6225 -1.3156 -0.2010
 7696SOL    HW234722   3.774   3.924   8.371  1.4819 -0.6158 -0.2967
 7697SOL     OW34723   1.275   2.067   6.054 -0.4292  0.1688  0.3062
 7697SOL    HW134724   1.306   2.103   5.971  0.2222 -0.4003  0.3093
 7697SOL    HW234725   1.254   2.148   6.100  1.6384 -0.1852  1.8474
 7698SOL     OW34726   3.841   2.528   3.922 -0.2494  0.1043  0.4139
 7698SOL    HW134727   3.812   2.449   3.877  1.3100 -1.2029  1.7265
 7698SOL    HW234728   3.910   2.485   3.973  0.6290  1.3693  0.3040
 7699SOL     OW34729   0.727   2.514   0.734  0.1748  0.4344 -0.1163
 7699SOL    HW134730   0.822   2.500   0.736  0.2931  1.3498  0.6330
 7699SOL    HW234731   0.691   2.443   0.787  0.6292 -1.3439 -2.2210
 7700SOL     OW34732   4.242   0.374  11.985 -0.1947 -0.0014  0.1181
 7700SOL    HW134733   4.159   0.354  11.942  0.6794 -0.2324 -1.4776
 7700SOL    HW234734   4.300   0.349  11.912  0.1814 -1.0967  0.7998
 7701SOL     OW34735   2.162   1.223   5.585  0.0388 -0.0500  0.3811
 7701SOL    HW134736   2.073   1.246   5.612  0.6607  1.9165  0.7454
 7701SOL    HW234737   2.197   1.184   5.665 -1.6930 -0.8791  0.7478
 7702SOL     OW34738   2.128   1.905   1.764  0.3186 -0.0961  0.2735
 7702SOL    HW134739   2.186   1.980   1.754  0.2812 -0.1139 -0.0715
 7702SOL    HW234740   2.183   1.853   1.822  0.5063  1.3110  1.3631
 7703SOL     OW34741   2.356   4.321   8.483  0.2894 -0.0877  0.3891
 7703SOL    HW134742   2.426   4.309   8.547  2.3609  1.4042 -1.5838
 7703SOL    HW234743   2.361   4.414   8.462 -0.0359  0.4001  2.5151
 7704SOL     OW34744   2.182   1.765   7.135  0.0487 -0.1778  0.0904
 7704SOL    HW134745   2.108   1.814   7.100  0.4294  0.1665 -0.2394
 7704SOL    HW234746   2.197   1.814   7.216  0.2457 -0.5594  0.2825
 7705SOL     OW34747   1.899   1.436   4.430  0.1185 -0.2540 -0.9550
 7705SOL    HW134748   1.862   1.508   4.480 -1.0555 -1.9227  0.5926
 7705SOL    HW234749   1.823   1.391   4.393  0.3995 -1.5703  0.0606
 7706SOL     OW34750   2.524   2.826   8.093  0.2115 -0.3942 -0.2382
 7706SOL    HW134751   2.484   2.751   8.050 -1.2793  1.1351 -1.5382
 7706SOL    HW234752   2.527   2.893   8.025 -1.1575 -1.4798 -1.3874
 7707SOL     OW34753   1.044   2.915   4.394 -0.2927  0.0140  0.7087
 7707SOL    HW134754   0.958   2.895   4.430 -0.6104  1.0266  0.5012
 7707SOL    HW234755   1.102   2.881   4.463  2.2723  1.2297 -0.8238
 7708SOL     OW34756   4.338   4.446   4.550  0.2862  0.5946  0.6485
 7708SOL    HW134757   4.337   4.352   4.568  0.0726  0.4681 -0.0181
 7708SOL    HW234758   4.396   4.442   4.473  1.2725  0.6186  1.3908
 7709SOL     OW34759   2.212   0.187   7.648  0.2086 -0.5226 -0.4660
 7709SOL    HW134760   2.177   0.198   7.736 -1.0646  0.4356 -1.0988
 7709SOL    HW234761   2.206   0.273   7.607  2.7736  0.3343  0.9366
 7710SOL     OW34762   0.483   1.492   2.111 -0.1133 -0.5828  0.0625
 7710SOL    HW134763   0.550   1.454   2.169  1.2371 -2.1653 -2.5349
 7710SOL    HW234764   0.460   1.415   2.060 -0.0587 -0.8831  0.4845
 7711SOL     OW34765   0.856   3.780   3.478  0.2097  0.3133 -0.0122
 7711SOL    HW134766   0.886   3.690   3.491  0.8192  0.2721 -1.7455
 7711SOL    HW234767   0.785   3.778   3.543  1.2601  1.2627  1.1640
 7712SOL     OW34768   1.666   1.802   7.765 -0.7142  0.3810 -0.5763
 7712SOL    HW134769   1.745   1.830   7.811 -1.1131  0.7599 -0.1225
 7712SOL    HW234770   1.702   1.720   7.731 -2.0403  0.0875 -1.2798
 7713SOL     OW34771   3.448   2.548  10.842 -0.4163 -0.3790  0.0566
 7713SOL    HW134772   3.464   2.641  10.826  0.1156 -0.2926  1.1033
 7713SOL    HW234773   3.533   2.507  10.855  0.0856  1.1978  1.6894
 7714SOL     OW34774   0.479   1.242   1.476 -0.0409 -0.4184 -0.6446
 7714SOL    HW134775   0.436   1.164   1.440  1.8153 -1.6563 -0.1960
 7714SOL    HW234776   0.483   1.303   1.402  1.5948  3.1570  2.4152
 7715SOL     OW34777   2.524   4.090  13.961  0.4284  0.2794 -0.1522
 7715SOL    HW134778   2.598   4.061  13.908  1.2927  1.8951  0.1562
 7715SOL    HW234779   2.526   4.186  13.961  1.8321  0.2554  0.3130
 7716SOL     OW34780   2.512   2.743   4.537 -0.3123  0.0448 -0.3958
 7716SOL    HW134781   2.479   2.829   4.561  1.2553  0.5285  0.0200
 7716SOL    HW234782   2.461   2.721   4.459 -0.4719 -0.3067 -0.1953
 7717SOL     OW34783   1.005   3.263  13.122  0.1137 -0.1059  1.0889
 7717SOL    HW134784   1.065   3.257  13.047  2.1941  1.7479  2.6003
 7717SOL    HW234785   0.956   3.343  13.109  2.5639  1.6819  2.8358
 7718SOL     OW34786   4.085   2.359  11.696  0.1125  0.6194 -0.1086
 7718SOL    HW134787   3.999   2.339  11.659  0.3631 -0.9928  0.2142
 7718SOL    HW234788   4.067   2.449  11.723 -2.9689 -0.6517  1.9521
 7719SOL     OW34789   0.551   3.465   5.919  0.2222 -0.1415  0.4893
 7719SOL    HW134790   0.504   3.399   5.868 -0.3717  0.5717  0.1229
 7719SOL    HW234791   0.571   3.411   5.996 -0.6476  0.8576  1.4178
 7720SOL     OW34792   2.807   0.671   4.714  0.5979  0.1456  0.4880
 7720SOL    HW134793   2.807   0.660   4.619 -1.6424  2.9619  0.1467
 7720SOL    HW234794   2.831   0.581   4.733  1.3439  0.4877  1.1763
 7721SOL     OW34795   4.544   1.195  10.730  0.0871  0.6557  0.5507
 7721SOL    HW134796   4.635   1.224  10.738  0.0782  0.3749  1.6975
 7721SOL    HW234797   4.543   1.131  10.659  0.7892  0.8403  0.3804
 7722SOL     OW34798   1.739   1.154  16.764  0.2786 -0.0606  0.1129
 7722SOL    HW134799   1.785   1.071  16.776 -2.2551 -1.4489  0.2461
 7722SOL    HW234800   1.704   1.142  16.676 -2.1913 -2.3364  1.4147
 7723SOL     OW34801   0.928   4.236   0.379 -0.1618  0.3657  0.7152
 7723SOL    HW134802   1.009   4.233   0.329 -0.5123  1.6193  0.0690
 7723SOL    HW234803   0.952   4.271   0.465  1.1414 -1.7076  1.2095
 7724SOL     OW34804   4.539   2.889   7.458 -0.1112 -0.7577  0.1469
 7724SOL    HW134805   4.495   2.873   7.542 -1.4379 -1.1429 -0.6151
 7724SOL    HW234806   4.531   2.984   7.458 -0.2829 -0.7717 -2.0949
 7725SOL     OW34807   1.118   2.587   2.202  0.7186 -0.4446 -0.4177
 7725SOL    HW134808   1.086   2.627   2.121 -0.4918  1.0770  0.8262
 7725SOL    HW234809   1.069   2.506   2.198 -0.9401  0.5576 -0.3639
 7726SOL     OW34810   0.633   1.324   3.098  0.0623  0.5780  0.1744
 7726SOL    HW134811   0.553   1.369   3.071  0.2590  0.3383 -0.8349
 7726SOL    HW234812   0.702   1.390   3.092  1.8773 -1.3688 -0.2778
 7727SOL     OW34813   1.670   3.125   5.184 -0.2235 -0.0375  0.6504
 7727SOL    HW134814   1.614   3.123   5.261  2.5075 -0.0014  2.6528
 7727SOL    HW234815   1.673   3.219   5.168 -2.2285 -0.0508  0.2040
 7728SOL     OW34816   4.518   3.670   5.682 -0.0985 -0.0325  0.0669
 7728SOL    HW134817   4.519   3.576   5.704 -2.5774 -0.3188 -1.0209
 7728SOL    HW234818   4.605   3.686   5.647  0.5120  0.3765  1.7914
 7729SOL     OW34819   4.095   0.367   7.166 -0.1466  0.1999  0.4042
 7729SOL    HW134820   4.040   0.437   7.131 -0.2681  1.7405  3.5814
 7729SOL    HW234821   4.087   0.381   7.261 -1.3598 -0.0912  0.3393
 7730SOL     OW34822   0.192   4.566  11.646  0.0928 -0.5764 -0.2878
 7730SOL    HW134823   0.197   4.508  11.570 -1.7862 -1.0380 -0.0494
 7730SOL    HW234824   0.285   4.584  11.657 -0.3881  1.4740  0.5387
 7731SOL     OW34825   3.161   0.663   6.649 -0.3745 -0.0661 -0.3077
 7731SOL    HW134826   3.190   0.745   6.609 -2.2473  0.3026 -0.9115
 7731SOL    HW234827   3.203   0.600   6.590  3.5848  2.7541 -0.4835
 7732SOL     OW34828   4.653   2.246   1.593 -0.5254  0.8851  0.2095
 7732SOL    HW134829   4.590   2.292   1.538  2.7207  2.4997 -2.1377
 7732SOL    HW234830   4.651   2.301   1.672 -0.2177 -0.3143  1.0632
 7733SOL     OW34831   0.267   2.036   7.102 -0.1835 -0.7448  0.4966
 7733SOL    HW134832   0.254   2.123   7.064  0.7914 -0.6599  0.3491
 7733SOL    HW234833   0.213   1.987   7.040 -1.2923 -0.4769  1.2634
 7734SOL     OW34834   3.927   3.041  12.966 -0.5923  0.2057  0.1441
 7734SOL    HW134835   3.978   3.067  13.042 -0.4425 -0.4392  0.2645
 7734SOL    HW234836   3.968   2.961  12.933  0.5025  0.4061  1.0180
 7735SOL     OW34837   1.230   0.666   1.894  0.1041  0.7203 -0.5294
 7735SOL    HW134838   1.222   0.662   1.798  0.9714  1.5529 -0.6312
 7735SOL    HW234839   1.316   0.707   1.889  0.9666 -1.0267  0.0012
 7736SOL     OW34840   3.157   0.666  11.576 -0.2521  0.1993 -0.3271
 7736SOL    HW134841   3.076   0.707  11.605 -0.0691  0.4645 -0.1914
 7736SOL    HW234842   3.192   0.735  11.519  0.5283  1.7922  2.1010
 7737SOL     OW34843   3.122   0.472   6.885  0.0535  0.3508  0.0742
 7737SOL    HW134844   3.180   0.529   6.835 -0.8407  0.1623 -1.1714
 7737SOL    HW234845   3.103   0.527   6.961  2.4902  0.5157  0.5522
 7738SOL     OW34846   2.876   4.111   1.714 -0.5456 -0.3662 -0.1911
 7738SOL    HW134847   2.788   4.075   1.703 -1.0013  1.5094 -2.5771
 7738SOL    HW234848   2.891   4.168   1.640 -0.9336  0.8477  0.6671
 7739SOL     OW34849   1.273   2.584   4.335  0.1631 -0.2949 -0.2065
 7739SOL    HW134850   1.259   2.518   4.403  2.7751 -0.2414  0.3835
 7739SOL    HW234851   1.280   2.659   4.395 -0.8345 -1.6305  1.5689
 7740SOL     OW34852   0.230   0.612  10.827  0.4610  0.0013 -0.0541
 7740SOL    HW134853   0.160   0.632  10.765  1.5973 -0.6054 -1.5356
 7740SOL    HW234854   0.211   0.521  10.852  0.4671 -0.2177 -0.8462
 7741SOL     OW34855   2.337   2.793   7.836 -0.0444  0.0888  1.1044
 7741SOL    HW134856   2.338   2.717   7.778 -2.4332  1.0174 -0.1435
 7741SOL    HW234857   2.291   2.755   7.910 -1.0506  1.3674  1.1354
 7742SOL     OW34858   4.076   3.087   4.363 -0.2380  0.2286 -0.1282
 7742SOL    HW134859   4.095   3.119   4.451 -1.3599 -0.9568  0.5439
 7742SOL    HW234860   3.981   3.100   4.360 -0.4210 -0.9133  0.6468
 7743SOL     OW34861   4.582   3.589   7.321  0.0897 -0.6925  0.2108
 7743SOL    HW134862   4.539   3.561   7.240 -1.8279 -1.5006  1.4955
 7743SOL    HW234863   4.514   3.563   7.383  1.7056 -3.2613  0.9153
 7744SOL     OW34864   1.621   3.332   7.697 -0.2119  0.1305 -0.0615
 7744SOL    HW134865   1.675   3.269   7.744 -1.2361  0.6631  1.8315
 7744SOL    HW234866   1.680   3.407   7.702  1.2792 -1.1000  0.8143
 7745SOL     OW34867   2.079   0.618   6.353 -0.6222  0.0995 -0.2430
 7745SOL    HW134868   2.090   0.613   6.448 -0.9130  1.8087 -0.1059
 7745SOL    HW234869   2.038   0.705   6.346  0.0463  0.3932 -0.5269
 7746SOL     OW34870   2.770   0.317   5.826  0.1599 -0.1750 -0.1097
 7746SOL    HW134871   2.821   0.261   5.768  1.1594  0.3267  0.2734
 7746SOL    HW234872   2.839   0.362   5.875 -3.0809  0.4298  3.8924
 7747SOL     OW34873   0.777   1.846  16.906  0.3716 -0.2675  0.0134
 7747SOL    HW134874   0.802   1.812  16.991 -2.2737 -1.5292  0.2951
 7747SOL    HW234875   0.852   1.809  16.860  1.5710  2.5112 -0.2830
 7748SOL     OW34876   2.229   2.509   8.659  0.2874  0.6725  0.0406
 7748SOL    HW134877   2.144   2.478   8.692  1.4872 -1.2788  1.3060
 7748SOL    HW234878   2.259   2.563   8.732  0.9590 -2.3318  2.0226
 7749SOL     OW34879   3.183   4.632   2.494  0.6850  0.2673  0.1261
 7749SOL    HW134880   3.117   4.570   2.463 -0.1721  0.6956  1.1127
 7749SOL    HW234881   3.241   4.579   2.549  2.1683  0.3906 -1.3359
 7750SOL     OW34882   2.743   0.513   7.867  0.1667  0.7815 -0.6504
 7750SOL    HW134883   2.720   0.548   7.780  2.3807  3.0017 -0.3627
 7750SOL    HW234884   2.836   0.497   7.850  0.3743  2.8950 -1.5309
 7751SOL     OW34885   4.254   2.242  11.870  0.5093 -0.4294 -0.0632
 7751SOL    HW134886   4.179   2.274  11.820 -0.3219  0.4187  1.7238
 7751SOL    HW234887   4.283   2.162  11.827 -0.5488 -1.0636  0.4099
 7752SOL     OW34888   3.481   3.201   3.564 -0.4789  0.5352  0.2722
 7752SOL    HW134889   3.496   3.112   3.596 -1.1742  0.2871 -0.0772
 7752SOL    HW234890   3.569   3.237   3.558  0.0299 -0.4087  2.0312
 7753SOL     OW34891   3.086   2.001   2.871 -0.1547  0.4654 -0.4198
 7753SOL    HW134892   3.058   1.955   2.792 -2.0842  0.1950  0.4082
 7753SOL    HW234893   3.001   1.997   2.916 -0.2547  0.5972 -0.5986
 7754SOL     OW34894   3.022   2.050   1.848 -0.1200 -0.3494  0.4807
 7754SOL    HW134895   3.011   1.955   1.841 -1.0269 -0.1875 -0.2721
 7754SOL    HW234896   2.936   2.069   1.810 -0.0655 -2.1753 -0.5317
 7755SOL     OW34897   0.297   3.195  14.055 -0.5212  0.7545  0.1955
 7755SOL    HW134898   0.250   3.166  13.977  3.7636 -0.8304 -1.7948
 7755SOL    HW234899   0.222   3.236  14.098  0.4117  1.4072  1.2001
 7756SOL     OW34900   0.655   3.885   0.972 -0.4350  0.7704 -0.3139
 7756SOL    HW134901   0.563   3.861   0.980 -0.2301  0.1497  0.1734
 7756SOL    HW234902   0.674   3.824   0.900 -1.4383 -1.1506  1.0545
 7757SOL     OW34903   0.968   1.941  12.442 -0.1613 -0.1910  0.4538
 7757SOL    HW134904   0.926   1.858  12.419 -1.8471  0.5053  1.0275
 7757SOL    HW234905   0.895   2.003  12.440 -1.1201 -1.4577 -4.1659
 7758SOL     OW34906   2.924   4.140   4.522  0.3053 -0.1066 -0.1853
 7758SOL    HW134907   2.837   4.147   4.561  0.1947  2.9220 -0.9960
 7758SOL    HW234908   2.916   4.190   4.441 -0.2665  1.4262  0.8264
 7759SOL     OW34909   0.008   4.449   2.940 -0.3716  0.1147  0.1612
 7759SOL    HW134910   0.080   4.513   2.939 -2.0014  1.9721  3.3411
 7759SOL    HW234911   4.688   4.495   2.998 -2.1540 -0.4985 -1.2042
 7760SOL     OW34912   2.149   4.588   1.283 -0.2275  0.3052 -0.3154
 7760SOL    HW134913   2.235   4.552   1.262 -0.1538  0.2905  0.0129
 7760SOL    HW234914   2.164   4.642   1.361 -0.8028  0.2137 -0.1431
 7761SOL     OW34915   3.385   1.938  14.036 -0.4150 -0.0559 -0.4909
 7761SOL    HW134916   3.305   1.945  14.089 -0.6641  1.6880 -1.0974
 7761SOL    HW234917   3.440   1.983  14.100 -1.7559  0.5391  0.2598
 7762SOL     OW34918   4.021   3.224   6.627  0.2871 -0.1337 -0.0506
 7762SOL    HW134919   3.989   3.263   6.709 -1.7168 -1.0903 -0.3692
 7762SOL    HW234920   3.942   3.227   6.572  0.8481 -0.4986 -0.8755
 7763SOL     OW34921   1.259   1.211  12.815 -0.3698  0.2068 -0.0623
 7763SOL    HW134922   1.214   1.248  12.891 -1.2460 -1.1613  0.0832
 7763SOL    HW234923   1.198   1.235  12.746 -0.4819  0.9021  0.2779
 7764SOL     OW34924   2.019   4.389   7.712 -0.3653  0.2443  0.1501
 7764SOL    HW134925   1.950   4.413   7.773  0.0539  0.5424  0.5077
 7764SOL    HW234926   2.094   4.410   7.767  0.9602 -2.0975 -0.7448
 7765SOL     OW34927   1.265   1.724  11.054  0.0307  0.4002 -0.3190
 7765SOL    HW134928   1.243   1.810  11.092  1.4259  0.5057  0.2346
 7765SOL    HW234929   1.179   1.696  11.023  1.2698 -1.2492 -2.2792
 7766SOL     OW34930   0.485   2.757  14.781  0.1286 -0.3897  0.1113
 7766SOL    HW134931   0.508   2.786  14.870 -0.3569 -2.0843  0.7869
 7766SOL    HW234932   0.572   2.727  14.756 -0.2837 -2.3241  1.0471
 7767SOL     OW34933   3.191   1.949   7.881 -0.1586  0.2431 -0.1030
 7767SOL    HW134934   3.194   1.854   7.892  0.8392  0.6946  3.5709
 7767SOL    HW234935   3.149   1.954   7.795 -0.4066  2.3344  0.1341
 7768SOL     OW34936   0.333   0.158   4.562  0.0410 -0.0446  0.0813
 7768SOL    HW134937   0.242   0.126   4.562 -0.1448  0.4675  1.2269
 7768SOL    HW234938   0.362   0.133   4.474  0.8566 -0.2551  0.4120
 7769SOL     OW34939   4.541   2.732  11.952 -0.2561  0.6687  0.0273
 7769SOL    HW134940   4.566   2.816  11.991 -0.3972  1.1716 -0.9527
 7769SOL    HW234941   4.559   2.672  12.024 -1.5685  0.0624 -0.1513
 7770SOL     OW34942   1.610   4.330   9.323  0.4208  0.1852  0.2184
 7770SOL    HW134943   1.673   4.367   9.260 -0.5476  0.2741 -0.6978
 7770SOL    HW234944   1.552   4.281   9.265 -1.0103  1.8727  0.2359
 7771SOL     OW34945   3.761   3.343   7.953  0.4904  0.6094  0.0723
 7771SOL    HW134946   3.679   3.315   7.912  0.8774 -0.0517 -0.2421
 7771SOL    HW234947   3.774   3.272   8.016 -0.7232  0.1711 -0.1702
 7772SOL     OW34948   4.411   3.877   3.738 -0.5195  0.3998 -0.0190
 7772SOL    HW134949   4.384   3.895   3.828  1.9020  1.9783  0.3847
 7772SOL    HW234950   4.386   3.956   3.691  0.2070  1.3729  1.2567
 7773SOL     OW34951   2.365   4.605  15.321  0.4731 -0.1479  0.0233
 7773SOL    HW134952   2.329   4.628  15.407  1.2375 -2.0877  0.8715
 7773SOL    HW234953   2.310   4.659  15.265  0.4743  0.4082  0.5620
 7774SOL     OW34954   4.076   2.212   1.246 -0.3745  0.3800  0.0432
 7774SOL    HW134955   4.126   2.291   1.223  0.0421 -0.4134 -1.7544
 7774SOL    HW234956   4.073   2.178   1.156 -0.3428 -0.5068  0.3856
 7775SOL     OW34957   4.208   3.866   5.460  0.0917  0.4890  0.0429
 7775SOL    HW134958   4.121   3.855   5.498  0.0136 -1.1785 -0.6190
 7775SOL    HW234959   4.192   3.888   5.368 -2.0249  0.8986  0.5101
 7776SOL     OW34960   1.555   2.003  10.300  0.3868 -0.1483  1.1332
 7776SOL    HW134961   1.539   2.007  10.206 -2.4077 -2.0490  1.4959
 7776SOL    HW234962   1.634   2.054  10.318  1.5670 -0.6647 -2.5589
 7777SOL     OW34963   0.544   4.662   3.494 -0.3485 -0.1554  0.1073
 7777SOL    HW134964   0.573   4.580   3.535 -1.8795  0.2572  1.9882
 7777SOL    HW234965   0.626   4.696   3.457  1.2639 -3.7654  0.3522
 7778SOL     OW34966   3.440   0.517   4.573  0.1606  0.3051  0.0264
 7778SOL    HW134967   3.406   0.433   4.542  0.5916 -0.2086  0.9481
 7778SOL    HW234968   3.446   0.570   4.494 -1.4605 -0.3340 -0.5342
 7779SOL     OW34969   2.793   3.575   6.689 -0.1821  0.2868 -0.4120
 7779SOL    HW134970   2.805   3.521   6.767 -2.5342  0.3283 -0.0230
 7779SOL    HW234971   2.719   3.629   6.716  0.0629  0.7983 -0.7595
 7780SOL     OW34972   0.608   3.343  15.652  0.8217 -0.4503 -0.3797
 7780SOL    HW134973   0.674   3.336  15.720 -0.5198  1.8650  1.1554
 7780SOL    HW234974   0.657   3.357  15.571  0.7414 -2.2969 -0.7611
 7781SOL     OW34975   2.558   3.104   4.092  0.2479  0.2033  0.5881
 7781SOL    HW134976   2.646   3.066   4.089 -0.3511 -1.1649  0.6638
 7781SOL    HW234977   2.506   3.031   4.059 -2.1223  1.7537  0.8449
 7782SOL     OW34978   3.777   0.076   3.682  0.4347 -0.5498 -0.6311
 7782SOL    HW134979   3.846   0.143   3.684  0.6498 -0.7784 -0.3783
 7782SOL    HW234980   3.716   0.130   3.632 -1.7907 -0.5922  2.0379
 7783SOL     OW34981   1.469   0.182   7.378 -0.6047  0.6662 -0.1386
 7783SOL    HW134982   1.523   0.113   7.416  0.2187  1.4419  0.1102
 7783SOL    HW234983   1.393   0.140   7.337  0.0331 -0.7871  0.1856
 7784SOL     OW34984   2.400   1.143   1.117  0.7049 -0.0590 -0.0727
 7784SOL    HW134985   2.439   1.155   1.030  0.2267  1.1040 -0.1321
 7784SOL    HW234986   2.382   1.050   1.129  1.2713  0.2380  3.0583
 7785SOL     OW34987   0.341   2.748   8.650 -0.1027  0.4326  0.0197
 7785SOL    HW134988   0.434   2.759   8.633 -0.3389  1.9787 -0.2799
 7785SOL    HW234989   0.303   2.783   8.570 -1.1933 -0.0702  0.3154
 7786SOL     OW34990   2.384   2.446   6.714  0.2895  0.3331  0.3021
 7786SOL    HW134991   2.387   2.385   6.788  3.3922  1.4142  1.0666
 7786SOL    HW234992   2.385   2.380   6.644 -1.9160 -0.0285  0.5981
 7787SOL     OW34993   3.501   2.622   0.751 -0.6853 -0.0194  0.1788
 7787SOL    HW134994   3.495   2.716   0.735  1.7476  0.2482  0.7660
 7787SOL    HW234995   3.442   2.617   0.826 -0.6370 -2.8044  0.0388
 7788SOL     OW34996   0.975   2.457   7.815 -0.6618 -0.2209  0.2776
 7788SOL    HW134997   0.983   2.381   7.872 -0.3437 -1.2667 -1.1440
 7788SOL    HW234998   0.893   2.432   7.772 -0.3941 -0.6714  0.0263
 7789SOL     OW34999   4.314   2.471   2.724 -0.4639  0.2414 -0.1138
 7789SOL    HW135000   4.270   2.386   2.721  3.6201 -1.8270 -1.4365
 7789SOL    HW235001   4.237   2.526   2.711  1.2282  2.4619 -0.9077
 7790SOL     OW35002   2.878   0.328   3.161 -0.0013  0.5335 -0.6031
 7790SOL    HW135003   2.811   0.263   3.184 -0.0064  0.4117 -0.9640
 7790SOL    HW235004   2.826   0.408   3.156 -1.6238 -0.5158 -0.7519
 7791SOL     OW35005   1.642   2.788   7.165  0.3737  0.3121  0.6238
 7791SOL    HW135006   1.611   2.700   7.190 -1.9798  0.9648  0.0297
 7791SOL    HW235007   1.717   2.796   7.223  0.3126 -1.4155  0.9402
 7792SOL     OW35008   1.522   0.445   7.472 -0.5754 -0.2451  0.0799
 7792SOL    HW135009   1.429   0.463   7.486 -0.3488  1.2157 -0.2496
 7792SOL    HW235010   1.521   0.353   7.449  1.7895 -0.2858  0.1471
 7793SOL     OW35011   0.008   4.346  14.711 -0.3445 -0.0757 -0.2500
 7793SOL    HW135012   4.680   4.408  14.735 -0.5847 -1.2472  2.1488
 7793SOL    HW235013   0.048   4.392  14.638 -0.6265 -0.6665 -0.7778
 7794SOL     OW35014   4.538   1.769   0.781  0.3626 -0.5927 -0.3313
 7794SOL    HW135015   4.529   1.790   0.688 -3.2952  2.0900  0.6360
 7794SOL    HW235016   4.633   1.754   0.783  0.7450  2.2430  2.9510
 7795SOL     OW35017   1.945   2.186   6.926 -0.3867 -0.2295 -0.0122
 7795SOL    HW135018   1.962   2.271   6.967  0.6018 -0.5445  0.2393
 7795SOL    HW235019   1.995   2.196   6.844 -1.6793  1.3000 -0.6195
 7796SOL     OW35020   0.657   1.425   8.641 -0.1582 -0.1221 -0.1485
 7796SOL    HW135021   0.707   1.474   8.575 -0.1874  0.5628  0.3484
 7796SOL    HW235022   0.607   1.375   8.576  0.4541 -0.4771 -0.3549
 7797SOL     OW35023   3.492   2.206   6.797 -0.0452 -0.4553 -0.9986
 7797SOL    HW135024   3.557   2.193   6.866  0.3795  0.7430 -1.1572
 7797SOL    HW235025   3.433   2.269   6.839  0.7472 -0.2111 -0.2535
 7798SOL     OW35026   4.231   2.169   0.156  0.1847  0.5658  0.4921
 7798SOL    HW135027   4.284   2.222   0.096  0.0257  0.6834  0.4570
 7798SOL    HW235028   4.255   2.080   0.130 -0.4236  0.4814  0.2186
 7799SOL     OW35029   3.224   3.417   4.375  0.3923 -0.1925 -0.5900
 7799SOL    HW135030   3.288   3.403   4.305 -1.4147  0.1949 -2.3098
 7799SOL    HW235031   3.144   3.429   4.325  1.0674  3.2073 -0.8557
 7800SOL     OW35032   1.285   4.288   8.806 -0.0428 -0.2565  0.0662
 7800SOL    HW135033   1.230   4.280   8.884  0.4809 -0.3788  0.4243
 7800SOL    HW235034   1.271   4.381   8.787  2.0108  0.5526  2.5820
 7801SOL     OW35035   0.293   2.000   5.798  0.3575 -0.7421 -0.4657
 7801SOL    HW135036   0.363   2.030   5.856 -0.9107 -0.0141  0.6885
 7801SOL    HW235037   0.211   2.040   5.828 -0.6723 -2.2502 -1.2697
 7802SOL     OW35038   1.811   0.274   6.879  0.3086  0.0741  0.0019
 7802SOL    HW135039   1.830   0.233   6.795  2.4099 -1.9283  1.4196
 7802SOL    HW235040   1.732   0.317   6.849 -0.7509 -0.3360  2.1605
 7803SOL     OW35041   3.072   1.566   2.799 -0.2344 -0.1974 -0.0540
 7803SOL    HW135042   3.138   1.632   2.822 -0.1168 -0.8067  1.3902
 7803SOL    HW235043   3.134   1.493   2.804  0.5230  0.4389 -0.0712
 7804SOL     OW35044   2.297   0.768   1.970 -0.6341  0.5685 -0.3879
 7804SOL    HW135045   2.387   0.775   1.939 -0.9517  2.5659 -0.8635
 7804SOL    HW235046   2.262   0.856   1.953  1.4135  1.4153 -0.2006
 7805SOL     OW35047   0.812   1.040   6.987  0.4524 -1.0953 -0.2892
 7805SOL    HW135048   0.734   0.989   7.010 -1.3141  1.4637 -0.6907
 7805SOL    HW235049   0.800   1.084   7.071 -2.2643 -1.0163 -0.7091
 7806SOL     OW35050   1.406   2.306  13.511 -0.5542 -0.1962 -0.1719
 7806SOL    HW135051   1.395   2.211  13.511 -0.9702 -0.1470 -1.4961
 7806SOL    HW235052   1.344   2.319  13.582  1.3622 -0.2466  1.4936
 7807SOL     OW35053   2.106   0.246   7.876  0.3439  0.7537  0.1395
 7807SOL    HW135054   2.125   0.273   7.965 -1.0224  2.2310 -0.0163
 7807SOL    HW235055   2.027   0.300   7.866 -0.4606 -0.5580 -0.6846
 7808SOL     OW35056   3.157   2.785   9.239  0.2682 -0.9987  0.2182
 7808SOL    HW135057   3.079   2.840   9.238  1.2805  0.4522  1.0647
 7808SOL    HW235058   3.136   2.734   9.161 -0.4774 -0.8548  0.3277
 7809SOL     OW35059   2.910   3.413   1.824 -0.0531 -0.5864  0.1162
 7809SOL    HW135060   2.887   3.442   1.912  1.1908 -0.6062  0.4345
 7809SOL    HW235061   2.976   3.472   1.790  0.2387 -0.4769  0.8699
 7810SOL     OW35062   3.123   3.639   4.707 -0.0567  0.2820 -0.5317
 7810SOL    HW135063   3.064   3.711   4.728  2.1006  1.8138  0.2727
 7810SOL    HW235064   3.068   3.562   4.722  1.0291 -0.7489 -1.8909
 7811SOL     OW35065   2.018   4.453   4.833  0.1855 -0.5625  0.1366
 7811SOL    HW135066   2.023   4.379   4.772 -1.5535 -0.6530  0.0887
 7811SOL    HW235067   1.961   4.515   4.787  0.0200 -0.2778  0.7335
 7812SOL     OW35068   3.688   1.512  10.110  0.2802  0.5406  0.2950
 7812SOL    HW135069   3.682   1.584  10.174 -2.5926  0.4098  0.1653
 7812SOL    HW235070   3.621   1.545  10.051  0.5876 -2.4740 -1.6930
 7813SOL     OW35071   0.484   3.413   8.158  0.0226 -0.5721  0.6044
 7813SOL    HW135072   0.490   3.487   8.098  0.2023 -0.0837  1.2276
 7813SOL    HW235073   0.550   3.355   8.120 -0.6507 -1.0951  0.2200
 7814SOL     OW35074   0.839   1.707  12.357 -0.2430 -0.2375  0.3378
 7814SOL    HW135075   0.929   1.673  12.362 -0.6025 -1.3085 -0.3700
 7814SOL    HW235076   0.831   1.678  12.266  1.6767  2.9436 -0.8238
 7815SOL     OW35077   4.652   4.312  11.352  0.1919 -0.1387  0.5204
 7815SOL    HW135078   4.635   4.384  11.413  0.2723 -0.9905  1.5524
 7815SOL    HW235079   4.600   4.333  11.275  0.2991 -0.5781  0.3252
 7816SOL     OW35080   0.545   0.344   5.883 -0.6217 -0.0396  0.2890
 7816SOL    HW135081   0.615   0.292   5.924  0.2667  0.2366 -0.8608
 7816SOL    HW235082   0.551   0.428   5.929  1.6158  0.9922 -1.9123
 7817SOL     OW35083   3.302   0.067  15.124  0.3580  0.0852 -0.5564
 7817SOL    HW135084   3.214   0.100  15.138  0.2771  0.0266 -0.9399
 7817SOL    HW235085   3.307   0.110  15.038  2.1374 -0.1918 -0.5966
 7818SOL     OW35086   0.524   0.035   5.276  0.2717  0.0310 -0.0038
 7818SOL    HW135087   0.452   0.083   5.319  0.6367  0.1043  0.5234
 7818SOL    HW235088   0.547   0.089   5.200 -1.4043 -0.2218 -0.6911
 7819SOL     OW35089   0.859   2.826  17.381  0.6919  0.2403 -0.6724
 7819SOL    HW135090   0.817   2.908  17.354 -1.3249 -0.5826 -0.0729
 7819SOL    HW235091   0.864   2.782  17.296 -0.7035 -1.3099  0.0506
 7820SOL     OW35092   3.447   4.374   3.568  0.4144  0.1783  0.1030
 7820SOL    HW135093   3.353   4.382   3.585 -0.0594 -0.2444 -2.2429
 7820SOL    HW235094   3.446   4.382   3.472  0.6754  1.1096  0.1763
 7821SOL     OW35095   3.132   3.583   0.957  0.4013 -0.5829  0.3395
 7821SOL    HW135096   3.204   3.545   1.007 -0.1487 -1.7109  0.2885
 7821SOL    HW235097   3.167   3.615   0.873 -1.3835 -0.8917 -0.5168
 7822SOL     OW35098   1.606   3.444   8.086  0.3336 -0.2753  0.4366
 7822SOL    HW135099   1.631   3.352   8.090 -0.1383 -0.3801  0.9358
 7822SOL    HW235100   1.579   3.467   8.175 -2.3575 -0.6269 -0.3015
 7823SOL     OW35101   4.066   4.132   6.916  1.0836  0.2536  0.5723
 7823SOL    HW135102   4.066   4.149   7.011  1.7843 -1.2187  0.8269
 7823SOL    HW235103   4.122   4.205   6.890  1.8658 -0.3512  0.5626
 7824SOL     OW35104   0.980   2.019   5.768 -0.1119 -0.5068  0.1567
 7824SOL    HW135105   0.984   2.000   5.861  0.2124 -0.3149  0.1834
 7824SOL    HW235106   1.007   1.940   5.721  0.8662  0.3824 -0.8001
 7825SOL     OW35107   2.086   3.395   2.422  0.0161 -0.2020  0.1908
 7825SOL    HW135108   2.097   3.357   2.335 -0.9112 -2.3020  0.9937
 7825SOL    HW235109   2.075   3.319   2.480  0.7819  0.4477  1.1968
 7826SOL     OW35110   1.435   3.363   4.778  0.4636  0.5767 -0.1383
 7826SOL    HW135111   1.438   3.276   4.739 -0.0964 -0.1972  1.5502
 7826SOL    HW235112   1.343   3.364   4.801  1.0809 -0.9870  2.4245
 7827SOL     OW35113   1.105   2.012   1.070  0.4166 -0.5057  0.7206
 7827SOL    HW135114   1.044   1.938   1.072  1.9824 -1.7967  0.4030
 7827SOL    HW235115   1.174   1.979   1.128 -0.3283 -0.3722  1.6720
 7828SOL     OW35116   0.234   1.884   1.233 -0.2617 -0.0107 -0.6197
 7828SOL    HW135117   0.172   1.953   1.211  0.9093  1.0572 -0.5650
 7828SOL    HW235118   0.191   1.821   1.175  0.7559 -0.6991 -0.6439
 7829SOL     OW35119   3.910   1.544   3.316  0.2814  0.5607  0.5409
 7829SOL    HW135120   3.949   1.525   3.401  2.3998 -1.3913 -0.8766
 7829SOL    HW235121   3.951   1.478   3.261 -1.6605  0.9536 -1.3674
 7830SOL     OW35122   1.628   4.546   7.201  0.3840  0.1509  0.2798
 7830SOL    HW135123   1.711   4.579   7.237 -0.2925  1.3286  0.7313
 7830SOL    HW235124   1.612   4.603   7.126 -1.3629  0.1316  0.6407
 7831SOL     OW35125   0.368   3.328   7.299 -0.5719 -0.0239  0.4608
 7831SOL    HW135126   0.437   3.311   7.363  0.2933 -1.7138 -0.9210
 7831SOL    HW235127   0.414   3.391   7.244 -0.0348 -1.0388 -0.2405
 7832SOL     OW35128   2.342   3.703   5.072 -0.0224 -1.0821  0.7100
 7832SOL    HW135129   2.260   3.719   5.025  0.1009 -1.2361  0.4411
 7832SOL    HW235130   2.334   3.614   5.106 -0.3840 -0.8926  1.1120
 7833SOL     OW35131   4.562   3.259   4.327  0.3341 -0.1915 -0.1032
 7833SOL    HW135132   4.574   3.285   4.418 -0.0610  0.3206 -0.1972
 7833SOL    HW235133   4.484   3.310   4.306 -1.0775 -2.4217 -0.3566
 7834SOL     OW35134   3.248   4.396   0.747  0.5070 -0.1938  0.1881
 7834SOL    HW135135   3.227   4.338   0.674 -0.5788 -2.4716  2.2912
 7834SOL    HW235136   3.166   4.436   0.774 -0.4064 -0.9788 -1.4092
 7835SOL     OW35137   0.978   1.482   4.847  0.5981  0.4327 -0.4435
 7835SOL    HW135138   0.968   1.392   4.817  2.2212  1.3366 -3.6858
 7835SOL    HW235139   1.054   1.518   4.802  1.2390 -2.0719 -1.3522
 7836SOL     OW35140   4.573   4.083   2.149 -0.2911  0.2135  0.1906
 7836SOL    HW135141   4.519   4.128   2.213 -0.6309  0.9761 -0.6305
 7836SOL    HW235142   4.607   4.155   2.096 -0.3188 -0.1960 -0.3917
 7837SOL     OW35143   0.291   1.584   5.377 -0.2140  0.4406 -0.1515
 7837SOL    HW135144   0.201   1.588   5.407  0.1122 -1.4112  1.1056
 7837SOL    HW235145   0.298   1.666   5.328  1.4683  0.4194  0.0457
 7838SOL     OW35146   1.433   2.686   3.945  0.2393  0.1376 -0.1258
 7838SOL    HW135147   1.355   2.740   3.948  0.9511  1.1532  0.0070
 7838SOL    HW235148   1.479   2.721   3.869  0.9346 -0.9450 -0.2068
 7839SOL     OW35149   0.966   3.440   4.067 -0.7018  0.0668 -0.2646
 7839SOL    HW135150   0.898   3.501   4.039  1.9659  2.0073 -2.5933
 7839SOL    HW235151   1.021   3.505   4.111 -0.1964 -2.5019  2.8784
 7840SOL     OW35152   1.873   4.207   7.184  0.6002 -0.2572  0.7880
 7840SOL    HW135153   1.885   4.112   7.180  2.7343  0.1076 -1.4423
 7840SOL    HW235154   1.798   4.212   7.243  0.9670  0.1752  1.2272
 7841SOL     OW35155   4.100   2.479   2.339  0.3043 -0.2211 -0.6925
 7841SOL    HW135156   4.105   2.503   2.431 -0.2594  0.1485 -0.7619
 7841SOL    HW235157   4.016   2.434   2.343  0.7666 -1.1474 -1.1760
 7842SOL     OW35158   0.129   4.193   8.275  0.2691  0.6260 -0.1963
 7842SOL    HW135159   0.173   4.125   8.224 -1.2394  0.1670 -0.8812
 7842SOL    HW235160   0.174   4.192   8.359  3.9629  1.0687 -2.1193
 7843SOL     OW35161   0.576   2.118   0.312  0.6638 -0.4011  0.0157
 7843SOL    HW135162   0.498   2.142   0.264  0.7487  2.4040  1.2949
 7843SOL    HW235163   0.592   2.196   0.365 -1.0882 -1.4148  2.0499
 7844SOL     OW35164   2.806   2.241   4.359  0.2152  0.0552  0.1014
 7844SOL    HW135165   2.808   2.247   4.264 -1.7789  0.6835  0.1082
 7844SOL    HW235166   2.820   2.330   4.390  2.7289 -0.4719  0.4719
 7845SOL     OW35167   0.342   2.520  17.499 -0.1115 -0.5662 -0.0126
 7845SOL    HW135168   0.315   2.606  17.530  0.5858 -0.1433 -0.5802
 7845SOL    HW235169   0.336   2.528  17.404 -0.1043 -0.2345  0.0133
 7846SOL     OW35170   1.628   0.852   4.437 -0.1797 -0.1370 -0.5242
 7846SOL    HW135171   1.636   0.870   4.531  0.6036  3.7638 -1.3225
 7846SOL    HW235172   1.533   0.861   4.430 -0.4574 -2.7493 -0.0546
 7847SOL     OW35173   0.406   1.345  13.721  0.7030 -0.5340  0.3996
 7847SOL    HW135174   0.349   1.418  13.696  2.4796  0.7385  0.1012
 7847SOL    HW235175   0.419   1.296  13.639  0.4114 -0.6844  0.4429
 7848SOL     OW35176   3.806   0.343   0.500  0.6806 -0.2115  0.5321
 7848SOL    HW135177   3.870   0.365   0.432 -1.5987 -0.8822 -1.8280
 7848SOL    HW235178   3.871   0.307   0.560  0.4831 -0.0996  0.8120
 7849SOL     OW35179   3.875   4.242  14.960 -0.5770  0.1793  0.1155
 7849SOL    HW135180   3.898   4.173  14.898  1.4612  2.6667 -1.8761
 7849SOL    HW235181   3.780   4.244  14.948 -0.7513  0.8216  1.6316
 7850SOL     OW35182   2.087   3.314  12.045 -0.2764 -0.7619 -0.3103
 7850SOL    HW135183   1.992   3.307  12.041 -0.2994 -1.5882  1.7232
 7850SOL    HW235184   2.108   3.231  12.001  1.9804 -0.3327 -0.0672
 7851SOL     OW35185   0.948   0.618   0.545 -0.4758  0.5695 -0.5177
 7851SOL    HW135186   0.949   0.523   0.538  2.0494  0.4632  1.4702
 7851SOL    HW235187   0.856   0.630   0.522  0.0039  0.9156 -2.2165
 7852SOL     OW35188   4.328   1.397  13.663  0.0017  0.4360  0.2926
 7852SOL    HW135189   4.353   1.331  13.728 -0.8910  0.0557  0.2568
 7852SOL    HW235190   4.324   1.473  13.721 -1.3092  0.4174  0.2185
 7853SOL     OW35191   3.982   2.356  10.872 -0.0857  0.8156 -0.0726
 7853SOL    HW135192   3.984   2.314  10.958  0.1920 -2.6287 -1.7578
 7853SOL    HW235193   4.010   2.445  10.895 -2.0932  0.5815  3.1648
 7854SOL     OW35194   2.258   2.154  17.552  0.1946 -0.2320 -0.3642
 7854SOL    HW135195   2.171   2.192  17.539  0.4652  0.7429  0.6575
 7854SOL    HW235196   2.249   2.121  17.641  0.6533  1.6362  0.3680
 7855SOL     OW35197   1.217   3.141   5.191  0.4834 -0.2633 -0.0711
 7855SOL    HW135198   1.220   3.054   5.153 -2.1443 -0.2391 -0.3391
 7855SOL    HW235199   1.128   3.168   5.170 -0.8555 -3.1573  2.0045
 7856SOL     OW35200   3.080   0.132  12.872 -0.3878 -0.1029 -0.4865
 7856SOL    HW135201   3.104   0.055  12.924  0.7021 -0.0732 -0.9433
 7856SOL    HW235202   2.987   0.137  12.894 -0.5041  1.7227 -1.3469
 7857SOL     OW35203   3.559   1.366   5.214  0.8133  0.2401 -0.4250
 7857SOL    HW135204   3.539   1.458   5.199  1.3040  0.1759 -1.4418
 7857SOL    HW235205   3.641   1.372   5.264  1.0408  1.9033 -1.0134
 7858SOL     OW35206   1.856   1.833   9.196 -0.2220 -0.2313 -0.4378
 7858SOL    HW135207   1.882   1.875   9.114  1.3327 -3.7212 -1.7509
 7858SOL    HW235208   1.790   1.767   9.173  1.6002 -2.1156 -0.2688
 7859SOL     OW35209   3.676   0.055   2.692  0.0340 -0.2064  0.4550
 7859SOL    HW135210   3.636   0.121   2.749  0.0498  0.1224  0.0786
 7859SOL    HW235211   3.752   0.101   2.657  0.6770 -1.7232 -0.1310
 7860SOL     OW35212   3.370   2.673   6.458  0.1622 -0.5523 -0.3182
 7860SOL    HW135213   3.314   2.644   6.531 -0.8475 -1.6397 -1.5252
 7860SOL    HW235214   3.435   2.719   6.512  1.0567 -1.1304 -0.9159
 7861SOL     OW35215   1.100   0.693   7.297 -0.0814 -0.0628  0.0135
 7861SOL    HW135216   1.132   0.609   7.331  0.2874 -0.3503 -1.0323
 7861SOL    HW235217   1.120   0.741   7.377 -2.2541 -0.2859  0.6901
 7862SOL     OW35218   2.824   0.017   5.993  0.0547  0.4228  0.2117
 7862SOL    HW135219   2.771   4.697   5.942 -0.6684  0.3030  1.0944
 7862SOL    HW235220   2.799   4.734   6.083 -1.9667 -0.3509 -0.5702
 7863SOL     OW35221   3.443   0.048   8.783  0.2276  0.6581 -0.0822
 7863SOL    HW135222   3.490   0.074   8.704  0.4910  0.0042 -0.1400
 7863SOL    HW235223   3.489   4.707   8.798 -0.5443 -0.1015 -1.8864
 7864SOL     OW35224   1.764   0.042   6.697  0.9224  0.3097  0.0879
 7864SOL    HW135225   1.804   0.037   6.610  3.1748  0.5222  1.1103
 7864SOL    HW235226   1.674   0.028   6.668  1.9321  0.6459 -3.2890
 7865SOL     OW35227   4.725   4.470   7.781 -0.1917 -0.3183 -0.0667
 7865SOL    HW135228   0.050   4.461   7.712 -0.8990 -2.4024 -0.4855
 7865SOL    HW235229   4.698   4.561   7.778 -0.5413 -0.4535 -0.9490
 7866SOL     OW35230   3.763   4.037  12.222  0.3457 -0.3763 -0.8470
 7866SOL    HW135231   3.788   3.961  12.276  0.3023  0.5725  0.5251
 7866SOL    HW235232   3.806   4.014  12.140  0.8828 -3.0712  0.1758
 7867SOL     OW35233   3.963   2.421   9.707  0.0031  0.0658  0.1790
 7867SOL    HW135234   3.882   2.376   9.733  0.2913 -0.9482 -0.6439
 7867SOL    HW235235   3.975   2.408   9.613  0.1887  1.1556  0.0588
 7868SOL     OW35236   1.042   4.706   8.754 -0.1657 -0.0784 -0.0055
 7868SOL    HW135237   1.102   4.652   8.805  0.4240 -0.8073 -1.4770
 7868SOL    HW235238   1.019   4.645   8.684  0.5133 -0.2056 -0.1190
 7869SOL     OW35239   2.344   1.564   8.808  0.7144  0.8623  0.3350
 7869SOL    HW135240   2.309   1.515   8.733  3.0404  2.5778 -1.8194
 7869SOL    HW235241   2.370   1.492   8.866 -0.8160 -0.7553 -0.9843
 7870SOL     OW35242   4.168   4.685   7.524  0.5089 -0.2119 -0.0449
 7870SOL    HW135243   4.231   4.717   7.460 -1.2693  1.5185 -0.9214
 7870SOL    HW235244   4.107   0.016   7.539 -1.0020 -1.6549  0.7872
 7871SOL     OW35245   1.822   2.491   1.690  0.3468 -0.2135 -0.1972
 7871SOL    HW135246   1.749   2.502   1.750 -0.1821 -2.7883 -0.3854
 7871SOL    HW235247   1.772   2.463   1.613 -1.3503  1.6243  0.2421
 7872SOL     OW35248   4.398   4.416   6.240 -0.6657 -0.5799  0.2586
 7872SOL    HW135249   4.384   4.321   6.242 -1.3064 -0.4725  0.9474
 7872SOL    HW235250   4.471   4.424   6.179  0.6932  2.9185  2.4086
 7873SOL     OW35251   3.940   1.636   9.034 -0.3386  0.5108 -0.3330
 7873SOL    HW135252   3.850   1.603   9.035 -0.8646  1.9560  0.8997
 7873SOL    HW235253   3.971   1.614   9.122 -2.6074 -0.0712  0.3141
 7874SOL     OW35254   3.870   1.464  10.683 -0.0629 -0.3061  0.5467
 7874SOL    HW135255   3.782   1.455  10.647  0.3612 -1.1782 -0.2536
 7874SOL    HW235256   3.874   1.557  10.705  1.1432 -0.5145  1.2106
 7875SOL     OW35257   1.543   2.172   1.614 -0.0902  0.2422  0.0547
 7875SOL    HW135258   1.600   2.163   1.690 -1.7733 -1.7226  1.0628
 7875SOL    HW235259   1.564   2.262   1.590  2.9536  0.1452  2.4240
 7876SOL     OW35260   1.402   4.180  15.305  0.0249  0.1781  0.4607
 7876SOL    HW135261   1.401   4.239  15.381  2.7913  0.1699  0.5007
 7876SOL    HW235262   1.489   4.144  15.292  0.5725  0.5952  2.9641
 7877SOL     OW35263   2.775   0.381   4.370  0.4916 -0.4528  0.6521
 7877SOL    HW135264   2.854   0.431   4.391 -0.3082 -0.2919  3.2399
 7877SOL    HW235265   2.706   0.444   4.392  1.2697  0.5632  0.1925
 7878SOL     OW35266   3.345   1.171   2.219 -0.4000 -0.3369  0.0883
 7878SOL    HW135267   3.302   1.222   2.287  1.1667  1.7093 -0.4389
 7878SOL    HW235268   3.386   1.096   2.262  2.7571 -0.8646 -3.8236
 7879SOL     OW35269   1.646   0.931   4.691  0.8616  0.8115  0.1425
 7879SOL    HW135270   1.622   0.890   4.774  2.6716 -0.9324 -0.2099
 7879SOL    HW235271   1.725   0.980   4.716  1.4021 -0.7221  1.4458
 7880SOL     OW35272   0.229   3.909   2.349  0.5522 -0.5169  0.0083
 7880SOL    HW135273   0.153   3.966   2.358  1.6430  0.7834  0.9776
 7880SOL    HW235274   0.198   3.855   2.277 -1.0459  0.4592 -0.0386
 7881SOL     OW35275   3.571   2.822   2.973 -0.0174  0.1841 -0.3433
 7881SOL    HW135276   3.614   2.894   2.928  0.4350 -0.0836 -0.3494
 7881SOL    HW235277   3.647   2.766   2.991 -0.1690 -0.3342 -1.2929
 7882SOL     OW35278   4.555   0.926   2.364 -0.0106  0.5979  0.6146
 7882SOL    HW135279   4.554   0.830   2.360 -0.6902  0.6331 -0.3434
 7882SOL    HW235280   4.511   0.946   2.446  0.7380 -1.0302  1.4106
 7883SOL     OW35281   1.114   3.440   6.279  0.4506 -0.4976 -0.3788
 7883SOL    HW135282   1.031   3.426   6.233  0.3793  1.0350 -0.7299
 7883SOL    HW235283   1.175   3.410   6.212  0.0659  1.5566 -1.6393
 7884SOL     OW35284   4.458   3.196   7.009 -0.3614  0.7529 -0.3162
 7884SOL    HW135285   4.399   3.151   6.949  0.7569  0.7699 -1.4167
 7884SOL    HW235286   4.444   3.285   6.976 -2.2923 -0.5583 -2.9912
 7885SOL     OW35287   3.142   1.365  10.464 -0.1872  0.1638  0.8051
 7885SOL    HW135288   3.153   1.272  10.447 -1.4844 -0.1853  1.8871
 7885SOL    HW235289   3.172   1.413  10.386  0.6339 -1.7900 -0.0770
 7886SOL     OW35290   0.718   4.119   4.088  0.1127  0.0321 -0.4405
 7886SOL    HW135291   0.698   4.139   3.997 -0.5327  0.5341 -0.1893
 7886SOL    HW235292   0.635   4.077   4.111  0.8658 -0.6873  0.9967
 7887SOL     OW35293   0.012   1.209  16.878  0.4101  0.8164 -0.3565
 7887SOL    HW135294   0.098   1.168  16.864 -0.0331  0.2081 -1.2417
 7887SOL    HW235295   0.013   1.267  16.801 -1.7543  0.0589 -0.9331
 7888SOL     OW35296   1.976   1.028  13.437 -0.0068 -0.3646  0.2763
 7888SOL    HW135297   1.985   1.101  13.499 -1.3633 -0.4518  0.5812
 7888SOL    HW235298   1.881   1.043  13.432 -0.1493 -0.3439  3.1425
 7889SOL     OW35299   4.586   0.527   0.864  0.1393  0.6247 -0.0603
 7889SOL    HW135300   4.508   0.583   0.866 -1.2737 -1.3889  0.7644
 7889SOL    HW235301   4.607   0.508   0.955 -0.6304  2.5426  0.5177
 7890SOL     OW35302   2.557   3.879   4.296 -0.4598  0.0841 -0.3501
 7890SOL    HW135303   2.550   3.834   4.212  1.8586  0.6632 -0.8574
 7890SOL    HW235304   2.500   3.831   4.355  0.3461 -0.1867  0.2120
 7891SOL     OW35305   1.716   1.536   3.488  0.9059  0.0585 -0.3490
 7891SOL    HW135306   1.625   1.559   3.506  0.5557 -1.9851  0.5610
 7891SOL    HW235307   1.711   1.445   3.517  0.7717  0.4797  0.9818
 7892SOL     OW35308   1.788   2.781   2.327  0.2063 -0.7121  0.2331
 7892SOL    HW135309   1.858   2.779   2.392  0.8898  1.8375 -0.4080
 7892SOL    HW235310   1.814   2.721   2.258  2.4593  2.6047 -1.7832
 7893SOL     OW35311   0.437   2.071   6.405  0.3901  0.8381  0.0089
 7893SOL    HW135312   0.375   2.069   6.478  0.7381 -0.7065  0.2642
 7893SOL    HW235313   0.393   2.008   6.348  2.0451 -0.8457  0.5967
 7894SOL     OW35314   0.542   3.828   3.909  0.0833  0.0251  0.3073
 7894SOL    HW135315   0.528   3.891   3.980  1.0208  1.0714 -0.4365
 7894SOL    HW235316   0.470   3.768   3.931  1.8632 -2.5719 -0.9423
 7895SOL     OW35317   0.221   1.547   6.208 -0.2559 -0.5669 -0.5394
 7895SOL    HW135318   0.274   1.560   6.130  2.5797  1.2324  1.6694
 7895SOL    HW235319   0.279   1.553   6.284  0.8950 -0.4321 -1.4335
 7896SOL     OW35320   2.459   4.544   4.590 -0.8991 -0.3032 -0.1210
 7896SOL    HW135321   2.461   4.623   4.644  0.6472 -0.0594 -0.5334
 7896SOL    HW235322   2.516   4.480   4.632  1.5896  1.9307 -0.0753
 7897SOL     OW35323   1.981   3.797   7.159 -0.1719  0.2193  0.3635
 7897SOL    HW135324   2.055   3.736   7.158 -0.7440 -0.4597 -0.3945
 7897SOL    HW235325   1.908   3.749   7.121  0.4328 -0.5957  0.2378
 7898SOL     OW35326   1.062   2.630   1.171  0.9212 -0.0071  0.1298
 7898SOL    HW135327   1.074   2.559   1.233  0.8457  1.0056  1.3054
 7898SOL    HW235328   1.147   2.674   1.166  1.5493 -1.0062  2.2119
 7899SOL     OW35329   0.569   0.919   2.698 -0.3634  0.1954 -0.2034
 7899SOL    HW135330   0.565   0.995   2.640 -0.2868  0.7302  0.4985
 7899SOL    HW235331   0.578   0.849   2.633 -0.6037  1.7391 -1.8910
 7900SOL     OW35332   1.857   2.098   2.594  0.1569 -0.6594 -0.0416
 7900SOL    HW135333   1.907   2.026   2.633  0.2646 -0.4094  0.2899
 7900SOL    HW235334   1.858   2.085   2.499 -0.8992  0.1830 -0.1623
 7901SOL     OW35335   0.918   0.990   4.421 -0.5741  0.2381 -0.1551
 7901SOL    HW135336   0.846   1.002   4.483 -0.0812 -2.5164  0.9490
 7901SOL    HW235337   0.886   0.921   4.364  0.2572 -0.7638  0.5836
 7902SOL     OW35338   1.405   1.764   6.530 -0.0842  0.0840  0.5006
 7902SOL    HW135339   1.454   1.763   6.612  0.2233  0.7892  0.3207
 7902SOL    HW235340   1.446   1.693   6.481 -2.4374 -1.1049  0.2660
 7903SOL     OW35341   2.563   0.935   2.934  0.5493  0.0729  0.4117
 7903SOL    HW135342   2.551   1.022   2.897  2.0429 -0.8103 -2.1308
 7903SOL    HW235343   2.484   0.889   2.903 -0.3497  1.6473  0.3950
 7904SOL     OW35344   1.350   1.042   4.776  0.4022 -0.2171 -0.1192
 7904SOL    HW135345   1.443   1.055   4.793  0.1974 -0.1463  0.9775
 7904SOL    HW235346   1.325   0.964   4.826  0.6992  0.4559  1.0943
 7905SOL     OW35347   1.377   1.442  10.186 -0.2957  0.8801  0.1648
 7905SOL    HW135348   1.466   1.464  10.216  0.4071 -1.7631 -0.0580
 7905SOL    HW235349   1.383   1.351  10.215 -3.3257  0.0630 -1.7192
 7906SOL     OW35350   0.492   3.216   2.234  0.0506 -0.1010  0.3987
 7906SOL    HW135351   0.457   3.230   2.322 -1.2414  0.0807 -0.1355
 7906SOL    HW235352   0.437   3.144   2.203 -0.3468 -0.1804  1.2931
 7907SOL     OW35353   1.902   0.762   2.212  0.0112 -0.0777  0.1746
 7907SOL    HW135354   1.935   0.839   2.164 -0.4987 -1.8857 -3.0390
 7907SOL    HW235355   1.950   0.693   2.166 -2.2245 -1.0026 -0.7339
 7908SOL     OW35356   0.811   3.743   5.750  0.3493 -0.0360  0.3625
 7908SOL    HW135357   0.755   3.735   5.828  1.0161 -1.4187  0.6866
 7908SOL    HW235358   0.816   3.650   5.730 -0.4804  0.0374 -0.2049
 7909SOL     OW35359   0.590   2.071   7.139  0.1322  0.9451  0.1844
 7909SOL    HW135360   0.507   2.066   7.092  1.2264 -0.0552 -1.5890
 7909SOL    HW235361   0.638   1.994   7.109  0.9559  1.3300  0.5266
 7910SOL     OW35362   3.253   0.984   6.686  0.3051  0.3633  0.5352
 7910SOL    HW135363   3.291   0.976   6.598 -2.0796  1.1270 -0.5627
 7910SOL    HW235364   3.238   1.079   6.687  3.7696  0.8979  0.5878
 7911SOL     OW35365   2.160   2.348   9.378 -0.2580  0.1723  0.0966
 7911SOL    HW135366   2.247   2.376   9.406  0.6631  0.8149 -3.3970
 7911SOL    HW235367   2.165   2.347   9.282  0.8808  0.5460  0.1604
 7912SOL     OW35368   4.305   3.002   3.982  0.3274 -0.4942 -0.8330
 7912SOL    HW135369   4.265   2.974   4.065 -2.8537  2.0883 -1.4790
 7912SOL    HW235370   4.383   3.052   4.007 -1.0971  1.1773  0.2839
 7913SOL     OW35371   1.540   3.061   7.437 -0.2329  0.6479  0.0307
 7913SOL    HW135372   1.493   3.097   7.513 -1.5488  0.8007 -0.8589
 7913SOL    HW235373   1.468   3.038   7.379 -1.4827 -1.3732  2.3931
 7914SOL     OW35374   4.303   0.301  14.861  0.1594  0.2457 -1.0397
 7914SOL    HW135375   4.347   0.254  14.933 -2.9708 -1.5960 -0.3563
 7914SOL    HW235376   4.274   0.378  14.911  2.0619  0.2395  0.1007
 7915SOL     OW35377   4.121   1.746   8.076  0.1645  0.3594  0.3242
 7915SOL    HW135378   4.167   1.683   8.021 -0.7160 -0.5714  0.6518
 7915SOL    HW235379   4.184   1.818   8.066  0.2782  0.1800 -0.2772
 7916SOL     OW35380   0.492   2.427  10.292  0.0335 -0.7170  0.0224
 7916SOL    HW135381   0.504   2.402  10.384 -1.0208 -0.5331  0.2101
 7916SOL    HW235382   0.581   2.433  10.257 -0.0906  0.8792 -0.0254
 7917SOL     OW35383   1.349   1.613   5.427 -0.0304  0.2948 -0.3136
 7917SOL    HW135384   1.256   1.594   5.415  0.4871 -1.8379 -0.8781
 7917SOL    HW235385   1.385   1.624   5.339 -2.7240  3.3234 -1.0556
 7918SOL     OW35386   0.017   0.810   6.547  0.2522 -0.2050  0.4570
 7918SOL    HW135387   4.676   0.825   6.501  0.4924 -0.3279 -0.0095
 7918SOL    HW235388   4.719   0.810   6.634  0.3985  0.5279  0.5208
 7919SOL     OW35389   4.514   4.486   3.753 -0.6127  0.2885  0.2525
 7919SOL    HW135390   4.586   4.545   3.731 -0.6951  0.2734 -0.0576
 7919SOL    HW235391   4.436   4.542   3.744  0.5187  1.8344  0.1140
 7920SOL     OW35392   2.404   1.252   2.543  0.0606  0.8473 -0.3297
 7920SOL    HW135393   2.495   1.236   2.517  0.0892  0.8986 -0.2604
 7920SOL    HW235394   2.348   1.182   2.508 -1.4524  1.0334  1.6918
 7921SOL     OW35395   1.121   1.627   0.153 -0.2506 -0.1663  0.4664
 7921SOL    HW135396   1.047   1.684   0.134 -1.7188 -2.0693  0.5206
 7921SOL    HW235397   1.186   1.662   0.092 -1.6455  0.4018 -0.6670
 7922SOL     OW35398   3.703   1.802   8.719 -0.3191 -0.4902  0.3159
 7922SOL    HW135399   3.711   1.865   8.648 -0.1458 -0.2604  0.5397
 7922SOL    HW235400   3.797   1.793   8.736  0.1147 -1.9979 -2.9092
 7923SOL     OW35401   1.854   4.723   9.817 -0.1738 -0.0582 -0.0909
 7923SOL    HW135402   1.861   0.077   9.830 -1.1971 -0.4617  3.4086
 7923SOL    HW235403   1.888   4.699   9.904 -0.1758 -0.9876 -0.3504
 7924SOL     OW35404   2.826   2.589   1.566  0.4223 -0.4763 -0.5048
 7924SOL    HW135405   2.843   2.642   1.644  2.3070 -0.8867 -0.6533
 7924SOL    HW235406   2.772   2.518   1.601  0.3008 -0.3178 -0.3719
 7925SOL     OW35407   3.829   2.841  12.562 -0.3067 -0.2888  0.7885
 7925SOL    HW135408   3.823   2.746  12.553  0.5207 -0.0542 -2.0518
 7925SOL    HW235409   3.741   2.857  12.597 -0.6234  0.4050 -0.3096
 7926SOL     OW35410   2.499   4.608   2.537  0.4469  0.0716 -0.2174
 7926SOL    HW135411   2.491   4.590   2.630  2.6291 -1.8671 -0.4049
 7926SOL    HW235412   2.537   4.526   2.507 -0.0402 -0.6594  1.1917
 7927SOL     OW35413   1.856   4.290  13.673  0.0599 -0.4963  0.0013
 7927SOL    HW135414   1.901   4.222  13.722 -1.1694 -1.4414 -0.1942
 7927SOL    HW235415   1.929   4.339  13.634 -1.1247  1.1095 -0.2078
 7928SOL     OW35416   1.393   2.202   0.268 -0.4836  0.4257 -0.1444
 7928SOL    HW135417   1.330   2.141   0.308 -0.9179  0.7561 -0.3299
 7928SOL    HW235418   1.356   2.193   0.180  1.4461 -1.0580 -0.8058
 7929SOL     OW35419   2.119   1.886   5.204  0.6751 -0.3659  0.1901
 7929SOL    HW135420   2.111   1.823   5.133  0.1061  0.7270 -0.7158
 7929SOL    HW235421   2.212   1.882   5.228  0.9616  3.0858 -0.3807
 7930SOL     OW35422   2.827   2.061   1.637  0.1302  0.1218 -0.1016
 7930SOL    HW135423   2.732   2.045   1.638 -0.4001  3.6782  2.2247
 7930SOL    HW235424   2.848   1.982   1.587 -1.9827 -0.5888  0.1106
 7931SOL     OW35425   0.901   3.319   2.769 -0.0207  0.1062 -0.4099
 7931SOL    HW135426   0.821   3.271   2.746 -0.3403 -0.1844  1.2937
 7931SOL    HW235427   0.859   3.402   2.791 -2.1435 -0.5364 -1.9179
 7932SOL     OW35428   3.990   2.057   3.477 -0.3942  0.2679  0.1961
 7932SOL    HW135429   3.949   2.144   3.472 -0.4765  0.0902 -2.1267
 7932SOL    HW235430   4.073   2.083   3.436  0.4055 -3.1220 -0.2818
 7933SOL     OW35431   3.590   3.539   4.455 -0.6189  0.1769 -0.2429
 7933SOL    HW135432   3.617   3.620   4.412 -0.7198  0.0063 -0.6348
 7933SOL    HW235433   3.500   3.562   4.474 -0.8606 -0.3952 -0.6933
 7934SOL     OW35434   3.949   3.327   4.729  0.2455  0.3555 -0.4929
 7934SOL    HW135435   3.873   3.326   4.787 -1.0345 -2.1906 -2.1868
 7934SOL    HW235436   3.933   3.408   4.680 -0.7233 -0.8343 -2.1777
 7935SOL     OW35437   2.477   2.032  12.451  0.3538  0.3816 -0.4312
 7935SOL    HW135438   2.424   2.112  12.460 -0.6960 -0.3796  0.0573
 7935SOL    HW235439   2.565   2.065  12.469  1.0352 -0.2927 -2.5107
 7936SOL     OW35440   1.604   0.809   8.883 -0.0079  0.1037  0.0773
 7936SOL    HW135441   1.667   0.774   8.946  0.7488  2.1893  0.4557
 7936SOL    HW235442   1.530   0.766   8.926 -0.0528  0.4053  0.3037
 7937SOL     OW35443   4.590   0.963  11.295 -0.0727 -0.0191 -0.0267
 7937SOL    HW135444   4.613   1.024  11.366  3.5092  0.8003 -1.9067
 7937SOL    HW235445   4.581   0.884  11.347 -0.5451  0.5476  0.7551
 7938SOL     OW35446   2.229   3.421   3.678  0.1039 -0.1821  0.1354
 7938SOL    HW135447   2.234   3.386   3.766  2.0524 -0.1897  0.0108
 7938SOL    HW235448   2.137   3.415   3.653 -0.3349 -0.1952  1.7897
 7939SOL     OW35449   0.132   3.170  12.416 -0.2018 -0.2725 -0.7055
 7939SOL    HW135450   0.174   3.256  12.416  0.6054 -0.6668 -0.6580
 7939SOL    HW235451   0.077   3.175  12.494  1.0566 -1.8638  0.2917
 7940SOL     OW35452   3.281   2.796   5.690  0.3348  0.5964 -0.4311
 7940SOL    HW135453   3.219   2.747   5.743  0.9901  0.2561  0.0125
 7940SOL    HW235454   3.219   2.831   5.625 -1.8497 -0.0191  1.3120
 7941SOL     OW35455   4.173   1.606  12.531 -0.0236  0.3742 -0.7998
 7941SOL    HW135456   4.095   1.625  12.583  0.4330 -1.1475  0.4249
 7941SOL    HW235457   4.141   1.590  12.442 -2.3764 -1.4978  0.4020
 7942SOL     OW35458   1.470   3.113  12.766 -0.4603 -0.2420 -0.1796
 7942SOL    HW135459   1.479   3.165  12.686  1.2209 -0.4806 -0.1516
 7942SOL    HW235460   1.474   3.025  12.729 -0.4649 -0.2614 -0.1342
 7943SOL     OW35461   3.165   4.007   3.783 -0.0893  0.1652  0.2516
 7943SOL    HW135462   3.215   4.028   3.862 -0.5283  0.5822  0.4161
 7943SOL    HW235463   3.091   4.064   3.802 -0.5789 -0.9058  1.5695
 7944SOL     OW35464   3.084   1.261  14.330 -0.1069  0.4951 -0.2796
 7944SOL    HW135465   3.164   1.217  14.360 -1.1371 -2.8390 -2.4346
 7944SOL    HW235466   3.062   1.213  14.250 -0.7040  2.3733 -1.2392
 7945SOL     OW35467   3.366   3.222   1.248 -0.5329  0.3550 -0.0207
 7945SOL    HW135468   3.328   3.248   1.333 -2.6764 -0.3940 -0.7424
 7945SOL    HW235469   3.308   3.262   1.183 -2.6037 -1.7470  0.5268
 7946SOL     OW35470   3.172   2.525   5.524 -0.4788  0.6377 -0.0167
 7946SOL    HW135471   3.166   2.597   5.461 -0.2219  2.1822  1.7177
 7946SOL    HW235472   3.266   2.503   5.521 -0.8656 -1.1553  0.9580
 7947SOL     OW35473   4.444   2.870   3.554 -0.1661 -0.2286 -0.1782
 7947SOL    HW135474   4.474   2.828   3.635 -1.2279 -2.0427 -0.7314
 7947SOL    HW235475   4.420   2.957   3.586 -2.4345  0.2154 -3.0591
 7948SOL     OW35476   4.090   3.878   6.789 -0.7714  0.0947 -0.3598
 7948SOL    HW135477   4.075   3.963   6.830  1.6541 -0.9455  2.6701
 7948SOL    HW235478   4.069   3.897   6.697  0.2155 -0.7731 -0.7613
 7949SOL     OW35479   2.096   3.243   0.646 -0.6897 -0.3633 -0.4397
 7949SOL    HW135480   2.182   3.274   0.675 -0.8119 -0.3823 -0.0589
 7949SOL    HW235481   2.072   3.192   0.723  4.1192 -1.0226  0.6614
 7950SOL     OW35482   3.753   2.898   2.170 -0.1795  0.2931 -0.4841
 7950SOL    HW135483   3.675   2.844   2.180  1.1211 -1.7437 -1.2048
 7950SOL    HW235484   3.787   2.877   2.256 -0.4329  0.9714 -0.2156
 7951SOL     OW35485   2.658   1.886   5.372  0.3498 -0.1778  0.1036
 7951SOL    HW135486   2.702   1.826   5.312 -0.7936 -2.1226  1.2201
 7951SOL    HW235487   2.712   1.865   5.448  1.0940 -0.1930 -0.4291
 7952SOL     OW35488   3.967   2.454  17.221 -0.0091  0.3814  0.1036
 7952SOL    HW135489   4.044   2.401  17.204 -0.7204  0.4374 -3.3954
 7952SOL    HW235490   3.996   2.538  17.185 -1.3829  0.1108 -1.6352
 7953SOL     OW35491   4.735   2.886   3.851 -0.5784 -0.2939 -0.5837
 7953SOL    HW135492   0.065   2.836   3.810 -0.7699  0.0998 -1.4010
 7953SOL    HW235493   4.713   2.832   3.926  2.7204 -0.0495  0.5473
 7954SOL     OW35494   0.108   2.774   4.976 -0.1940  0.2819  0.6342
 7954SOL    HW135495   0.067   2.694   4.943  2.4933 -0.7975 -0.0661
 7954SOL    HW235496   0.108   2.819   4.892 -0.6106  1.7687  1.4196
 7955SOL     OW35497   3.094   3.759   1.168  0.0353 -0.2960  0.0487
 7955SOL    HW135498   3.114   3.718   1.084 -3.3613 -1.0048 -0.3952
 7955SOL    HW235499   3.142   3.696   1.221 -0.6657 -1.7973 -1.1193
 7956SOL     OW35500   2.153   4.524  14.709 -0.2182  0.2514  0.8299
 7956SOL    HW135501   2.196   4.546  14.792  2.0222  0.8232 -0.4634
 7956SOL    HW235502   2.082   4.588  14.705 -0.4504  0.0450  1.6572
 7957SOL     OW35503   0.796   0.915  12.206 -0.1354 -0.5375 -0.3459
 7957SOL    HW135504   0.717   0.932  12.156 -0.9305 -1.9311  0.4090
 7957SOL    HW235505   0.784   0.821  12.222 -1.3916 -0.3134 -0.0185
 7958SOL     OW35506   1.496   3.414  11.205  0.3899  0.6491  0.3439
 7958SOL    HW135507   1.577   3.390  11.160 -0.2638  2.7924 -1.9719
 7958SOL    HW235508   1.501   3.354  11.279 -1.3703 -0.5827 -0.5564
 7959SOL     OW35509   3.766   3.531   8.188  0.4479  0.0595  0.2832
 7959SOL    HW135510   3.740   3.520   8.097  0.8838 -0.3865  0.2084
 7959SOL    HW235511   3.852   3.490   8.199  0.3819 -0.2669 -0.4093
 7960SOL     OW35512   1.866   1.291   2.732  0.0586 -0.0338 -0.0817
 7960SOL    HW135513   1.877   1.351   2.806 -0.8475 -0.6237  0.5244
 7960SOL    HW235514   1.819   1.215   2.765 -4.5741  2.8320 -0.1773
 7961SOL     OW35515   3.952   0.871   6.271 -0.4630  0.0556 -0.3563
 7961SOL    HW135516   3.960   0.953   6.223  0.6013  0.1305 -0.0587
 7961SOL    HW235517   3.900   0.893   6.348 -0.3877  1.7215 -0.8032
 7962SOL     OW35518   3.656   0.799  11.247  0.0294 -0.3135 -0.1405
 7962SOL    HW135519   3.607   0.787  11.166  1.1517 -1.0277 -0.7264
 7962SOL    HW235520   3.595   0.760  11.309  1.6627 -0.4973  1.3556
 7963SOL     OW35521   2.541   1.012  15.376 -0.6286  0.6589  0.4256
 7963SOL    HW135522   2.572   1.045  15.460  1.2678 -0.1924  0.0480
 7963SOL    HW235523   2.616   1.018  15.318 -1.1078 -1.4321 -0.3877
 7964SOL     OW35524   0.258   2.120   4.443 -0.0910 -0.1850 -0.3598
 7964SOL    HW135525   0.210   2.178   4.383  0.4790  0.7232  0.0528
 7964SOL    HW235526   0.346   2.110   4.406 -0.9984 -1.9425 -2.0454
 7965SOL     OW35527   1.911   1.966   6.355 -0.0388 -0.0470 -0.2314
 7965SOL    HW135528   2.005   1.979   6.340  0.1925 -2.7815 -1.1057
 7965SOL    HW235529   1.872   2.047   6.321 -0.9288 -1.3687 -2.3153
 7966SOL     OW35530   4.205   1.412   9.073 -0.3068 -0.5256  0.2699
 7966SOL    HW135531   4.151   1.334   9.091 -2.5328  1.8173  3.7017
 7966SOL    HW235532   4.290   1.372   9.057  0.7660  1.7495  0.3874
 7967SOL     OW35533   3.109   3.285   9.654  0.2898  0.0646  0.1156
 7967SOL    HW135534   3.076   3.196   9.640 -0.0720  0.4160 -1.2541
 7967SOL    HW235535   3.163   3.276   9.732 -1.2142  0.2309  1.1944
 7968SOL     OW35536   2.410   2.360   2.396 -0.3777 -0.1872  0.4038
 7968SOL    HW135537   2.447   2.274   2.414 -1.4588 -0.9278 -0.9192
 7968SOL    HW235538   2.459   2.416   2.457 -0.1432  0.4709 -0.3821
 7969SOL     OW35539   4.279   0.715  11.169 -0.4308  0.2977  0.1290
 7969SOL    HW135540   4.372   0.727  11.150 -0.2284  1.2952  1.7839
 7969SOL    HW235541   4.270   0.789  11.229  2.4489  0.6038  0.2074
 7970SOL     OW35542   0.831   1.212   7.873 -0.6838  0.2235  0.0686
 7970SOL    HW135543   0.900   1.270   7.840 -1.8168  1.8977  0.6825
 7970SOL    HW235544   0.878   1.137   7.911 -1.7737 -0.3812  0.2177
 7971SOL     OW35545   1.358   1.738  16.589 -0.5025  0.7182  0.2983
 7971SOL    HW135546   1.357   1.685  16.509 -4.8285 -0.5339  1.1595
 7971SOL    HW235547   1.268   1.768  16.600 -1.1832 -0.7561 -1.3729
 7972SOL     OW35548   0.175   4.366  11.469 -0.2909 -0.3211  0.2863
 7972SOL    HW135549   0.219   4.296  11.518  0.7794 -0.0819 -0.3343
 7972SOL    HW235550   0.095   4.318  11.448 -0.7313  0.8608 -0.6630
 7973SOL     OW35551   3.161   1.826  14.738  0.0572  0.0790 -0.1178
 7973SOL    HW135552   3.244   1.811  14.694  0.5703  0.3936  0.7595
 7973SOL    HW235553   3.190   1.890  14.803  0.0044  0.7860 -0.7759
 7974SOL     OW35554   3.660   4.640  13.290  0.5255 -0.2098 -0.0908
 7974SOL    HW135555   3.581   4.603  13.252 -0.2730  0.6906  0.6959
 7974SOL    HW235556   3.693   4.689  13.215  2.0674 -1.1160 -0.0116
 7975SOL     OW35557   1.818   3.639   3.785 -0.6524 -0.2265 -0.0209
 7975SOL    HW135558   1.748   3.587   3.824 -0.1037 -2.0826 -1.5345
 7975SOL    HW235559   1.778   3.726   3.784 -1.1312 -0.4486  0.1886
 7976SOL     OW35560   4.034   2.442   1.851  0.1563 -0.0815 -0.3467
 7976SOL    HW135561   3.944   2.471   1.870 -0.0898  0.7330 -2.6297
 7976SOL    HW235562   4.092   2.509   1.887 -0.0921 -0.0394 -0.0321
 7977SOL     OW35563   1.668   1.683   6.098  0.3290  0.2254  0.0241
 7977SOL    HW135564   1.704   1.749   6.038  3.2639 -1.3902 -0.0227
 7977SOL    HW235565   1.584   1.728   6.093 -0.9711 -1.9021  2.6542
 7978SOL     OW35566   2.639   0.876   9.624  0.2576 -0.1863 -0.1062
 7978SOL    HW135567   2.637   0.785   9.596 -0.2383 -0.0509 -0.5032
 7978SOL    HW235568   2.688   0.872   9.706  1.1913  0.8150 -0.6103
 7979SOL     OW35569   2.056   0.116  15.445 -0.3544 -0.3443 -0.4012
 7979SOL    HW135570   2.098   0.057  15.508  0.7141 -1.1403 -1.8784
 7979SOL    HW235571   1.995   0.168  15.498 -2.1170 -0.7441 -2.0369
 7980SOL     OW35572   4.241   2.299  10.726  0.4762  1.2860 -0.1094
 7980SOL    HW135573   4.162   2.346  10.754 -1.1427 -1.6069  0.2265
 7980SOL    HW235574   4.273   2.360  10.660  2.2292 -0.6575 -1.0326
 7981SOL     OW35575   0.319   0.100   6.237 -0.4907  0.0230  0.2684
 7981SOL    HW135576   0.398   0.052   6.213  0.4744  1.0185  1.4293
 7981SOL    HW235577   0.265   0.098   6.159 -2.3333  2.6687  1.4767
 7982SOL     OW35578   1.329   0.747   3.210 -0.2641  0.2676 -0.2026
 7982SOL    HW135579   1.331   0.655   3.235  0.7254  0.3862  0.1449
 7982SOL    HW235580   1.236   0.756   3.190 -0.8452 -0.3628  2.2991
 7983SOL     OW35581   2.869   4.186   8.317 -0.1874 -0.4256 -0.1145
 7983SOL    HW135582   2.846   4.206   8.407  2.9590  1.5234  0.2545
 7983SOL    HW235583   2.914   4.268   8.295  1.5213 -1.6544 -1.2079
 7984SOL     OW35584   1.757   2.866  13.081  0.0456 -0.0052  0.4552
 7984SOL    HW135585   1.712   2.889  13.162 -1.8294  0.2804 -0.6736
 7984SOL    HW235586   1.743   2.772  13.070 -1.3882  0.3645 -0.9596
 7985SOL     OW35587   3.683   1.467  12.047 -0.1516  0.4756 -0.2070
 7985SOL    HW135588   3.669   1.533  12.114 -0.5399  0.5813 -0.3952
 7985SOL    HW235589   3.616   1.487  11.982  0.3458 -0.5455 -1.0281
 7986SOL     OW35590   3.576   4.491   4.061 -0.0537  0.1083 -0.1870
 7986SOL    HW135591   3.580   4.463   3.970 -1.1491 -0.4429 -0.0692
 7986SOL    HW235592   3.534   4.577   4.058 -1.0754 -0.4245 -1.4481
 7987SOL     OW35593   3.226   1.956   8.209  0.7246  0.2332  0.2213
 7987SOL    HW135594   3.290   2.027   8.208  2.4264 -1.2899 -0.2596
 7987SOL    HW235595   3.252   1.893   8.141  0.3062  1.1703 -0.8089
 7988SOL     OW35596   2.960   0.506   4.080  0.1714  0.2827  0.2167
 7988SOL    HW135597   2.906   0.429   4.063  0.4825 -0.0824  0.8715
 7988SOL    HW235598   2.892   0.565   4.113 -1.5560 -1.4474 -0.2204
 7989SOL     OW35599   3.525   2.099  14.243 -0.6161  0.3044 -0.1826
 7989SOL    HW135600   3.613   2.079  14.209 -1.5702  2.4220 -3.8745
 7989SOL    HW235601   3.539   2.131  14.333  0.2693 -0.8637  0.1123
 7990SOL     OW35602   4.304   2.887   7.635 -0.0781 -0.7226 -0.3005
 7990SOL    HW135603   4.279   2.915   7.547 -0.0403 -1.1922 -0.4572
 7990SOL    HW235604   4.253   2.944   7.693 -0.6902 -3.6272  1.9717
 7991SOL     OW35605   0.756   4.348  14.139 -0.0340 -0.7329  0.1518
 7991SOL    HW135606   0.683   4.399  14.176  0.3128  1.1766 -1.7686
 7991SOL    HW235607   0.822   4.412  14.114 -0.0194  0.3623  3.0706
 7992SOL     OW35608   2.779   4.551   8.915  0.3470 -0.0761 -0.0412
 7992SOL    HW135609   2.844   4.480   8.915  0.5726  0.1327  0.1879
 7992SOL    HW235610   2.827   4.616   8.865  0.9958 -1.9825 -1.9108
 7993SOL     OW35611   3.607   0.729   4.686 -0.1652 -0.0250  0.3731
 7993SOL    HW135612   3.642   0.756   4.601  0.6606 -0.2110  0.6510
 7993SOL    HW235613   3.554   0.653   4.660  0.5924 -0.6943  0.7775
 7994SOL     OW35614   3.440   0.507   5.785  0.2099 -0.2839  0.1123
 7994SOL    HW135615   3.393   0.425   5.771 -1.1864  0.4060  0.7178
 7994SOL    HW235616   3.500   0.505   5.711 -0.0521 -0.6676 -0.0866
 7995SOL     OW35617   1.730   1.845  13.190 -0.1717 -0.1686 -0.7041
 7995SOL    HW135618   1.776   1.804  13.116  1.4486 -2.9848  1.8978
 7995SOL    HW235619   1.663   1.782  13.216 -0.6919  0.7772  0.2336
 7996SOL     OW35620   2.608   1.126   6.409  0.1532 -0.0013  0.3250
 7996SOL    HW135621   2.556   1.147   6.486  1.1102  0.4382  0.8499
 7996SOL    HW235622   2.605   1.212   6.368 -1.7882  0.4223  1.3522
 7997SOL     OW35623   0.783   2.854   0.366 -0.1811  0.1879  0.2818
 7997SOL    HW135624   0.845   2.850   0.439  0.2476 -0.3650 -0.1153
 7997SOL    HW235625   0.805   2.768   0.330  2.1220  1.6463 -1.7468
 7998SOL     OW35626   2.384   4.732   7.739 -0.3191  0.1817  0.1923
 7998SOL    HW135627   2.332   0.060   7.699  0.4154  2.0778  2.5701
 7998SOL    HW235628   2.418   0.033   7.817 -1.4285  0.8325  0.3238
 7999SOL     OW35629   1.994   1.826   4.045 -0.0900  0.0880  0.3020
 7999SOL    HW135630   2.084   1.820   4.015  0.4932 -0.1287  2.1258
 7999SOL    HW235631   1.992   1.761   4.115  0.1318 -0.9089 -0.6093
 8000SOL     OW35632   1.120   1.916  14.301  0.8859 -0.0673 -0.2405
 8000SOL    HW135633   1.131   1.904  14.207 -1.0602 -3.2343 -0.0591
 8000SOL    HW235634   1.045   1.976  14.299  1.3832  0.5083 -1.5220
 8001SOL     OW35635   2.653   1.773   8.473  0.2790  0.4366 -0.5589
 8001SOL    HW135636   2.656   1.821   8.391  0.7059 -0.0268 -0.8141
 8001SOL    HW235637   2.736   1.726   8.469 -0.2918 -0.6817  0.6174
 8002SOL     OW35638   0.459   1.347  16.008 -0.3612 -0.6824  0.6177
 8002SOL    HW135639   0.426   1.294  16.081 -2.6119  0.1576  0.2016
 8002SOL    HW235640   0.549   1.315  16.008 -0.0383  0.2590 -1.6093
 8003SOL     OW35641   2.716   2.107   4.110 -0.5984  0.5561 -0.4642
 8003SOL    HW135642   2.759   2.100   4.025  0.1556  0.4493 -0.0712
 8003SOL    HW235643   2.733   2.016   4.136 -1.1280  0.7348  0.5135
 8004SOL     OW35644   1.551   3.802   5.372  0.1074 -0.1035  0.6027
 8004SOL    HW135645   1.516   3.781   5.459 -1.2664 -1.1583 -0.2059
 8004SOL    HW235646   1.472   3.796   5.318 -0.0621 -0.1605  0.8515
 8005SOL     OW35647   2.059   2.241  11.660 -0.0281 -1.1306  0.0061
 8005SOL    HW135648   2.130   2.206  11.607  1.9783 -1.0651  2.6437
 8005SOL    HW235649   2.092   2.310  11.718 -0.6822  1.4495 -2.7160
 8006SOL     OW35650   2.456   0.707   1.624 -0.5259  0.5351 -0.3881
 8006SOL    HW135651   2.448   0.612   1.623 -0.3131  0.5157 -0.4125
 8006SOL    HW235652   2.496   0.731   1.707 -1.5622  1.6387 -0.2133
 8007SOL     OW35653   2.777   1.987  12.308  1.1439 -0.0774  0.0997
 8007SOL    HW135654   2.835   2.063  12.298  0.4071  0.7648  2.1829
 8007SOL    HW235655   2.821   1.927  12.247  0.9680  0.4681 -0.5647
 8008SOL     OW35656   3.496   0.285   4.238 -0.5545 -0.8571  0.1936
 8008SOL    HW135657   3.502   0.196   4.274  0.4014 -0.0010  2.1212
 8008SOL    HW235658   3.411   0.284   4.194 -0.6040  1.2781  0.2417
 8009SOL     OW35659   0.050   0.846   1.629  0.2144  0.2873 -0.7473
 8009SOL    HW135660   0.040   0.871   1.721 -1.5612 -0.9772 -0.6081
 8009SOL    HW235661   0.011   0.759   1.628  2.9134 -0.9391  0.7672
 8010SOL     OW35662   2.317   3.381  10.355 -0.4387  0.2663  0.1515
 8010SOL    HW135663   2.252   3.384  10.284 -0.7849 -0.3871  0.4393
 8010SOL    HW235664   2.297   3.292  10.385 -2.5849  0.8139  0.3968
 8011SOL     OW35665   3.232   2.235   3.481  0.8502 -0.1533 -0.4310
 8011SOL    HW135666   3.228   2.266   3.391 -1.4131  1.1899  0.1238
 8011SOL    HW235667   3.321   2.200   3.478  0.7688 -0.6895  2.7010
 8012SOL     OW35668   1.188   4.045  12.472  0.6831  0.3144  0.8932
 8012SOL    HW135669   1.113   3.989  12.454 -0.7321  1.7502  2.3400
 8012SOL    HW235670   1.248   4.014  12.404 -0.3175  1.0775 -0.3404
 8013SOL     OW35671   1.107   2.678   7.033  0.4513  0.2899  0.3871
 8013SOL    HW135672   1.166   2.623   7.085  1.1677  2.5170  1.9247
 8013SOL    HW235673   1.108   2.630   6.950  1.3153 -1.2575  1.2892
 8014SOL     OW35674   0.631   0.938   7.358  0.0601 -0.1396  0.4276
 8014SOL    HW135675   0.536   0.947   7.361  0.2059  1.8166 -0.7890
 8014SOL    HW235676   0.648   0.875   7.428 -0.0657  0.7299  1.2364
 8015SOL     OW35677   3.592   3.601   0.431 -0.9411 -0.0766 -0.3429
 8015SOL    HW135678   3.684   3.603   0.403 -0.1905 -1.2151  2.0703
 8015SOL    HW235679   3.599   3.609   0.526 -0.4637 -1.3070 -0.2741
 8016SOL     OW35680   1.165   1.373  12.026  0.2256  0.7819 -0.1577
 8016SOL    HW135681   1.209   1.339  11.948  0.6280 -0.2194  0.5107
 8016SOL    HW235682   1.214   1.321  12.090 -1.1581 -0.7865 -0.3711
 8017SOL     OW35683   0.863   3.452  10.321 -0.2317 -0.8365 -0.3471
 8017SOL    HW135684   0.780   3.412  10.346 -0.9020  2.5096  2.7454
 8017SOL    HW235685   0.916   3.438  10.399 -0.3530  0.5651 -0.0121
 8018SOL     OW35686   2.532   3.895   2.473 -0.1555 -0.4523 -0.4527
 8018SOL    HW135687   2.525   3.945   2.554 -0.7359  0.7102 -1.2191
 8018SOL    HW235688   2.442   3.868   2.453 -1.7008  3.1497  1.7042
 8019SOL     OW35689   0.322   0.555   5.733  0.5714  0.0803 -0.0501
 8019SOL    HW135690   0.365   0.496   5.671 -0.9296 -0.4943 -0.5552
 8019SOL    HW235691   0.321   0.507   5.816  0.3265  1.8152  0.9542
 8020SOL     OW35692   3.442   3.617   9.379 -0.4708  0.3908  0.3105
 8020SOL    HW135693   3.451   3.552   9.309 -0.9838  1.2900 -0.5974
 8020SOL    HW235694   3.416   3.565   9.455 -0.0448  0.5943  0.5939
 8021SOL     OW35695   0.839   4.659   8.402  0.3542  0.0975 -0.0505
 8021SOL    HW135696   0.793   4.656   8.318 -0.3655 -0.4391  0.3554
 8021SOL    HW235697   0.815   0.011   8.409 -2.9307 -0.6416 -1.4321
 8022SOL     OW35698   3.934   1.681   5.421 -0.0031  0.4794  0.0046
 8022SOL    HW135699   4.002   1.615   5.434  1.3168  1.8654  0.1189
 8022SOL    HW235700   3.929   1.727   5.505  0.9985  2.3341 -0.9371
 8023SOL     OW35701   4.425   4.496   1.865 -0.5272  0.2376 -0.0409
 8023SOL    HW135702   4.361   4.459   1.925  0.6417  0.9917  1.6810
 8023SOL    HW235703   4.446   4.578   1.911  1.2064  0.1479 -0.6797
 8024SOL     OW35704   2.714   2.808   5.483  0.5217 -0.5525  0.1722
 8024SOL    HW135705   2.657   2.863   5.537  0.3770  0.1635 -0.7145
 8024SOL    HW235706   2.749   2.875   5.424 -2.2706 -0.0188 -0.8742
 8025SOL     OW35707   2.276   4.135  10.498 -0.3436 -0.3925  0.1269
 8025SOL    HW135708   2.351   4.076  10.491  0.5542  0.6958  0.4184
 8025SOL    HW235709   2.279   4.161  10.590 -2.1931 -0.6378  0.2487
 8026SOL     OW35710   0.973   0.133   5.509  0.3041  0.2373 -0.5000
 8026SOL    HW135711   1.027   0.059   5.480  1.8403  1.1707  0.0194
 8026SOL    HW235712   0.888   0.095   5.488  0.1639  0.8340 -0.9853
 8027SOL     OW35713   1.058   1.074   4.206 -0.7044  0.0382 -0.1575
 8027SOL    HW135714   1.011   1.079   4.290 -0.8133 -0.5505 -0.1818
 8027SOL    HW235715   1.031   1.155   4.164  2.2805  0.0512 -2.0582
 8028SOL     OW35716   2.989   1.046   7.074 -0.1584  0.4422  0.0906
 8028SOL    HW135717   2.928   1.118   7.092 -0.3068  0.2088  0.5378
 8028SOL    HW235718   3.002   1.062   6.981 -0.2537  1.7791  0.3148
 8029SOL     OW35719   4.271   0.506  15.512  0.0118  0.1580 -0.0222
 8029SOL    HW135720   4.262   0.504  15.607  0.2218 -0.2834 -0.0132
 8029SOL    HW235721   4.217   0.584  15.499  1.0206  1.2380  2.4556
 8030SOL     OW35722   3.566   2.884   0.347 -0.0318  0.4369  0.1652
 8030SOL    HW135723   3.483   2.899   0.302 -0.3728 -3.6419 -0.5472
 8030SOL    HW235724   3.578   2.790   0.335  0.2869  0.4858  0.1107
 8031SOL     OW35725   0.593   1.981   9.255 -0.1466  0.0252  0.4402
 8031SOL    HW135726   0.543   2.054   9.218 -0.2717  0.3878  1.3138
 8031SOL    HW235727   0.549   1.982   9.340  0.0505  1.3557  0.5286
 8032SOL     OW35728   4.529   4.449   8.222 -0.1933  0.0262  0.3765
 8032SOL    HW135729   4.526   4.497   8.305  0.3721  0.0546  0.3819
 8032SOL    HW235730   4.543   4.359   8.250 -0.6666 -0.6011 -1.4412
 8033SOL     OW35731   2.777   0.316   4.101  0.6828  0.1403 -0.5458
 8033SOL    HW135732   2.756   0.338   4.192  1.7071 -0.1449 -0.2460
 8033SOL    HW235733   2.691   0.316   4.059  0.4266  0.0218 -0.0262
 8034SOL     OW35734   2.458   3.922   5.417 -0.4369 -0.8401 -0.1122
 8034SOL    HW135735   2.392   3.950   5.354 -0.7829  1.0536  1.0835
 8034SOL    HW235736   2.484   3.841   5.373 -0.3263 -1.0335  0.3163
 8035SOL     OW35737   1.859   3.026   3.163  0.0193  0.8217  0.0444
 8035SOL    HW135738   1.921   2.954   3.155  0.8377  1.2645  2.3890
 8035SOL    HW235739   1.769   2.994   3.155  0.2314 -0.2186  2.0394
 8036SOL     OW35740   1.626   1.921  14.625  0.0886 -0.1080  0.0062
 8036SOL    HW135741   1.564   1.848  14.630  2.5257 -1.8767  4.8830
 8036SOL    HW235742   1.574   1.974  14.565  0.1879  2.0415  1.8147
 8037SOL     OW35743   3.866   3.845  12.388  0.2269 -0.2675  0.6214
 8037SOL    HW135744   3.857   3.752  12.409  0.9717 -0.3962  0.3848
 8037SOL    HW235745   3.956   3.868  12.411  0.6777 -0.9947 -0.4183
 8038SOL     OW35746   1.333   3.094   6.844 -0.3687  0.3038  0.1228
 8038SOL    HW135747   1.319   3.078   6.937  1.6656 -2.2536 -0.0224
 8038SOL    HW235748   1.330   3.004   6.812  0.1895  0.5609 -0.6555
 8039SOL     OW35749   0.761   3.063  13.020  0.6684  0.5058  0.0243
 8039SOL    HW135750   0.719   3.130  13.073  0.6936 -0.1274  0.8511
 8039SOL    HW235751   0.754   3.084  12.927  0.8406 -1.2584 -0.4036
 8040SOL     OW35752   1.571   2.677   5.686 -0.9983 -0.4206 -0.5401
 8040SOL    HW135753   1.541   2.724   5.609 -0.0982 -1.0397 -1.2649
 8040SOL    HW235754   1.639   2.623   5.647 -0.4344 -0.4837  0.5128
 8041SOL     OW35755   0.608   4.590  14.396 -0.1097  0.4825  0.0560
 8041SOL    HW135756   0.575   4.549  14.316  0.0930  0.8789 -0.2359
 8041SOL    HW235757   0.590   4.683  14.379 -0.9275 -0.0061 -1.7179
 8042SOL     OW35758   3.889   3.693  11.559  0.1146 -0.2224  0.0483
 8042SOL    HW135759   3.938   3.695  11.476  0.5936 -0.3102  0.3264
 8042SOL    HW235760   3.820   3.756  11.540 -1.3927 -1.3378  1.8849
 8043SOL     OW35761   2.807   3.215   0.590  0.8357 -0.4169 -0.3339
 8043SOL    HW135762   2.774   3.140   0.638 -0.2368 -0.5721 -1.3141
 8043SOL    HW235763   2.902   3.213   0.604  1.3918  0.7482 -3.9149
 8044SOL     OW35764   3.254   4.326  17.654  0.9447  0.7401 -0.2020
 8044SOL    HW135765   3.321   4.346  17.589  1.5984  0.4318  0.3796
 8044SOL    HW235766   3.294   4.365  17.732 -0.6547  2.2197 -0.1312
 8045SOL     OW35767   3.839   2.298   0.632  0.1729 -0.0883 -0.5830
 8045SOL    HW135768   3.850   2.354   0.555 -3.5002 -1.3451 -1.9990
 8045SOL    HW235769   3.760   2.320   0.683  1.2022 -0.3364  1.1142
 8046SOL     OW35770   4.580   0.110   5.919 -0.0425  0.6299  0.0633
 8046SOL    HW135771   4.534   0.027   5.934  1.6702 -0.5400 -1.1836
 8046SOL    HW235772   4.603   0.125   6.011 -0.0582  1.4501 -0.0653
 8047SOL     OW35773   2.342   2.226   6.523  0.3008  0.3583  0.2547
 8047SOL    HW135774   2.288   2.275   6.462  0.8397  0.3527 -0.2210
 8047SOL    HW235775   2.314   2.137   6.502 -0.7315  1.5922 -3.4175
 8048SOL     OW35776   2.265   4.137   6.353  0.0954  0.0550 -0.6615
 8048SOL    HW135777   2.213   4.203   6.308  0.3107 -0.3686 -1.5350
 8048SOL    HW235778   2.216   4.113   6.432 -0.7813  1.5898 -0.7449
 8049SOL     OW35779   4.488   1.690   5.955 -0.4219  0.1818  0.2571
 8049SOL    HW135780   4.458   1.602   5.933  4.6486 -0.9066 -2.2250
 8049SOL    HW235781   4.492   1.682   6.051  2.1150 -1.7520 -0.0040
 8050SOL     OW35782   2.097   2.176   6.678  0.4657 -0.0292 -0.1535
 8050SOL    HW135783   2.101   2.087   6.642  1.2127 -0.9680  2.2723
 8050SOL    HW235784   2.189   2.200   6.688  0.3454  0.2534  0.2777
 8051SOL     OW35785   2.762   4.646   8.364  0.7201 -0.3167 -0.8628
 8051SOL    HW135786   2.850   4.678   8.346  0.2854  0.6814 -1.1879
 8051SOL    HW235787   2.794   4.575   8.421 -0.4704  0.3728  0.6664
 8052SOL     OW35788   1.750   0.686   6.742 -0.3423  0.0447 -0.0841
 8052SOL    HW135789   1.676   0.722   6.693 -0.7559  1.4091  1.5479
 8052SOL    HW235790   1.731   0.715   6.831 -1.6249  0.3649 -0.4556
 8053SOL     OW35791   2.691   3.316   3.644  0.3162  0.3585 -0.5685
 8053SOL    HW135792   2.770   3.269   3.669  0.2684  0.2202 -0.6756
 8053SOL    HW235793   2.620   3.252   3.641  1.0781 -0.5224  0.1735
 8054SOL     OW35794   4.364   2.181   4.819 -0.7511  0.0353 -0.0955
 8054SOL    HW135795   4.271   2.170   4.838 -1.1275 -0.9690 -2.5116
 8054SOL    HW235796   4.377   2.201   4.727  1.0902 -2.2501 -0.3340
 8055SOL     OW35797   0.308   2.189  14.128  0.2095 -0.0678 -0.2873
 8055SOL    HW135798   0.376   2.147  14.075 -0.7901  0.2159 -1.7963
 8055SOL    HW235799   0.282   2.115  14.182 -0.8153  0.6878  0.2573
 8056SOL     OW35800   2.924   3.932   6.507 -0.1938 -0.2061 -0.8301
 8056SOL    HW135801   2.920   3.836   6.506  0.9274 -0.2354 -2.6741
 8056SOL    HW235802   2.869   3.955   6.432  0.4281 -0.2024 -1.2849
 8057SOL     OW35803   0.013   3.052  14.736 -0.1819 -0.6423  0.7788
 8057SOL    HW135804   0.038   3.120  14.674 -0.2805  0.4590  1.9397
 8057SOL    HW235805   4.693   3.098  14.794  2.6505  3.9039  0.1457
 8058SOL     OW35806   2.974   1.743  16.756  0.4102 -0.1659 -0.4046
 8058SOL    HW135807   2.914   1.813  16.733  0.4263  0.4487  1.4152
 8058SOL    HW235808   2.913   1.673  16.735 -0.0360  0.7536 -2.1797
 8059SOL     OW35809   3.828   2.068   8.086 -0.2873 -0.0670  0.6489
 8059SOL    HW135810   3.765   2.000   8.112  0.5275 -2.3748 -3.3367
 8059SOL    HW235811   3.764   2.130   8.051  0.0179 -0.8178 -1.2142
 8060SOL     OW35812   1.618   0.442   9.502 -0.1903  0.5669 -0.4674
 8060SOL    HW135813   1.714   0.438   9.491 -0.0813  0.4942  0.5592
 8060SOL    HW235814   1.603   0.395   9.584 -1.0371 -0.6382 -1.3071
 8061SOL     OW35815   2.642   2.771   3.814  0.5194  0.0475  0.0458
 8061SOL    HW135816   2.619   2.705   3.748 -2.6500 -0.3704  1.5932
 8061SOL    HW235817   2.716   2.822   3.780  1.4186 -0.7186  0.8675
 8062SOL     OW35818   2.281   3.660   0.031 -0.2305 -0.1779  0.8458
 8062SOL    HW135819   2.310   3.734   0.083  1.7213  0.1712 -0.7551
 8062SOL    HW235820   2.351   3.669  17.728 -3.5855  0.7447 -2.6952
 8063SOL     OW35821   1.633   2.533   0.346  0.2764  0.3975 -0.0859
 8063SOL    HW135822   1.548   2.528   0.390  0.5039  3.7588  0.7940
 8063SOL    HW235823   1.646   2.627   0.334 -1.9387  0.4104 -2.3431
 8064SOL     OW35824   0.607   3.658   8.543 -0.1407  0.0419 -0.0351
 8064SOL    HW135825   0.602   3.570   8.506  0.5143 -0.0867  0.1850
 8064SOL    HW235826   0.516   3.688   8.540  0.2988  1.3403 -0.3517
 8065SOL     OW35827   1.843   2.245  12.283 -0.2550 -0.1398 -0.1752
 8065SOL    HW135828   1.855   2.196  12.202 -0.6743  0.9709 -0.9066
 8065SOL    HW235829   1.774   2.306  12.257  1.2845  2.2874  1.4304
 8066SOL     OW35830   3.566   4.101   6.907 -0.0136 -0.2210  0.2978
 8066SOL    HW135831   3.513   4.053   6.842 -2.2126  1.5946  0.7581
 8066SOL    HW235832   3.507   4.175   6.917  0.9742  0.4416  1.1566
 8067SOL     OW35833   0.635   2.001  15.505  0.1659  0.0575 -0.5243
 8067SOL    HW135834   0.674   2.081  15.469  1.5210 -0.1862  0.4224
 8067SOL    HW235835   0.551   2.041  15.527  0.1561  0.6705 -1.6732
 8068SOL     OW35836   4.141   0.725   0.716 -0.2699  0.1821 -0.1658
 8068SOL    HW135837   4.088   0.685   0.647 -0.7718 -1.1956  1.0092
 8068SOL    HW235838   4.065   0.765   0.758 -1.0752 -0.5395 -0.9190
 8069SOL     OW35839   1.932   4.700   5.966  0.2557 -0.5071  0.1998
 8069SOL    HW135840   2.018   4.660   5.954 -0.1155 -1.3726  0.3945
 8069SOL    HW235841   1.944   0.053   5.964 -0.0557 -0.4362  1.6287
 8070SOL     OW35842   2.359   1.831   8.819 -0.1256  0.1777 -0.0097
 8070SOL    HW135843   2.428   1.882   8.860 -0.1865  1.6316 -1.6659
 8070SOL    HW235844   2.381   1.738   8.826  1.3203  0.5999  0.9501
 8071SOL     OW35845   3.622   1.259   6.811 -0.3619 -0.2189 -0.0791
 8071SOL    HW135846   3.599   1.237   6.901  0.3036  0.0597  0.1581
 8071SOL    HW235847   3.535   1.236   6.776 -0.3380  1.6063 -1.3072
 8072SOL     OW35848   4.011   2.689   2.188 -0.2904 -0.0125 -0.1289
 8072SOL    HW135849   4.006   2.657   2.098  0.0194  0.0885 -0.1811
 8072SOL    HW235850   4.059   2.615   2.226 -0.2721  1.1010  2.0376
 8073SOL     OW35851   3.510   1.021   8.149 -0.0260 -0.4000  0.3114
 8073SOL    HW135852   3.525   1.101   8.199  2.2502 -1.9346  2.0942
 8073SOL    HW235853   3.429   1.041   8.103  1.4131  0.5868 -1.7737
 8074SOL     OW35854   0.553   1.034   5.904 -0.1628  0.0671  0.5370
 8074SOL    HW135855   0.463   1.016   5.877  0.2459 -1.1645  0.0026
 8074SOL    HW235856   0.570   1.118   5.860  0.5668  0.0334  0.7576
 8075SOL     OW35857   0.374   2.158   7.866  0.2877 -0.3061 -0.5571
 8075SOL    HW135858   0.457   2.204   7.856  0.2152  0.0558  0.5712
 8075SOL    HW235859   0.416   2.072   7.870  1.0400  0.0828 -0.2066
 8076SOL     OW35860   3.930   3.039   3.725  0.4092  0.1347 -0.2200
 8076SOL    HW135861   4.007   3.036   3.668  1.1590  2.3541  0.6918
 8076SOL    HW235862   3.911   2.946   3.737  1.3078 -0.1994 -1.3232
 8077SOL     OW35863   0.715   2.722  17.622 -1.0428 -0.6976 -0.5151
 8077SOL    HW135864   0.785   2.774  17.580  0.3075 -1.8718  0.2768
 8077SOL    HW235865   0.752   2.635  17.607  1.6872 -0.1247  2.7940
 8078SOL     OW35866   0.591   1.163   3.454 -0.1803 -0.0284 -0.5433
 8078SOL    HW135867   0.619   1.161   3.362  1.1323 -2.3243 -0.0902
 8078SOL    HW235868   0.498   1.140   3.444 -0.3971  0.6882 -0.2063
 8079SOL     OW35869   4.187   2.023   8.161  0.0965  0.2163 -0.3921
 8079SOL    HW135870   4.183   2.108   8.206 -1.5288  0.5253 -1.1121
 8079SOL    HW235871   4.220   2.044   8.074  2.5005  1.0729  0.7300
 8080SOL     OW35872   3.553   3.830  16.011  0.1759  0.1429  0.3146
 8080SOL    HW135873   3.582   3.914  15.976  0.4291  0.0613  0.3299
 8080SOL    HW235874   3.466   3.824  15.972 -0.1991 -1.9913  1.4774
 8081SOL     OW35875   0.959   1.886  17.365 -0.4199  0.6806  0.5071
 8081SOL    HW135876   0.989   1.799  17.337 -0.9470  1.5570 -2.8201
 8081SOL    HW235877   0.993   1.889  17.455  0.0793  0.1571  0.3385
 8082SOL     OW35878   0.109   1.505  10.388  0.2775  0.1932  0.2434
 8082SOL    HW135879   0.196   1.481  10.420  0.3711 -0.3971 -0.4709
 8082SOL    HW235880   0.126   1.578  10.329 -0.0794 -0.1435 -0.2834
 8083SOL     OW35881   1.511   3.070   4.742 -0.0777  0.1688 -0.2435
 8083SOL    HW135882   1.588   3.025   4.706  0.6973 -0.2256  1.9270
 8083SOL    HW235883   1.517   3.067   4.837 -2.0795 -0.8472 -0.1440
 8084SOL     OW35884   0.005   2.332  17.640  0.2137 -0.2372  0.4653
 8084SOL    HW135885   4.663   2.376  17.656 -0.4362 -1.3220  0.0678
 8084SOL    HW235886   4.708   2.244  17.641 -0.0666 -0.1230 -0.4203
 8085SOL     OW35887   0.605   0.876   5.238  0.0968 -0.4422  0.2620
 8085SOL    HW135888   0.550   0.931   5.183  1.5251 -0.6563 -1.3684
 8085SOL    HW235889   0.658   0.830   5.173 -0.1174 -0.6681  0.2459
 8086SOL     OW35890   4.526   1.315   2.046  0.2603 -0.2440 -0.1664
 8086SOL    HW135891   4.531   1.401   2.087  2.2518 -0.5043  0.1427
 8086SOL    HW235892   4.614   1.275   2.049  0.3973  0.0595 -0.1347
 8087SOL     OW35893   2.343   3.313   3.052 -0.0393 -0.2450  0.4543
 8087SOL    HW135894   2.424   3.354   3.081  0.2728 -0.3127 -0.3200
 8087SOL    HW235895   2.309   3.281   3.135 -0.4368 -2.2208 -0.4715
 8088SOL     OW35896   0.631   4.234  13.920 -0.5054 -0.0423  0.2965
 8088SOL    HW135897   0.720   4.235  13.884 -0.7499  0.9448 -0.2853
 8088SOL    HW235898   0.651   4.291  13.994 -0.9514  0.9926 -0.3860
 8089SOL     OW35899   2.288   3.101   7.021 -0.7022 -0.1409 -0.1049
 8089SOL    HW135900   2.252   3.031   6.967  0.6068 -0.4294 -0.5989
 8089SOL    HW235901   2.293   3.171   6.957  1.8627  1.4583  1.8293
 8090SOL     OW35902   0.686   2.125   7.523  0.2303 -0.6225  0.7234
 8090SOL    HW135903   0.757   2.188   7.536  0.1479  0.1183 -2.4941
 8090SOL    HW235904   0.613   2.181   7.549  0.7195  0.7730 -0.8834
 8091SOL     OW35905   1.346   2.481   8.327 -0.3469 -0.6469  0.3289
 8091SOL    HW135906   1.335   2.526   8.410  1.1836  0.5065 -0.0761
 8091SOL    HW235907   1.270   2.517   8.282 -0.7770  0.1696  1.7143
 8092SOL     OW35908   0.185   3.409   2.100 -0.6778 -0.2340  0.1530
 8092SOL    HW135909   0.162   3.438   2.188  1.6175 -1.6573  1.2073
 8092SOL    HW235910   0.123   3.464   2.052 -1.7824 -1.1723  0.5047
 8093SOL     OW35911   3.560   3.312   8.484 -0.1810 -0.5163 -0.2287
 8093SOL    HW135912   3.499   3.313   8.558  2.7444  1.6750  2.1122
 8093SOL    HW235913   3.504   3.347   8.414  1.2783 -0.6531 -1.4565
 8094SOL     OW35914   0.937   3.472  12.747 -0.2653 -0.0184  0.2355
 8094SOL    HW135915   0.981   3.548  12.708 -1.0624  0.2168 -0.2199
 8094SOL    HW235916   1.010   3.411  12.747 -0.3130 -0.0741  0.7376
 8095SOL     OW35917   2.811   1.932   7.326 -0.6949  0.4882 -0.1095
 8095SOL    HW135918   2.752   1.880   7.379 -0.2122  1.2987  1.2361
 8095SOL    HW235919   2.751   2.004   7.306 -0.1593  0.8162 -0.5461
 8096SOL     OW35920   2.053   1.294  14.159 -0.5884  0.2949  0.0932
 8096SOL    HW135921   2.039   1.267  14.250  0.3834 -3.0723 -0.7601
 8096SOL    HW235922   1.971   1.274  14.113 -0.5623 -0.5261  0.4039
 8097SOL     OW35923   2.441   3.732   6.537  0.0820  0.4206  0.8036
 8097SOL    HW135924   2.510   3.713   6.473 -1.1467  0.3687 -0.4867
 8097SOL    HW235925   2.406   3.645   6.556  1.1473  0.2710  2.1180
 8098SOL     OW35926   4.236   1.419   4.538  0.3661  0.2719 -0.7067
 8098SOL    HW135927   4.230   1.334   4.582 -0.4852  0.6709 -0.0412
 8098SOL    HW235928   4.328   1.442   4.547  0.8073 -2.1107  0.9444
 8099SOL     OW35929   0.542   4.639   8.647  0.6679  0.8895  0.2877
 8099SOL    HW135930   0.586   4.601   8.570  3.5520  0.6820  2.0573
 8099SOL    HW235931   0.454   4.662   8.617  1.9703 -1.0218 -5.0533
 8100SOL     OW35932   3.129   4.009  13.844 -0.3977  0.4827  0.0580
 8100SOL    HW135933   3.038   4.002  13.815  0.2035 -3.0153 -0.9774
 8100SOL    HW235934   3.156   3.918  13.841 -0.7116  0.4231 -1.1321
 8101SOL     OW35935   1.467   4.209   2.480 -0.2320  0.2502  0.3403
 8101SOL    HW135936   1.432   4.298   2.485  0.9028  0.6027  2.0801
 8101SOL    HW235937   1.397   4.171   2.534  1.4049  1.6664  3.4719
 8102SOL     OW35938   4.321   4.172  11.031  0.2176 -0.1986  0.0921
 8102SOL    HW135939   4.335   4.211  10.945 -0.9174 -0.4568 -0.2132
 8102SOL    HW235940   4.347   4.242  11.090  0.8349 -0.9254  0.6800
 8103SOL     OW35941   1.707   4.338   4.151  0.0025 -0.4424 -0.2217
 8103SOL    HW135942   1.799   4.365   4.157 -0.4716  1.0947  0.0232
 8103SOL    HW235943   1.658   4.410   4.111  1.3555  1.3180  1.2574
 8104SOL     OW35944   4.289   0.518   9.844 -0.1245  0.0474 -1.0853
 8104SOL    HW135945   4.272   0.538   9.937  0.5452 -0.9556 -0.7474
 8104SOL    HW235946   4.341   0.442   9.870 -0.6397  0.4866  1.3190
 8105SOL     OW35947   0.825   0.885  11.611  0.0641 -0.0473  0.0307
 8105SOL    HW135948   0.811   0.976  11.584  0.0885  0.0388  0.3075
 8105SOL    HW235949   0.733   0.874  11.635  0.2203 -0.0506  0.6392
 8106SOL     OW35950   0.941   4.624   7.831  0.4254  0.5688 -0.4305
 8106SOL    HW135951   1.005   4.554   7.817 -1.0382 -1.1294  1.2467
 8106SOL    HW235952   0.963   4.650   7.921 -0.2776  1.3601 -0.4858
 8107SOL     OW35953   3.717   4.156   4.258 -0.1140  0.2707  0.2161
 8107SOL    HW135954   3.773   4.126   4.187 -0.1561  0.0363  0.2807
 8107SOL    HW235955   3.762   4.240   4.271  0.6869 -0.0396 -0.5989
 8108SOL     OW35956   1.914   1.494   0.910  0.1873 -0.3842 -0.1487
 8108SOL    HW135957   1.981   1.511   0.976 -1.0539 -0.6693  1.2080
 8108SOL    HW235958   1.847   1.559   0.933  0.3002 -0.3954  0.2154
 8109SOL     OW35959   3.089   4.349   2.233 -0.2560 -0.0164  0.5339
 8109SOL    HW135960   3.154   4.327   2.299 -1.3460  0.4196  1.7659
 8109SOL    HW235961   3.059   4.261   2.210  2.7323 -1.0790  0.6977
 8110SOL     OW35962   4.166   0.150   1.447 -0.5418 -0.1560 -0.6906
 8110SOL    HW135963   4.224   0.213   1.404  0.5183 -1.0466 -0.5830
 8110SOL    HW235964   4.130   0.199   1.521  1.4207  1.0434 -0.5482
 8111SOL     OW35965   3.523   3.875   9.339  0.2237  0.1797  0.3553
 8111SOL    HW135966   3.617   3.868   9.349  0.2388  1.3353  0.9368
 8111SOL    HW235967   3.502   3.782   9.352 -0.3562 -0.1211 -2.6262
 8112SOL     OW35968   2.777   2.142   2.607  0.4205 -0.1798  0.1954
 8112SOL    HW135969   2.801   2.231   2.581  0.7443 -0.7863 -1.5263
 8112SOL    HW235970   2.684   2.151   2.628 -0.3071 -1.4192 -2.4578
 8113SOL     OW35971   0.036   2.584   1.421 -0.0606 -0.1058 -0.4306
 8113SOL    HW135972   0.098   2.533   1.474 -0.8582 -1.5303 -0.8612
 8113SOL    HW235973   0.072   2.585   1.333  2.0075  0.9930  0.4406
 8114SOL     OW35974   3.386   3.645   3.156  0.1544  0.0831  0.0751
 8114SOL    HW135975   3.471   3.689   3.159 -1.3107  2.9019  0.1579
 8114SOL    HW235976   3.388   3.595   3.237  1.3823  0.2857  0.1706
 8115SOL     OW35977   0.570   2.289   2.450 -0.2031 -0.2613  0.5061
 8115SOL    HW135978   0.636   2.346   2.410  1.0110 -2.3030 -0.4020
 8115SOL    HW235979   0.570   2.349   2.525  1.1912 -0.5899  0.7683
 8116SOL     OW35980   2.565   2.412   6.464 -0.4949  0.0388 -0.5168
 8116SOL    HW135981   2.588   2.500   6.435  1.0544 -0.0204  0.5272
 8116SOL    HW235982   2.472   2.419   6.440 -0.5473 -3.7928 -1.3421
 8117SOL     OW35983   3.397   0.156  11.995  0.3026  0.5967 -0.7416
 8117SOL    HW135984   3.321   0.192  11.947  0.1387  0.0055 -0.9206
 8117SOL    HW235985   3.388   0.205  12.077 -1.4069 -1.5956  0.3689
 8118SOL     OW35986   0.302   3.171  17.173  0.3533 -0.0870 -0.7621
 8118SOL    HW135987   0.227   3.115  17.194 -0.7012  1.5942 -0.0526
 8118SOL    HW235988   0.262   3.251  17.207 -2.5831 -0.5066 -3.1715
 8119SOL     OW35989   2.800   3.756  13.366  0.9605 -0.2401 -0.2943
 8119SOL    HW135990   2.887   3.760  13.328  0.3757  1.0224 -1.5199
 8119SOL    HW235991   2.767   3.844  13.346  0.8614  0.5666  3.3898
 8120SOL     OW35992   0.260   1.451   8.318 -0.5686 -0.1127  0.1326
 8120SOL    HW135993   0.320   1.441   8.392  0.5333 -1.1588 -0.9037
 8120SOL    HW235994   0.213   1.527   8.352  0.7397  1.0196 -0.5846
 8121SOL     OW35995   2.881   2.455   1.954  0.2214  0.8071 -0.0399
 8121SOL    HW135996   2.939   2.528   1.931  0.5116  0.6102  0.0571
 8121SOL    HW235997   2.801   2.482   1.910  0.0612  1.0968  0.4263
 8122SOL     OW35998   0.686   4.401  14.901  0.4627 -0.1160 -0.0479
 8122SOL    HW135999   0.744   4.400  14.825  0.1251 -0.7567 -0.2931
 8122SOL    HW236000   0.738   4.340  14.953 -1.0607 -0.8960  0.5548
 8123SOL     OW36001   1.746   3.331   5.838  0.1029  0.0463  0.9030
 8123SOL    HW136002   1.837   3.348   5.813 -0.0585  0.5429  0.6736
 8123SOL    HW236003   1.706   3.403   5.790  1.0905 -0.6694 -0.9648
 8124SOL     OW36004   4.093   3.517   4.470 -0.1616  0.2729  0.3313
 8124SOL    HW136005   4.071   3.560   4.387 -0.4752  0.2215  0.3876
 8124SOL    HW236006   4.016   3.537   4.523 -1.4774 -3.2910 -0.2357
 8125SOL     OW36007   0.208   2.556   7.093 -0.0480  0.7196  0.0104
 8125SOL    HW136008   0.200   2.544   7.188 -0.4915  0.9468  0.0008
 8125SOL    HW236009   0.234   2.648   7.087  2.7423 -0.2121 -2.1339
 8126SOL     OW36010   1.675   1.222  10.148 -0.4521  0.3732 -1.0397
 8126SOL    HW136011   1.752   1.221  10.205  0.1157 -1.3899 -1.8134
 8126SOL    HW236012   1.606   1.208  10.213 -0.1123  1.2763 -0.4849
 8127SOL     OW36013   3.479   1.782   7.629 -0.1409  0.3561  0.0535
 8127SOL    HW136014   3.442   1.841   7.563  0.1722  0.9747  0.4322
 8127SOL    HW236015   3.401   1.728   7.635  0.3478 -0.6020 -2.1726
 8128SOL     OW36016   0.188   2.746   3.698  0.2570  0.0695  0.1111
 8128SOL    HW136017   0.161   2.801   3.624 -1.2823 -0.6217  0.1630
 8128SOL    HW236018   0.273   2.790   3.710  1.1509 -1.6274  0.1083
 8129SOL     OW36019   3.154   0.439   7.304  0.7660 -0.1384 -0.4193
 8129SOL    HW136020   3.120   0.482   7.226  2.3941  0.4888 -0.7758
 8129SOL    HW236021   3.233   0.479   7.340 -0.8403  0.3064  2.6659
 8130SOL     OW36022   1.701   3.574   2.770  0.5854  0.4693 -0.0840
 8130SOL    HW136023   1.641   3.618   2.830  1.2206  0.2565  0.7068
 8130SOL    HW236024   1.704   3.641   2.702  1.7002  0.3446 -0.1636
 8131SOL     OW36025   2.202   2.989   4.047  0.2370 -0.5737  0.2702
 8131SOL    HW136026   2.297   2.998   4.047 -0.0416  2.5764  0.3683
 8131SOL    HW236027   2.185   2.905   4.089  2.9179 -1.1707  0.1395
 8132SOL     OW36028   0.617   2.548   1.763  0.2630  0.6428 -0.0160
 8132SOL    HW136029   0.630   2.488   1.836 -2.0974  0.1370 -0.0050
 8132SOL    HW236030   0.591   2.626   1.812 -1.3809 -1.4273  2.3596
 8133SOL     OW36031   0.255   2.059   6.630 -0.5131  0.2884  0.2194
 8133SOL    HW136032   0.165   2.033   6.610  0.1897 -1.2400 -0.9508
 8133SOL    HW236033   0.278   1.985   6.685 -2.0996  0.9323  1.7482
 8134SOL     OW36034   2.834   2.191  13.892  0.2947  0.2435 -0.1619
 8134SOL    HW136035   2.774   2.121  13.915  1.5904 -1.1878 -1.1772
 8134SOL    HW236036   2.774   2.260  13.863  1.6441  2.4340  2.1559
 8135SOL     OW36037   1.215   1.794   5.878  0.2020 -0.6377  0.6770
 8135SOL    HW136038   1.195   1.848   5.954 -2.1059 -0.7840  0.1538
 8135SOL    HW236039   1.244   1.868   5.824 -0.9049 -1.9481 -1.6970
 8136SOL     OW36040   3.930   3.041   9.518  0.2093 -0.6414 -0.4099
 8136SOL    HW136041   3.888   3.113   9.564 -1.4882 -0.4882 -2.1577
 8136SOL    HW236042   3.979   3.000   9.589  0.7835  0.2224 -0.3108
 8137SOL     OW36043   3.232   2.924  15.187 -0.3614  0.2505 -0.4799
 8137SOL    HW136044   3.267   2.894  15.103  1.0615  1.9301 -0.5059
 8137SOL    HW236045   3.161   2.979  15.154  0.6046 -0.5735 -3.8745
 8138SOL     OW36046   2.493   1.745   2.594 -0.3120 -0.5261  0.5627
 8138SOL    HW136047   2.582   1.733   2.627 -0.3429  0.6400  1.0655
 8138SOL    HW236048   2.451   1.662   2.615 -3.5402  1.1474  0.8204
 8139SOL     OW36049   3.135   4.634   4.555 -0.1373 -0.6834  0.3507
 8139SOL    HW136050   3.138   4.650   4.461 -1.6297 -0.7118  0.2857
 8139SOL    HW236051   3.228   4.618   4.565  0.0666  0.2912  0.0035
 8140SOL     OW36052   0.962   3.628  13.278  0.3652 -0.3842  0.1623
 8140SOL    HW136053   0.946   3.715  13.244  1.1876 -0.0421  0.6505
 8140SOL    HW236054   0.877   3.586  13.269  0.1967 -0.3630  1.5843
 8141SOL     OW36055   3.533   3.328  17.711 -0.3245 -0.6985  0.2605
 8141SOL    HW136056   3.521   3.238  17.744 -0.4749  0.4482  3.3773
 8141SOL    HW236057   3.533   3.306  17.618 -1.0712  1.5715 -0.2785
 8142SOL     OW36058   4.334   1.329   5.547  0.3262  0.3169  0.2250
 8142SOL    HW136059   4.413   1.348   5.597 -0.3646  2.1751  0.6423
 8142SOL    HW236060   4.375   1.298   5.467  0.5392  0.3293  0.3305
 8143SOL     OW36061   1.733   0.802   8.644  0.0566  0.3352  0.0174
 8143SOL    HW136062   1.818   0.838   8.671 -0.2043  0.7458  0.2806
 8143SOL    HW236063   1.683   0.815   8.724  2.4007  2.6236  1.1173
 8144SOL     OW36064   1.892   4.051   8.358 -0.0452 -0.4841  0.1010
 8144SOL    HW136065   1.940   4.008   8.287 -2.3502 -1.8947 -0.5980
 8144SOL    HW236066   1.804   4.067   8.325 -0.5478 -1.4587  0.9753
 8145SOL     OW36067   0.194   3.321   4.139 -0.4637  0.2066 -0.2457
 8145SOL    HW136068   0.103   3.322   4.108 -0.0161 -1.0826 -1.6307
 8145SOL    HW236069   0.204   3.240   4.188  0.4259 -0.4340 -1.4807
 8146SOL     OW36070   3.526   0.304   9.222  0.2757 -0.1176 -0.1091
 8146SOL    HW136071   3.597   0.293   9.286  1.2092  2.7008 -0.6264
 8146SOL    HW236072   3.563   0.297   9.134  2.1984  1.7784  0.5394
 8147SOL     OW36073   1.286   1.327  15.236  0.1150  0.2763 -0.0486
 8147SOL    HW136074   1.210   1.353  15.287 -0.1302 -0.5926  0.0153
 8147SOL    HW236075   1.316   1.257  15.294  0.1369  2.2602  2.3183
 8148SOL     OW36076   1.507   4.168   8.898  0.6341 -0.3466 -0.0391
 8148SOL    HW136077   1.458   4.200   8.822 -1.0070 -1.7148  0.4186
 8148SOL    HW236078   1.565   4.239   8.922  1.2477 -0.4077 -1.3573
 8149SOL     OW36079   3.185   4.328  11.519  0.5436 -0.4722 -0.0015
 8149SOL    HW136080   3.119   4.395  11.530  0.8777 -0.1964  0.3228
 8149SOL    HW236081   3.256   4.392  11.527  0.2170 -0.0042 -0.8020
 8150SOL     OW36082   3.233   0.376   5.496 -0.8716 -0.2218  0.7673
 8150SOL    HW136083   3.255   0.345   5.584  1.3072  3.9648  1.6842
 8150SOL    HW236084   3.227   0.469   5.514 -1.1060  0.4794 -2.9384
 8151SOL     OW36085   4.656   3.980   7.547 -0.1530  0.0914  0.1051
 8151SOL    HW136086   4.735   3.934   7.576  0.0297 -0.2656 -0.9492
 8151SOL    HW236087   4.599   3.961   7.622  2.4998 -0.2294  2.0373
 8152SOL     OW36088   2.511   3.488   9.924 -0.2483 -0.4895 -0.5064
 8152SOL    HW136089   2.526   3.509   9.832  4.4869  0.9874  0.6018
 8152SOL    HW236090   2.416   3.493   9.936 -0.0578  1.8907  0.0309
 8153SOL     OW36091   0.313   3.804   7.375  0.2953  0.0719 -0.3001
 8153SOL    HW136092   0.302   3.878   7.315 -0.5912  0.3730  0.2283
 8153SOL    HW236093   0.247   3.752   7.328 -1.5234  1.0909  1.1384
 8154SOL     OW36094   2.513   3.593  15.407 -0.4051  0.3637  0.6077
 8154SOL    HW136095   2.558   3.561  15.486 -1.4487 -2.0393  0.2462
 8154SOL    HW236096   2.428   3.622  15.440 -0.7685 -0.3345  0.2830
 8155SOL     OW36097   1.435   2.032  14.472  0.1952  0.1380  0.2897
 8155SOL    HW136098   1.363   2.023  14.534  0.1575 -1.6824 -0.0208
 8155SOL    HW236099   1.430   1.947  14.429  0.1088  1.4191 -2.2292
 8156SOL     OW36100   3.320   3.674   4.887 -0.0765 -0.9443  0.4697
 8156SOL    HW136101   3.240   3.708   4.927 -0.4687 -0.9898 -0.2614
 8156SOL    HW236102   3.298   3.657   4.795 -2.0313 -0.7036  0.8859
 8157SOL     OW36103   2.411   3.603  10.253  0.0146  0.3588  0.7534
 8157SOL    HW136104   2.378   3.517  10.279  0.8930  0.5386  2.4856
 8157SOL    HW236105   2.421   3.642  10.340 -1.8818  2.3519  0.0579
 8158SOL     OW36106   4.731   0.157   9.119 -0.8314 -0.1429 -0.3954
 8158SOL    HW136107   0.066   0.199   9.159 -1.0791  0.5589 -0.6721
 8158SOL    HW236108   4.686   0.115   9.192 -0.8841 -0.0166 -0.3567
 8159SOL     OW36109   3.311   2.841  14.947  0.2220  0.6264 -0.0440
 8159SOL    HW136110   3.309   2.908  14.879  0.4176 -0.8586 -1.4955
 8159SOL    HW236111   3.391   2.797  14.920  0.8646 -0.0817  2.9453
 8160SOL     OW36112   2.402   2.840   8.619 -0.3170  0.0976  0.1615
 8160SOL    HW136113   2.385   2.793   8.701  0.3287 -1.7437 -0.7695
 8160SOL    HW236114   2.386   2.776   8.549 -2.6725  1.8909 -0.9405
 8161SOL     OW36115   3.212   3.789  14.472 -0.1433 -0.4358  0.1457
 8161SOL    HW136116   3.158   3.750  14.540  1.0592 -0.7877  0.9092
 8161SOL    HW236117   3.188   3.757  14.385 -1.0463 -1.0265  0.6205
 8162SOL     OW36118   0.151   0.006   2.015  0.3052  0.4954  0.8797
 8162SOL    HW136119   0.067   0.036   1.979  0.9343  4.1501  2.4893
 8162SOL    HW236120   0.128   4.655   2.027 -1.8010  0.9385  0.3631
 8163SOL     OW36121   0.324   2.259   3.375 -0.4557  0.2870  0.1305
 8163SOL    HW136122   0.389   2.215   3.430  2.6123  3.7600 -0.7119
 8163SOL    HW236123   0.298   2.336   3.426 -1.2925  0.5727 -0.7258
 8164SOL     OW36124   2.515   0.870   1.090 -0.0170  0.2389 -0.5273
 8164SOL    HW136125   2.491   0.871   1.183  0.0297  0.0569 -0.5144
 8164SOL    HW236126   2.604   0.835   1.097 -0.8022 -1.4205  1.0826
 8165SOL     OW36127   1.057   2.357   6.433 -0.2826 -0.1503 -0.3351
 8165SOL    HW136128   0.995   2.295   6.470  1.2866  0.5324  3.3923
 8165SOL    HW236129   1.029   2.443   6.467 -1.2777 -0.5257 -0.1929
 8166SOL     OW36130   3.865   2.214   1.451 -0.2948  0.0902  1.2655
 8166SOL    HW136131   3.944   2.202   1.399 -2.1752 -1.3000 -1.2487
 8166SOL    HW236132   3.878   2.304   1.480  2.7442 -1.1227  3.6634
 8167SOL     OW36133   3.770   2.764   4.369  0.8079  0.4016 -0.2207
 8167SOL    HW136134   3.749   2.858   4.368  0.4822  0.3002 -1.9451
 8167SOL    HW236135   3.811   2.752   4.284 -0.8002 -1.8222 -0.6698
 8168SOL     OW36136   4.221   4.734  11.979 -0.1074 -0.2343  0.3845
 8168SOL    HW136137   4.141   0.029  11.942 -0.1401 -0.0343  0.6523
 8168SOL    HW236138   4.183   4.693  12.056 -0.4784 -0.0082  0.3216
 8169SOL     OW36139   2.180   1.249  11.562  0.0842  0.3495 -0.0855
 8169SOL    HW136140   2.214   1.160  11.552 -0.2777  0.2902 -0.7959
 8169SOL    HW236141   2.110   1.252  11.497 -1.1774 -2.4555  1.1359
 8170SOL     OW36142   0.853   2.527  12.764  0.5509  0.6615 -0.5025
 8170SOL    HW136143   0.779   2.488  12.810  0.2986 -1.5950 -2.8319
 8170SOL    HW236144   0.807   2.541  12.682 -3.9971  0.9537  2.0948
 8171SOL     OW36145   1.609   4.406  15.333  0.0418  0.4511 -0.1228
 8171SOL    HW136146   1.540   4.399  15.399  0.8901 -1.8430  0.5232
 8171SOL    HW236147   1.627   4.500  15.331 -0.3271  0.5282  0.1395
 8172SOL     OW36148   1.561   2.265   2.360  0.0954 -0.3143 -0.4299
 8172SOL    HW136149   1.506   2.196   2.325 -0.8333 -0.0811  0.5407
 8172SOL    HW236150   1.506   2.341   2.339  0.7346 -0.0457 -1.1540
 8173SOL     OW36151   3.574   1.516  12.339 -0.0379 -0.5499  0.0891
 8173SOL    HW136152   3.550   1.601  12.377 -0.5420 -0.8678  0.4789
 8173SOL    HW236153   3.489   1.481  12.313 -0.5961  0.0674  1.0854
 8174SOL     OW36154   0.065   3.001   4.787 -0.2139  0.0376 -0.2759
 8174SOL    HW136155   0.132   3.027   4.850 -0.9010  0.2682  0.3576
 8174SOL    HW236156   4.736   3.065   4.797  0.7463  0.6214  2.8680
 8175SOL     OW36157   0.658   1.826   2.866 -0.0274  0.0090  0.0491
 8175SOL    HW136158   0.668   1.895   2.801 -1.8097 -0.9404 -1.2293
 8175SOL    HW236159   0.589   1.770   2.831 -0.0981  0.3948 -0.4241
 8176SOL     OW36160   3.417   0.203   3.633 -0.8349  0.2536  0.0849
 8176SOL    HW136161   3.391   0.291   3.660  0.2672  0.6004  0.0037
 8176SOL    HW236162   3.468   0.165   3.704  0.4596  1.1518 -0.3584
 8177SOL     OW36163   2.864   0.446  13.157 -0.0470  0.2848  0.3203
 8177SOL    HW136164   2.854   0.540  13.167  2.6520  0.2353  3.6510
 8177SOL    HW236165   2.801   0.411  13.220  1.4072 -0.0031  1.6237
 8178SOL     OW36166   0.414   1.228   7.394 -0.3613 -0.0566  0.1869
 8178SOL    HW136167   0.374   1.145   7.369 -0.4205 -0.8040  2.7546
 8178SOL    HW236168   0.408   1.227   7.490  1.1606  0.5861  0.2958
 8179SOL     OW36169   1.698   3.389   4.162  0.1118  0.4131 -0.4720
 8179SOL    HW136170   1.780   3.406   4.116  0.5230  2.5008  1.0526
 8179SOL    HW236171   1.656   3.475   4.160 -3.3920 -1.2420  1.7563
 8180SOL     OW36172   1.601   3.773  13.635  0.5016  0.0176  0.1709
 8180SOL    HW136173   1.692   3.748  13.620  1.2061  2.1201  0.8518
 8180SOL    HW236174   1.558   3.689  13.647 -1.9319  1.6274  2.7155
 8181SOL     OW36175   2.651   1.441   3.940 -0.7097  0.0915  0.4185
 8181SOL    HW136176   2.723   1.499   3.963 -1.5387  1.9012 -1.5530
 8181SOL    HW236177   2.663   1.441   3.845  0.4554 -2.3890  0.5562
 8182SOL     OW36178   1.480   0.284   2.293 -0.0460 -0.1323  0.6870
 8182SOL    HW136179   1.537   0.344   2.341 -0.1432  1.3730 -1.0332
 8182SOL    HW236180   1.483   0.210   2.353  0.8430 -1.4767 -0.9917
 8183SOL     OW36181   0.906   3.844   5.362 -0.1299 -0.1414 -0.2224
 8183SOL    HW136182   0.905   3.854   5.267 -3.4461  2.4619  0.0806
 8183SOL    HW236183   0.849   3.768   5.374  0.4354 -0.5765 -0.3405
 8184SOL     OW36184   2.247   0.412   7.453  0.3829  0.3813 -0.6865
 8184SOL    HW136185   2.215   0.457   7.374 -1.0730 -2.4313 -1.7219
 8184SOL    HW236186   2.309   0.347   7.420  0.4690  1.7036 -3.1751
 8185SOL     OW36187   0.235   2.314   1.776  0.0204  0.2503  0.2431
 8185SOL    HW136188   0.174   2.257   1.823 -0.7048  2.5889  2.1038
 8185SOL    HW236189   0.273   2.359   1.851 -0.6816 -0.8817  1.2755
 8186SOL     OW36190   0.787   1.034   2.053  0.3358 -0.2462 -0.0526
 8186SOL    HW136191   0.767   1.120   2.014 -0.7704 -1.0425 -1.2442
 8186SOL    HW236192   0.835   1.064   2.130  1.0443  1.9205 -1.3250
 8187SOL     OW36193   2.072   1.898   2.470  0.3259 -0.0076 -0.4189
 8187SOL    HW136194   2.046   1.903   2.378  0.8852  0.0637 -0.5723
 8187SOL    HW236195   2.125   1.818   2.467  0.0383 -0.1786 -0.9123
 8188SOL     OW36196   4.578   0.371  13.648  0.1945 -0.3894  0.1041
 8188SOL    HW136197   4.588   0.276  13.647  0.4279 -0.3466 -2.5049
 8188SOL    HW236198   4.553   0.387  13.739  0.4120  0.8763 -0.0527
 8189SOL     OW36199   4.327   4.294   1.203  0.1685 -0.1902  0.1883
 8189SOL    HW136200   4.265   4.326   1.269 -1.7558  0.0797 -1.7573
 8189SOL    HW236201   4.274   4.254   1.134 -0.1238 -2.2456  1.5840
 8190SOL     OW36202   2.270   0.249   2.197 -0.6843 -0.2359 -0.2996
 8190SOL    HW136203   2.321   0.226   2.119 -0.8304 -1.2330 -0.0949
 8190SOL    HW236204   2.269   0.343   2.178 -0.1687 -0.6323 -2.2919
 8191SOL     OW36205   1.859   2.950   8.489 -0.4880 -0.1541  0.0094
 8191SOL    HW136206   1.878   2.863   8.525 -1.0548 -0.3578 -0.1849
 8191SOL    HW236207   1.784   2.965   8.546  0.5539 -1.5045  1.7266
 8192SOL     OW36208   3.370   1.557   7.263  0.0054  0.0819 -0.2688
 8192SOL    HW136209   3.361   1.495   7.335  0.1510  0.4022  0.0236
 8192SOL    HW236210   3.332   1.508   7.190 -0.5611  0.8112 -0.4672
 8193SOL     OW36211   2.833   4.060   1.317 -0.3178  1.3159 -0.3625
 8193SOL    HW136212   2.821   4.121   1.245 -0.9318  0.9032 -0.6070
 8193SOL    HW236213   2.781   3.985   1.287  0.1570  0.7544  0.2077
 8194SOL     OW36214   0.240   3.904   3.731 -0.4511 -0.1746 -0.2358
 8194SOL    HW136215   0.169   3.952   3.689 -0.2557  0.8455  0.6090
 8194SOL    HW236216   0.227   3.915   3.825  0.5001  3.0686 -0.4855
 8195SOL     OW36217   1.234   4.147   2.697 -0.2892 -0.0805 -0.0448
 8195SOL    HW136218   1.291   4.110   2.765  2.4707  2.3806 -1.0404
 8195SOL    HW236219   1.235   4.240   2.719  1.0771  0.1485 -1.0925
 8196SOL     OW36220   4.238   0.284  12.650  0.3421 -0.0204  0.1027
 8196SOL    HW136221   4.269   0.272  12.560 -1.3156  3.0228 -0.9044
 8196SOL    HW236222   4.324   0.290  12.689  0.5748 -2.8082 -0.0008
 8197SOL     OW36223   3.000   2.854   2.426  0.0000 -0.1207 -0.0059
 8197SOL    HW136224   2.964   2.935   2.460 -0.3256  0.5179 -1.9036
 8197SOL    HW236225   2.972   2.790   2.492  1.3485  0.4550  1.1333
 8198SOL     OW36226   1.694   2.949  14.772  0.0164  0.2893 -0.4014
 8198SOL    HW136227   1.682   2.979  14.682 -0.6992 -0.3715 -0.5291
 8198SOL    HW236228   1.634   2.874  14.765  1.1408 -0.6777  0.5232
 8199SOL     OW36229   1.652   2.754  10.957  0.2577  0.1231  0.6585
 8199SOL    HW136230   1.561   2.745  10.987  0.3018 -0.5172  0.6022
 8199SOL    HW236231   1.679   2.663  10.971  2.0856  0.7524  1.1296
 8200SOL     OW36232   1.008   2.894   0.523  0.4908 -0.2505 -0.2388
 8200SOL    HW136233   1.024   2.975   0.475  1.2754  0.0534  0.5441
 8200SOL    HW236234   1.083   2.835   0.519  0.4563 -0.2299 -1.2339
 8201SOL     OW36235   4.179   3.463   9.132  0.1963  0.0676  0.3361
 8201SOL    HW136236   4.218   3.548   9.151  1.3894 -0.0956 -1.3894
 8201SOL    HW236237   4.144   3.421   9.210 -1.0506 -0.7387 -0.6343
 8202SOL     OW36238   3.909   3.055   3.984 -0.0850  0.0208  0.1752
 8202SOL    HW136239   3.933   3.064   3.892 -0.0966 -1.0233  0.0730
 8202SOL    HW236240   3.814   3.044   3.984 -0.0081 -0.5309  2.6571
 8203SOL     OW36241   3.672   4.686  11.264 -0.2446 -0.0034  0.5129
 8203SOL    HW136242   3.728   4.614  11.233  0.7610  1.0305 -0.0804
 8203SOL    HW236243   3.735   4.728  11.323 -0.9222  2.2733 -0.3834
 8204SOL     OW36244   0.279   2.693  15.424 -0.1739  0.1038  0.3756
 8204SOL    HW136245   0.327   2.719  15.345 -0.7540  0.8873  0.2817
 8204SOL    HW236246   0.187   2.712  15.408  0.0292  0.6503 -0.1420
 8205SOL     OW36247   2.229   3.075   2.097 -0.8182 -0.9137 -0.1430
 8205SOL    HW136248   2.218   2.990   2.054  0.7757 -0.8375 -0.7134
 8205SOL    HW236249   2.270   3.035   2.173 -0.2840 -0.2517 -0.0827
 8206SOL     OW36250   3.679   3.795   0.852  0.1735  0.2671  0.3779
 8206SOL    HW136251   3.753   3.853   0.867  1.8092 -1.5509 -0.6432
 8206SOL    HW236252   3.700   3.718   0.905  0.9775  0.3282  0.1451
 8207SOL     OW36253   0.703   2.491   3.384  0.1253 -0.2569 -0.3997
 8207SOL    HW136254   0.797   2.505   3.382  0.3711 -1.9233  0.0269
 8207SOL    HW236255   0.700   2.476   3.290 -0.3227 -0.7364 -0.3102
 8208SOL     OW36256   2.150   2.248   5.350  0.1062 -0.4321  0.5155
 8208SOL    HW136257   2.189   2.190   5.284 -1.0925  0.0513 -0.6213
 8208SOL    HW236258   2.075   2.283   5.301  1.1101  0.3413 -0.4738
 8209SOL     OW36259   2.122   3.772   4.571  0.4852 -0.6290  0.2221
 8209SOL    HW136260   2.141   3.795   4.480 -0.7847 -2.6864 -0.5541
 8209SOL    HW236261   2.036   3.813   4.577  0.7889  0.0693 -0.2814
 8210SOL     OW36262   0.801   0.491   2.408 -0.1344 -0.1307  0.4038
 8210SOL    HW136263   0.709   0.513   2.392 -0.2833 -0.2573  1.0773
 8210SOL    HW236264   0.803   0.395   2.404  0.1195 -0.0724 -1.0447
 8211SOL     OW36265   4.061   0.318  17.315 -0.0579  0.3662 -0.1371
 8211SOL    HW136266   4.018   0.254  17.258 -3.2639  1.7945  0.6139
 8211SOL    HW236267   4.004   0.311  17.392  0.8950  0.1552  0.5384
 8212SOL     OW36268   1.210   2.842   5.069  0.1752  0.3018  0.8212
 8212SOL    HW136269   1.137   2.817   5.012  1.6642 -1.3632 -0.3737
 8212SOL    HW236270   1.284   2.802   5.022  0.6418  1.9892  0.1208
 8213SOL     OW36271   2.476   2.458   2.147  0.5912 -0.1293 -0.4298
 8213SOL    HW136272   2.518   2.392   2.091 -0.2859 -0.3122 -0.8917
 8213SOL    HW236273   2.436   2.413   2.221 -1.2996 -0.8474 -1.8542
 8214SOL     OW36274   2.197   4.624   3.309 -0.2215 -0.1077  0.2143
 8214SOL    HW136275   2.176   4.555   3.372  1.2901 -1.1029 -0.3716
 8214SOL    HW236276   2.153   4.695   3.357  0.3119  1.5719 -1.7493
 8215SOL     OW36277   1.362   0.261   3.485 -0.0110 -0.0285  0.1759
 8215SOL    HW136278   1.272   0.233   3.499  0.4387 -0.7651  1.6488
 8215SOL    HW236279   1.414   0.192   3.526 -2.9345 -1.7165  1.0284
 8216SOL     OW36280   1.038   4.341   3.163 -0.1156 -1.0283  0.4758
 8216SOL    HW136281   0.996   4.270   3.115 -0.6427 -1.1933  1.1802
 8216SOL    HW236282   1.119   4.340   3.111  0.5293 -0.5143  1.4612
 8217SOL     OW36283   3.266   0.755  17.252 -0.6357  0.4263 -0.1243
 8217SOL    HW136284   3.243   0.663  17.268 -2.5691  0.9279 -0.0110
 8217SOL    HW236285   3.218   0.797  17.323 -0.7920  0.1653 -0.0773
 8218SOL     OW36286   0.839   1.101   3.764 -0.2906 -0.2902  0.0152
 8218SOL    HW136287   0.766   1.161   3.750 -0.8209 -0.9410  0.0055
 8218SOL    HW236288   0.886   1.124   3.683 -0.1090 -0.8891 -0.0581
 8219SOL     OW36289   3.090   2.959   3.486 -0.0416 -0.4832 -0.3311
 8219SOL    HW136290   3.152   2.983   3.417  0.6917  0.0960  0.5256
 8219SOL    HW236291   3.157   2.951   3.553 -0.8141  1.3449  0.6713
 8220SOL     OW36292   0.801   0.887  13.276  0.1868 -0.5385 -0.5390
 8220SOL    HW136293   0.805   0.805  13.227  6.2003 -0.7327  0.2720
 8220SOL    HW236294   0.713   0.897  13.313  0.6630 -1.2927  0.8087
 8221SOL     OW36295   2.294   3.151  14.872  0.1180 -0.1677 -0.0462
 8221SOL    HW136296   2.285   3.071  14.924  1.7663 -0.3615 -0.0573
 8221SOL    HW236297   2.218   3.137  14.815 -0.9679  0.8573  1.1345
 8222SOL     OW36298   1.730   4.545   2.990  0.7557  0.0218 -0.0305
 8222SOL    HW136299   1.776   4.580   2.914  2.3386 -0.7157  0.5929
 8222SOL    HW236300   1.758   4.453   2.993  0.7052 -0.0970 -3.3167
 8223SOL     OW36301   4.334   4.674   3.707 -0.0764 -0.0093  0.0467
 8223SOL    HW136302   4.356   4.709   3.621 -0.0985  0.9483  0.4352
 8223SOL    HW236303   4.240   4.690   3.720 -0.1289 -0.4397  0.2264
 8224SOL     OW36304   2.870   4.642  13.675  0.5768 -0.0107  0.7696
 8224SOL    HW136305   2.800   4.664  13.737  0.1256 -0.6294  0.4799
 8224SOL    HW236306   2.913   4.727  13.670  1.2428 -0.3871  0.2572
 8225SOL     OW36307   2.984   3.099   6.253  0.0743  0.4062 -0.1500
 8225SOL    HW136308   3.059   3.127   6.305  0.4495 -0.6898 -0.1006
 8225SOL    HW236309   3.029   3.073   6.174 -0.4019 -1.1629  0.1021
 8226SOL     OW36310   2.133   2.998   2.879  0.5055  0.3113  0.1054
 8226SOL    HW136311   2.221   2.995   2.843  0.5470  0.5410  0.1885
 8226SOL    HW236312   2.126   3.088   2.911  1.8814  0.2934  0.4489
 8227SOL     OW36313   1.953   2.452   6.996 -0.0291  0.0355 -0.3229
 8227SOL    HW136314   2.038   2.488   6.969 -0.2948  0.1261 -1.0610
 8227SOL    HW236315   1.894   2.515   6.954  0.2916 -0.2423 -1.1881
 8228SOL     OW36316   4.634   2.685   8.691 -0.3305 -0.2681 -0.2622
 8228SOL    HW136317   4.694   2.757   8.673  0.4133 -1.3698 -2.1759
 8228SOL    HW236318   4.632   2.682   8.786  1.7719  1.8471 -0.1319
 8229SOL     OW36319   1.967   1.403  13.833  0.4588  0.1099  0.4693
 8229SOL    HW136320   2.013   1.474  13.789  1.5080  0.5603  2.2793
 8229SOL    HW236321   1.875   1.431  13.839  0.5849  0.7844 -0.9090
 8230SOL     OW36322   1.420   2.322   0.907 -0.0363 -0.1467 -0.0827
 8230SOL    HW136323   1.457   2.396   0.858  0.4786 -0.3362  0.0189
 8230SOL    HW236324   1.339   2.298   0.864  0.2706 -0.3352 -0.5524
 8231SOL     OW36325   0.142   3.339  13.305 -0.4131  0.4634 -0.0632
 8231SOL    HW136326   0.132   3.247  13.279 -0.5655  0.0405  1.4892
 8231SOL    HW236327   0.235   3.343  13.328 -0.3603 -0.3221 -0.1299
 8232SOL     OW36328   3.698   4.430   8.380  0.0057 -0.3738  0.1949
 8232SOL    HW136329   3.729   4.426   8.470 -1.4131  2.3121  0.8095
 8232SOL    HW236330   3.676   4.523   8.377  0.9976 -0.0646  2.8791
 8233SOL     OW36331   2.673   2.120   3.202  0.0436 -0.1182 -0.1269
 8233SOL    HW136332   2.768   2.128   3.203 -0.1325  1.9701 -1.9039
 8233SOL    HW236333   2.661   2.060   3.129  0.2086  0.1548 -0.3764
 8234SOL     OW36334   3.304   1.025   3.378 -0.3910  0.0463  0.6049
 8234SOL    HW136335   3.385   1.053   3.420 -0.5476 -0.7898  1.4552
 8234SOL    HW236336   3.320   0.931   3.366 -0.6959  0.5014 -3.4615
 8235SOL     OW36337   1.176   1.199   6.432 -0.4609  0.1365 -0.1651
 8235SOL    HW136338   1.169   1.293   6.449  1.4003  0.1569  0.5033
 8235SOL    HW236339   1.086   1.169   6.438  0.3044 -1.9429  0.9435
 8236SOL     OW36340   1.267   2.960   7.765 -0.3169 -0.5025  0.1326
 8236SOL    HW136341   1.175   2.933   7.769  0.1985 -1.6762  3.5228
 8236SOL    HW236342   1.306   2.875   7.742 -0.4956 -1.4033  3.1691
 8237SOL     OW36343   0.601   3.534  11.858 -0.2504 -0.5293 -0.5265
 8237SOL    HW136344   0.596   3.586  11.939 -1.2963 -1.8003  0.2315
 8237SOL    HW236345   0.510   3.505  11.851 -0.6392  1.0990 -2.3031
 8238SOL     OW36346   0.011   3.150  10.788  0.2002 -0.1833  0.3218
 8238SOL    HW136347   0.084   3.104  10.830 -0.8685 -1.8473  0.3397
 8238SOL    HW236348   4.710   3.075  10.746 -0.5581  0.9616 -0.9751
 8239SOL     OW36349   4.258   3.390  13.191  0.0360  0.1402 -0.6594
 8239SOL    HW136350   4.276   3.373  13.284 -0.4218  0.4758 -0.5097
 8239SOL    HW236351   4.195   3.462  13.193 -1.2712 -0.9964 -0.3882
 8240SOL     OW36352   1.862   0.432   2.969  0.1925 -0.1407 -0.3734
 8240SOL    HW136353   1.901   0.515   2.996  1.8065 -1.2776  0.7892
 8240SOL    HW236354   1.775   0.437   3.010  0.4427 -0.0622  0.1375
 8241SOL     OW36355   2.587   0.522   9.738 -0.0670  0.0431  0.7149
 8241SOL    HW136356   2.634   0.439   9.736 -1.5487 -0.7677  0.0349
 8241SOL    HW236357   2.553   0.516   9.828  0.4307 -1.3281  0.8107
 8242SOL     OW36358   1.987   2.737   2.519 -0.4428  0.4256 -0.4033
 8242SOL    HW136359   2.017   2.698   2.601  0.4657  1.9806  0.0068
 8242SOL    HW236360   2.030   2.822   2.508  0.3789  0.2125  1.1805
 8243SOL     OW36361   2.235   1.539   5.567 -0.2438  0.3736  0.7158
 8243SOL    HW136362   2.205   1.450   5.583 -1.0007  0.2458 -1.3426
 8243SOL    HW236363   2.327   1.537   5.594  0.3294  0.0508 -1.2387
 8244SOL     OW36364   4.006   3.300   4.013 -0.1409 -0.3038  0.4326
 8244SOL    HW136365   3.935   3.364   4.005 -0.1224 -0.3535 -0.1653
 8244SOL    HW236366   3.964   3.217   3.990  0.9976 -0.3000 -1.6204
 8245SOL     OW36367   1.759   3.515   1.762  0.1750  0.0467  0.5253
 8245SOL    HW136368   1.687   3.457   1.738  0.7399 -0.4087 -0.0797
 8245SOL    HW236369   1.784   3.475   1.846  0.5731  1.9044  1.2946
 8246SOL     OW36370   3.415   2.736  16.417 -0.3132  0.6067 -0.6433
 8246SOL    HW136371   3.439   2.815  16.368 -2.4743  0.7165 -1.5280
 8246SOL    HW236372   3.325   2.751  16.448 -0.5189  1.0207 -1.4525
 8247SOL     OW36373   0.804   2.993   1.018  0.4704 -0.1155  0.1542
 8247SOL    HW136374   0.746   2.984   1.094 -0.3314 -0.2663 -0.4720
 8247SOL    HW236375   0.748   3.057   0.973  1.7408 -1.6032 -3.5950
 8248SOL     OW36376   1.446   0.539  11.568  0.0077 -0.1162 -0.0784
 8248SOL    HW136377   1.458   0.499  11.653 -0.8117  2.2430  1.1589
 8248SOL    HW236378   1.433   0.631  11.590  1.0736 -0.0191  0.1376
 8249SOL     OW36379   1.172   2.166   3.972 -0.3113 -0.2785  0.3460
 8249SOL    HW136380   1.251   2.165   4.026 -0.5813 -0.7346  0.7328
 8249SOL    HW236381   1.173   2.256   3.941 -4.5299 -0.2662  0.2198
 8250SOL     OW36382   4.378   2.001   7.419  0.2582  0.2640 -0.0583
 8250SOL    HW136383   4.460   2.051   7.419 -0.0485  0.7877 -2.4901
 8250SOL    HW236384   4.357   1.981   7.328 -0.5165 -0.2477  0.2351
 8251SOL     OW36385   1.869   4.736   1.955 -0.6644  0.1264  0.2971
 8251SOL    HW136386   1.827   0.068   2.001  0.9609  0.9507  0.4590
 8251SOL    HW236387   1.789   4.683   1.956 -1.1066  0.7907  1.5165
 8252SOL     OW36388   3.587   2.908  12.659 -0.5887 -0.3370 -0.2613
 8252SOL    HW136389   3.631   2.946  12.735 -2.2731  1.3160 -0.1392
 8252SOL    HW236390   3.568   2.985  12.606 -2.7598  0.1992  1.3079
 8253SOL     OW36391   0.821   1.443  10.942  0.8418 -0.0790  0.1485
 8253SOL    HW136392   0.788   1.361  10.980 -2.0641  2.3516  2.8568
 8253SOL    HW236393   0.746   1.473  10.892  0.5883  0.4359  0.8362
 8254SOL     OW36394   2.710   4.192  17.316  0.5337  0.5384  0.0644
 8254SOL    HW136395   2.744   4.197  17.405 -0.8446 -0.7949  0.6533
 8254SOL    HW236396   2.756   4.265  17.274 -0.9611  1.7432  0.5732
 8255SOL     OW36397   0.961   1.593   6.561  0.5174 -0.1739  0.1576
 8255SOL    HW136398   1.000   1.620   6.644  3.1396 -1.6143 -0.6132
 8255SOL    HW236399   1.038   1.562   6.513  0.3826 -0.5368  0.1772
 8256SOL     OW36400   0.542   0.922   1.557 -0.0281 -0.0452  0.3330
 8256SOL    HW136401   0.474   0.893   1.617  0.2333  0.6351  0.9555
 8256SOL    HW236402   0.486   0.954   1.486 -0.8886 -1.1682  0.5098
 8257SOL     OW36403   2.880   1.218   3.458 -0.0647  0.1917  0.6837
 8257SOL    HW136404   2.875   1.255   3.370  0.4087  0.1078  0.6205
 8257SOL    HW236405   2.789   1.188   3.467  0.6677 -2.1984  0.2940
 8258SOL     OW36406   0.995   2.239  11.355  0.6874 -0.0710  0.5598
 8258SOL    HW136407   1.019   2.265  11.266  0.2159  0.6857  0.6570
 8258SOL    HW236408   0.986   2.325  11.396  0.8216  0.8856 -1.4058
 8259SOL     OW36409   3.348   2.429   3.602  0.1638  0.1485 -0.2854
 8259SOL    HW136410   3.284   2.369   3.565  0.8596 -0.0905 -1.0920
 8259SOL    HW236411   3.403   2.366   3.648 -0.6602 -1.0757 -0.9909
 8260SOL     OW36412   2.999   1.698   8.847  0.2394 -0.2198 -0.0696
 8260SOL    HW136413   3.064   1.717   8.779 -1.8472  1.4423 -1.6025
 8260SOL    HW236414   2.991   1.603   8.842 -1.2780 -0.1850  1.9269
 8261SOL     OW36415   1.250   2.398   5.287 -0.3230 -0.4336 -0.3149
 8261SOL    HW136416   1.311   2.379   5.359  0.1954  0.1221 -0.6019
 8261SOL    HW236417   1.169   2.385   5.336 -0.2652 -0.2397 -0.1642
 8262SOL     OW36418   1.796   3.820   7.811  0.2823  0.2102  0.0419
 8262SOL    HW136419   1.735   3.892   7.825 -0.6527 -0.7763  1.0494
 8262SOL    HW236420   1.755   3.771   7.882  2.2663  1.2877  1.9307
 8263SOL     OW36421   0.487   2.525   5.940 -0.1687 -0.5666  0.1701
 8263SOL    HW136422   0.502   2.558   5.851  0.4622 -1.2243  0.0315
 8263SOL    HW236423   0.450   2.440   5.918 -0.9182 -0.4539  1.0221
 8264SOL     OW36424   2.111   4.015   7.413 -0.5653  0.0398 -0.0571
 8264SOL    HW136425   2.035   3.996   7.468 -1.1907  0.2764 -0.8395
 8264SOL    HW236426   2.179   4.040   7.476 -1.9666  1.4605  0.8765
 8265SOL     OW36427   0.295   1.991   4.115  0.4196 -0.1642 -0.2099
 8265SOL    HW136428   0.332   2.035   4.039 -0.0458 -0.0835 -0.3902
 8265SOL    HW236429   0.365   1.990   4.181  0.5019 -3.1238 -0.3242
 8266SOL     OW36430   4.029   2.637  15.236 -0.3430 -0.3595 -0.2744
 8266SOL    HW136431   3.937   2.657  15.219 -0.5865  0.5858  2.0564
 8266SOL    HW236432   4.076   2.714  15.206  0.5748 -1.4310 -1.5694
 8267SOL     OW36433   2.185   1.361   7.721  0.2812  0.4098 -0.1908
 8267SOL    HW136434   2.237   1.354   7.801 -1.8858  1.6475  1.3415
 8267SOL    HW236435   2.121   1.298   7.752 -2.1714  2.5474 -0.8945
 8268SOL     OW36436   4.568   2.880   2.230  0.0705  0.1191 -0.3249
 8268SOL    HW136437   4.558   2.945   2.161 -1.0303 -2.0516 -2.2358
 8268SOL    HW236438   4.532   2.801   2.189 -1.4626 -1.2193  3.5119
 8269SOL     OW36439   1.223   0.035  13.190 -0.3980 -0.0998 -0.0160
 8269SOL    HW136440   1.280   0.111  13.200 -2.0683  1.0290  0.7540
 8269SOL    HW236441   1.287   4.707  13.169  0.6079  1.1002 -0.8707
 8270SOL     OW36442   1.830   4.315   9.639 -0.1186 -0.2850 -0.1832
 8270SOL    HW136443   1.813   4.286   9.729 -1.0167  2.2070  0.4260
 8270SOL    HW236444   1.797   4.232   9.603  0.3689 -1.4847  2.0929
 8271SOL     OW36445   3.225   2.588  16.626  0.0457  0.3004  0.6130
 8271SOL    HW136446   3.245   2.496  16.608 -0.9113  0.1225  0.4732
 8271SOL    HW236447   3.186   2.611  16.542 -0.6030  2.1473  1.4309
 8272SOL     OW36448   3.896   0.973   5.456 -0.0311 -0.3491 -0.5030
 8272SOL    HW136449   3.891   1.027   5.535  2.6152  0.2316 -0.7193
 8272SOL    HW236450   3.859   1.016   5.378  2.3541  0.2472 -1.3027
 8273SOL     OW36451   0.573   1.801   8.113 -0.1061 -0.4569  0.2081
 8273SOL    HW136452   0.668   1.799   8.118 -0.0481 -0.0636 -0.8313
 8273SOL    HW236453   0.574   1.851   8.032  0.1913  2.0645  1.7880
 8274SOL     OW36454   3.529   0.923   9.242  0.4173  0.0428  0.3991
 8274SOL    HW136455   3.610   0.882   9.214  0.8215  0.3168  1.1500
 8274SOL    HW236456   3.539   0.929   9.337  1.0161 -1.0951  0.4046
 8275SOL     OW36457   1.160   4.360   4.861  0.2918 -0.3569  0.4429
 8275SOL    HW136458   1.238   4.400   4.899 -0.5129  1.4315  0.1721
 8275SOL    HW236459   1.115   4.439   4.832 -1.0293 -0.8264  1.2457
 8276SOL     OW36460   2.700   3.095   3.161 -0.5311 -0.2262  0.0112
 8276SOL    HW136461   2.657   3.163   3.213 -0.2441  1.6418 -2.1775
 8276SOL    HW236462   2.789   3.130   3.167 -0.0409 -1.3061 -0.8316
 8277SOL     OW36463   2.778   0.512  15.226 -0.0334 -0.3760 -0.3866
 8277SOL    HW136464   2.759   0.419  15.226  2.5333 -0.9148 -1.5013
 8277SOL    HW236465   2.759   0.532  15.134  0.4664  1.9977  0.0280
 8278SOL     OW36466   1.913   1.621   1.941 -1.0885  0.2237  0.3785
 8278SOL    HW136467   1.875   1.556   2.002 -2.0987  1.5929  1.2107
 8278SOL    HW236468   1.897   1.701   1.991 -0.1214  1.1198 -0.7387
 8279SOL     OW36469   2.171   0.636   6.642 -0.2464  0.1585 -0.3420
 8279SOL    HW136470   2.224   0.715   6.633 -1.3001  0.9105 -0.0607
 8279SOL    HW236471   2.081   0.671   6.635 -1.0499 -2.3287 -2.1866
 8280SOL     OW36472   1.798   2.001   8.123 -0.2558  0.2063  0.3322
 8280SOL    HW136473   1.885   2.006   8.164 -0.8317  2.1722  1.3402
 8280SOL    HW236474   1.757   2.076   8.168  0.7451  1.6087 -1.0865
 8281SOL     OW36475   0.781   0.280   6.966  0.1829 -0.1943  0.2768
 8281SOL    HW136476   0.722   0.319   6.902  0.3152 -1.2323 -0.4713
 8281SOL    HW236477   0.831   0.229   6.902  0.9470  1.4217 -0.4067
 8282SOL     OW36478   0.279   0.679   4.365 -0.0885 -0.5179  0.2530
 8282SOL    HW136479   0.263   0.721   4.281  1.3400  1.5506  1.0136
 8282SOL    HW236480   0.267   0.588   4.339  0.4655 -1.0411  1.8287
 8283SOL     OW36481   1.896   0.989   8.414 -0.3238  0.0456 -0.1926
 8283SOL    HW136482   1.990   1.001   8.402 -0.1811 -1.1905 -0.3732
 8283SOL    HW236483   1.894   1.016   8.506 -0.0837  0.8239 -0.4199
 8284SOL     OW36484   3.551   2.379   3.976 -0.1722 -0.7980  0.0289
 8284SOL    HW136485   3.472   2.325   3.975 -0.4002 -0.4447 -1.5272
 8284SOL    HW236486   3.567   2.378   3.882 -1.7521  0.3061 -0.2522
 8285SOL     OW36487   1.086   2.263   5.668 -0.1369 -0.3277 -0.1920
 8285SOL    HW136488   1.096   2.306   5.753 -0.7743 -0.1410 -0.2139
 8285SOL    HW236489   1.039   2.183   5.689 -0.8431  0.6310  1.8297
 8286SOL     OW36490   3.881   2.313   2.329  0.1687  0.0740 -0.3674
 8286SOL    HW136491   3.858   2.369   2.255 -1.0185  0.8763  0.6183
 8286SOL    HW236492   3.793   2.279   2.343  0.3695  0.2174  1.2325
 8287SOL     OW36493   3.492   3.156   4.071 -0.4738 -0.2826  0.1032
 8287SOL    HW136494   3.517   3.106   4.149 -0.4666 -0.5882 -0.0976
 8287SOL    HW236495   3.477   3.087   4.007 -1.4767 -2.2343  2.4664
 8288SOL     OW36496   3.719   2.144   6.976 -0.0844 -0.5242  1.0187
 8288SOL    HW136497   3.728   2.186   7.062 -1.0332  2.2970 -0.2709
 8288SOL    HW236498   3.762   2.060   6.992  1.6551  0.4255  1.4272
 8289SOL     OW36499   0.598   2.251   1.390  0.2203 -0.0004  0.4389
 8289SOL    HW136500   0.679   2.281   1.347  0.7477  0.5566  1.8342
 8289SOL    HW236501   0.554   2.336   1.393  0.2375  0.0282 -0.0933
 8290SOL     OW36502   4.199   0.276   6.183 -0.0010  0.0198  0.5672
 8290SOL    HW136503   4.169   0.322   6.261 -2.4336  1.4858 -1.2260
 8290SOL    HW236504   4.185   0.349   6.123 -3.1874 -0.8782  0.1955
 8291SOL     OW36505   2.317   0.691   4.670 -0.1032  0.1213 -0.6403
 8291SOL    HW136506   2.255   0.751   4.712  0.3553 -0.4805  0.8929
 8291SOL    HW236507   2.388   0.694   4.735 -0.2083 -1.1876 -0.4711
 8292SOL     OW36508   4.030   1.597   6.236 -0.2411  0.0430 -0.2769
 8292SOL    HW136509   4.072   1.574   6.319  1.8037  0.1656 -1.2784
 8292SOL    HW236510   3.961   1.530   6.237  0.8173 -1.0938 -3.0892
 8293SOL     OW36511   3.527   3.289  12.247  0.9878 -0.4021 -0.0436
 8293SOL    HW136512   3.619   3.313  12.259  0.4130  0.0248  3.7127
 8293SOL    HW236513   3.527   3.274  12.153  1.7928  1.6056 -0.3849
 8294SOL     OW36514   2.573   4.272   1.808  0.5021  1.0537  0.5917
 8294SOL    HW136515   2.583   4.178   1.790 -1.8982  0.6513  1.4886
 8294SOL    HW236516   2.636   4.302   1.742  1.5841 -0.0893  1.0941
 8295SOL     OW36517   2.066   0.089   3.803 -0.5472 -0.8855 -0.5372
 8295SOL    HW136518   2.143   0.076   3.747  1.0010  1.6257  1.0051
 8295SOL    HW236519   1.998   0.104   3.737 -0.2859  1.7458 -0.2071
 8296SOL     OW36520   1.670   0.018   3.380  0.5014  0.0927 -0.0579
 8296SOL    HW136521   1.646   4.669   3.403  0.8034  0.3776  1.3746
 8296SOL    HW236522   1.741   0.011   3.317  0.4852 -0.4795 -0.0135
 8297SOL     OW36523   0.031   1.629   8.632 -0.1036 -0.2707 -0.4632
 8297SOL    HW136524   0.082   1.549   8.644 -0.6204 -0.7452 -1.4800
 8297SOL    HW236525   0.078   1.669   8.558  0.0832  1.1113  0.3934
 8298SOL     OW36526   1.709   1.465   0.584  0.1247  0.5892  0.3440
 8298SOL    HW136527   1.715   1.371   0.565 -0.0781  0.9347 -1.3654
 8298SOL    HW236528   1.619   1.474   0.616 -0.3532 -0.1607 -0.7793
 8299SOL     OW36529   1.731   3.119   6.544 -0.1172  0.5076 -0.2269
 8299SOL    HW136530   1.672   3.166   6.484 -0.0616  1.1810  0.2474
 8299SOL    HW236531   1.684   3.104   6.625  2.0518 -0.2531  0.8832
 8300SOL     OW36532   0.615   0.445   8.976  0.0387 -0.3925  0.1315
 8300SOL    HW136533   0.695   0.443   8.923  0.2257 -1.6113  0.4610
 8300SOL    HW236534   0.551   0.474   8.911  0.3202  2.4985  1.1515
 8301SOL     OW36535   2.727   1.426   9.152 -0.1315  0.1454 -0.1038
 8301SOL    HW136536   2.726   1.351   9.093  2.0367 -0.2838  0.3867
 8301SOL    HW236537   2.633   1.439   9.163  0.5114  4.6283  0.0113
 8302SOL     OW36538   2.819   3.729   2.248  0.3045 -0.3419  0.3421
 8302SOL    HW136539   2.727   3.704   2.234  1.1448 -1.6840 -2.6797
 8302SOL    HW236540   2.823   3.777   2.330  0.5512 -2.4907  1.5873
 8303SOL     OW36541   0.504   0.247   1.390  0.7417 -0.4474  0.4137
 8303SOL    HW136542   0.581   0.250   1.447  2.1309 -1.6724 -1.3615
 8303SOL    HW236543   0.449   0.191   1.445  1.5870 -1.4373  0.2639
 8304SOL     OW36544   0.253   3.030  10.776  0.1605  0.2481 -0.3207
 8304SOL    HW136545   0.348   3.020  10.779  0.1073 -0.0556  0.3992
 8304SOL    HW236546   0.237   3.046  10.869 -0.1714  4.1630 -1.0428
 8305SOL     OW36547   2.782   2.830   3.528  0.8072 -0.2989  0.1194
 8305SOL    HW136548   2.843   2.810   3.599  0.9148  3.1829  1.0033
 8305SOL    HW236549   2.837   2.870   3.460  1.6019  0.8539  1.4298
 8306SOL     OW36550   2.594   4.352   6.581  0.3677 -0.0476 -0.0483
 8306SOL    HW136551   2.686   4.380   6.583  0.0904  1.0130 -2.3174
 8306SOL    HW236552   2.584   4.279   6.641  0.1823  0.3610  0.4206
 8307SOL     OW36553   4.060   0.988  17.264 -0.1928 -0.0924 -0.1454
 8307SOL    HW136554   4.024   1.001  17.176  0.8486  0.2195 -0.5241
 8307SOL    HW236555   4.051   0.897  17.290 -0.0597  0.7969  2.9724
 8308SOL     OW36556   1.386   4.389  15.495  0.1617  0.2376 -0.2978
 8308SOL    HW136557   1.325   4.344  15.553 -0.0289  0.2046 -0.5238
 8308SOL    HW236558   1.378   4.482  15.511  0.2273  0.4511 -1.4995
 8309SOL     OW36559   3.090   2.111   6.783  0.3447 -0.6397 -0.0968
 8309SOL    HW136560   3.051   2.082   6.866  0.2943  1.7722  0.7373
 8309SOL    HW236561   3.090   2.204   6.807  2.6441 -0.9081  0.9724
 8310SOL     OW36562   3.137   1.829   4.317  0.0057 -0.0937 -0.1577
 8310SOL    HW136563   3.136   1.923   4.301  0.3978 -0.0055  0.3272
 8310SOL    HW236564   3.227   1.823   4.347  0.3582 -0.2301 -1.2721
 8311SOL     OW36565   2.426   3.151   2.837 -0.3864  0.3274  0.1991
 8311SOL    HW136566   2.417   3.234   2.885  3.1791  0.8275  0.0108
 8311SOL    HW236567   2.431   3.093   2.913 -0.6930 -1.2036 -0.9606
 8312SOL     OW36568   3.074   3.945   1.366 -0.1432  0.2221 -0.1423
 8312SOL    HW136569   3.090   3.886   1.292 -2.7798 -1.1002  0.3390
 8312SOL    HW236570   2.988   3.981   1.344 -1.5662 -3.6080 -0.8233
 8313SOL     OW36571   2.943   1.567   5.464 -0.4135 -0.2645 -0.1212
 8313SOL    HW136572   3.038   1.559   5.474 -0.2965  0.5384 -0.5512
 8313SOL    HW236573   2.939   1.630   5.392  0.1966  0.0255  0.0942
 8314SOL     OW36574   1.041   4.589   4.807 -0.2957  0.2197  0.2306
 8314SOL    HW136575   0.978   4.589   4.879  0.4206 -1.3285  0.8686
 8314SOL    HW236576   0.988   4.610   4.730  0.2242  2.1972  0.4184
 8315SOL     OW36577   1.024   3.965   3.919  0.2874  0.6273  0.2466
 8315SOL    HW136578   1.068   4.050   3.912  1.0307  0.1097 -1.3246
 8315SOL    HW236579   0.976   3.952   3.837  0.6832 -0.8908  0.2730
 8316SOL     OW36580   1.819   4.281   8.007 -0.2257  0.5258  0.9142
 8316SOL    HW136581   1.830   4.366   7.965 -1.7275  0.7122  0.8823
 8316SOL    HW236582   1.906   4.240   8.002 -0.5194  0.0940 -0.7879
 8317SOL     OW36583   1.512   0.309   8.965  0.7717  0.3107 -0.0310
 8317SOL    HW136584   1.488   0.322   9.057 -3.6162 -1.6794 -0.8832
 8317SOL    HW236585   1.552   0.222   8.968  0.7898  0.3108 -0.3102
 8318SOL     OW36586   1.672   4.584  10.768  0.3311 -0.1537 -0.4070
 8318SOL    HW136587   1.686   4.588  10.673 -0.8197  0.2326 -0.5607
 8318SOL    HW236588   1.711   4.500  10.793 -0.4533 -0.4577 -0.2122
 8319SOL     OW36589   2.721   1.640  14.299  0.5898  0.0277 -0.4276
 8319SOL    HW136590   2.814   1.646  14.322  0.0038  0.5010  1.7861
 8319SOL    HW236591   2.682   1.664  14.383  0.6971  0.1192 -0.4042
 8320SOL     OW36592   1.022   2.047   3.807  0.5358 -0.3753  0.3856
 8320SOL    HW136593   1.066   2.085   3.731 -1.7217  0.8024 -0.3616
 8320SOL    HW236594   1.082   2.081   3.872  1.7436 -1.2762 -0.2620
 8321SOL     OW36595   0.607   3.248   5.381  0.3698 -0.0759 -0.5917
 8321SOL    HW136596   0.598   3.338   5.350  0.2813  0.1329  0.0400
 8321SOL    HW236597   0.522   3.205   5.371  0.6038 -1.0924  1.8763
 8322SOL     OW36598   3.319   2.422   2.633 -0.2378  0.3271  0.4017
 8322SOL    HW136599   3.268   2.354   2.678  0.1767  1.0494  1.9674
 8322SOL    HW236600   3.376   2.453   2.704 -1.9928  0.0325  1.9379
 8323SOL     OW36601   0.113   2.344   3.216 -0.4296  0.1103 -0.3417
 8323SOL    HW136602   0.191   2.320   3.268 -1.8546  0.1375  1.8214
 8323SOL    HW236603   0.068   2.418   3.256  1.2473  1.1291 -0.3252
 8324SOL     OW36604   4.416   4.506   0.888 -0.0165 -0.2956 -0.2462
 8324SOL    HW136605   4.480   4.566   0.925 -0.6778 -0.6256  1.4550
 8324SOL    HW236606   4.479   4.436   0.868  0.5979  0.1384  0.1908
 8325SOL     OW36607   1.391   0.721  13.228 -0.2640  0.1765 -0.2201
 8325SOL    HW136608   1.444   0.764  13.295  2.0703 -2.1796 -0.5703
 8325SOL    HW236609   1.371   0.797  13.174 -2.6447  0.2368  0.7537
 8326SOL     OW36610   1.574   4.652   5.733 -1.1103 -0.4025 -0.2148
 8326SOL    HW136611   1.667   4.632   5.719 -1.3581 -1.6969 -0.0259
 8326SOL    HW236612   1.532   4.571   5.706  0.7821 -1.7157  0.7801
 8327SOL     OW36613   3.762   2.189   7.528  0.2740 -0.3449 -0.6354
 8327SOL    HW136614   3.706   2.131   7.580  1.1933  1.2968  2.1819
 8327SOL    HW236615   3.840   2.186   7.583  0.0126  0.2695 -0.2276
 8328SOL     OW36616   0.347   0.387  14.955  0.2391  0.1028 -0.5391
 8328SOL    HW136617   0.410   0.320  14.982  1.7594  1.3887 -0.8998
 8328SOL    HW236618   0.367   0.405  14.863  1.2450  1.9424  0.0458
 8329SOL     OW36619   3.596   4.527  14.992 -0.1569  0.2862 -0.0223
 8329SOL    HW136620   3.680   4.565  15.015 -0.7474 -0.4422  3.3796
 8329SOL    HW236621   3.566   4.580  14.918 -1.1894 -1.1566 -0.6448
 8330SOL     OW36622   3.335   4.023   4.039 -0.4833  0.5941 -0.1829
 8330SOL    HW136623   3.415   4.019   3.988 -0.8054 -0.5292 -0.6008
 8330SOL    HW236624   3.322   3.935   4.074 -3.2154  0.8527 -0.4826
 8331SOL     OW36625   3.220   4.295   8.716 -0.7137 -0.2418  0.2606
 8331SOL    HW136626   3.201   4.268   8.626 -0.7670 -2.6083  0.9994
 8331SOL    HW236627   3.175   4.232   8.771 -2.1713  1.4683  1.0210
 8332SOL     OW36628   1.165   1.508   7.037 -0.4063  0.2307  0.1585
 8332SOL    HW136629   1.119   1.430   7.069  0.2095 -0.8096 -1.5033
 8332SOL    HW236630   1.113   1.538   6.963  0.1687 -2.1229 -1.2086
 8333SOL     OW36631   0.899   2.217  15.466 -1.2426  0.2958 -0.0219
 8333SOL    HW136632   0.970   2.171  15.423 -0.5218  1.1380  0.2691
 8333SOL    HW236633   0.919   2.196  15.557  2.7397 -0.2097 -1.0378
 8334SOL     OW36634   0.046   2.345   6.350  0.0512 -0.1726 -0.8102
 8334SOL    HW136635   0.141   2.348   6.347  0.1259 -2.2236  0.3209
 8334SOL    HW236636   0.026   2.435   6.322 -0.3931 -0.4931 -1.5546
 8335SOL     OW36637   4.191   3.282   2.807  1.0247  0.4809  0.1128
 8335SOL    HW136638   4.210   3.261   2.716  0.8278 -1.1785  0.4583
 8335SOL    HW236639   4.247   3.358   2.825 -0.9708  1.9647  0.0941
 8336SOL     OW36640   1.416   4.453  13.826 -0.0259  0.1941 -0.0437
 8336SOL    HW136641   1.391   4.539  13.794  1.0756 -1.1239 -4.4120
 8336SOL    HW236642   1.430   4.485  13.915  0.6315  3.5003 -1.3317
 8337SOL     OW36643   1.359   0.872   6.290  0.2264  0.6406 -0.1947
 8337SOL    HW136644   1.417   0.796   6.285  1.6567  1.7455 -0.5226
 8337SOL    HW236645   1.276   0.825   6.297  0.4199  0.1890 -0.9204
 8338SOL     OW36646   0.501   0.744   5.806 -0.6227 -0.1642  0.2376
 8338SOL    HW136647   0.445   0.681   5.760  1.7107 -1.4777 -0.8356
 8338SOL    HW236648   0.542   0.691   5.874  0.2758 -1.3908 -1.2350
 8339SOL     OW36649   3.737   3.389  11.952  0.0022  0.3306  0.1553
 8339SOL    HW136650   3.746   3.483  11.935 -0.7141  1.1358  4.2395
 8339SOL    HW236651   3.648   3.381  11.919  0.8687 -1.3322 -1.8355
 8340SOL     OW36652   4.204   0.759   5.923 -0.1105  0.0389  0.5025
 8340SOL    HW136653   4.120   0.722   5.950 -0.6901 -0.4854 -1.9965
 8340SOL    HW236654   4.245   0.681   5.886 -1.5731 -0.7364  0.4942
 8341SOL     OW36655   4.487   4.472  14.688  0.3141 -0.4724  0.4884
 8341SOL    HW136656   4.459   4.411  14.621  1.7116  1.0712 -1.4890
 8341SOL    HW236657   4.456   4.556  14.655 -1.3428 -1.6604 -0.9003
 8342SOL     OW36658   2.392   3.207   8.168 -0.2928  0.2752 -0.0026
 8342SOL    HW136659   2.350   3.124   8.148 -1.6014  0.6175  1.2934
 8342SOL    HW236660   2.425   3.182   8.255  0.1366 -1.8685 -0.7879
 8343SOL     OW36661   2.979   1.302   5.905 -0.1796  0.3145  0.8005
 8343SOL    HW136662   3.014   1.270   5.822  0.2502 -0.4538  1.2713
 8343SOL    HW236663   2.992   1.228   5.966 -0.0251 -0.3141  0.0042
 8344SOL     OW36664   2.561   4.078   3.163  0.0765 -0.0679  0.6469
 8344SOL    HW136665   2.598   4.048   3.080 -1.8083  1.0688 -0.5908
 8344SOL    HW236666   2.599   4.011   3.219  0.9007 -0.4189 -0.3250
 8345SOL     OW36667   1.909   0.435  10.120  0.6166 -0.0455  0.0410
 8345SOL    HW136668   1.896   0.398  10.033 -2.3114 -0.9729  0.8771
 8345SOL    HW236669   1.891   0.527  10.100 -0.3890 -0.6094 -1.6610
 8346SOL     OW36670   2.507   0.859  11.469 -0.1642  0.8475  0.0977
 8346SOL    HW136671   2.504   0.889  11.559 -1.9237 -1.3352  0.7786
 8346SOL    HW236672   2.525   0.938  11.418  0.7277 -0.4254 -1.5789
 8347SOL     OW36673   3.627   3.130   5.040  0.0634  0.1764  0.0362
 8347SOL    HW136674   3.648   3.102   5.129 -0.0276 -0.0035  0.0017
 8347SOL    HW236675   3.611   3.224   5.050  1.4293  0.3696  0.3507
 8348SOL     OW36676   2.063   0.477  11.185 -0.2159 -0.2428  0.4335
 8348SOL    HW136677   2.005   0.551  11.202  2.8104  1.9568  1.0787
 8348SOL    HW236678   2.107   0.472  11.269 -1.2714  1.0328  1.0627
 8349SOL     OW36679   0.256   3.552   4.502  0.6952 -0.9889  0.8961
 8349SOL    HW136680   0.344   3.589   4.492 -0.0026  0.6168  0.5896
 8349SOL    HW236681   0.261   3.585   4.592  2.0963 -2.1033  1.2264
 8350SOL     OW36682   1.808   4.656   6.217  0.0790 -0.2116  0.0339
 8350SOL    HW136683   1.839   4.690   6.134 -0.0725  0.2899  0.1817
 8350SOL    HW236684   1.886   4.619   6.257 -1.5365 -1.8655  1.6848
 8351SOL     OW36685   2.168   2.746   7.516 -0.0703  0.0643  0.2965
 8351SOL    HW136686   2.121   2.724   7.436  0.4990  0.2035 -0.0788
 8351SOL    HW236687   2.145   2.680   7.582 -1.7830  0.3262 -0.0524
 8352SOL     OW36688   3.209   4.147  15.962  0.7259  0.5527 -0.4210
 8352SOL    HW136689   3.197   4.241  15.979  1.3083  0.3413  1.1874
 8352SOL    HW236690   3.154   4.113  16.033 -0.2198  3.9256  0.4941
 8353SOL     OW36691   1.982   0.233   4.416  0.7271 -0.1394 -0.5695
 8353SOL    HW136692   2.013   0.308   4.467  1.2670 -0.9340  0.2846
 8353SOL    HW236693   1.968   0.171   4.488 -0.6303  2.7546  1.6427
 8354SOL     OW36694   1.499   3.248   4.069 -0.0589 -0.3808  0.2880
 8354SOL    HW136695   1.555   3.317   4.105 -0.8247  1.1626 -1.4506
 8354SOL    HW236696   1.566   3.181   4.071  0.6254  0.3656  1.9183
 8355SOL     OW36697   1.771   3.769   6.963  0.2764 -0.2091 -0.2260
 8355SOL    HW136698   1.810   3.682   6.978  1.1851  0.1914 -0.2739
 8355SOL    HW236699   1.679   3.748   6.944  0.1695 -2.4611  2.6082
 8356SOL     OW36700   3.593   4.266   6.280 -0.4900  0.0112 -0.5800
 8356SOL    HW136701   3.581   4.202   6.210  0.1040 -2.7361  1.8135
 8356SOL    HW236702   3.579   4.354   6.246 -1.5996 -0.7221 -2.0385
 8357SOL     OW36703   1.890   1.786   8.710  0.2102  0.2032 -0.0916
 8357SOL    HW136704   1.968   1.778   8.764  1.1672 -0.7103 -1.6044
 8357SOL    HW236705   1.908   1.714   8.649  0.0864 -0.1464  0.2815
 8358SOL     OW36706   0.796   1.070   9.652  0.1567  0.0496  0.1169
 8358SOL    HW136707   0.885   1.104   9.659  0.5988 -1.2667  0.8725
 8358SOL    HW236708   0.817   0.979   9.628 -1.4155  0.3012 -2.2401
 8359SOL     OW36709   1.881   1.643   2.711  0.5090 -0.0058 -0.4958
 8359SOL    HW136710   1.895   1.737   2.724  1.0620 -0.4994  2.6139
 8359SOL    HW236711   1.869   1.619   2.803  0.4321  1.4870 -0.1178
 8360SOL     OW36712   0.683   2.770   8.779  0.1046  0.2974  0.3064
 8360SOL    HW136713   0.626   2.704   8.817 -1.2857  0.7438 -0.9922
 8360SOL    HW236714   0.686   2.837   8.848 -2.8798  0.5213  0.2297
 8361SOL     OW36715   1.968   3.883   4.849 -0.5281 -0.5567 -0.8526
 8361SOL    HW136716   1.945   3.941   4.922 -2.4271  0.1272 -1.9905
 8361SOL    HW236717   1.889   3.830   4.849 -1.9827  1.6141  0.4527
 8362SOL     OW36718   1.807   3.092  12.263  0.2485  0.2292  0.5359
 8362SOL    HW136719   1.866   3.019  12.243  2.4533  2.4509 -1.0335
 8362SOL    HW236720   1.722   3.047  12.261  1.2324 -1.7802  3.3585
 8363SOL     OW36721   1.158   3.744   5.551  0.3254  0.2915 -0.2376
 8363SOL    HW136722   1.228   3.774   5.609  0.9343 -2.4878  0.4507
 8363SOL    HW236723   1.105   3.820   5.576 -0.4319  0.1066 -1.2883
 8364SOL     OW36724   0.007   3.273   4.579 -0.0574  0.3832  0.3736
 8364SOL    HW136725   0.096   3.308   4.588  0.4553 -0.6695 -0.5294
 8364SOL    HW236726   0.026   3.224   4.498 -0.3038  1.6895 -0.4775
 8365SOL     OW36727   2.768   0.834   8.349 -0.2868 -0.2806  0.1519
 8365SOL    HW136728   2.719   0.852   8.429  0.1405  2.3821 -0.1827
 8365SOL    HW236729   2.767   0.739   8.338 -1.8324 -0.4011  1.3981
 8366SOL     OW36730   1.330   2.767  15.973  0.3449 -0.2375  0.3576
 8366SOL    HW136731   1.374   2.786  15.891  0.5102 -0.2058  0.4543
 8366SOL    HW236732   1.290   2.683  15.951 -0.9550  0.3129  0.5885
 8367SOL     OW36733   2.146   4.486  17.022 -0.3183 -0.4101 -0.0666
 8367SOL    HW136734   2.162   4.410  16.965  1.0676 -0.8189  0.8770
 8367SOL    HW236735   2.127   4.548  16.952  3.0177 -0.9163 -1.4291
 8368SOL     OW36736   2.565   3.828   3.704 -0.1283  0.5044 -0.3588
 8368SOL    HW136737   2.587   3.790   3.619  0.7393  1.2606 -0.4765
 8368SOL    HW236738   2.546   3.741   3.738  2.6541  0.4856  1.2072
 8369SOL     OW36739   1.476   2.386  11.188  0.4390 -0.0335  0.5440
 8369SOL    HW136740   1.424   2.329  11.131  0.3163  0.6977 -0.0760
 8369SOL    HW236741   1.544   2.320  11.203 -0.4471 -0.9007  0.7658
 8370SOL     OW36742   0.401   2.815   5.175 -0.1064 -0.1160 -0.1529
 8370SOL    HW136743   0.461   2.762   5.122 -0.0393  1.0996 -1.2992
 8370SOL    HW236744   0.376   2.749   5.240  2.9322 -0.6645  0.4484
 8371SOL     OW36745   3.654   1.733   2.115 -1.0948  0.3510  0.4203
 8371SOL    HW136746   3.726   1.789   2.144 -2.6305  3.6702 -2.1357
 8371SOL    HW236747   3.599   1.797   2.070  2.3100  3.3721  0.5916
 8372SOL     OW36748   0.603   1.567   3.826  0.0015 -0.0439  0.1874
 8372SOL    HW136749   0.635   1.652   3.795 -3.1385  0.6282 -1.1662
 8372SOL    HW236750   0.547   1.540   3.753  0.3322  2.9092 -1.1516
 8373SOL     OW36751   2.813   1.607  17.630  0.5275 -0.2757 -0.5476
 8373SOL    HW136752   2.777   1.547  17.696  0.4606 -2.5778 -2.6607
 8373SOL    HW236753   2.796   1.546  17.558  0.1328  0.0568 -0.7310
 8374SOL     OW36754   2.825   0.392   9.630  0.1717  0.1685 -0.6366
 8374SOL    HW136755   2.877   0.332   9.682 -0.2533  0.2342 -0.1329
 8374SOL    HW236756   2.845   0.475   9.674 -1.4274  0.5763 -0.6746
 8375SOL     OW36757   2.564   0.827   6.146 -0.0882  0.3420  0.5774
 8375SOL    HW136758   2.549   0.917   6.116  4.3033  0.6038 -0.7878
 8375SOL    HW236759   2.477   0.807   6.181 -0.0092  1.0334  1.1642
 8376SOL     OW36760   3.776   0.482   1.682 -1.0269  0.3331  0.3701
 8376SOL    HW136761   3.741   0.570   1.668  1.2833  1.3166  0.7477
 8376SOL    HW236762   3.719   0.443   1.748 -0.4833 -0.9796  0.0687
 8377SOL     OW36763   2.461   1.946   7.542  0.3568  0.4250 -0.0611
 8377SOL    HW136764   2.385   1.923   7.596 -0.5872  0.0214 -1.5534
 8377SOL    HW236765   2.495   1.861   7.515  2.4378  1.3943 -0.4433
 8378SOL     OW36766   2.214   1.213   0.383 -0.0899 -0.3078  0.3596
 8378SOL    HW136767   2.233   1.266   0.460 -0.4203  0.3151  0.0191
 8378SOL    HW236768   2.218   1.279   0.313 -2.6897  1.1095  1.5397
 8379SOL     OW36769   4.335   2.814   5.611  0.2519  0.4118 -0.3692
 8379SOL    HW136770   4.281   2.866   5.552 -2.5462 -1.7776  0.2361
 8379SOL    HW236771   4.418   2.862   5.612  0.8718 -0.6372 -0.5989
 8380SOL     OW36772   1.809   4.256   6.903 -0.3317 -0.4066  0.4348
 8380SOL    HW136773   1.778   4.335   6.860  0.7672  0.6267  1.5366
 8380SOL    HW236774   1.828   4.280   6.994 -0.4537  0.1823  0.2988
 8381SOL     OW36775   0.870   3.191   4.881  0.1626 -0.2096 -0.3505
 8381SOL    HW136776   0.951   3.146   4.858  0.3027 -1.2737  2.1638
 8381SOL    HW236777   0.840   3.221   4.796 -3.3034 -1.1923  0.5506
 8382SOL     OW36778   0.231   2.477   3.512  0.1203  0.0824  0.0109
 8382SOL    HW136779   0.157   2.526   3.476  0.8212  1.1566  0.0329
 8382SOL    HW236780   0.296   2.544   3.492  1.6007 -0.7521  2.1163
 8383SOL     OW36781   1.852   3.643  12.169 -0.1092 -0.1151 -0.6152
 8383SOL    HW136782   1.779   3.584  12.184  0.9041 -0.4630  3.0383
 8383SOL    HW236783   1.809   3.706  12.110 -0.5224 -0.6983 -0.9297
 8384SOL     OW36784   2.813   2.252  12.268 -0.0055  0.1185  0.1017
 8384SOL    HW136785   2.819   2.295  12.183 -0.4287  2.9515  1.4920
 8384SOL    HW236786   2.829   2.317  12.337  3.8526 -1.1033  0.3435
 8385SOL     OW36787   1.142   2.543  11.630  1.0689  0.9708 -0.1786
 8385SOL    HW136788   1.214   2.502  11.581  2.0847  0.4819  1.7147
 8385SOL    HW236789   1.065   2.491  11.606 -0.3012  3.6375 -1.5013
 8386SOL     OW36790   4.130   3.339   2.159  0.4460 -0.1663  0.1996
 8386SOL    HW136791   4.114   3.433   2.154  0.2689 -0.1997  0.1366
 8386SOL    HW236792   4.061   3.301   2.213  0.3107 -0.7751 -0.4063
 8387SOL     OW36793   4.241   2.259   8.405 -0.7838 -0.2718  0.2342
 8387SOL    HW136794   4.308   2.317   8.441 -0.5763  0.2326 -0.9698
 8387SOL    HW236795   4.275   2.176   8.438 -0.2690 -0.3941 -0.6092
 8388SOL     OW36796   3.322   2.353   5.816 -0.0033  0.0547  0.5910
 8388SOL    HW136797   3.367   2.309   5.744  0.6946  0.8361  0.5437
 8388SOL    HW236798   3.371   2.304   5.882  0.6157  1.9041  1.5040
 8389SOL     OW36799   1.959   1.372  16.884  0.1588 -0.8020  0.0045
 8389SOL    HW136800   1.945   1.280  16.908  1.2831 -0.8100  0.6095
 8389SOL    HW236801   2.028   1.390  16.947  0.7966 -1.8390 -0.3945
 8390SOL     OW36802   4.091   1.874  10.101  0.1879  0.2120  0.0286
 8390SOL    HW136803   4.084   1.834  10.187 -1.3277 -0.0701 -0.2179
 8390SOL    HW236804   4.054   1.809  10.041 -1.1395  0.8628  0.1320
 8391SOL     OW36805   1.331   2.141  11.050 -0.4577 -0.4652 -0.4144
 8391SOL    HW136806   1.253   2.175  11.008  0.3889  0.0072 -1.6154
 8391SOL    HW236807   1.288   2.098  11.124 -0.6428 -1.2172 -0.9612
 8392SOL     OW36808   1.446   2.393   3.092  0.1601  0.8089 -0.2606
 8392SOL    HW136809   1.418   2.399   3.001  1.4788  2.0023 -0.5895
 8392SOL    HW236810   1.500   2.314   3.089 -1.8638 -0.5128 -1.2801
 8393SOL     OW36811   3.381   3.143  10.217  0.1974 -0.8285 -0.2785
 8393SOL    HW136812   3.333   3.214  10.260  1.0495 -1.2881  1.4461
 8393SOL    HW236813   3.453   3.142  10.280  0.1118  1.2665 -0.1665
 8394SOL     OW36814   2.544   3.797   4.772 -0.8124 -0.5969 -0.1700
 8394SOL    HW136815   2.586   3.757   4.696 -1.0791  0.0422 -0.6505
 8394SOL    HW236816   2.556   3.890   4.751 -1.6645 -0.6796 -1.0109
 8395SOL     OW36817   1.366   1.705  12.380  0.1221  0.2660 -0.1225
 8395SOL    HW136818   1.425   1.638  12.347  0.4809  0.9613 -0.8918
 8395SOL    HW236819   1.328   1.676  12.463  2.0112 -2.0400 -0.0682
 8396SOL     OW36820   3.114   3.522   5.391 -0.3150  0.1578 -0.1352
 8396SOL    HW136821   3.056   3.572   5.448 -0.2642 -1.3258  1.2160
 8396SOL    HW236822   3.078   3.436   5.412  0.4547 -0.4345 -1.2893
 8397SOL     OW36823   0.910   1.358   3.332  0.2336  0.1050  0.7120
 8397SOL    HW136824   0.862   1.410   3.268 -0.4033  0.0876  1.1654
 8397SOL    HW236825   0.996   1.377   3.295 -0.1982  1.1527  0.2574
 8398SOL     OW36826   1.144   3.228  11.329  0.0245  0.6810  0.5042
 8398SOL    HW136827   1.091   3.292  11.282 -1.8092 -0.0401  1.5587
 8398SOL    HW236828   1.109   3.240  11.418 -0.2090 -2.4825  0.8586
 8399SOL     OW36829   0.150   2.620   2.783 -0.0641  0.1796 -0.3315
 8399SOL    HW136830   0.195   2.575   2.854 -0.2025  1.2649  0.4393
 8399SOL    HW236831   0.060   2.615   2.814  0.3800 -3.9298  0.2758
 8400SOL     OW36832   2.676   1.583  11.747 -0.5600  0.3592 -0.2566
 8400SOL    HW136833   2.740   1.653  11.760  2.3742 -2.3219 -0.3128
 8400SOL    HW236834   2.628   1.574  11.829  1.2544  0.6837  0.8487
 8401SOL     OW36835   0.975   4.278  13.085 -0.2158  0.1447  0.5146
 8401SOL    HW136836   1.019   4.333  13.021 -0.2155  1.4539  1.6410
 8401SOL    HW236837   0.947   4.348  13.144  0.8096 -0.7678  2.0918
 8402SOL     OW36838   0.229   2.175   0.682 -0.2311 -0.1178  0.7616
 8402SOL    HW136839   0.294   2.156   0.749 -1.2629 -2.6114  1.0394
 8402SOL    HW236840   0.276   2.219   0.611  1.2226 -3.0225 -0.0939
 8403SOL     OW36841   4.731   3.495   6.941 -0.6854 -0.1672  0.0583
 8403SOL    HW136842   4.674   3.569   6.961  0.4668  0.8125 -0.3226
 8403SOL    HW236843   0.075   3.538   6.935 -1.2302  0.9373  0.3437
 8404SOL     OW36844   2.604   2.353   1.640 -0.6020 -0.2835 -0.2022
 8404SOL    HW136845   2.590   2.277   1.584 -2.6377  0.6385 -0.9350
 8404SOL    HW236846   2.519   2.397   1.640 -0.2479  0.3983  0.8564
 8405SOL     OW36847   3.072   3.802  11.190 -0.2443  0.3980 -0.9365
 8405SOL    HW136848   3.071   3.738  11.261 -1.8538  0.2214 -1.1047
 8405SOL    HW236849   3.134   3.867  11.222  1.1124 -0.1585 -2.4199
 8406SOL     OW36850   1.558   4.664   1.917  0.1047 -0.0985 -0.1036
 8406SOL    HW136851   1.468   4.695   1.929 -0.3725 -2.5188  2.4788
 8406SOL    HW236852   1.570   4.649   1.824  2.6356  2.1428 -0.1533
 8407SOL     OW36853   1.520   2.268  17.651  0.2030 -0.5113 -0.8029
 8407SOL    HW136854   1.442   2.217  17.674  0.9308 -0.0695  2.6776
 8407SOL    HW236855   1.549   2.308  17.733 -0.3368 -1.1994 -0.2794
 8408SOL     OW36856   3.885   2.838  10.094  0.4436 -0.6640 -0.2004
 8408SOL    HW136857   3.908   2.748  10.116  0.5968 -0.2427  1.4089
 8408SOL    HW236858   3.819   2.857  10.161  0.5590  0.0485 -0.2934
 8409SOL     OW36859   1.032   3.758   1.870 -0.5857  0.0117 -0.5806
 8409SOL    HW136860   0.942   3.773   1.839 -0.7289 -0.5969 -0.4660
 8409SOL    HW236861   1.026   3.830   1.933  1.5030 -1.5808  1.4320
 8410SOL     OW36862   4.527   2.070   9.351  0.0775  0.7538  0.2137
 8410SOL    HW136863   4.499   2.157   9.324  0.4710  0.8556  0.1436
 8410SOL    HW236864   4.451   2.018   9.379 -0.4864  0.7028 -1.4365
 8411SOL     OW36865   1.352   0.675   2.683 -0.5075 -0.0892 -0.4296
 8411SOL    HW136866   1.270   0.667   2.633 -0.4474 -2.7049 -0.0820
 8411SOL    HW236867   1.415   0.698   2.614  1.2391 -1.4066  0.7569
 8412SOL     OW36868   1.278   3.692  10.614  0.1345 -0.1605 -0.3064
 8412SOL    HW136869   1.316   3.720  10.697  0.7563  1.3743 -1.1035
 8412SOL    HW236870   1.342   3.621  10.606  0.8603  0.7958 -3.0395
 8413SOL     OW36871   2.191   2.210   2.371  0.3837  0.0772 -0.3115
 8413SOL    HW136872   2.203   2.160   2.451  0.0978  0.5595  0.0323
 8413SOL    HW236873   2.273   2.259   2.368  0.4586  0.0481  1.6959
 8414SOL     OW36874   2.011   4.512  15.038  0.2153 -0.0156 -0.0646
 8414SOL    HW136875   1.961   4.534  14.960 -0.1475  0.6394  0.3468
 8414SOL    HW236876   1.946   4.481  15.101 -0.0309 -1.1017 -0.8445
 8415SOL     OW36877   1.645   0.368   4.534  0.5517  0.1502  0.1092
 8415SOL    HW136878   1.568   0.418   4.506  1.9907  3.3467  1.7954
 8415SOL    HW236879   1.697   0.424   4.591 -1.2568  0.7744  1.1552
 8416SOL     OW36880   1.459   4.538   3.623 -0.1258 -0.0406  0.4153
 8416SOL    HW136881   1.368   4.510   3.617 -1.6458  5.6795 -3.1250
 8416SOL    HW236882   1.496   4.512   3.539 -3.8202 -1.5350 -0.7216
 8417SOL     OW36883   4.172   0.858   8.845  0.4205  0.2207 -0.3209
 8417SOL    HW136884   4.167   0.813   8.930 -3.0660  0.8876 -0.1813
 8417SOL    HW236885   4.124   0.791   8.797  0.0920  0.3827 -0.2156
 8418SOL     OW36886   3.735   4.144   5.832  0.3364  0.2624  0.2578
 8418SOL    HW136887   3.795   4.069   5.832  0.5807  0.4688 -0.8323
 8418SOL    HW236888   3.727   4.155   5.738 -1.0221 -2.3665  0.0901
 8419SOL     OW36889   3.981   3.900  17.223  0.0743  0.6435 -0.5145
 8419SOL    HW136890   4.028   3.886  17.141 -1.0778 -0.5313 -0.9744
 8419SOL    HW236891   3.946   3.987  17.206  1.9269  1.4911  0.1016
 8420SOL     OW36892   4.261   2.062   1.379  0.3903  0.0636 -0.6406
 8420SOL    HW136893   4.215   2.133   1.334  1.2232  1.0885  0.1205
 8420SOL    HW236894   4.291   2.026   1.295 -2.1553  0.0864 -1.5504
 8421SOL     OW36895   1.231   3.095   9.006  0.2934  0.4507 -0.1206
 8421SOL    HW136896   1.176   3.143   9.068  0.8792  1.4573 -0.3977
 8421SOL    HW236897   1.317   3.103   9.046  1.4469 -0.6271 -2.4249
 8422SOL     OW36898   2.590   2.894   6.518  0.1877  0.2510 -0.5452
 8422SOL    HW136899   2.682   2.897   6.544 -0.1572  0.0838  0.7351
 8422SOL    HW236900   2.563   2.818   6.571 -0.4856  1.2312  0.5285
 8423SOL     OW36901   2.841   3.399   2.975 -0.5303  0.2377  0.2834
 8423SOL    HW136902   2.845   3.338   2.901  0.1942  0.1633  0.3884
 8423SOL    HW236903   2.913   3.452   2.941 -0.6730 -1.3333 -2.5156
 8424SOL     OW36904   4.369   0.741  15.999  0.2642 -0.2022  0.5110
 8424SOL    HW136905   4.403   0.775  16.082  1.8005  0.3087 -0.3215
 8424SOL    HW236906   4.325   0.816  15.961  1.5025  0.1026 -0.3246
 8425SOL     OW36907   1.979   3.631   8.497 -0.6555  0.1691 -0.0484
 8425SOL    HW136908   2.066   3.671   8.490 -0.6941  0.2264 -0.2072
 8425SOL    HW236909   1.924   3.709   8.492 -1.4963 -0.4312 -0.2017
 8426SOL     OW36910   4.147   2.732   4.442 -0.2436  0.3747 -0.3533
 8426SOL    HW136911   4.126   2.738   4.349  2.9739 -0.0193 -1.0890
 8426SOL    HW236912   4.205   2.807   4.453 -0.3950  0.5979 -1.0828
 8427SOL     OW36913   2.844   3.511   5.097  0.1214  0.7071  0.0174
 8427SOL    HW136914   2.834   3.535   5.189  2.3158 -2.3511  1.0587
 8427SOL    HW236915   2.781   3.567   5.052 -1.9829 -1.6861 -0.0233
 8428SOL     OW36916   4.269   0.450  11.040  0.1613 -0.3073  0.1136
 8428SOL    HW136917   4.253   0.407  11.124  2.3375 -0.3066  0.5219
 8428SOL    HW236918   4.237   0.539  11.056  0.6477 -0.1377  0.1372
 8429SOL     OW36919   2.838   1.998   9.362  0.3374 -0.3695 -0.4067
 8429SOL    HW136920   2.857   2.091   9.360 -0.4624 -0.1916  0.3219
 8429SOL    HW236921   2.872   1.975   9.275  0.9282 -0.8692 -0.0479
 8430SOL     OW36922   0.010   2.108  11.150 -0.3324  0.3656  0.3232
 8430SOL    HW136923   4.731   2.068  11.235 -2.9314  1.0360  0.0390
 8430SOL    HW236924   4.726   2.201  11.155 -0.0273  0.4185  0.8167
 8431SOL     OW36925   3.017   3.062   0.870 -0.0743  0.5748 -0.0778
 8431SOL    HW136926   3.025   3.092   0.960  0.5906  1.6299 -0.4852
 8431SOL    HW236927   3.075   2.986   0.879 -3.1645 -1.7538  0.2400
 8432SOL     OW36928   1.112   3.923   6.731  0.8737 -0.2877 -0.2503
 8432SOL    HW136929   1.178   3.984   6.763 -0.2136  1.2179 -0.8547
 8432SOL    HW236930   1.169   3.848   6.716  2.5744  1.0499 -0.5448
 8433SOL     OW36931   2.575   1.543   7.240 -0.1103  0.0296  0.0772
 8433SOL    HW136932   2.539   1.561   7.153  1.3452 -0.9221 -0.7161
 8433SOL    HW236933   2.612   1.456   7.226  0.0716  0.2888 -1.0299
 8434SOL     OW36934   2.130   2.127   0.038  0.0991 -0.0740 -0.4467
 8434SOL    HW136935   2.130   2.094   0.128 -0.6030  1.5809  0.1601
 8434SOL    HW236936   2.170   2.213   0.047 -0.3363  0.1586 -0.7423
 8435SOL     OW36937   2.047   0.712   9.237  0.0900 -0.6350  0.1055
 8435SOL    HW136938   2.105   0.759   9.298 -2.7517  0.2562  2.0913
 8435SOL    HW236939   2.104   0.666   9.176  1.0994  0.3972  0.2720
 8436SOL     OW36940   0.074   2.508   4.234  0.0105  0.3625 -0.6792
 8436SOL    HW136941   0.050   2.542   4.148 -0.5337  3.9744  0.8513
 8436SOL    HW236942   0.036   2.570   4.297 -0.8074 -1.2440  0.3940
 8437SOL     OW36943   3.563   3.344   6.432 -0.1994  0.2042  0.0115
 8437SOL    HW136944   3.582   3.431   6.397 -0.0903  0.3628  0.4680
 8437SOL    HW236945   3.528   3.293   6.359  0.7109  0.3354 -0.5223
 8438SOL     OW36946   4.012   4.617   5.817 -0.0959  0.2269 -0.4339
 8438SOL    HW136947   3.927   4.641   5.780 -0.1558 -2.0291 -1.7950
 8438SOL    HW236948   4.056   4.576   5.742 -0.6750 -1.7168  0.2794
 8439SOL     OW36949   2.717   3.873   3.999  0.0536 -0.0165 -0.2244
 8439SOL    HW136950   2.740   3.820   3.923  1.0352  0.7848 -0.4918
 8439SOL    HW236951   2.802   3.882   4.043 -0.1875  0.0556  0.2305
 8440SOL     OW36952   2.098   0.948  10.687 -0.3590 -0.0362 -0.1189
 8440SOL    HW136953   2.034   0.884  10.656  0.8038 -0.2226 -2.1233
 8440SOL    HW236954   2.166   0.880  10.685 -1.1093 -0.8187  0.7396
 8441SOL     OW36955   2.348   4.128   7.184  0.4513 -0.6574 -0.3430
 8441SOL    HW136956   2.256   4.124   7.157  0.1313 -2.5395  0.9828
 8441SOL    HW236957   2.357   4.186   7.260 -1.3636 -1.2923  0.3674
 8442SOL     OW36958   3.946   0.127  12.059 -0.1132  0.1393  0.1459
 8442SOL    HW136959   3.878   0.082  12.109 -0.9584  0.8435 -0.3808
 8442SOL    HW236960   3.993   0.164  12.134  0.0933 -1.8121  0.9649
 8443SOL     OW36961   1.352   2.170  11.745  0.2554 -0.1807 -0.2345
 8443SOL    HW136962   1.409   2.170  11.667 -0.3466 -0.1456 -0.6733
 8443SOL    HW236963   1.280   2.122  11.703  1.6447 -0.7901 -1.9359
 8444SOL     OW36964   4.404   0.954   5.045 -0.3584 -0.3165 -0.2750
 8444SOL    HW136965   4.459   1.032   5.038 -0.7090 -0.0319  0.1512
 8444SOL    HW236966   4.336   0.970   4.980 -0.9880  1.1780  0.7603
 8445SOL     OW36967   1.566   0.084  15.682 -0.3410  0.0167 -0.4670
 8445SOL    HW136968   1.558   4.738  15.644 -1.8418 -0.1047  0.1527
 8445SOL    HW236969   1.483   0.122  15.652 -1.7386 -2.6475  0.0662
 8446SOL     OW36970   1.581   1.654   8.660 -0.2140 -1.0635 -0.0094
 8446SOL    HW136971   1.646   1.669   8.592 -0.2525 -1.4144 -0.1230
 8446SOL    HW236972   1.545   1.742   8.663  1.5650 -0.3620  0.6626
 8447SOL     OW36973   3.592   4.369  15.243  0.7955  0.0308 -0.0389
 8447SOL    HW136974   3.548   4.287  15.220  1.8999 -0.6777  0.3457
 8447SOL    HW236975   3.592   4.422  15.163  1.3756  0.5112  0.2855
 8448SOL     OW36976   3.681   1.488   5.548  0.3198  0.0388 -0.1691
 8448SOL    HW136977   3.733   1.468   5.470  1.3028 -0.2375  0.5584
 8448SOL    HW236978   3.736   1.473   5.625 -0.5283  1.9002  0.7943
 8449SOL     OW36979   1.431   1.526  11.946  0.0993  0.3392  0.1068
 8449SOL    HW136980   1.420   1.570  11.861 -1.7450  0.0247  0.1813
 8449SOL    HW236981   1.498   1.581  11.987  0.9360  1.5816 -2.9204
 8450SOL     OW36982   2.705   2.623   2.405 -0.0176 -0.2765  0.0051
 8450SOL    HW136983   2.631   2.599   2.462 -1.7404  0.9595 -1.7382
 8450SOL    HW236984   2.675   2.686   2.340 -0.8094  0.5202  1.1305
 8451SOL     OW36985   3.205   1.418   8.369 -0.2785 -0.0287  0.1263
 8451SOL    HW136986   3.126   1.441   8.320  0.6827  1.7961 -0.5566
 8451SOL    HW236987   3.257   1.492   8.339  0.4025 -1.0346 -1.1875
 8452SOL     OW36988   0.963   1.044   8.044 -0.1547  0.1433 -0.0790
 8452SOL    HW136989   0.968   0.950   8.058 -0.0963  0.1255 -0.2282
 8452SOL    HW236990   1.055   1.070   8.043  0.1002 -0.6461  1.7543
 8453SOL     OW36991   1.526   1.780   9.072 -0.4606 -0.2240 -0.1591
 8453SOL    HW136992   1.522   1.701   9.019 -1.0579  0.0220 -0.4919
 8453SOL    HW236993   1.432   1.798   9.076 -0.9853 -2.9586 -0.0110
 8454SOL     OW36994   3.064   2.837   0.301 -0.4992  0.4358 -0.2294
 8454SOL    HW136995   3.047   2.931   0.304  0.0382  0.5275 -0.0007
 8454SOL    HW236996   3.018   2.821   0.219 -1.8639  0.7204  0.4871
 8455SOL     OW36997   0.730   0.200   4.322  0.3444  0.2249 -0.1351
 8455SOL    HW136998   0.768   0.242   4.245  1.2896  0.9851  0.7454
 8455SOL    HW236999   0.784   0.121   4.325  1.4760  0.9436 -1.8466
 8456SOL     OW37000   1.767   1.576  15.075 -0.6370 -0.1636 -0.3251
 8456SOL    HW137001   1.755   1.485  15.050 -1.9664  0.8124 -3.2487
 8456SOL    HW237002   1.812   1.571  15.160 -0.8979 -0.2056 -0.1895
 8457SOL     OW37003   2.229   3.215   6.066  0.5025  0.3051 -0.3639
 8457SOL    HW137004   2.311   3.167   6.075  0.0520 -0.1905  0.9960
 8457SOL    HW237005   2.194   3.188   5.981 -1.2403  0.0047  0.4561
 8458SOL     OW37006   0.210   1.084   7.968 -0.5169  0.2556 -0.5717
 8458SOL    HW137007   0.305   1.086   7.980 -0.5030  1.1833 -0.8525
 8458SOL    HW237008   0.183   1.143   8.038  0.5659 -1.6484  1.4647
 8459SOL     OW37009   4.620   3.731   8.202  0.0210 -0.1327  0.0024
 8459SOL    HW137010   4.686   3.679   8.156  0.8359  0.2388  0.7573
 8459SOL    HW237011   4.542   3.687   8.168 -1.1749  0.7112  1.6077
 8460SOL     OW37012   2.844   4.368   3.136  0.5239 -0.3974  0.2600
 8460SOL    HW137013   2.898   4.439   3.101  0.4572 -0.4714  0.0027
 8460SOL    HW237014   2.764   4.363   3.083  2.3639  1.8117 -2.6843
 8461SOL     OW37015   4.662   0.948   6.168 -0.3454  0.2325 -0.0553
 8461SOL    HW137016   0.013   0.925   6.163  0.9268  5.1173  1.4428
 8461SOL    HW237017   4.624   0.878   6.222  3.9085 -0.0419  2.5273
 8462SOL     OW37018   4.484   0.739   8.193  0.1349 -0.7170 -0.4992
 8462SOL    HW137019   4.397   0.706   8.213 -0.7348  1.6831 -0.3465
 8462SOL    HW237020   4.492   0.737   8.098 -0.0177 -1.7478 -0.4874
 8463SOL     OW37021   1.054   0.732   3.202  0.5243 -0.1968 -0.0223
 8463SOL    HW137022   1.010   0.713   3.285 -1.8148 -2.6574 -1.8402
 8463SOL    HW237023   0.988   0.724   3.133  1.8092  1.4731 -1.4371
 8464SOL     OW37024   1.697   1.813   5.386  0.0509 -0.1206 -0.1654
 8464SOL    HW137025   1.690   1.899   5.344  1.1376  0.9002  1.7160
 8464SOL    HW237026   1.791   1.806   5.400  0.0601  0.7211  0.2172
 8465SOL     OW37027   1.247   0.158   4.780 -0.1732 -0.4537  0.5161
 8465SOL    HW137028   1.318   0.097   4.800 -1.4374 -1.6512  1.3354
 8465SOL    HW237029   1.210   0.167   4.868  2.3465  1.0849  1.4025
 8466SOL     OW37030   1.508   3.568   7.760  0.3249  0.4692 -0.7360
 8466SOL    HW137031   1.515   3.472   7.760 -1.7863  0.3297  2.0672
 8466SOL    HW237032   1.525   3.585   7.667  1.8805 -0.1422 -0.5676
 8467SOL     OW37033   4.670   2.518   0.573  0.2795 -0.2426 -0.1407
 8467SOL    HW137034   0.023   2.512   0.587 -0.0586  0.0870  2.3058
 8467SOL    HW237035   4.644   2.534   0.664 -1.5201 -2.3236 -0.2892
 8468SOL     OW37036   0.155   2.843   0.220  0.4855 -0.4600 -0.0257
 8468SOL    HW137037   0.196   2.920   0.181  2.0843 -0.4340  1.6537
 8468SOL    HW237038   0.225   2.813   0.279 -0.6472 -0.9020  1.0849
 8469SOL     OW37039   2.386   4.346  10.347  0.3615  0.0038 -0.8993
 8469SOL    HW137040   2.324   4.275  10.361  0.5117  0.5057  2.3054
 8469SOL    HW237041   2.427   4.355  10.433 -1.2726  3.0414 -0.4135
 8470SOL     OW37042   4.738   4.266  17.218  0.6519  0.5801  0.1882
 8470SOL    HW137043   4.713   4.221  17.299  0.5255 -0.7274 -0.5708
 8470SOL    HW237044   0.086   4.270  17.254  1.1442 -0.9435 -0.8342
 8471SOL     OW37045   0.535   1.405   1.262 -0.2952 -0.2535  0.2426
 8471SOL    HW137046   0.510   1.382   1.172  0.9546  1.1174 -0.4517
 8471SOL    HW237047   0.629   1.401   1.246 -0.1453 -0.0448  1.1048
 8472SOL     OW37048   4.659   1.470   1.850 -0.1288  0.1010 -0.7096
 8472SOL    HW137049   4.625   1.559   1.858  0.4182  0.1950  0.7162
 8472SOL    HW237050   0.010   1.496   1.844 -0.0940  0.9897  3.0273
 8473SOL     OW37051   4.054   2.160   7.412  0.5481  0.2634 -0.6176
 8473SOL    HW137052   4.060   2.065   7.401  1.0438  0.1522  0.6062
 8473SOL    HW237053   4.135   2.183   7.456  0.8784 -3.4860  0.7341
 8474SOL     OW37054   3.490   2.960   1.883  0.5947 -0.1359  0.4398
 8474SOL    HW137055   3.526   2.969   1.794 -1.0063 -1.2873 -0.3159
 8474SOL    HW237056   3.559   3.008   1.930  0.4776  1.3196 -0.8675
 8475SOL     OW37057   3.194   2.407  12.599 -0.5946  0.2322 -0.2983
 8475SOL    HW137058   3.257   2.437  12.534 -1.4699  0.7657 -0.8995
 8475SOL    HW237059   3.252   2.384  12.671 -4.3665 -0.8186  2.4357
 8476SOL     OW37060   0.862   2.755   9.103 -0.1289  0.0259  0.3329
 8476SOL    HW137061   0.946   2.788   9.132 -0.2224 -0.2973  0.9908
 8476SOL    HW237062   0.880   2.723   9.014 -0.0605 -1.1102  0.7463
 8477SOL     OW37063   2.097   3.659   9.459  0.2240 -0.7609 -0.2106
 8477SOL    HW137064   2.031   3.590   9.468  0.1432 -0.9758 -2.4159
 8477SOL    HW237065   2.073   3.686   9.370  0.9516  1.1732  0.1955
 8478SOL     OW37066   0.206   3.836   5.218  0.2254 -0.2553 -0.1524
 8478SOL    HW137067   0.241   3.907   5.272  0.7639  0.2035 -1.1020
 8478SOL    HW237068   0.131   3.880   5.178  0.8132  1.1760  0.3245
 8479SOL     OW37069   2.032   0.540   0.070 -0.5250  0.1607  0.1917
 8479SOL    HW137070   2.121   0.514   0.095 -0.1864  0.1220 -1.0462
 8479SOL    HW237071   2.025   0.627   0.109  0.8661  0.1554  0.4513
 8480SOL     OW37072   2.442   1.129   9.090  0.0207 -0.4761  0.3323
 8480SOL    HW137073   2.397   1.044   9.096 -1.0789 -0.1685 -3.4237
 8480SOL    HW237074   2.480   1.129   9.178 -1.1000 -0.2611  0.8283
 8481SOL     OW37075   4.542   1.734  11.546 -0.3829  0.7836  0.0810
 8481SOL    HW137076   4.513   1.802  11.484  1.6396  1.7758  0.2158
 8481SOL    HW237077   4.489   1.770  11.618  1.3283  3.0715  0.1963
 8482SOL     OW37078   4.737   3.865   9.690  0.6440  0.0091 -0.7218
 8482SOL    HW137079   4.706   3.922   9.760 -0.2700  1.1182 -2.0258
 8482SOL    HW237080   4.684   3.787   9.706 -0.2152  1.1002  1.6630
 8483SOL     OW37081   1.774   2.505   5.631  0.5782 -0.1011  0.0305
 8483SOL    HW137082   1.823   2.573   5.678 -0.9609 -0.3266  1.9598
 8483SOL    HW237083   1.813   2.433   5.679  0.6255  0.1736  0.4002
 8484SOL     OW37084   4.513   1.966   7.162 -0.0549  0.0580 -0.6457
 8484SOL    HW137085   4.560   1.888   7.134  1.0762  0.4053  0.2780
 8484SOL    HW237086   4.511   2.027   7.088  0.8159 -1.6039 -2.0349
 8485SOL     OW37087   2.829   3.335   4.056  0.5497 -0.6626  0.1329
 8485SOL    HW137088   2.774   3.266   4.094 -0.2810  0.8227  1.6159
 8485SOL    HW237089   2.790   3.410   4.100  1.6113 -0.3865  0.5884
 8486SOL     OW37090   1.193   3.044   8.026 -0.8498  0.0929  0.0891
 8486SOL    HW137091   1.174   3.137   8.041 -0.7656 -0.1465  1.6384
 8486SOL    HW237092   1.223   3.044   7.935  0.9120  0.8876  0.6847
 8487SOL     OW37093   0.729   1.708  13.772 -0.0056  0.5826  0.1351
 8487SOL    HW137094   0.820   1.678  13.778  0.4923  2.1606  0.4341
 8487SOL    HW237095   0.746   1.778  13.709 -2.7677 -0.9909 -2.3778
 8488SOL     OW37096   1.390   2.320   7.486 -0.0938  0.1566 -0.5950
 8488SOL    HW137097   1.336   2.394   7.458 -1.6916 -0.4467  0.9542
 8488SOL    HW237098   1.459   2.370   7.530  1.1718 -1.9966 -0.1681
 8489SOL     OW37099   2.513   3.936   8.524 -0.0831 -0.0296  0.0111
 8489SOL    HW137100   2.496   3.961   8.434  0.6032  3.0101  0.7303
 8489SOL    HW237101   2.472   4.003   8.578  0.0241  1.6103 -1.9751
 8490SOL     OW37102   2.102   0.945   3.045 -0.0086  0.7574 -0.1985
 8490SOL    HW137103   2.168   0.921   3.111  2.1354  1.0611 -2.2370
 8490SOL    HW237104   2.156   1.013   3.006 -0.0522  0.0932 -1.4012
 8491SOL     OW37105   3.988   1.593   2.611 -0.3570 -0.6814 -0.5645
 8491SOL    HW137106   3.933   1.530   2.658  0.4652  0.3363  1.7585
 8491SOL    HW237107   4.069   1.544   2.605  0.8827  1.1351  1.5283
 8492SOL     OW37108   1.637   3.044  13.251 -0.3931  0.3312 -0.7634
 8492SOL    HW137109   1.632   3.116  13.314 -0.9036 -0.3963  0.0272
 8492SOL    HW237110   1.555   3.060  13.203 -1.1894  1.3190  0.9218
 8493SOL     OW37111   2.762   4.334   4.784  0.0520  0.0322 -0.0442
 8493SOL    HW137112   2.758   4.429   4.776 -0.5091  0.0187  0.0490
 8493SOL    HW237113   2.680   4.305   4.825  0.5189  1.0957  1.6388
 8494SOL     OW37114   2.193   0.961   2.659  0.1211 -0.3579  0.1488
 8494SOL    HW137115   2.221   0.961   2.568 -0.5209  0.2626 -0.0514
 8494SOL    HW237116   2.102   0.936   2.645 -0.6342  1.0084  2.5844
 8495SOL     OW37117   3.600   2.201  14.485  0.0726 -0.3293 -0.1069
 8495SOL    HW137118   3.572   2.213  14.576 -1.6282 -0.8026 -0.5696
 8495SOL    HW237119   3.682   2.155  14.503 -1.4796 -2.9616  0.2059
 8496SOL     OW37120   3.059   4.381  12.303 -0.3914 -0.4120  0.0709
 8496SOL    HW137121   3.050   4.476  12.297 -1.5037 -0.5387 -0.1452
 8496SOL    HW237122   3.031   4.354  12.216 -2.4368 -0.3477  0.7160
 8497SOL     OW37123   1.918   0.525   8.696  0.2630  0.3918  0.7596
 8497SOL    HW137124   1.939   0.598   8.754 -1.1015  1.4549 -0.0763
 8497SOL    HW237125   1.831   0.500   8.726  0.9036  0.0275  2.2781
 8498SOL     OW37126   0.499   0.442  12.175  0.5061  0.0388  0.3838
 8498SOL    HW137127   0.432   0.451  12.243  0.2256 -2.5075  0.4698
 8498SOL    HW237128   0.510   0.347  12.165 -1.0602 -0.2729  1.5758
 8499SOL     OW37129   3.038   2.279   3.670  0.5191 -0.2978  0.1481
 8499SOL    HW137130   3.067   2.205   3.725 -1.4190 -1.4797 -0.4229
 8499SOL    HW237131   3.096   2.279   3.594  0.3157 -0.2823 -0.0076
 8500SOL     OW37132   2.662   2.488   9.353  0.2628 -0.5966 -0.6080
 8500SOL    HW137133   2.581   2.539   9.345 -0.1444 -0.7556  2.5521
 8500SOL    HW237134   2.639   2.432   9.427 -0.5668 -0.6290 -0.8867
 8501SOL     OW37135   2.312   4.280   7.418  0.1594  0.3502 -0.2396
 8501SOL    HW137136   2.306   4.376   7.423  0.2223  0.3916 -0.8789
 8501SOL    HW237137   2.360   4.254   7.496  0.6233  1.0603 -0.2840
 8502SOL     OW37138   3.030   0.995   3.456 -0.0176 -0.1063  0.4350
 8502SOL    HW137139   3.000   1.085   3.460 -0.8108 -0.4758  2.6728
 8502SOL    HW237140   3.120   1.013   3.428  0.7253 -1.8286  1.6793
 8503SOL     OW37141   3.831   2.376  16.070  0.6136  0.7920 -0.1122
 8503SOL    HW137142   3.736   2.378  16.081  0.4645  0.0364 -1.2203
 8503SOL    HW237143   3.836   2.383  15.974  1.5689  0.4985 -0.0861
 8504SOL     OW37144   0.529   1.633   4.976  0.2250 -0.0593 -0.2060
 8504SOL    HW137145   0.452   1.577   4.983  1.3935 -1.5974  0.3670
 8504SOL    HW237146   0.501   1.709   5.027  0.1065 -0.9481  1.0622
 8505SOL     OW37147   4.569   2.457   7.872  0.6190 -0.0942  0.1170
 8505SOL    HW137148   4.593   2.513   7.947  2.6862 -1.0597  0.1536
 8505SOL    HW237149   4.498   2.509   7.834 -0.7686 -1.1565  1.2259
 8506SOL     OW37150   1.230   3.075   1.139  0.0112 -0.0379  0.6414
 8506SOL    HW137151   1.272   3.047   1.220  1.9993  0.0952 -0.3546
 8506SOL    HW237152   1.184   3.153   1.171 -0.2510 -1.1214  2.8969
 8507SOL     OW37153   3.026   1.286   3.021  0.0763 -0.1244  0.0654
 8507SOL    HW137154   3.017   1.272   2.927 -0.4447 -1.2517  0.2865
 8507SOL    HW237155   3.112   1.247   3.033  0.0288 -0.7202 -1.5097
 8508SOL     OW37156   2.426   0.766   5.057 -0.1029  0.4464 -0.0129
 8508SOL    HW137157   2.384   0.851   5.043 -3.0389 -0.9848  0.0753
 8508SOL    HW237158   2.493   0.786   5.123  0.7274 -0.6495 -0.5374
 8509SOL     OW37159   0.388   2.310   3.994 -1.2419  0.7336  0.0932
 8509SOL    HW137160   0.343   2.245   3.940 -1.9100  0.3503  1.1271
 8509SOL    HW237161   0.369   2.393   3.951 -0.9099 -0.4645 -2.3698
 8510SOL     OW37162   1.342   2.133   4.388 -0.3276  0.1456  0.2151
 8510SOL    HW137163   1.398   2.157   4.462 -0.1109  1.0734 -0.2453
 8510SOL    HW237164   1.255   2.166   4.411 -0.4319  0.1800 -0.2294
 8511SOL     OW37165   1.350   1.203   7.459 -0.1856 -0.1228  0.3671
 8511SOL    HW137166   1.386   1.285   7.493 -1.2131  0.3016  0.4472
 8511SOL    HW237167   1.367   1.209   7.365  0.3451 -0.7791  0.4231
 8512SOL     OW37168   3.818   3.850   8.047  0.1406  0.6058 -0.0253
 8512SOL    HW137169   3.792   3.832   8.137  0.5763  1.0372  0.1909
 8512SOL    HW237170   3.816   3.768   7.998 -1.5081  0.1872  0.7603
 8513SOL     OW37171   2.131   2.288   3.669 -0.8857 -0.3042 -0.1647
 8513SOL    HW137172   2.110   2.359   3.731 -0.9817 -0.2531 -0.2562
 8513SOL    HW237173   2.057   2.229   3.688 -0.1074 -0.8123  1.2648
 8514SOL     OW37174   1.946   2.676  13.380  0.0752 -0.1274  0.7507
 8514SOL    HW137175   1.857   2.657  13.409  0.1178 -1.5299 -0.0652
 8514SOL    HW237176   1.952   2.769  13.358  0.7325  0.1388  2.0074
 8515SOL     OW37177   2.152   3.106   7.259  0.5021 -0.3674  0.0659
 8515SOL    HW137178   2.197   3.119   7.175  1.6311  4.5297  1.4329
 8515SOL    HW237179   2.066   3.141   7.236  0.5117  1.7067  3.1334
 8516SOL     OW37180   0.542   1.806  11.652 -0.0588  0.1184  0.0561
 8516SOL    HW137181   0.543   1.770  11.740  0.9103 -3.5416 -1.4667
 8516SOL    HW237182   0.625   1.777  11.615 -0.5481 -1.1308 -0.0476
 8517SOL     OW37183   0.482   1.354  12.214  0.2172 -0.1178 -0.2348
 8517SOL    HW137184   0.461   1.442  12.242 -1.1371 -0.6403  0.3839
 8517SOL    HW237185   0.561   1.338  12.266  0.3185 -1.4721 -0.7916
 8518SOL     OW37186   1.628   4.083   2.096  0.6213  0.4903 -0.3009
 8518SOL    HW137187   1.674   4.102   2.178 -0.5249  1.6676  0.0792
 8518SOL    HW237188   1.563   4.026   2.138 -0.3594  1.6607 -0.1835
 8519SOL     OW37189   3.326   2.483   8.131  0.0598  0.4352  0.4167
 8519SOL    HW137190   3.259   2.435   8.179  1.2834 -1.4185  0.2468
 8519SOL    HW237191   3.262   2.542   8.091  1.3329  0.9966 -0.7717
 8520SOL     OW37192   3.138   1.990   5.682 -0.2935  1.3322  0.2146
 8520SOL    HW137193   3.172   1.914   5.729  0.0165 -1.0952 -3.9125
 8520SOL    HW237194   3.220   2.035   5.661 -0.2865  0.9847 -0.5141
 8521SOL     OW37195   0.067   3.671  15.348  0.1543 -0.4331  0.3371
 8521SOL    HW137196   0.037   3.757  15.379 -1.4639 -0.4490 -1.1756
 8521SOL    HW237197   0.052   3.697  15.257  1.5108 -0.4372  0.1221
 8522SOL     OW37198   0.891   2.512   4.349  0.1426  0.1696 -0.7034
 8522SOL    HW137199   0.890   2.435   4.292 -0.6839  0.1819 -0.6964
 8522SOL    HW237200   0.804   2.545   4.329  0.2856  0.3902 -0.9707
 8523SOL     OW37201   4.450   0.249   9.601 -0.2352  0.4421  0.6950
 8523SOL    HW137202   4.452   0.268   9.695 -0.0492  1.0769  0.5673
 8523SOL    HW237203   4.375   0.296   9.566 -0.6683 -1.4388 -0.8943
 8524SOL     OW37204   2.878   2.411   8.126  0.0445  0.2778  0.6485
 8524SOL    HW137205   2.878   2.406   8.030  1.1093 -1.4136  0.7435
 8524SOL    HW237206   2.867   2.505   8.143 -0.4352  0.8612 -2.7642
 8525SOL     OW37207   1.657   1.657   5.061  0.1853  0.1422  0.4396
 8525SOL    HW137208   1.682   1.689   4.974 -1.0330 -0.5740 -0.1684
 8525SOL    HW237209   1.738   1.661   5.113  1.0908  0.6027 -0.9923
 8526SOL     OW37210   0.372   2.087   5.158 -0.0219  0.6881 -0.4946
 8526SOL    HW137211   0.451   2.042   5.128 -0.6814 -1.0713  0.4168
 8526SOL    HW237212   0.408   2.156   5.214  1.0054 -1.5680  1.6071
 8527SOL     OW37213   1.676   0.282   0.845  0.2188 -0.1137 -0.0464
 8527SOL    HW137214   1.732   0.212   0.811  1.5430  0.6560  0.5170
 8527SOL    HW237215   1.698   0.266   0.937  3.4397 -0.5534 -0.8906
 8528SOL     OW37216   2.773   1.338  17.701  0.2060 -0.4657 -0.3759
 8528SOL    HW137217   2.793   1.253  17.664  2.6580  0.5725 -1.3940
 8528SOL    HW237218   2.717   1.327   0.017 -0.6065  0.4998 -0.8186
 8529SOL     OW37219   3.743   2.375   7.806 -0.2504 -0.1516  1.0185
 8529SOL    HW137220   3.811   2.317   7.772 -0.2245  0.3615  0.1979
 8529SOL    HW237221   3.790   2.458   7.802  2.1504 -1.6109 -0.6951
 8530SOL     OW37222   3.014   1.281   9.164 -0.5196  0.4939 -0.4142
 8530SOL    HW137223   2.999   1.189   9.144 -1.7691  0.7603 -0.6517
 8530SOL    HW237224   2.981   1.290   9.253  1.3761 -0.9654  0.4498
 8531SOL     OW37225   4.578   4.702  11.016 -0.3266 -0.0811  0.3715
 8531SOL    HW137226   4.576   4.625  10.960  2.2488 -1.2610  1.9115
 8531SOL    HW237227   4.642   4.672  11.081 -0.6575 -0.7917  0.3652
 8532SOL     OW37228   3.351   1.790  15.875 -0.0356 -0.4855  0.1067
 8532SOL    HW137229   3.446   1.784  15.877 -0.0541 -0.9034 -0.2826
 8532SOL    HW237230   3.339   1.792  15.780  0.0349  3.0016  0.1717
 8533SOL     OW37231   3.665   0.950  14.524 -0.4635 -0.1196 -0.0664
 8533SOL    HW137232   3.747   0.916  14.486 -0.8163  0.3104 -1.2323
 8533SOL    HW237233   3.654   1.031  14.473  0.0528 -1.0208 -1.6038
 8534SOL     OW37234   4.113   2.665   7.877  0.3653  0.3083  0.0665
 8534SOL    HW137235   4.041   2.631   7.824  0.8221 -1.3337  0.5155
 8534SOL    HW237236   4.078   2.746   7.913 -0.8080 -0.2886  0.2523
 8535SOL     OW37237   3.051   3.455  11.819 -0.0692 -0.0341 -0.5968
 8535SOL    HW137238   3.068   3.541  11.781 -0.0823  0.7524  1.1746
 8535SOL    HW237239   3.021   3.405  11.743 -2.1320  0.8219 -0.3417
 8536SOL     OW37240   2.660   2.750   6.759 -0.4712  0.7775  0.4685
 8536SOL    HW137241   2.717   2.677   6.737  1.0091  1.0983  3.2581
 8536SOL    HW237242   2.729   2.799   6.803  2.8541 -2.1381 -1.5328
 8537SOL     OW37243   1.637   0.610   7.651 -0.0682 -0.2608 -0.0045
 8537SOL    HW137244   1.642   0.700   7.618 -3.3362 -0.3777 -0.8514
 8537SOL    HW237245   1.620   0.569   7.566 -0.0257  0.8736 -0.5607
 8538SOL     OW37246   3.201   1.130   7.913 -0.3021  0.0191 -0.5625
 8538SOL    HW137247   3.116   1.092   7.935 -0.1494  1.1562  1.9544
 8538SOL    HW237248   3.214   1.181   7.992  3.5422  0.5524 -1.5489
 8539SOL     OW37249   3.136   0.268  13.775 -0.1928  0.5110 -0.7983
 8539SOL    HW137250   3.080   0.206  13.822  1.6675  0.0921  0.8501
 8539SOL    HW237251   3.188   0.205  13.725 -1.1550 -1.3818  0.5940
 8540SOL     OW37252   1.008   0.002   3.583 -0.1325 -0.1427  0.1065
 8540SOL    HW137253   0.934   4.718   3.527  1.0485  0.7545 -1.8519
 8540SOL    HW237254   1.042   0.078   3.536 -0.4925 -1.0351 -1.6100
 8541SOL     OW37255   3.609   0.159   8.605  0.0298 -0.5760  0.1310
 8541SOL    HW137256   3.574   0.186   8.519  0.4314  1.4095  0.5747
 8541SOL    HW237257   3.636   0.245   8.637  0.5234  0.0253 -1.9003
 8542SOL     OW37258   2.282   2.233   3.082  0.0306  0.0776 -0.4908
 8542SOL    HW137259   2.359   2.285   3.103 -0.2445  0.3466 -0.1401
 8542SOL    HW237260   2.243   2.212   3.167 -0.2934  1.0258 -0.4100
 8543SOL     OW37261   1.440   0.689   7.321 -0.3721  0.1484 -0.0999
 8543SOL    HW137262   1.420   0.756   7.386  0.0805 -0.9367  1.1676
 8543SOL    HW237263   1.388   0.617   7.357  0.5101 -0.0486  0.7961
 8544SOL     OW37264   0.031   3.142   2.275 -0.0537 -0.2127 -0.0979
 8544SOL    HW137265   0.060   3.118   2.187  0.2867  0.5506 -0.1905
 8544SOL    HW237266   0.055   3.067   2.329 -1.0900 -0.2150  0.3633
 8545SOL     OW37267   3.608   4.505  17.327  0.0109 -0.1431 -0.1003
 8545SOL    HW137268   3.549   4.531  17.256  0.9449  0.0673 -0.8059
 8545SOL    HW237269   3.671   4.446  17.285 -0.9023 -0.3804 -1.1341
 8546SOL     OW37270   2.271   0.505  11.025  0.4304 -0.1156  0.1959
 8546SOL    HW137271   2.194   0.495  11.080 -0.4210  1.6989 -0.6665
 8546SOL    HW237272   2.292   0.597  11.044  0.8795  0.0771 -1.2012
 8547SOL     OW37273   3.063   1.784   3.180  0.6593 -0.2682 -0.0394
 8547SOL    HW137274   3.108   1.867   3.194 -0.3180  0.2295  0.0880
 8547SOL    HW237275   3.073   1.774   3.085 -1.8148  1.2072 -0.4545
 8548SOL     OW37276   1.502   2.176   8.119  0.2789  0.2150 -0.3138
 8548SOL    HW137277   1.486   2.122   8.042 -0.3359 -2.4047  1.6853
 8548SOL    HW237278   1.509   2.108   8.185 -0.4930  0.0519 -0.4033
 8549SOL     OW37279   0.355   1.890   0.143 -0.1622 -0.3719  0.1086
 8549SOL    HW137280   0.317   1.963   0.094  0.2219 -0.1633  0.1303
 8549SOL    HW237281   0.438   1.871   0.100 -0.5086  0.9170 -1.1201
 8550SOL     OW37282   1.617   4.545   6.527  0.9527 -0.6424 -0.3841
 8550SOL    HW137283   1.554   4.474   6.519 -1.4058  1.3901 -0.1276
 8550SOL    HW237284   1.696   4.510   6.485  1.3060  1.3163 -1.3794
 8551SOL     OW37285   2.893   3.667   6.098 -0.2887  0.3247  0.2363
 8551SOL    HW137286   2.929   3.673   6.010 -2.0073  3.5228 -0.2379
 8551SOL    HW237287   2.816   3.724   6.093 -0.8128 -0.1288  3.1353
 8552SOL     OW37288   4.237   3.813   8.495 -0.6341 -0.1852 -0.3847
 8552SOL    HW137289   4.301   3.805   8.565 -0.5420  2.6087 -0.1515
 8552SOL    HW237290   4.256   3.900   8.460 -1.3163  1.0434  2.3172
 8553SOL     OW37291   2.946   2.173   7.191  0.3628  0.7721 -0.0175
 8553SOL    HW137292   3.010   2.137   7.252  0.6460  2.0808  0.4681
 8553SOL    HW237293   2.877   2.205   7.249  2.1991 -1.5850  3.4912
 8554SOL     OW37294   1.841   0.252  15.537  0.0154  0.4102  0.4597
 8554SOL    HW137295   1.836   0.276  15.629  0.7244 -1.3364  0.9549
 8554SOL    HW237296   1.763   0.288  15.494 -0.0020  0.7902  0.8097
 8555SOL     OW37297   1.565   4.690   4.871 -0.2000 -0.0071  0.0224
 8555SOL    HW137298   1.563   4.601   4.908 -1.1191 -0.3778 -0.9458
 8555SOL    HW237299   1.660   4.692   4.863 -0.0790 -2.6875  0.5793
 8556SOL     OW37300   4.232   2.439   7.041  0.1509 -0.1668  0.2873
 8556SOL    HW137301   4.186   2.522   7.025  1.8647  0.2289 -2.6305
 8556SOL    HW237302   4.194   2.413   7.124  1.5855 -1.2311  0.6064
 8557SOL     OW37303   4.592   0.536   2.726 -0.1409  0.2270  0.5739
 8557SOL    HW137304   4.616   0.527   2.818 -0.0523  0.5604  0.5819
 8557SOL    HW237305   4.668   0.499   2.680 -1.1175 -0.5650 -0.4341
 8558SOL     OW37306   0.403   0.933   4.512 -0.0774 -0.1957  0.0966
 8558SOL    HW137307   0.370   0.853   4.471 -2.3558  1.2550 -0.9027
 8558SOL    HW237308   0.392   0.994   4.440 -2.2892 -0.3100  0.3393
 8559SOL     OW37309   2.662   3.185   7.615 -0.2400 -0.5665  0.5751
 8559SOL    HW137310   2.571   3.212   7.629 -0.3491 -1.1229  0.9246
 8559SOL    HW237311   2.627   3.101   7.586  1.1487  0.4921 -4.2666
 8560SOL     OW37312   1.499   1.550  17.054 -0.6174 -0.4424  0.3643
 8560SOL    HW137313   1.514   1.636  17.015  0.0635 -0.4646  0.5793
 8560SOL    HW237314   1.545   1.491  16.994  0.4450  0.1683  0.5695
 8561SOL     OW37315   0.552   4.481   5.270 -0.0683 -0.1625  0.4765
 8561SOL    HW137316   0.509   4.564   5.249 -1.6693 -1.2979 -0.6842
 8561SOL    HW237317   0.579   4.464   5.180  1.0165  1.8250  0.4138
 8562SOL     OW37318   2.791   1.154   9.271  0.7706 -0.3970 -0.5246
 8562SOL    HW137319   2.764   1.063   9.270  2.3791 -0.8911  0.8471
 8562SOL    HW237320   2.787   1.179   9.179  0.4966  0.6230 -0.2435
 8563SOL     OW37321   2.223   4.482   5.341 -0.1065 -0.0835 -0.5658
 8563SOL    HW137322   2.196   4.570   5.315 -0.4241  0.3546  1.1953
 8563SOL    HW237323   2.136   4.441   5.347 -1.7985  3.3940 -1.0489
 8564SOL     OW37324   2.978   3.758   5.782 -0.4266 -0.1246  0.2032
 8564SOL    HW137325   3.008   3.844   5.811 -0.6349  0.6609 -1.9529
 8564SOL    HW237326   3.057   3.705   5.793 -0.3667  0.1810  1.2659
 8565SOL     OW37327   0.374   3.792   2.016 -0.0855 -0.4382  0.0556
 8565SOL    HW137328   0.408   3.802   2.105  3.2510  1.5752 -1.4346
 8565SOL    HW237329   0.387   3.875   1.969 -1.3346 -1.8180 -2.6799
 8566SOL     OW37330   2.724   3.518   0.184 -0.2218  0.2609 -0.3338
 8566SOL    HW137331   2.768   3.508   0.268  0.8322 -0.8174 -0.9928
 8566SOL    HW237332   2.647   3.461   0.177  0.6858 -1.3518  2.5888
 8567SOL     OW37333   1.858   2.694   4.659 -0.0820 -0.2485 -0.3921
 8567SOL    HW137334   1.890   2.604   4.666 -1.6104 -0.7779 -0.1222
 8567SOL    HW237335   1.798   2.673   4.588 -0.6474  1.3062 -0.3724
 8568SOL     OW37336   1.095   3.048   2.873 -0.3067 -0.1328  0.0485
 8568SOL    HW137337   1.081   3.128   2.924 -0.9162  0.0794 -0.4467
 8568SOL    HW237338   1.153   3.008   2.937  0.3383  1.3684  0.4023
 8569SOL     OW37339   0.697   1.847   8.483  0.0482 -0.3694 -0.1829
 8569SOL    HW137340   0.678   1.903   8.407 -0.7601 -1.3415 -0.6852
 8569SOL    HW237341   0.783   1.875   8.516  0.0958 -0.5014 -0.1953
 8570SOL     OW37342   3.966   2.185   2.549  0.4855 -0.2114 -0.0512
 8570SOL    HW137343   4.019   2.122   2.500  0.9466  0.6427 -0.6428
 8570SOL    HW237344   3.932   2.244   2.482  1.7880  1.2452  0.5740
 8571SOL     OW37345   4.149   4.425   0.874 -0.1687 -0.2648 -0.2543
 8571SOL    HW137346   4.241   4.440   0.895 -0.6847 -0.1649  1.8786
 8571SOL    HW237347   4.128   4.353   0.933  0.3194  0.1123  0.3736
 8572SOL     OW37348   2.143   0.397   4.906  0.4271  0.3222 -0.5378
 8572SOL    HW137349   2.131   0.472   4.966  0.8943 -0.1532  0.1572
 8572SOL    HW237350   2.193   0.437   4.835  0.4099 -0.6307 -1.0774
 8573SOL     OW37351   3.838   4.476   6.969 -0.0357 -0.7401  0.1191
 8573SOL    HW137352   3.819   4.413   7.038 -0.8908 -0.5292  0.0668
 8573SOL    HW237353   3.806   4.420   6.899 -1.8266 -0.2411  0.5334
 8574SOL     OW37354   1.074   4.262   8.351 -0.3109 -0.3723  0.9318
 8574SOL    HW137355   1.092   4.343   8.303  0.9632 -0.9573  0.4195
 8574SOL    HW237356   1.096   4.278   8.443  1.6657 -2.7377  0.8566
 8575SOL     OW37357   2.110   1.757   8.861  0.2058  0.1433 -0.2476
 8575SOL    HW137358   2.148   1.716   8.938  1.1644 -1.1827 -1.4300
 8575SOL    HW237359   2.184   1.811   8.832  0.9658 -1.6691 -1.6566
 8576SOL     OW37360   4.494   3.289   3.374 -0.3333  0.1859  0.6677
 8576SOL    HW137361   4.567   3.348   3.355 -2.5781  2.8469  0.2734
 8576SOL    HW237362   4.478   3.315   3.464 -2.9103 -0.1010  0.2837
 8577SOL     OW37363   0.606   3.294  11.669  0.2911 -0.1661  0.2435
 8577SOL    HW137364   0.606   3.390  11.664  1.0323 -0.1930 -0.4570
 8577SOL    HW237365   0.665   3.292  11.593 -2.9662  1.5989 -2.3317
 8578SOL     OW37366   0.757   3.699   6.303 -0.3438  0.6717  0.2597
 8578SOL    HW137367   0.679   3.746   6.331 -1.0617 -0.1908 -0.3217
 8578SOL    HW237368   0.812   3.717   6.380 -0.4687 -0.7107  0.6885
 8579SOL     OW37369   4.478   1.793   4.952 -0.1070  0.3623 -0.3919
 8579SOL    HW137370   4.456   1.700   4.963  0.2176  0.1006 -1.8926
 8579SOL    HW237371   4.408   1.849   4.986 -1.0185 -0.7351 -0.4625
 8580SOL     OW37372   2.216   0.451   2.857 -0.4149 -0.2674 -0.4235
 8580SOL    HW137373   2.202   0.513   2.785 -1.2169  2.2354  1.8906
 8580SOL    HW237374   2.215   0.367   2.811 -0.2829  0.3799 -1.6014
 8581SOL     OW37375   0.235   1.267   3.158 -0.4549 -0.4614 -0.1606
 8581SOL    HW137376   0.166   1.291   3.096  0.4781 -2.0792 -1.8240
 8581SOL    HW237377   0.307   1.295   3.103  1.3610 -2.1468  1.3687
 8582SOL     OW37378   1.702   1.756   0.491 -0.3218 -0.4583  0.0461
 8582SOL    HW137379   1.790   1.717   0.484  0.0887  0.6489 -0.9577
 8582SOL    HW237380   1.658   1.698   0.429  0.0002  0.7434 -1.3186
 8583SOL     OW37381   4.221   2.473   8.917  0.0657 -0.3141 -0.2072
 8583SOL    HW137382   4.277   2.413   8.867 -0.1006 -0.4470 -0.2343
 8583SOL    HW237383   4.174   2.524   8.852 -0.2082  2.2107  1.9961
 8584SOL     OW37384   0.216   0.069   3.813  1.0813  0.2392  0.3636
 8584SOL    HW137385   0.295   0.097   3.859  1.5730 -1.9282  0.8734
 8584SOL    HW237386   0.244   4.734   3.762 -0.7647 -0.1927 -0.0442
 8585SOL     OW37387   2.556   3.306   6.580  0.0080 -0.0429 -0.2002
 8585SOL    HW137388   2.638   3.284   6.536 -0.7564  1.2246 -2.2641
 8585SOL    HW237389   2.501   3.289   6.503 -0.1739  1.0530 -0.3199
 8586SOL     OW37390   4.190   3.891   9.703  0.1481 -0.4511 -0.1375
 8586SOL    HW137391   4.100   3.871   9.727  0.0116  2.0041  1.4007
 8586SOL    HW237392   4.190   3.986   9.711  0.0735 -0.5955  1.6627
 8587SOL     OW37393   3.439   1.596  17.555 -0.7151 -0.7528 -0.0917
 8587SOL    HW137394   3.531   1.594  17.582 -0.5698  2.3946 -0.3093
 8587SOL    HW237395   3.434   1.508  17.519  0.6474 -0.7233 -0.3311
 8588SOL     OW37396   1.074   1.632   8.173 -0.0515  0.0795 -0.2823
 8588SOL    HW137397   1.074   1.647   8.267  0.6409 -1.8178  0.0320
 8588SOL    HW237398   1.153   1.579   8.157  0.0219 -0.2194  1.0410
 8589SOL     OW37399   0.043   1.643   1.349 -0.5932 -0.0166 -0.0248
 8589SOL    HW137400   4.715   1.581   1.328 -1.3588  0.5042  0.9618
 8589SOL    HW237401   0.119   1.598   1.311 -1.2716  0.3840 -1.8540
 8590SOL     OW37402   1.815   0.011   4.785  0.0890  0.0911 -0.1317
 8590SOL    HW137403   1.895   0.001   4.733 -1.4991 -1.1811 -2.3687
 8590SOL    HW237404   1.834   0.099   4.815 -2.8477  1.0304 -1.0350
 8591SOL     OW37405   1.467   2.662  11.269  0.1856 -0.3152 -0.1964
 8591SOL    HW137406   1.480   2.569  11.252 -0.0058 -0.4251  0.2696
 8591SOL    HW237407   1.388   2.669  11.322  0.6542  2.4404  0.1672
 8592SOL     OW37408   3.875   2.445   1.128  0.9274 -0.0645  0.1270
 8592SOL    HW137409   3.960   2.487   1.137  1.4859 -0.7893 -1.7486
 8592SOL    HW237410   3.874   2.411   1.039  1.6213 -1.2375  0.5705
 8593SOL     OW37411   4.367   2.782   1.791 -0.2112 -0.1771  0.0274
 8593SOL    HW137412   4.355   2.874   1.814  0.8240 -0.1597  0.5162
 8593SOL    HW237413   4.463   2.784   1.787 -0.2252  2.3018  0.7166
 8594SOL     OW37414   0.171   1.159   4.577  0.5117 -0.1316  0.1205
 8594SOL    HW137415   0.098   1.107   4.611  1.1063 -0.0386  1.5412
 8594SOL    HW237416   0.153   1.150   4.484 -0.2216 -1.1415  0.3548
 8595SOL     OW37417   4.352   2.742   8.678  0.0552 -0.0668 -0.1929
 8595SOL    HW137418   4.345   2.783   8.764 -2.0772  1.5951 -1.1351
 8595SOL    HW237419   4.443   2.714   8.678  0.1885  0.3640 -2.0525
 8596SOL     OW37420   4.210   4.609   2.304 -0.4307 -0.4640 -0.5910
 8596SOL    HW137421   4.132   4.661   2.320  1.8941  2.7673  0.3508
 8596SOL    HW237422   4.283   4.671   2.307 -0.2971 -0.7318  1.4687
 8597SOL     OW37423   0.086   3.292   7.190 -0.6290 -0.3541  0.0148
 8597SOL    HW137424   0.040   3.234   7.250 -3.6693  2.2643  0.2104
 8597SOL    HW237425   0.130   3.357   7.245  0.9209 -1.2992 -0.1237
 8598SOL     OW37426   3.537   3.734   5.863  0.0344  0.2454 -0.8774
 8598SOL    HW137427   3.535   3.804   5.928 -0.7791  0.1859 -0.8299
 8598SOL    HW237428   3.529   3.770   5.775 -0.3113  1.7998 -0.2059
 8599SOL     OW37429   4.511   0.725   4.946 -0.3995  0.2460 -0.4871
 8599SOL    HW137430   4.499   0.756   4.857 -1.0089 -1.9534 -1.1754
 8599SOL    HW237431   4.467   0.786   5.005  0.3646 -1.2241  1.6471
 8600SOL     OW37432   0.257   3.340   0.264 -0.0749 -0.4038  0.2474
 8600SOL    HW137433   0.305   3.258   0.250  1.0442  0.0904  1.2065
 8600SOL    HW237434   0.260   3.368   0.173  2.5260  0.0384  0.4531
 8601SOL     OW37435   1.352   1.536   7.801  0.2829  0.2817 -0.3183
 8601SOL    HW137436   1.330   1.547   7.894 -0.2523 -2.3662 -0.1187
 8601SOL    HW237437   1.407   1.610   7.777  2.4129 -0.5736  1.8359
 8602SOL     OW37438   4.108   4.604  10.271 -0.0340  0.3785 -0.1208
 8602SOL    HW137439   4.194   4.645  10.262  1.3379 -1.8302  2.8268
 8602SOL    HW237440   4.066   4.631  10.189  0.7297 -0.5822 -0.8339
 8603SOL     OW37441   0.385   3.280  10.576 -0.4016 -0.8929 -0.0395
 8603SOL    HW137442   0.314   3.315  10.629 -0.2066  0.5465 -0.7219
 8603SOL    HW237443   0.344   3.263  10.491 -1.6566  0.2584  0.3406
 8604SOL     OW37444   1.569   2.581   7.496  0.4138 -0.4895 -0.0009
 8604SOL    HW137445   1.621   2.660   7.514  0.1848 -0.2122 -0.5574
 8604SOL    HW237446   1.581   2.531   7.576 -0.4256  1.1743  1.1527
 8605SOL     OW37447   2.199   1.424   0.602  0.3476 -0.3510  0.8661
 8605SOL    HW137448   2.210   1.505   0.652 -1.4291 -0.4688  1.4549
 8605SOL    HW237449   2.215   1.356   0.667  3.4022  0.6000  1.1045
 8606SOL     OW37450   3.561   0.501   2.855  1.5224  0.7248 -0.1653
 8606SOL    HW137451   3.585   0.460   2.937 -0.3670 -1.8620 -0.9090
 8606SOL    HW237452   3.530   0.420   2.815  1.4656  2.3197 -3.3680
 8607SOL     OW37453   4.237   4.070   8.437  0.1253 -0.0293  0.0959
 8607SOL    HW137454   4.181   4.130   8.485  0.1140  0.5658 -0.6684
 8607SOL    HW237455   4.325   4.084   8.474  0.3940  3.7151 -2.0334
 8608SOL     OW37456   3.790   1.366  10.306 -0.4911 -0.0016  0.0022
 8608SOL    HW137457   3.725   1.353  10.376  0.6808 -4.1649  0.2672
 8608SOL    HW237458   3.740   1.410  10.237  0.0343  1.8557  0.7984
 8609SOL     OW37459   1.454   3.549   6.095  0.7217 -0.7006 -0.7583
 8609SOL    HW137460   1.407   3.475   6.134 -0.2227  1.9078  2.9836
 8609SOL    HW237461   1.517   3.576   6.161  0.2881  0.1234 -0.6821
 8610SOL     OW37462   2.958   1.554   0.456  0.3209  0.0082 -0.2443
 8610SOL    HW137463   2.902   1.621   0.496  1.2046  0.6983 -0.1605
 8610SOL    HW237464   2.908   1.535   0.377 -0.1174 -1.2955  0.3328
 8611SOL     OW37465   4.642   2.321   7.195 -0.0351  0.3230  0.4145
 8611SOL    HW137466   4.656   2.327   7.100 -1.3005  2.7919  0.3695
 8611SOL    HW237467   4.720   2.268   7.208  0.2282  0.5503 -0.2203
 8612SOL     OW37468   3.351   0.597  12.499  0.3320 -0.3403 -0.2215
 8612SOL    HW137469   3.380   0.595  12.590 -1.1015 -1.2493  0.2113
 8612SOL    HW237470   3.257   0.611  12.507  0.6046  0.6975  1.0903
 8613SOL     OW37471   2.098   3.446  12.983  0.2943  0.4447 -0.2080
 8613SOL    HW137472   2.151   3.525  12.986  0.2732  0.4308  0.6217
 8613SOL    HW237473   2.156   3.377  13.015 -0.4253  0.8181  1.8885
 8614SOL     OW37474   2.746   4.161   7.383  0.1733  0.5345 -0.2051
 8614SOL    HW137475   2.783   4.218   7.315 -0.8411  2.2221  0.6755
 8614SOL    HW237476   2.812   4.162   7.452  1.1422 -1.3430 -1.1196
 8615SOL     OW37477   0.334   3.643   5.375 -0.4328  0.0959 -0.0629
 8615SOL    HW137478   0.293   3.673   5.456  0.1368 -0.5649  0.4766
 8615SOL    HW237479   0.299   3.694   5.303  0.0154  0.0821 -0.2932
 8616SOL     OW37480   4.199   0.718   9.150 -0.2589  0.1186  0.7202
 8616SOL    HW137481   4.256   0.782   9.192  0.4457  0.7666 -1.2217
 8616SOL    HW237482   4.260   0.649   9.122 -1.4421 -0.8504  0.5063
 8617SOL     OW37483   0.004   4.629  16.136 -0.1171 -0.0466 -0.0880
 8617SOL    HW137484   4.668   4.671  16.175  0.3504 -0.7611  1.5999
 8617SOL    HW237485   0.069   4.632  16.206  0.0354 -1.0549 -0.1881
 8618SOL     OW37486   0.931   2.818   3.516  0.4559  0.1213 -1.1339
 8618SOL    HW137487   0.990   2.812   3.590 -0.6899 -1.0855 -0.3167
 8618SOL    HW237488   0.849   2.848   3.555  0.1163 -0.7568 -1.1725
 8619SOL     OW37489   0.234   3.738   5.603  0.3978  0.0648 -0.4264
 8619SOL    HW137490   0.235   3.665   5.665  2.0480 -0.1614 -0.7250
 8619SOL    HW237491   0.182   3.804   5.649  0.1821 -0.4169  0.0285
 8620SOL     OW37492   1.504   3.118   3.578 -0.0745 -0.2841  0.0912
 8620SOL    HW137493   1.518   3.115   3.484 -1.3812  0.5555 -0.1244
 8620SOL    HW237494   1.414   3.149   3.589  0.3298  0.7647  0.4000
 8621SOL     OW37495   2.449   3.415   9.341  0.0805  0.0765  0.0602
 8621SOL    HW137496   2.390   3.486   9.317 -1.0905 -1.7771 -2.4658
 8621SOL    HW237497   2.462   3.363   9.262  0.8344 -0.7234  0.7166
 8622SOL     OW37498   3.110   2.989   6.690  0.0955 -0.2601  0.1976
 8622SOL    HW137499   3.194   2.946   6.707 -0.3535 -0.9026  0.7660
 8622SOL    HW237500   3.144   3.078   6.678  0.6265 -0.4121  0.5844
 8623SOL     OW37501   2.353   0.530   3.327 -0.3270  0.2516 -0.0530
 8623SOL    HW137502   2.308   0.481   3.395 -0.6106  0.0846 -0.3634
 8623SOL    HW237503   2.311   0.488   3.252  0.5375  0.6964 -0.7861
 8624SOL     OW37504   0.591   0.174   3.952 -0.2998  0.2217 -0.0181
 8624SOL    HW137505   0.625   0.264   3.954 -0.5670  0.3753 -2.4300
 8624SOL    HW237506   0.665   0.136   4.000 -0.0243  0.2978 -0.3871
 8625SOL     OW37507   0.779   2.956   8.438 -0.0228  0.3910 -0.0877
 8625SOL    HW137508   0.770   2.988   8.528 -0.3799 -2.1083  0.7686
 8625SOL    HW237509   0.816   2.869   8.452 -0.7936  0.2423  1.0411
 8626SOL     OW37510   4.021   2.762   9.439 -0.1703 -0.2915  0.3817
 8626SOL    HW137511   3.950   2.729   9.383 -0.0731  2.4427 -1.3492
 8626SOL    HW237512   3.955   2.805   9.493  0.1134  1.3106 -0.5516
 8627SOL     OW37513   3.092   3.447   4.138 -0.2908  0.0572  0.0134
 8627SOL    HW137514   3.023   3.406   4.086 -1.1194 -0.4364  1.4966
 8627SOL    HW237515   3.056   3.535   4.150 -0.0305  0.2252 -0.4467
 8628SOL     OW37516   1.947   2.925   7.449 -0.3347 -0.0907 -0.3698
 8628SOL    HW137517   2.028   2.940   7.496  0.6958 -1.4922 -1.7111
 8628SOL    HW237518   1.927   3.017   7.432  0.0878  0.1053  0.1981
 8629SOL     OW37519   2.683   3.304   5.543 -0.1385  0.2287  0.3273
 8629SOL    HW137520   2.617   3.273   5.604  1.1883  0.3208  1.8234
 8629SOL    HW237521   2.739   3.229   5.521 -0.7034 -0.2935  0.6772
 8630SOL     OW37522   0.478   0.394  11.174  0.0382  0.3237 -0.0268
 8630SOL    HW137523   0.451   0.332  11.106  0.4893  1.5663 -1.3479
 8630SOL    HW237524   0.558   0.359  11.212 -0.6518 -0.3698  0.7665
 8631SOL     OW37525   1.049   2.545   7.570  0.6682 -0.0737 -0.8008
 8631SOL    HW137526   1.039   2.491   7.649  0.9342  2.0565  0.6970
 8631SOL    HW237527   0.956   2.566   7.558  0.6256  0.0149 -0.3306
 8632SOL     OW37528   2.610   2.342   1.918  0.0490 -0.7557  0.4378
 8632SOL    HW137529   2.637   2.307   1.833  1.1570  1.9507 -0.3359
 8632SOL    HW237530   2.604   2.433   1.889  1.0513 -0.9972 -0.5364
 8633SOL     OW37531   2.656   2.090  16.566  0.0177  0.1782 -0.0861
 8633SOL    HW137532   2.592   2.068  16.497  1.1838 -2.4346 -0.3194
 8633SOL    HW237533   2.743   2.075  16.529  0.0820  1.0096 -0.2692
 8634SOL     OW37534   0.440   3.849   2.688 -0.5512 -0.3076 -0.0045
 8634SOL    HW137535   0.501   3.785   2.651  1.2179  1.2603  0.1889
 8634SOL    HW237536   0.357   3.802   2.682 -0.1272 -0.8673 -1.5299
 8635SOL     OW37537   3.955   2.397   9.442 -0.3545  0.1614 -0.2843
 8635SOL    HW137538   3.865   2.411   9.413 -0.7631  0.4924  1.1254
 8635SOL    HW237539   3.964   2.311   9.401  1.2867  1.2440 -2.2210
 8636SOL     OW37540   4.481   0.801   6.388  0.4667  0.1638 -0.1646
 8636SOL    HW137541   4.476   0.772   6.479  1.7686 -0.7207 -0.3741
 8636SOL    HW237542   4.408   0.751   6.352  0.2888  1.4137 -1.5222
 8637SOL     OW37543   4.284   0.276   8.043 -0.2968 -0.3847  0.4716
 8637SOL    HW137544   4.211   0.314   7.994 -0.3743 -0.7531  0.3033
 8637SOL    HW237545   4.235   0.211   8.093 -1.1508  0.1912  0.3772
 8638SOL     OW37546   2.627   0.529   5.703  0.2161  0.2927  0.2159
 8638SOL    HW137547   2.664   0.450   5.740 -1.8006 -0.4590  0.6212
 8638SOL    HW237548   2.536   0.521   5.731 -0.3840  0.5197 -1.6902
 8639SOL     OW37549   2.407   1.972   6.107 -0.1922 -0.0844  0.0212
 8639SOL    HW137550   2.501   1.958   6.116  0.1048  2.1581  0.2941
 8639SOL    HW237551   2.403   2.049   6.051 -1.9060  0.1665  0.4830
 8640SOL     OW37552   0.286   2.158  17.564  0.2778 -0.3577  0.0352
 8640SOL    HW137553   0.228   2.097  17.608 -0.8399 -0.0219 -0.9668
 8640SOL    HW237554   0.279   2.243  17.608  0.5128  0.0484 -0.7046
 8641SOL     OW37555   0.847   2.474   8.805 -0.7948  0.2584 -0.1786
 8641SOL    HW137556   0.911   2.487   8.875 -2.9729 -0.4596  1.9463
 8641SOL    HW237557   0.782   2.421   8.852  0.4809 -0.6628  0.5171
 8642SOL     OW37558   0.698   1.449   5.104  0.0769 -0.0057  0.0724
 8642SOL    HW137559   0.677   1.519   5.042  1.0886 -0.8435 -1.2211
 8642SOL    HW237560   0.637   1.385   5.066  0.7585 -0.1137 -0.8420
 8643SOL     OW37561   2.098   4.585   6.276  0.9540  0.4086  0.2376
 8643SOL    HW137562   2.122   4.497   6.247  0.9792  0.0323  1.3791
 8643SOL    HW237563   2.136   4.635   6.204  1.5169  0.3842  0.5094
 8644SOL     OW37564   1.693   3.287   2.208  0.2291 -0.5585  0.1610
 8644SOL    HW137565   1.728   3.201   2.233 -1.0601 -0.1496  3.3637
 8644SOL    HW237566   1.691   3.328   2.294  1.7132  1.4594 -0.7625
 8645SOL     OW37567   2.948   2.953   1.685  0.0169  0.0688 -0.0570
 8645SOL    HW137568   2.885   3.018   1.715 -0.2765 -1.2543  2.1707
 8645SOL    HW237569   3.030   2.999   1.704  0.3519 -0.4683 -0.2095
 8646SOL     OW37570   3.280   0.497   2.514 -0.1646 -0.5633 -0.1350
 8646SOL    HW137571   3.198   0.469   2.557  1.1167 -1.4659  1.7515
 8646SOL    HW237572   3.337   0.421   2.529  1.1299 -0.1387 -2.9895
 8647SOL     OW37573   3.730   0.376   3.603 -0.1259 -0.0621 -0.3024
 8647SOL    HW137574   3.791   0.436   3.646 -1.8010  0.4363  1.4292
 8647SOL    HW237575   3.650   0.426   3.584  0.0188 -0.6914 -2.5098
 8648SOL     OW37576   2.738   0.797   9.885  0.1814  0.4004  0.2554
 8648SOL    HW137577   2.726   0.878   9.935 -1.6265 -0.1782  0.7513
 8648SOL    HW237578   2.698   0.727   9.937 -0.1381  0.4381  0.0599
 8649SOL     OW37579   0.359   1.063   3.371 -0.3917  0.1935  0.2126
 8649SOL    HW137580   0.313   1.099   3.296  0.7015  1.1722  0.0108
 8649SOL    HW237581   0.409   0.994   3.327 -1.2787 -1.3504  1.5773
 8650SOL     OW37582   2.285   2.654   8.090 -0.0996 -0.4821 -0.6537
 8650SOL    HW137583   2.303   2.564   8.065  0.9452 -0.4097 -0.1509
 8650SOL    HW237584   2.201   2.644   8.135  1.1017 -1.4415  1.3657
 8651SOL     OW37585   2.619   4.481  10.470 -0.3012 -0.4872  0.5377
 8651SOL    HW137586   2.581   4.430  10.541  1.7380 -0.2126  1.8200
 8651SOL    HW237587   2.569   4.558  10.498 -0.8742 -0.5570 -0.3098
 8652SOL     OW37588   3.682   2.532   8.702 -0.1912  0.3185  0.5226
 8652SOL    HW137589   3.687   2.507   8.609 -0.1667  0.1840  0.5603
 8652SOL    HW237590   3.591   2.511   8.723 -0.1697 -1.2358 -0.8780
 8653SOL     OW37591   4.089   4.342  12.610  0.2020 -0.1279  0.2697
 8653SOL    HW137592   4.178   4.311  12.593  0.9917  0.2304  3.7541
 8653SOL    HW237593   4.043   4.259  12.617  1.7960 -1.0018  0.3048
 8654SOL     OW37594   4.431   3.998   4.379 -0.4708 -0.6227  0.5000
 8654SOL    HW137595   4.490   4.026   4.449  1.5877  0.8373 -1.8325
 8654SOL    HW237596   4.388   4.080   4.355 -0.1378 -0.7986 -0.7049
 8655SOL     OW37597   4.381   0.561   9.032 -0.4436  0.7143  0.1440
 8655SOL    HW137598   4.477   0.558   9.031 -0.4480  0.5852  0.1399
 8655SOL    HW237599   4.372   0.559   8.936 -1.6054  0.2552  0.2691
 8656SOL     OW37600   1.974   2.415   5.224  0.3438 -0.5061 -0.3515
 8656SOL    HW137601   2.041   2.437   5.159  0.8961  0.7620  0.6602
 8656SOL    HW237602   1.968   2.482   5.292 -0.1565  1.0374 -1.9193
 8657SOL     OW37603   2.812   0.001   5.264  0.3470 -0.3581 -0.2283
 8657SOL    HW137604   2.828   4.674   5.330 -3.1008  0.5587  1.5859
 8657SOL    HW237605   2.842   0.075   5.316  0.3033 -0.5929  0.1349
 8658SOL     OW37606   1.891   0.018   2.438  0.2421 -0.0364 -0.5498
 8658SOL    HW137607   1.986   0.008   2.432  0.2056 -0.1573 -0.9188
 8658SOL    HW237608   1.889   0.098   2.384 -0.8732  0.3714  0.1068
 8659SOL     OW37609   1.548   2.674   2.913  0.1276 -0.2966  0.0258
 8659SOL    HW137610   1.603   2.658   2.990  0.2844  0.6079  0.1096
 8659SOL    HW237611   1.600   2.649   2.837 -0.6182 -1.1616 -0.1888
 8660SOL     OW37612   0.797   4.731  14.834 -0.8119 -0.3439  0.3667
 8660SOL    HW137613   0.774   4.696  14.747  0.8112 -0.2762 -0.0981
 8660SOL    HW237614   0.734   4.688  14.892 -2.0151  0.0543 -0.6308
 8661SOL     OW37615   3.486   0.431   7.293  0.2715 -0.3987  0.6839
 8661SOL    HW137616   3.499   0.405   7.384  0.0169  1.4437  1.2570
 8661SOL    HW237617   3.578   0.447   7.273  0.3878  0.1846  1.6874
 8662SOL     OW37618   1.734   1.522  10.256  0.0372  0.3088  0.2552
 8662SOL    HW137619   1.711   1.608  10.221  0.9127  0.2281 -0.5099
 8662SOL    HW237620   1.763   1.484  10.173  1.0808 -0.9702  1.2190
 8663SOL     OW37621   1.653   2.138   3.197 -0.2223  0.3469 -0.2965
 8663SOL    HW137622   1.724   2.174   3.143  0.9981 -1.2788  0.2299
 8663SOL    HW237623   1.660   2.172   3.286  1.9668 -1.6922  0.3046
 8664SOL     OW37624   0.149   4.002  16.908  0.1200 -0.4890 -0.0755
 8664SOL    HW137625   0.223   3.964  16.861 -0.5200 -2.2058  0.3105
 8664SOL    HW237626   0.116   3.930  16.962  0.6579 -0.3533  0.4273
 8665SOL     OW37627   4.619   1.971  17.516  0.6382 -0.1501 -0.5657
 8665SOL    HW137628   4.694   1.986  17.573  0.3032  0.7451 -0.3676
 8665SOL    HW237629   4.665   1.966  17.432  2.8977  2.1575  0.5523
 8666SOL     OW37630   1.614   2.198  11.020  0.2401 -0.2473 -0.3063
 8666SOL    HW137631   1.657   2.165  11.099  3.3066 -0.1034 -1.9106
 8666SOL    HW237632   1.697   2.215  10.976 -0.4768  0.6627 -1.3017
 8667SOL     OW37633   1.502   3.473   7.492  0.3563 -0.4638  0.3161
 8667SOL    HW137634   1.519   3.403   7.555 -0.9701  0.0376  1.2303
 8667SOL    HW237635   1.575   3.468   7.430  1.1557  2.8127  1.0181
 8668SOL     OW37636   1.115   1.018   9.442 -0.2243 -0.2734  0.1315
 8668SOL    HW137637   1.108   0.988   9.532 -1.7231 -2.9755 -0.8970
 8668SOL    HW237638   1.129   0.934   9.400 -2.6754  0.4619 -2.1445
 8669SOL     OW37639   1.303   3.697  14.625 -0.1164 -0.1205  0.2946
 8669SOL    HW137640   1.285   3.791  14.635  1.0299  0.2459 -1.2916
 8669SOL    HW237641   1.221   3.655  14.652 -0.2574  1.2681  2.0822
 8670SOL     OW37642   0.859   2.345  12.195  0.3803 -0.4119 -0.6945
 8670SOL    HW137643   0.792   2.379  12.136 -1.1551  0.0847  1.3337
 8670SOL    HW237644   0.928   2.320  12.134  1.4278 -2.3096  1.2496
 8671SOL     OW37645   3.114   2.722   0.547  0.3938 -0.1132  0.7581
 8671SOL    HW137646   3.203   2.758   0.542  0.7249 -0.6883  2.3898
 8671SOL    HW237647   3.093   2.736   0.455  0.0508  0.3398  0.9075
 8672SOL     OW37648   4.366   0.370  13.313 -0.1759  0.0920  0.0594
 8672SOL    HW137649   4.369   0.292  13.370 -0.6591  0.5713  0.7379
 8672SOL    HW237650   4.274   0.359  13.287 -0.3258  2.4705 -0.4333
 8673SOL     OW37651   1.186   0.543   6.588  0.2177  0.0753 -0.3158
 8673SOL    HW137652   1.189   0.577   6.499 -0.5467  1.6240  0.2484
 8673SOL    HW237653   1.223   0.619   6.632  1.2643 -0.3048 -0.5387
 8674SOL     OW37654   2.581   1.670   7.495 -0.1991  0.5997  0.6360
 8674SOL    HW137655   2.554   1.597   7.550 -2.5542  0.2384 -0.9741
 8674SOL    HW237656   2.584   1.636   7.406  0.0285  0.4419  0.7050
 8675SOL     OW37657   2.900   3.442   9.993 -0.2439  0.0288 -0.0693
 8675SOL    HW137658   2.809   3.429   9.968 -0.4892  1.0100  0.2921
 8675SOL    HW237659   2.927   3.509   9.930 -1.2522 -0.0081 -0.5377
 8676SOL     OW37660   1.792   1.733  14.007  0.2638  0.1823 -0.4759
 8676SOL    HW137661   1.848   1.692  14.073  2.7459 -0.9585 -3.2702
 8676SOL    HW237662   1.769   1.657  13.954 -1.5261 -0.2612  0.9483
 8677SOL     OW37663   0.106   3.306   6.401 -0.7006 -0.5203 -0.0865
 8677SOL    HW137664   0.172   3.341   6.341 -0.7439  1.3727  0.9508
 8677SOL    HW237665   0.115   3.377   6.465 -0.2489 -1.6770  1.1370
 8678SOL     OW37666   2.093   0.323  15.703 -0.3597  0.1865  0.4610
 8678SOL    HW137667   2.088   0.338  15.609  1.7453 -0.3676  0.2530
 8678SOL    HW237668   2.163   0.378  15.736  0.5692 -0.5707 -0.2400
 8679SOL     OW37669   2.880   3.602  11.975  0.1073 -0.4642 -0.1134
 8679SOL    HW137670   2.851   3.556  12.053  0.9003  0.0806  0.5008
 8679SOL    HW237671   2.938   3.539  11.931 -2.6595 -1.7848 -1.8535
 8680SOL     OW37672   2.826   2.673   9.492  0.1989 -0.4318 -0.1571
 8680SOL    HW137673   2.805   2.757   9.452 -0.7614  0.7026  2.7318
 8680SOL    HW237674   2.779   2.611   9.436 -1.2489  1.6435 -1.1905
 8681SOL     OW37675   3.012   1.994   7.004 -0.6423  0.5954 -0.1546
 8681SOL    HW137676   2.921   1.982   6.976 -0.4733 -1.4893  0.1343
 8681SOL    HW237677   3.007   2.036   7.090  3.3018  0.2422  0.2062
 8682SOL     OW37678   0.364   3.209  16.922 -0.3286  0.1788  0.1640
 8682SOL    HW137679   0.380   3.121  16.886 -1.5407 -0.8997  2.3062
 8682SOL    HW237680   0.328   3.185  17.007 -0.9437  0.5278  0.0057
 8683SOL     OW37681   2.701   2.782   8.615  0.1005  0.0666  0.1627
 8683SOL    HW137682   2.633   2.843   8.643 -0.2780 -0.9298  1.4161
 8683SOL    HW237683   2.686   2.780   8.521 -0.3220  1.1790  0.2112
 8684SOL     OW37684   0.975   4.184   7.245 -0.3817  0.7912 -0.1080
 8684SOL    HW137685   0.920   4.106   7.231  0.3356  0.5053 -1.4110
 8684SOL    HW237686   0.978   4.234   7.163  2.2810 -0.1476 -0.5913
 8685SOL     OW37687   1.639   1.296  12.738 -0.4575 -0.4727  0.2876
 8685SOL    HW137688   1.693   1.219  12.756  0.5435  0.3411  0.7559
 8685SOL    HW237689   1.697   1.368  12.763 -1.6462  0.2189  1.0796
 8686SOL     OW37690   3.565   0.237   8.958 -0.3544  0.1250  0.2153
 8686SOL    HW137691   3.513   0.167   8.919  0.0991  0.6134 -1.2351
 8686SOL    HW237692   3.548   0.308   8.897 -2.8861 -0.6710  0.0095
 8687SOL     OW37693   3.255   3.571  11.143 -0.3824 -0.2228 -0.0415
 8687SOL    HW137694   3.299   3.647  11.181 -0.9389 -0.9740  2.1237
 8687SOL    HW237695   3.162   3.590  11.134 -0.8648 -1.8303  1.6082
 8688SOL     OW37696   2.181   4.455  16.565 -0.1461 -0.4580 -0.2652
 8688SOL    HW137697   2.099   4.418  16.531 -0.2964 -0.1163 -0.2659
 8688SOL    HW237698   2.230   4.423  16.489 -1.0303  1.4154 -1.6358
 8689SOL     OW37699   2.091   2.667   4.943  0.3717  0.0131  0.2897
 8689SOL    HW137700   2.133   2.629   5.020  0.2019 -0.6662  0.0439
 8689SOL    HW237701   2.163   2.727   4.926 -1.1511  1.3626 -1.3461
 8690SOL     OW37702   3.049   1.779   1.734  0.2767  0.4919 -0.3411
 8690SOL    HW137703   3.090   1.696   1.761 -0.5863  0.3386  0.5285
 8690SOL    HW237704   3.124   1.817   1.690 -0.1070  0.3432 -1.1215
 8691SOL     OW37705   1.150   0.304   3.168 -0.0511  0.4743  0.3994
 8691SOL    HW137706   1.070   0.338   3.129  1.0195  2.4235 -0.0939
 8691SOL    HW237707   1.203   0.383   3.174  0.4946  0.1877 -0.6439
 8692SOL     OW37708   1.603   2.085   4.007  0.0282 -0.6036  0.4070
 8692SOL    HW137709   1.525   2.135   4.030  0.1542 -0.8314  1.3247
 8692SOL    HW237710   1.658   2.089   4.085  1.0779  0.3587 -0.3771
 8693SOL     OW37711   3.323   3.367  13.068 -1.0912 -0.0439 -0.5978
 8693SOL    HW137712   3.266   3.354  12.992 -0.9447 -0.3574 -0.6534
 8693SOL    HW237713   3.375   3.434  13.025 -0.1769 -1.4796 -1.7370
 8694SOL     OW37714   0.013   0.245   7.596  0.3245  0.1211 -0.2050
 8694SOL    HW137715   0.100   0.210   7.613  0.6244  2.3693  2.8022
 8694SOL    HW237716   4.737   0.178   7.530  1.7497 -0.0625 -0.3815
 8695SOL     OW37717   1.717   0.764   8.044  0.1838 -0.4300 -0.1370
 8695SOL    HW137718   1.729   0.680   8.088  0.0660  1.3831  3.3651
 8695SOL    HW237719   1.809   0.772   8.020 -0.3911 -0.9459 -2.4697
 8696SOL     OW37720   1.476   0.205  13.588  0.0917 -0.2915 -0.4732
 8696SOL    HW137721   1.385   0.235  13.582 -0.3100 -1.7647 -1.8268
 8696SOL    HW237722   1.467   0.111  13.574 -1.3829  0.4841 -4.8539
 8697SOL     OW37723   4.178   2.523   5.054 -0.0378  0.2087  0.3007
 8697SOL    HW137724   4.197   2.611   5.086  0.1765  0.3683 -0.2617
 8697SOL    HW237725   4.234   2.526   4.976 -0.9531 -0.0880 -0.3767
 8698SOL     OW37726   3.716   1.442  15.450 -0.0925 -0.1447 -0.2148
 8698SOL    HW137727   3.771   1.465  15.525 -2.5028  1.7629  0.9492
 8698SOL    HW237728   3.665   1.522  15.442  0.7687  0.2982 -1.2928
 8699SOL     OW37729   1.037   1.109  14.960  0.3823  0.3320 -0.1837
 8699SOL    HW137730   1.103   1.179  14.959 -1.8612  2.4293 -1.4710
 8699SOL    HW237731   1.075   1.069  14.882 -1.4466 -4.0651  1.2012
 8700SOL     OW37732   1.080   0.184   2.445  0.4881 -0.2100 -0.0364
 8700SOL    HW137733   0.995   0.224   2.425  0.6997 -0.6281 -1.7546
 8700SOL    HW237734   1.062   0.176   2.538 -0.9591  1.5553 -0.1698
 8701SOL     OW37735   1.296   1.466   1.535 -0.5063 -0.4618 -0.1127
 8701SOL    HW137736   1.212   1.492   1.498 -1.3761 -0.5712  1.7977
 8701SOL    HW237737   1.271   1.393   1.591  3.0801  1.9438  4.6811
 8702SOL     OW37738   4.496   3.920   1.747 -0.2442  0.1262 -0.2299
 8702SOL    HW137739   4.481   3.842   1.694 -2.2340  0.4844 -0.1708
 8702SOL    HW237740   4.426   3.910   1.811  0.8946  1.6145  1.2386
 8703SOL     OW37741   3.406   4.372   5.996 -0.1322 -0.1488 -0.2042
 8703SOL    HW137742   3.428   4.463   6.017 -0.3217 -0.2950  0.6132
 8703SOL    HW237743   3.311   4.368   6.008 -0.4248 -2.1069 -3.2804
 8704SOL     OW37744   1.381   2.328   5.052  0.3109 -0.8276 -0.1429
 8704SOL    HW137745   1.368   2.395   5.120  0.2504 -0.8438 -0.1388
 8704SOL    HW237746   1.292   2.295   5.063 -0.0768 -0.4319 -2.1553
 8705SOL     OW37747   1.402   0.628   5.374 -0.1978 -0.3467  0.6368
 8705SOL    HW137748   1.476   0.682   5.400  0.8003 -0.3892 -2.0782
 8705SOL    HW237749   1.346   0.703   5.352  1.2849  1.0464  1.6559
 8706SOL     OW37750   4.434   3.275   7.260  0.2166 -0.5220  0.2470
 8706SOL    HW137751   4.388   3.353   7.231 -1.6598 -0.7921  2.4854
 8706SOL    HW237752   4.453   3.236   7.174 -1.1537 -0.8182  0.0776
 8707SOL     OW37753   3.416   0.118   8.103  0.2159 -0.2062 -0.4399
 8707SOL    HW137754   3.496   0.065   8.101  0.7412  0.5029  1.7696
 8707SOL    HW237755   3.373   0.069   8.034 -0.2987 -1.3581  0.6890
 8708SOL     OW37756   2.585   0.068   9.272 -0.5641 -0.3091  0.0655
 8708SOL    HW137757   2.586   4.733   9.331 -2.0222 -1.3256 -1.2172
 8708SOL    HW237758   2.496   0.095   9.295  0.1344  2.4430 -0.4840
 8709SOL     OW37759   3.467   1.850   2.810 -0.5243 -0.5184 -0.5986
 8709SOL    HW137760   3.510   1.871   2.893  0.9744 -0.9890 -1.2657
 8709SOL    HW237761   3.542   1.821   2.758  0.7520  1.7461 -0.0138
 8710SOL     OW37762   2.207   2.644   1.438  0.4063 -0.5001  0.3337
 8710SOL    HW137763   2.115   2.646   1.466  0.1298 -0.3356 -0.6018
 8710SOL    HW237764   2.231   2.736   1.448 -2.5811  0.3694 -0.2688
 8711SOL     OW37765   2.473   0.366   9.223 -0.1397 -0.1780 -0.3994
 8711SOL    HW137766   2.535   0.309   9.177  1.0323  1.9243 -1.4384
 8711SOL    HW237767   2.522   0.386   9.303 -0.5912  1.4937 -0.5493
 8712SOL     OW37768   1.112   2.667   0.384 -0.5335 -0.2199  0.0588
 8712SOL    HW137769   1.176   2.712   0.329 -1.2496 -0.4630 -0.9750
 8712SOL    HW237770   1.145   2.580   0.409  0.2586 -0.5071 -2.0396
 8713SOL     OW37771   0.482   2.246   2.794 -0.1915 -0.1639  0.3021
 8713SOL    HW137772   0.468   2.331   2.751 -2.5491 -1.3172 -1.2430
 8713SOL    HW237773   0.439   2.263   2.878 -0.5686  0.4112 -0.0016
 8714SOL     OW37774   1.654   4.070   6.080 -0.6986 -0.0737 -0.3291
 8714SOL    HW137775   1.570   4.038   6.046  0.8534 -3.3166 -1.1583
 8714SOL    HW237776   1.627   4.091   6.170  1.9275  3.0663 -0.3019
 8715SOL     OW37777   4.213   3.651   3.485  0.3388 -0.0435  0.3364
 8715SOL    HW137778   4.308   3.639   3.485  0.3485  0.0455  1.2816
 8715SOL    HW237779   4.200   3.660   3.579 -1.6072  1.0448 -0.0352
 8716SOL     OW37780   0.685   2.752   4.984 -0.0027  0.3148 -0.3892
 8716SOL    HW137781   0.780   2.748   4.976  0.0698  1.6497 -0.1173
 8716SOL    HW237782   0.657   2.671   5.028  1.3553  0.6309  1.0685
 8717SOL     OW37783   3.933   4.444   8.110 -0.2672 -0.2096 -0.3358
 8717SOL    HW137784   3.841   4.417   8.113 -0.5047  0.8794  2.0641
 8717SOL    HW237785   3.969   4.363   8.073 -1.7934 -1.4373  0.8676
 8718SOL     OW37786   4.538   1.073   9.316 -0.4621  0.0568 -0.0310
 8718SOL    HW137787   4.616   1.078   9.372 -1.8592 -0.4075  1.9285
 8718SOL    HW237788   4.496   1.000   9.361 -1.4914  0.0081 -1.0698
 8719SOL     OW37789   0.181   2.832   8.867  0.6100  0.1523  0.3261
 8719SOL    HW137790   0.212   2.803   8.781  1.2885 -0.9590  0.9421
 8719SOL    HW237791   0.199   2.926   8.866  1.2219  0.0157 -1.8425
 8720SOL     OW37792   3.671   2.737   9.782 -0.3690 -0.1610 -0.3324
 8720SOL    HW137793   3.575   2.734   9.781 -0.3094 -1.3877 -1.9013
 8720SOL    HW237794   3.691   2.820   9.826  0.0078 -0.3496 -0.1514
 8721SOL     OW37795   1.137   4.428   8.147 -0.2704 -0.4359  0.2099
 8721SOL    HW137796   1.216   4.459   8.192  0.9920 -2.4217 -0.6206
 8721SOL    HW237797   1.102   4.504   8.100  0.9819 -0.4656 -0.7864
 8722SOL     OW37798   3.828   2.439   7.401  0.0701  0.5943  0.8266
 8722SOL    HW137799   3.822   2.370   7.467  1.3961 -0.0031  0.3092
 8722SOL    HW237800   3.775   2.512   7.435 -0.8366  0.8566 -1.1531
 8723SOL     OW37801   4.587   4.362   2.075 -0.2764 -1.0071  0.6739
 8723SOL    HW137802   4.519   4.387   2.012 -0.1599 -2.1736  0.0850
 8723SOL    HW237803   4.565   4.423   2.146  0.6498  0.0370  0.0787
 8724SOL     OW37804   3.460   4.405   6.922  0.2752 -0.3018 -0.0914
 8724SOL    HW137805   3.376   4.423   6.964 -0.3421  2.1123 -2.3297
 8724SOL    HW237806   3.512   4.473   6.964 -1.8066  0.7803  0.7240
 8725SOL     OW37807   4.468   1.252   3.896  0.2425 -0.1052 -0.3234
 8725SOL    HW137808   4.542   1.232   3.838  0.7172  1.1797 -0.1468
 8725SOL    HW237809   4.496   1.225   3.983 -3.1669  0.1687  0.8724
 8726SOL     OW37810   2.283   0.827   7.349  0.0278  0.8793  0.2703
 8726SOL    HW137811   2.317   0.882   7.419  1.3957  0.1715  0.1704
 8726SOL    HW237812   2.364   0.808   7.301  0.1016  1.8621 -0.0097
 8727SOL     OW37813   4.098   0.013   6.502 -0.1673  0.0208 -0.2798
 8727SOL    HW137814   4.129   4.695   6.434 -1.2337  0.8161 -1.4576
 8727SOL    HW237815   4.029   4.692   6.524 -0.5870  0.4997 -0.2446
 8728SOL     OW37816   3.475   3.049   8.135 -0.4306  0.5284  0.6699
 8728SOL    HW137817   3.418   3.027   8.209 -0.2801  0.3952  0.7438
 8728SOL    HW237818   3.530   3.103   8.192  0.4071 -1.0180  1.3075
 8729SOL     OW37819   0.874   3.952   7.615  0.1671 -0.1925 -0.1959
 8729SOL    HW137820   0.925   3.914   7.544 -0.6743 -2.2047  0.2656
 8729SOL    HW237821   0.911   4.039   7.629  0.8880 -0.4413 -0.5875
 8730SOL     OW37822   3.880   0.297   6.837  0.7313 -0.0643  0.5831
 8730SOL    HW137823   3.899   0.212   6.877  0.6598 -1.2234 -1.8579
 8730SOL    HW237824   3.870   0.272   6.745  2.2582 -0.3131  0.4889
 8731SOL     OW37825   4.477   2.167   6.590 -0.4272  0.6368 -0.0020
 8731SOL    HW137826   4.467   2.189   6.498 -0.8268  0.6494  0.0458
 8731SOL    HW237827   4.390   2.193   6.620 -0.8468 -2.3320  1.3123
 8732SOL     OW37828   1.493   3.978   2.310 -0.6383  0.3654  0.0572
 8732SOL    HW137829   1.499   4.066   2.349 -0.0439  0.9301 -1.3178
 8732SOL    HW237830   1.434   3.941   2.377 -0.2333  0.6433  0.5712
 8733SOL     OW37831   2.049   4.378   5.706  0.2817 -0.6357 -0.4789
 8733SOL    HW137832   2.141   4.391   5.684  0.6718 -4.7165 -1.4286
 8733SOL    HW237833   2.057   4.302   5.765  1.7268 -1.5652 -1.8936
 8734SOL     OW37834   0.836   2.015   2.465  0.3572  0.1996 -0.1538
 8734SOL    HW137835   0.899   1.947   2.441 -1.4633 -0.7433 -2.2620
 8734SOL    HW237836   0.750   1.975   2.470  0.5883 -0.3052 -0.2287
 8735SOL     OW37837   3.946   1.808   2.815  0.5419 -0.7272  0.4160
 8735SOL    HW137838   3.968   1.716   2.827  0.0520 -0.6834  1.6118
 8735SOL    HW237839   3.855   1.808   2.786  0.9392  2.7097 -0.8099
 8736SOL     OW37840   1.001   4.715   3.869  0.8017  0.1183  0.2155
 8736SOL    HW137841   1.092   4.719   3.898  1.3702 -0.4189 -1.4877
 8736SOL    HW237842   1.002   0.012   3.781  3.7390  0.9426  0.6246
 8737SOL     OW37843   3.873   1.110  12.147 -0.2168 -0.4424 -0.4018
 8737SOL    HW137844   3.794   1.112  12.202  0.3675  1.9181  0.3381
 8737SOL    HW237845   3.932   1.054  12.198  0.0266  1.1692  1.0735
 8738SOL     OW37846   1.701   0.831   0.096 -0.1917  0.3417  0.7136
 8738SOL    HW137847   1.679   0.868   0.182  1.7444 -1.8305  2.1623
 8738SOL    HW237848   1.760   0.758   0.118  0.7117  0.5962 -0.9337
 8739SOL     OW37849   2.336   4.001   7.925  0.3871  0.4709 -0.9549
 8739SOL    HW137850   2.244   4.026   7.931  0.4672  1.4729 -3.8873
 8739SOL    HW237851   2.354   3.978   7.834  0.8449  1.6191 -1.1529
 8740SOL     OW37852   1.127   1.711   6.273  0.1831 -0.4230  0.2712
 8740SOL    HW137853   1.131   1.791   6.325  2.2472  0.5426 -1.4115
 8740SOL    HW237854   1.122   1.634   6.330  0.2169 -1.8133 -1.6238
 8741SOL     OW37855   2.170   1.009   0.560 -0.2720 -0.1048 -0.8382
 8741SOL    HW137856   2.242   1.005   0.623 -0.4228 -1.3800 -0.7529
 8741SOL    HW237857   2.201   1.081   0.506  0.0616  1.1395  1.0127
 8742SOL     OW37858   2.532   2.777  12.981 -0.1421 -0.2895 -0.0681
 8742SOL    HW137859   2.562   2.775  13.072 -1.6887 -0.0745  0.4453
 8742SOL    HW237860   2.605   2.757  12.923  0.2835 -3.6068  1.5982
 8743SOL     OW37861   2.246   1.816  13.769  0.0183  0.0720  0.7312
 8743SOL    HW137862   2.157   1.846  13.784  0.6171  1.9897  0.4884
 8743SOL    HW237863   2.255   1.732  13.814 -1.9985  0.4153  1.7452
 8744SOL     OW37864   3.544   3.669   8.289  0.1992  0.2503 -0.1286
 8744SOL    HW137865   3.601   3.745   8.298 -1.8256  1.6472  0.9184
 8744SOL    HW237866   3.606   3.610   8.246  0.0085 -0.4534  0.5616
 8745SOL     OW37867   3.118   0.968   5.298  0.1093 -0.0195  0.1156
 8745SOL    HW137868   3.173   0.890   5.291  1.3459  0.7462  1.1809
 8745SOL    HW237869   3.115   0.998   5.208 -2.3903 -0.4328  0.0756
 8746SOL     OW37870   0.551   2.478  17.741 -0.0344 -0.8434  0.1460
 8746SOL    HW137871   0.477   2.447  17.689  0.5918  1.4889 -2.1967
 8746SOL    HW237872   0.609   2.509  17.670 -0.3690  1.3939  0.8356
 8747SOL     OW37873   4.701   3.581   6.219  0.3286 -0.2368  0.2033
 8747SOL    HW137874   4.667   3.526   6.149 -1.1991  1.3814 -0.3423
 8747SOL    HW237875   4.667   3.532   6.294 -0.8933 -1.8512 -1.3987
 8748SOL     OW37876   0.347   2.800   8.023  0.5077  0.3826  0.1495
 8748SOL    HW137877   0.292   2.806   8.101 -1.7333  2.7935 -1.6499
 8748SOL    HW237878   0.357   2.893   8.004  1.7947  0.3916  0.8334
 8749SOL     OW37879   2.859   0.872   4.899  0.0797 -0.1986  0.2931
 8749SOL    HW137880   2.825   0.811   4.833  0.6800 -0.9840  0.7136
 8749SOL    HW237881   2.882   0.816   4.973 -3.1544 -0.1664  1.3386
 8750SOL     OW37882   0.997   0.774   8.067 -0.3562  0.5969  0.6574
 8750SOL    HW137883   0.919   0.773   8.122 -1.8540  2.9469 -1.3670
 8750SOL    HW237884   0.970   0.722   7.991 -1.3860  0.1063  1.3675
 8751SOL     OW37885   3.360   3.171  14.866  0.0818 -0.2477  0.2736
 8751SOL    HW137886   3.379   3.261  14.891  0.0481  0.4392 -2.2100
 8751SOL    HW237887   3.265   3.183  14.864  0.4325  2.6146  2.1674
 8752SOL     OW37888   4.376   1.634   0.538 -0.1384 -0.4712  0.0537
 8752SOL    HW137889   4.433   1.701   0.499 -0.9011 -1.6798 -3.1811
 8752SOL    HW237890   4.313   1.632   0.466 -1.2467  2.0604  0.9701
 8753SOL     OW37891   1.744   0.232   2.016 -0.5756  0.0186 -0.2340
 8753SOL    HW137892   1.760   0.306   1.957 -1.0634  1.1249  1.0225
 8753SOL    HW237893   1.753   0.258   2.108  2.4864 -2.7025  0.2274
 8754SOL     OW37894   0.911   0.563  14.026  0.5322 -0.8211 -0.8279
 8754SOL    HW137895   0.842   0.497  14.021 -1.7138  1.4239  0.6759
 8754SOL    HW237896   0.962   0.554  13.945 -0.3108 -3.0963 -1.0960
 8755SOL     OW37897   0.638   2.041   2.720 -0.3513 -0.1942  0.0153
 8755SOL    HW137898   0.728   2.074   2.715 -1.2938  2.3222 -0.8136
 8755SOL    HW237899   0.598   2.118   2.761  0.2871 -1.3864  2.8441
 8756SOL     OW37900   1.001   2.597   0.028 -0.0808 -0.8785  0.7798
 8756SOL    HW137901   0.983   2.588  17.696 -0.3803  1.0298  0.6474
 8756SOL    HW237902   1.046   2.680   0.012 -0.8377 -0.0279  2.9800
 8757SOL     OW37903   1.270   1.043   6.639  0.4787  0.1146 -0.5654
 8757SOL    HW137904   1.233   1.106   6.700  1.3591 -0.8954  1.0267
 8757SOL    HW237905   1.229   1.082   6.563 -0.7775  0.3950  0.2584
 8758SOL     OW37906   4.486   2.538   4.981 -0.2580 -0.1767  0.2277
 8758SOL    HW137907   4.500   2.574   4.894  1.9253 -1.8303 -0.1133
 8758SOL    HW237908   4.486   2.619   5.031 -0.8407 -0.0961  0.0934
 8759SOL     OW37909   3.144   4.542   8.797 -0.4741  0.4888  0.1811
 8759SOL    HW137910   3.176   4.559   8.885 -2.2859  1.5869  0.6423
 8759SOL    HW237911   3.183   4.458   8.774 -1.6278 -0.1203  0.4241
 8760SOL     OW37912   2.346   4.178   2.077  0.4791  0.0434  0.1816
 8760SOL    HW137913   2.328   4.151   1.986 -2.5676  0.0633  0.7844
 8760SOL    HW237914   2.382   4.266   2.080  2.3069 -0.5877 -2.7113
 8761SOL     OW37915   1.039   3.663  12.594  0.3968  0.2493  0.2189
 8761SOL    HW137916   1.024   3.720  12.518  1.5496 -1.5209 -1.3421
 8761SOL    HW237917   1.097   3.720  12.644  1.0193 -0.4196  0.2709
 8762SOL     OW37918   1.108   3.518   7.311  0.7672  0.2124  0.4391
 8762SOL    HW137919   1.130   3.428   7.337  1.9753  0.8845  1.7376
 8762SOL    HW237920   1.183   3.559   7.354 -0.2437 -0.1477  2.5881
 8763SOL     OW37921   3.198   3.292  12.820  0.4942  0.1673 -0.4200
 8763SOL    HW137922   3.149   3.338  12.751  1.1347 -1.0932 -1.7314
 8763SOL    HW237923   3.254   3.252  12.754 -1.3893 -0.8502 -1.4159
 8764SOL     OW37924   1.079   4.158   2.473  0.1570  0.4936  0.0673
 8764SOL    HW137925   1.143   4.184   2.407  0.3486 -1.4289 -0.5088
 8764SOL    HW237926   1.135   4.105   2.531 -1.3135  0.2029  1.2186
 8765SOL     OW37927   0.410   1.562   6.008  1.1165  0.4847  0.0390
 8765SOL    HW137928   0.484   1.503   5.995 -0.5261 -1.6860  0.5216
 8765SOL    HW237929   0.456   1.645   5.994  1.9130  0.2726  1.4162
 8766SOL     OW37930   1.282   3.232  12.087 -0.1499  0.3295  0.0259
 8766SOL    HW137931   1.298   3.206  12.178 -0.5516  0.0455  0.0106
 8766SOL    HW237932   1.362   3.284  12.077  1.3327 -2.2387 -1.5557
 8767SOL     OW37933   3.105   2.719   8.973  0.5777  0.2847  0.7240
 8767SOL    HW137934   3.109   2.624   8.969  0.1574  0.2851  0.2642
 8767SOL    HW237935   3.016   2.728   8.939  1.0330  0.3802 -0.4463
 8768SOL     OW37936   3.863   3.342  14.952  0.3802  0.5170 -0.0794
 8768SOL    HW137937   3.791   3.338  15.016  1.1659  1.8389  0.8863
 8768SOL    HW237938   3.883   3.435  14.941 -1.1656  0.7973 -0.6199
 8769SOL     OW37939   0.406   1.286  14.372  0.0771  0.1814 -0.3796
 8769SOL    HW137940   0.418   1.363  14.427  1.3183 -1.1264  1.1600
 8769SOL    HW237941   0.317   1.306  14.344 -0.6618 -0.3021  1.6559
 8770SOL     OW37942   3.391   2.001   4.104  0.8746 -0.2975  0.6272
 8770SOL    HW137943   3.348   1.916   4.097 -1.0908  1.0307 -3.1985
 8770SOL    HW237944   3.360   2.028   4.191 -2.3008  0.7604 -0.8336
 8771SOL     OW37945   1.756   3.227   8.224 -0.4489  0.2668 -0.1089
 8771SOL    HW137946   1.792   3.260   8.307 -0.5985  1.6648 -0.6051
 8771SOL    HW237947   1.821   3.165   8.190 -1.3584 -0.5717 -0.3150
 8772SOL     OW37948   0.881   3.618  14.930 -0.2727  0.1802 -0.7239
 8772SOL    HW137949   0.916   3.657  15.009  1.4811 -1.9614 -0.4472
 8772SOL    HW237950   0.790   3.601  14.953 -0.1370 -0.5974 -0.7403
 8773SOL     OW37951   2.621   1.820  16.260 -0.0808 -0.3256 -0.3097
 8773SOL    HW137952   2.704   1.774  16.251 -0.0116 -0.1020 -0.8363
 8773SOL    HW237953   2.569   1.740  16.256 -0.5513 -0.0743  0.7830
 8774SOL     OW37954   3.406   1.809   4.383  0.7475  0.8096  0.1831
 8774SOL    HW137955   3.470   1.880   4.393  0.1410  1.1267  1.8914
 8774SOL    HW237956   3.466   1.736   4.368 -3.0902 -1.8631 -2.1415
 8775SOL     OW37957   3.416   1.210  14.386 -0.2319  0.2767 -0.0995
 8775SOL    HW137958   3.440   1.120  14.407  2.6158  0.9459 -0.4907
 8775SOL    HW237959   3.453   1.223  14.299  1.2272  1.0974  0.6316
 8776SOL     OW37960   4.270   3.903  11.086 -0.5328  0.7143  0.3779
 8776SOL    HW137961   4.298   3.990  11.057 -2.3163  0.4822 -2.1298
 8776SOL    HW237962   4.213   3.929  11.158  0.1057 -1.7077  1.7528
 8777SOL     OW37963   1.540   1.138  13.933 -0.0487 -0.2980 -0.0030
 8777SOL    HW137964   1.562   1.074  13.866  0.6110  1.8071 -1.7900
 8777SOL    HW237965   1.454   1.161  13.898  0.3255 -0.1420 -0.8269
 8778SOL     OW37966   4.703   4.020   4.859 -0.3513  0.3733 -0.2150
 8778SOL    HW137967   4.695   4.113   4.879  1.1515  0.7905 -1.5532
 8778SOL    HW237968   0.057   4.010   4.848 -0.4147 -3.0397  2.3785
 8779SOL     OW37969   2.716   3.712   7.711 -0.3486  0.1466 -0.1322
 8779SOL    HW137970   2.793   3.684   7.759 -1.0274  1.4568  1.7480
 8779SOL    HW237971   2.733   3.806   7.706 -0.8539  0.2493  0.0279
 8780SOL     OW37972   2.846   3.470   0.421 -0.1569 -0.1584 -0.0418
 8780SOL    HW137973   2.825   3.378   0.442  0.2199 -0.1372  0.4114
 8780SOL    HW237974   2.835   3.511   0.506  0.0864  0.7769 -0.4617
 8781SOL     OW37975   1.532   2.683   2.333  0.8568 -0.0937  0.0133
 8781SOL    HW137976   1.611   2.738   2.336  0.4966  0.4095  0.4157
 8781SOL    HW237977   1.476   2.739   2.280 -1.0780 -0.2158  1.9033
 8782SOL     OW37978   4.437   0.219  12.146 -0.9198  0.3724 -0.7028
 8782SOL    HW137979   4.379   0.269  12.089 -3.4776 -0.6565  1.0193
 8782SOL    HW237980   4.492   0.181  12.078  0.0408  0.5977 -0.0548
 8783SOL     OW37981   3.093   1.460   4.407 -0.1186 -0.2845  0.0327
 8783SOL    HW137982   3.024   1.465   4.472  0.2159 -0.5833  0.4124
 8783SOL    HW237983   3.165   1.490   4.462  0.5841  2.5635 -2.4050
 8784SOL     OW37984   1.202   0.131   6.976 -0.4971 -0.7434  0.2300
 8784SOL    HW137985   1.236   0.051   6.938 -0.0536 -0.3897 -0.1150
 8784SOL    HW237986   1.214   0.192   6.904 -2.2744  0.1956  0.7103
 8785SOL     OW37987   0.644   1.777   7.114  0.3555  0.0262  0.2512
 8785SOL    HW137988   0.659   1.683   7.107 -1.4317 -0.1094 -1.7125
 8785SOL    HW237989   0.572   1.788   7.175 -0.6124  1.9829 -1.2346
 8786SOL     OW37990   3.937   4.044   7.550  0.3053 -0.2161 -0.2606
 8786SOL    HW137991   3.977   4.111   7.495  0.3301  0.1352  0.1916
 8786SOL    HW237992   3.845   4.065   7.533 -0.3473  0.2644  3.8176
 8787SOL     OW37993   4.424   4.336  14.474 -0.0472 -0.4850 -0.1061
 8787SOL    HW137994   4.382   4.328  14.388 -0.7398 -2.7529  0.4327
 8787SOL    HW237995   4.507   4.297  14.444 -0.2498  0.4482 -1.8682
 8788SOL     OW37996   0.430   0.689   7.142 -0.0205  0.1853  0.0436
 8788SOL    HW137997   0.413   0.616   7.082  0.4991 -1.2264  1.6310
 8788SOL    HW237998   0.512   0.655   7.177  0.2688 -0.2014 -1.0046
 8789SOL     OW37999   0.610   1.962   7.896 -0.3532 -0.3047 -0.6088
 8789SOL    HW138000   0.610   1.937   7.804  0.2858 -1.7429 -0.2216
 8789SOL    HW238001   0.669   2.037   7.901 -0.6270 -0.0075 -1.7946
 8790SOL     OW38002   1.550   4.482   3.374  0.3224 -0.2831 -0.0678
 8790SOL    HW138003   1.553   4.386   3.370  1.5879 -0.1752 -1.6283
 8790SOL    HW238004   1.509   4.494   3.289  1.9314 -0.4258 -0.8721
 8791SOL     OW38005   1.168   1.132   5.442 -0.4350 -0.1920  0.0993
 8791SOL    HW138006   1.100   1.107   5.380  0.0974 -1.7565  0.1448
 8791SOL    HW238007   1.134   1.099   5.525  1.9746  1.7143  1.8625
 8792SOL     OW38008   1.622   3.825   9.848 -0.4483  0.1004  0.3638
 8792SOL    HW138009   1.609   3.775   9.928 -1.6020  0.7243  0.5754
 8792SOL    HW238010   1.709   3.862   9.860 -0.3227 -0.8355  2.2242
 8793SOL     OW38011   3.005   0.189   7.251  0.0184 -0.0218  0.6429
 8793SOL    HW138012   3.069   0.260   7.258 -1.6494  1.6685 -1.3346
 8793SOL    HW238013   2.922   0.235   7.241  1.2768  1.8807 -1.1785
 8794SOL     OW38014   0.200   1.341   2.348  0.1796 -0.1482 -0.3284
 8794SOL    HW138015   0.266   1.277   2.321  0.4369 -0.4368  0.9748
 8794SOL    HW238016   0.250   1.380   2.420  0.6855 -0.6972 -0.3811
 8795SOL     OW38017   0.670   1.142   7.620  0.1383  0.1686 -0.7673
 8795SOL    HW138018   0.714   1.148   7.705  0.3647  0.1828 -0.8866
 8795SOL    HW238019   0.744   1.179   7.572 -1.8464  2.6606 -1.9386
 8796SOL     OW38020   2.432   3.979   0.744 -0.4948 -0.5428  0.0175
 8796SOL    HW138021   2.353   4.013   0.703  1.2030 -1.7005 -4.1748
 8796SOL    HW238022   2.488   3.973   0.667  1.0450 -0.5349  1.1363
 8797SOL     OW38023   3.835   1.095   6.709 -0.1199 -0.0916  0.7028
 8797SOL    HW138024   3.773   1.056   6.770 -0.2702  1.2951  1.4592
 8797SOL    HW238025   3.803   1.186   6.713  0.2980 -0.0073  2.3506
 8798SOL     OW38026   0.712   3.434   6.414  0.1888 -0.6463  0.0985
 8798SOL    HW138027   0.734   3.521   6.379  3.3103 -1.7310 -0.6373
 8798SOL    HW238028   0.618   3.419   6.406 -0.4677  3.2082  0.3154
 8799SOL     OW38029   3.569   0.094   1.587 -0.0136 -0.3279 -0.2718
 8799SOL    HW138030   3.507   0.081   1.658 -0.5319  0.3235 -0.6055
 8799SOL    HW238031   3.511   0.132   1.521  2.2717  0.4687 -1.8531
 8800SOL     OW38032   3.554   1.867   4.709 -0.3265  0.0016  0.1223
 8800SOL    HW138033   3.530   1.801   4.775 -1.4787 -0.0134 -0.3235
 8800SOL    HW238034   3.616   1.818   4.655 -1.5291 -1.2247 -0.1548
 8801SOL     OW38035   3.813   0.092   8.827 -0.0128 -0.0451  0.1601
 8801SOL    HW138036   3.732   0.087   8.876  0.4102  0.3631  0.8950
 8801SOL    HW238037   3.876   0.121   8.893  0.0065 -1.8550  0.9363
 8802SOL     OW38038   2.118   1.009   5.992  0.1152  0.5601  0.1558
 8802SOL    HW138039   2.098   0.916   6.000 -0.0338  0.4783 -1.1497
 8802SOL    HW238040   2.104   1.032   6.084 -1.1857 -0.7159  0.2918
 8803SOL     OW38041   0.796   3.873  13.221 -0.1224  0.0235  0.7589
 8803SOL    HW138042   0.861   3.939  13.199  0.8785 -0.7551  1.3920
 8803SOL    HW238043   0.718   3.928  13.216 -0.4996 -0.6229 -0.7463
 8804SOL     OW38044   4.240   2.148   4.308  0.4068 -0.2573 -0.0284
 8804SOL    HW138045   4.261   2.092   4.233  1.0271  0.1750 -0.1767
 8804SOL    HW238046   4.156   2.111   4.334 -0.4138 -0.3515 -2.8117
 8805SOL     OW38047   2.532   2.581   5.024 -0.1068  0.5092  0.2736
 8805SOL    HW138048   2.559   2.538   4.943 -1.2826 -1.6640  1.0266
 8805SOL    HW238049   2.610   2.577   5.080  0.8682  1.3411 -1.0500
 8806SOL     OW38050   1.654   0.087   8.352  0.0540  0.1402  0.1348
 8806SOL    HW138051   1.611   0.004   8.376  2.9484 -1.4868 -0.3278
 8806SOL    HW238052   1.671   0.127   8.437  2.5419  0.4995 -0.5450
 8807SOL     OW38053   3.433   3.276   9.809  0.7214 -0.2045  0.5425
 8807SOL    HW138054   3.477   3.192   9.822  0.8616 -0.3294 -0.7133
 8807SOL    HW238055   3.387   3.280   9.893  2.0733  1.4747  1.1961
 8808SOL     OW38056   4.452   1.615  10.572  0.6673 -0.0410 -0.4644
 8808SOL    HW138057   4.376   1.567  10.604  3.3164 -2.1502  2.6732
 8808SOL    HW238058   4.512   1.546  10.544  0.7722  0.1790 -0.7885
 8809SOL     OW38059   4.521   3.322  16.818  0.0066  0.1271  0.4907
 8809SOL    HW138060   4.526   3.357  16.729 -2.7045 -0.8487 -0.0380
 8809SOL    HW238061   4.499   3.236  16.783 -0.5176  0.9399 -1.2173
 8810SOL     OW38062   3.383   1.981  11.514  0.3892 -0.3020 -0.1471
 8810SOL    HW138063   3.420   2.067  11.492 -1.4909 -0.2744 -3.2779
 8810SOL    HW238064   3.456   1.920  11.527  0.5379 -0.0369  0.2553
 8811SOL     OW38065   1.852   4.196  15.809 -0.0457  0.2404  0.0007
 8811SOL    HW138066   1.792   4.127  15.781 -1.0237  0.7255  0.8640
 8811SOL    HW238067   1.937   4.153  15.800  0.8425  2.1359 -0.5787
 8812SOL     OW38068   4.661   3.062   6.713 -0.2084 -0.1943 -0.0508
 8812SOL    HW138069   4.719   3.122   6.759  1.3401 -0.3561 -1.8145
 8812SOL    HW238070   4.644   3.002   6.786  0.9937 -1.6760 -0.9913
 8813SOL     OW38071   1.106   3.487  12.153 -0.6132  0.3164 -0.1010
 8813SOL    HW138072   1.061   3.501  12.237 -0.3878 -0.4610  0.1523
 8813SOL    HW238073   1.106   3.393  12.134 -2.2068  0.5611 -1.2929
 8814SOL     OW38074   2.345   4.271   2.920 -0.0470 -0.5340 -0.0948
 8814SOL    HW138075   2.278   4.226   2.868 -0.5132  2.8832 -2.4389
 8814SOL    HW238076   2.303   4.265   3.006  1.3854  1.9696  0.7901
 8815SOL     OW38077   4.653   2.855   6.307  0.1723 -0.0117 -0.5326
 8815SOL    HW138078   4.685   2.938   6.343 -0.7635  0.5972 -1.1107
 8815SOL    HW238079   4.560   2.874   6.318  0.4095  0.1749  1.2477
 8816SOL     OW38080   4.710   3.942   9.970  0.3508 -0.2150 -0.6065
 8816SOL    HW138081   4.690   4.032   9.943 -3.4371 -0.7266  0.4982
 8816SOL    HW238082   4.740   3.957  10.060 -0.0584  0.5085 -0.5937
 8817SOL     OW38083   3.783   3.363  14.272 -0.5799  0.4037  0.2727
 8817SOL    HW138084   3.827   3.320  14.199 -1.9673 -0.4388 -0.0590
 8817SOL    HW238085   3.807   3.316  14.352  0.9770  3.0723  1.3853
 8818SOL     OW38086   2.557   2.697   1.477 -0.3928 -0.2068 -0.1117
 8818SOL    HW138087   2.565   2.735   1.564 -2.3224  2.5404 -1.1416
 8818SOL    HW238088   2.508   2.615   1.488 -1.6959  0.9395  2.6516
 8819SOL     OW38089   0.409   2.793   0.861 -0.2423 -0.3586 -0.5989
 8819SOL    HW138090   0.417   2.884   0.892 -0.1730  0.4029 -2.8934
 8819SOL    HW238091   0.494   2.788   0.818  0.4067  0.6133  0.5686
 8820SOL     OW38092   4.564   0.212   2.200 -0.7725 -0.2574  0.1009
 8820SOL    HW138093   4.624   0.196   2.127  0.1658  2.4556  0.2850
 8820SOL    HW238094   4.511   0.278   2.154  0.1234 -0.5891 -1.3996
 8821SOL     OW38095   2.849   2.675   7.686 -0.7635  0.2669  0.1735
 8821SOL    HW138096   2.756   2.655   7.676 -0.9091  1.3329 -0.5735
 8821SOL    HW238097   2.845   2.764   7.721  1.4286 -0.1065  1.3509
 8822SOL     OW38098   0.762   1.572   1.123 -0.1374  0.2565  0.0328
 8822SOL    HW138099   0.780   1.515   1.049  1.8289 -1.1840  1.6463
 8822SOL    HW238100   0.672   1.603   1.110  0.3310  1.0079 -1.5180
 8823SOL     OW38101   3.872   3.387   5.282  0.2073 -0.3953 -0.2133
 8823SOL    HW138102   3.918   3.325   5.227  2.0443  0.0568  0.8174
 8823SOL    HW238103   3.933   3.423   5.346  1.6652  0.0282 -1.8716
 8824SOL     OW38104   0.556   0.240  15.069 -0.4169  0.3952 -0.3276
 8824SOL    HW138105   0.544   0.146  15.057 -0.1552  0.4094 -0.6799
 8824SOL    HW238106   0.501   0.261  15.144  0.6445 -0.5206  0.7219
 8825SOL     OW38107   4.712   1.255   1.156  0.3544  0.2221 -0.3407
 8825SOL    HW138108   0.047   1.310   1.177 -0.6227  1.1912  0.6847
 8825SOL    HW238109   4.721   1.235   1.063  1.8346  1.1831 -0.4028
 8826SOL     OW38110   0.235   3.238   0.508 -0.1715 -0.3132  0.3882
 8826SOL    HW138111   0.265   3.291   0.434 -1.1888  0.2592  0.3861
 8826SOL    HW238112   0.245   3.146   0.484 -1.5510  0.0725 -1.5990
 8827SOL     OW38113   2.429   0.270   7.341 -0.2475 -0.4518  0.1740
 8827SOL    HW138114   2.508   0.220   7.364  0.4610  0.3837 -0.4018
 8827SOL    HW238115   2.457   0.317   7.262 -0.3343 -0.0790  0.3653
 8828SOL     OW38116   1.772   0.560   0.861  0.3226 -0.3294  0.4115
 8828SOL    HW138117   1.808   0.502   0.927 -0.4236 -0.5373  0.6371
 8828SOL    HW238118   1.723   0.504   0.800  0.9159  0.6576 -0.9894
 8829SOL     OW38119   2.893   3.520   8.472 -0.1634 -0.2940  0.2616
 8829SOL    HW138120   2.955   3.494   8.404  0.2966  0.2064  0.4923
 8829SOL    HW238121   2.852   3.596   8.429 -1.3569 -1.0894 -0.0135
 8830SOL     OW38122   4.709   2.133  12.027 -0.0107  0.1138 -0.6575
 8830SOL    HW138123   4.649   2.101  12.095  1.1260 -1.5654 -0.4370
 8830SOL    HW238124   4.657   2.198  11.980  1.8631  2.3110  0.3097
 8831SOL     OW38125   4.501   2.794   7.191  0.4696 -0.4784 -0.4019
 8831SOL    HW138126   4.530   2.704   7.177 -1.0645 -0.6580 -2.4870
 8831SOL    HW238127   4.506   2.808   7.286 -1.5554 -0.3240 -0.3147
 8832SOL     OW38128   4.168   0.365   6.776  0.0634 -0.0398  0.3737
 8832SOL    HW138129   4.085   0.330   6.808  1.7402 -2.8797  1.5846
 8832SOL    HW238130   4.139   0.455   6.756 -0.4097  0.2193  2.2070
 8833SOL     OW38131   0.190   1.236   8.207  0.3870  0.5840  0.3506
 8833SOL    HW138132   0.139   1.179   8.265 -1.7416  2.6029  0.4688
 8833SOL    HW238133   0.204   1.321   8.247 -1.1023  0.7188  0.5831
 8834SOL     OW38134   0.720   0.165   8.446 -0.1647  0.3917 -0.3138
 8834SOL    HW138135   0.730   0.158   8.541  1.4202  1.1499 -0.4160
 8834SOL    HW238136   0.632   0.202   8.445  0.3592  1.6078 -1.9978
 8835SOL     OW38137   1.221   3.569  13.156  0.3383  0.2224 -0.0011
 8835SOL    HW138138   1.146   3.526  13.198 -0.3275 -0.5105 -1.9449
 8835SOL    HW238139   1.200   3.662  13.168 -0.2446 -0.2973  2.8619
 8836SOL     OW38140   0.787   2.720   2.027 -0.5679  0.0901  0.7700
 8836SOL    HW138141   0.720   2.746   1.963  1.1341  1.0481 -0.6171
 8836SOL    HW238142   0.865   2.750   1.981  0.1557  0.8162  2.4924
 8837SOL     OW38143   1.681   1.244   1.086  0.0827  0.3621  0.2684
 8837SOL    HW138144   1.722   1.235   1.000  0.5253  0.1871  0.4973
 8837SOL    HW238145   1.646   1.158   1.108 -2.4605  1.4993  0.6331
 8838SOL     OW38146   2.756   1.255   8.923 -0.3506  0.5867 -0.1953
 8838SOL    HW138147   2.710   1.297   8.851 -0.8116  1.1735  0.4401
 8838SOL    HW238148   2.739   1.163   8.903 -0.1529  0.4855  0.0914
 8839SOL     OW38149   0.608   1.037   5.456 -0.0895  0.2626  0.2703
 8839SOL    HW138150   0.531   1.073   5.412  0.5399  1.6613  0.3037
 8839SOL    HW238151   0.613   0.956   5.405  1.3295  1.1855 -1.0839
 8840SOL     OW38152   3.684   0.952  17.265 -0.5096 -0.3330 -0.2862
 8840SOL    HW138153   3.600   0.915  17.239 -0.7208 -0.7071  0.9221
 8840SOL    HW238154   3.727   0.949  17.179  2.4049 -3.3614  1.2585
 8841SOL     OW38155   1.571   2.998   2.472  0.0346 -0.1346 -0.2697
 8841SOL    HW138156   1.594   3.042   2.553  1.2794 -2.4017  0.6130
 8841SOL    HW238157   1.655   3.006   2.427  0.7924 -0.5600  1.0709
 8842SOL     OW38158   2.270   3.591  15.581 -0.1622  0.4355 -0.2387
 8842SOL    HW138159   2.316   3.669  15.614 -0.3721 -0.3759  1.9845
 8842SOL    HW238160   2.194   3.584  15.638  0.6658 -1.6047  0.6095
 8843SOL     OW38161   4.054   4.264  15.664 -0.0532 -0.0338 -0.0336
 8843SOL    HW138162   4.029   4.176  15.690  2.2223 -0.9996 -1.1059
 8843SOL    HW238163   4.004   4.329  15.714 -0.3226  0.8678 -1.4542
 8844SOL     OW38164   2.938   2.515   5.074  0.6719 -0.4802 -0.3652
 8844SOL    HW138165   2.930   2.520   5.170  0.4043  0.3057 -0.4304
 8844SOL    HW238166   2.870   2.453   5.048 -1.4294  1.7786 -0.2371
 8845SOL     OW38167   2.211   2.488   4.236  0.4851 -0.0023  0.3760
 8845SOL    HW138168   2.250   2.403   4.217 -0.5689 -0.6942  1.3451
 8845SOL    HW238169   2.119   2.463   4.230  0.3771  0.9497 -1.7503
 8846SOL     OW38170   1.219   0.544  13.331 -0.6051  0.4318  0.2752
 8846SOL    HW138171   1.270   0.608  13.281 -0.3118  0.1251  0.1805
 8846SOL    HW238172   1.152   0.527  13.265  1.1096  0.5496 -1.5015
 8847SOL     OW38173   2.673   1.860  14.500 -0.0882  0.4899  0.8867
 8847SOL    HW138174   2.693   1.904  14.583  1.1895 -2.6083  2.2307
 8847SOL    HW238175   2.622   1.926  14.452  1.1151  1.4759  0.9697
 8848SOL     OW38176   3.513   4.550   7.150  0.2716  0.1867 -0.0382
 8848SOL    HW138177   3.423   4.519   7.152  0.2888  0.2363  1.3401
 8848SOL    HW238178   3.508   4.644   7.170 -2.3292  0.2435 -1.0093
 8849SOL     OW38179   0.609   3.068  15.775 -0.2840 -0.1930  0.4324
 8849SOL    HW138180   0.577   3.156  15.756  0.9235  0.6104  2.1614
 8849SOL    HW238181   0.700   3.059  15.744 -0.4972 -1.9824  0.3226
 8850SOL     OW38182   1.340   2.481   9.023  0.2310 -0.2505  0.2741
 8850SOL    HW138183   1.389   2.558   8.997 -0.5185 -0.3388 -1.3949
 8850SOL    HW238184   1.343   2.505   9.116  1.2253 -1.6580  0.6103
 8851SOL     OW38185   2.431   4.285   3.331  0.1625 -0.8604  1.2068
 8851SOL    HW138186   2.485   4.228   3.276  0.1769  3.5531 -3.3135
 8851SOL    HW238187   2.356   4.228   3.349 -0.2018 -0.9673 -0.6643
 8852SOL     OW38188   2.730   3.238  16.530 -0.3062  0.5170  0.5255
 8852SOL    HW138189   2.740   3.272  16.618  0.0728 -1.3799  1.2072
 8852SOL    HW238190   2.723   3.145  16.553  1.5546  0.3525  0.4635
 8853SOL     OW38191   4.592   1.367   8.542  0.0373 -0.5783 -0.3956
 8853SOL    HW138192   4.645   1.443   8.564  0.9080 -0.8645 -1.4728
 8853SOL    HW238193   4.554   1.340   8.626  3.0436  0.1011  1.1875
 8854SOL     OW38194   3.782   0.408   7.621  0.3331  0.4384 -0.1689
 8854SOL    HW138195   3.840   0.477   7.653 -0.9452  0.7310  1.4896
 8854SOL    HW238196   3.838   0.334   7.643  0.6008  0.8473  0.5256
 8855SOL     OW38197   1.866   2.858   4.907  0.0040 -0.7571 -0.3735
 8855SOL    HW138198   1.922   2.806   4.966 -0.5279  1.6707  2.2582
 8855SOL    HW238199   1.884   2.806   4.829 -2.1325 -2.5235  0.3294
 8856SOL     OW38200   3.995   0.644   3.539  0.2731 -0.2981  0.8484
 8856SOL    HW138201   3.963   0.730   3.568 -0.2671 -0.6319  1.2377
 8856SOL    HW238202   4.029   0.611   3.622 -1.0944  1.1180  1.9679
 8857SOL     OW38203   0.547   3.629  11.181  0.1923 -0.2133  0.2567
 8857SOL    HW138204   0.557   3.538  11.209 -1.1759 -0.3591  0.2866
 8857SOL    HW238205   0.562   3.669  11.267  0.8063 -1.9727  0.9632
 8858SOL     OW38206   0.162   2.173  11.606 -0.2015 -0.3541 -0.3093
 8858SOL    HW138207   0.181   2.142  11.694  1.3939  0.6555 -0.3006
 8858SOL    HW238208   0.233   2.234  11.585 -0.3948  0.0562  0.2211
 8859SOL     OW38209   2.421   2.576   1.213  0.1589 -0.0967  0.5458
 8859SOL    HW138210   2.466   2.660   1.226  1.1278 -0.5079 -0.1027
 8859SOL    HW238211   2.349   2.597   1.272  2.2952  1.2566  2.6814
 8860SOL     OW38212   0.885   3.041   6.087  0.1968 -0.2392  0.0872
 8860SOL    HW138213   0.856   3.113   6.144  0.0528 -1.0042  0.9755
 8860SOL    HW238214   0.957   3.080   6.038  0.5713  0.3246  1.0633
 8861SOL     OW38215   0.606   3.421   3.784  0.0188  0.0590  0.3225
 8861SOL    HW138216   0.529   3.388   3.830  0.2377  0.5304  1.0287
 8861SOL    HW238217   0.645   3.338   3.757 -0.2208  0.0355  0.0519
 8862SOL     OW38218   3.522   1.779   3.486 -0.1005 -0.2795 -0.2568
 8862SOL    HW138219   3.524   1.700   3.432  0.7277  0.8096 -1.8373
 8862SOL    HW238220   3.613   1.810   3.485 -1.4364  3.6657 -1.5398
 8863SOL     OW38221   1.631   3.439   8.757  0.1468  0.0949  0.0471
 8863SOL    HW138222   1.573   3.513   8.776 -1.1649 -0.7171 -0.9093
 8863SOL    HW238223   1.719   3.477   8.746 -0.9249  2.8395  0.8723
 8864SOL     OW38224   2.982   3.320  10.238 -0.1195 -0.0145 -0.2889
 8864SOL    HW138225   2.899   3.281  10.264  0.8197 -0.4257  2.1574
 8864SOL    HW238226   2.966   3.366  10.156  0.9364  0.4079 -0.2559
 8865SOL     OW38227   0.018   0.690   5.100  0.8892 -0.3485  0.0606
 8865SOL    HW138228   4.679   0.697   5.048  0.3873  0.1633  0.9096
 8865SOL    HW238229   0.066   0.628   5.045 -0.4282 -2.3725  1.1914
 8866SOL     OW38230   4.183   0.054   8.186 -0.4753  0.0186 -0.4574
 8866SOL    HW138231   4.116   0.002   8.230  0.0359  0.8126  1.2310
 8866SOL    HW238232   4.247   0.063   8.257 -4.2963 -0.2845  3.0160
 8867SOL     OW38233   1.549   2.519   7.214 -0.1202 -0.2369 -0.1656
 8867SOL    HW138234   1.511   2.510   7.301  1.8866  4.1187  1.1681
 8867SOL    HW238235   1.637   2.490   7.239  0.1932  0.5599 -0.3630
 8868SOL     OW38236   3.495   0.620   6.019 -0.6684 -0.1048  0.1780
 8868SOL    HW138237   3.497   0.594   5.927 -0.4286  1.3715 -0.2260
 8868SOL    HW238238   3.449   0.548   6.062 -0.0312 -0.3515  0.4443
 8869SOL     OW38239   1.976   0.860   1.650  0.7733  0.1400 -0.0469
 8869SOL    HW138240   1.888   0.892   1.631  0.7018  1.0224  1.8358
 8869SOL    HW238241   1.977   0.879   1.744 -0.3204 -1.2028  0.2399
 8870SOL     OW38242   1.954   1.573   0.510  0.4255  0.1132 -0.1629
 8870SOL    HW138243   2.016   1.506   0.538  1.0564  1.0049  0.5999
 8870SOL    HW238244   1.871   1.543   0.546  1.9949 -2.5805  1.2032
 8871SOL     OW38245   3.812   0.692   2.156  0.3248 -0.0080  0.0816
 8871SOL    HW138246   3.815   0.766   2.217 -0.8853  0.6482 -0.6479
 8871SOL    HW238247   3.723   0.703   2.121 -0.2255 -3.9251  0.3068
 8872SOL     OW38248   1.918   2.296   5.724 -0.7477  0.6831 -0.0036
 8872SOL    HW138249   1.965   2.274   5.804 -0.3259  0.7412 -0.2306
 8872SOL    HW238250   1.904   2.207   5.694  1.9809  1.0063 -2.3346
 8873SOL     OW38251   3.602   2.416   6.032 -0.0021 -0.0834 -0.1245
 8873SOL    HW138252   3.613   2.322   6.016 -0.1071  0.0165 -0.7973
 8873SOL    HW238253   3.570   2.422   6.122  1.8105  1.7318  0.3973
 8874SOL     OW38254   4.661   0.857   7.480 -0.2269 -0.0431  0.2681
 8874SOL    HW138255   4.659   0.892   7.391  0.9005 -2.2480 -0.6366
 8874SOL    HW238256   4.568   0.837   7.492 -0.5718  1.2509 -0.2157
 8875SOL     OW38257   0.693   0.041   9.169 -0.3445  0.1991 -0.2158
 8875SOL    HW138258   0.625   0.108   9.180  0.2357  0.3612  2.3345
 8875SOL    HW238259   0.654   4.715   9.225 -2.3765 -0.7298 -2.7051
 8876SOL     OW38260   0.208   1.885  14.064  0.2919  0.0603 -0.3458
 8876SOL    HW138261   0.273   1.894  14.134 -1.4564  1.1228  1.1131
 8876SOL    HW238262   0.203   1.967  14.014 -0.3393 -0.6992 -1.5228
 8877SOL     OW38263   1.731   1.273   4.032 -0.0514 -0.3805  0.2076
 8877SOL    HW138264   1.785   1.202   4.068  0.5211  0.2962  0.6929
 8877SOL    HW238265   1.779   1.351   4.059 -1.4101  1.1158 -1.6951
 8878SOL     OW38266   1.516   3.457   6.648 -0.1969 -0.0938  0.0349
 8878SOL    HW138267   1.611   3.466   6.658 -0.4411 -0.0641  2.3722
 8878SOL    HW238268   1.484   3.506   6.724 -1.1223  0.7628 -0.9138
 8879SOL     OW38269   3.333   3.961   4.625 -0.1416 -0.0433 -0.1809
 8879SOL    HW138270   3.303   3.878   4.588  2.3542 -1.2679  0.5402
 8879SOL    HW238271   3.387   3.997   4.555 -0.4877 -1.7672 -1.3279
 8880SOL     OW38272   3.485   2.424   7.715 -0.4248  0.2641  0.2484
 8880SOL    HW138273   3.570   2.382   7.708 -0.9196 -0.7550  0.3052
 8880SOL    HW238274   3.496   2.477   7.794  1.7887 -1.1966  0.9086
 8881SOL     OW38275   3.855   4.683   6.074 -0.4593  0.1918  0.4398
 8881SOL    HW138276   3.876   0.014   6.014 -0.1352 -0.9651 -0.8420
 8881SOL    HW238277   3.774   4.656   6.031 -0.6546  0.1688  0.8237
 8882SOL     OW38278   2.879   4.527   6.542 -0.5346  0.0953  0.3196
 8882SOL    HW138279   2.921   4.443   6.524  0.9657  0.8999  0.1220
 8882SOL    HW238280   2.948   4.592   6.536  0.4488 -0.8388  1.6386
 8883SOL     OW38281   0.859   2.600  13.840  0.0507  0.4651 -0.0861
 8883SOL    HW138282   0.791   2.552  13.889 -1.7243  3.1317  0.1018
 8883SOL    HW238283   0.898   2.536  13.781 -0.7061 -1.3410  1.3691
 8884SOL     OW38284   0.512   1.532  17.623 -0.4764 -0.2176  1.1308
 8884SOL    HW138285   0.587   1.480  17.650  0.3035 -0.0296 -0.6162
 8884SOL    HW238286   0.448   1.469  17.654 -1.2538  0.1649  0.3104
 8885SOL     OW38287   3.843   2.732   7.982  0.0079 -0.3645 -0.4856
 8885SOL    HW138288   3.904   2.806   7.992 -0.1111 -0.0802 -1.8793
 8885SOL    HW238289   3.768   2.775   8.024 -0.6080 -0.9715 -0.9747
 8886SOL     OW38290   4.640   2.334   1.148  0.0053 -0.4137 -0.0814
 8886SOL    HW138291   4.691   2.253   1.150 -1.0399 -1.1219 -1.6803
 8886SOL    HW238292   4.701   2.407   1.155  3.3582 -2.8272 -3.3870
 8887SOL     OW38293   0.849   4.631   0.738 -0.0017 -0.1275 -0.3434
 8887SOL    HW138294   0.780   4.611   0.801 -0.2568 -1.2696 -0.9809
 8887SOL    HW238295   0.902   4.555   0.762 -0.3482 -0.9004 -2.0360
 8888SOL     OW38296   2.918   0.592   2.197  0.7727 -0.6650  0.2369
 8888SOL    HW138297   2.959   0.508   2.217  2.5780  0.0563 -0.4375
 8888SOL    HW238298   2.910   0.632   2.283  0.6397  1.0134 -0.5581
 8889SOL     OW38299   4.556   0.394   8.031  0.4629  0.2080 -0.4539
 8889SOL    HW138300   4.463   0.371   8.035  0.1898  1.1504 -1.4091
 8889SOL    HW238301   4.575   0.367   7.941  1.1354 -1.4982  0.2021
 8890SOL     OW38302   1.351   1.811   0.347 -0.3774 -0.0918 -0.8578
 8890SOL    HW138303   1.284   1.877   0.365  2.0745  1.8654  1.0180
 8890SOL    HW238304   1.423   1.839   0.404 -0.2075 -0.0693 -1.0821
 8891SOL     OW38305   3.253   4.481   6.642 -0.2044 -0.1515 -0.2631
 8891SOL    HW138306   3.216   4.396   6.616 -0.8720  0.1957 -0.4429
 8891SOL    HW238307   3.319   4.435   6.694  0.3139 -2.5479 -3.0613
 8892SOL     OW38308   2.471   0.855   2.590  0.4166 -0.2027  0.1037
 8892SOL    HW138309   2.463   0.930   2.531 -0.4524  0.6034  1.2217
 8892SOL    HW238310   2.529   0.805   2.534  1.8760 -0.1562  1.5523
 8893SOL     OW38311   2.602   1.944   2.893 -0.6213  0.4446  0.0062
 8893SOL    HW138312   2.545   1.873   2.923 -1.8034  2.0867  1.6826
 8893SOL    HW238313   2.546   1.993   2.833 -0.5838  0.3424 -0.1109
 8894SOL     OW38314   0.383   3.537   0.364  0.0519  0.3388  0.2894
 8894SOL    HW138315   0.320   3.559   0.433 -1.6751 -2.2255 -0.4730
 8894SOL    HW238316   0.341   3.463   0.319  0.3083  0.7087 -0.5495
 8895SOL     OW38317   3.637   0.853   4.201 -0.0961 -0.2357  0.0003
 8895SOL    HW138318   3.652   0.914   4.128  1.4768 -0.6999 -0.0774
 8895SOL    HW238319   3.542   0.846   4.200 -0.1927  0.8843  2.3408
 8896SOL     OW38320   1.293   1.627   3.069 -1.2020  0.3043  0.1816
 8896SOL    HW138321   1.239   1.634   3.148 -0.4542 -0.5728  0.7728
 8896SOL    HW238322   1.361   1.570   3.106 -1.2396 -0.6677 -1.2597
 8897SOL     OW38323   4.068   0.558   9.650 -0.1668 -0.2362 -0.2965
 8897SOL    HW138324   4.090   0.649   9.668 -1.0435 -0.3595  1.4781
 8897SOL    HW238325   4.147   0.519   9.688  1.8073  0.4384 -3.7778
 8898SOL     OW38326   1.311   4.254  10.743  0.6816 -0.6271  0.0954
 8898SOL    HW138327   1.336   4.196  10.671 -2.0793  0.0340 -1.3905
 8898SOL    HW238328   1.384   4.241  10.804  1.2377 -0.8430 -0.6245
 8899SOL     OW38329   1.508   1.683   8.019 -0.1045 -0.3629 -0.2987
 8899SOL    HW138330   1.556   1.734   7.953 -0.4271  0.2166 -0.0896
 8899SOL    HW238331   1.545   1.738   8.088 -1.6022 -1.0022  0.9923
 8900SOL     OW38332   1.332   3.845   3.788  0.2885  0.4168  0.9121
 8900SOL    HW138333   1.388   3.783   3.835  0.7069  1.0484  1.2474
 8900SOL    HW238334   1.350   3.920   3.844  1.3797 -0.0423  1.1772
 8901SOL     OW38335   3.650   3.788   4.391  0.4807  0.8047 -0.2241
 8901SOL    HW138336   3.656   3.859   4.454  0.3654  0.0214  0.6688
 8901SOL    HW238337   3.729   3.807   4.341 -0.9163 -1.2753 -3.2043
 8902SOL     OW38338   2.706   1.592   8.166  0.4407  0.2318 -0.4002
 8902SOL    HW138339   2.644   1.570   8.236 -0.6539 -2.1718 -2.1432
 8902SOL    HW238340   2.679   1.518   8.112  3.0102  0.8967 -2.5608
 8903SOL     OW38341   1.423   2.887   8.798 -0.1117 -0.5068  0.1662
 8903SOL    HW138342   1.401   2.799   8.825  1.6110 -0.7469  0.8081
 8903SOL    HW238343   1.429   2.943   8.875 -1.2326  0.6216 -0.5600
 8904SOL     OW38344   0.520   1.701  16.939  0.3719 -0.0619  0.0455
 8904SOL    HW138345   0.526   1.694  16.843  1.8239 -1.8599  0.2672
 8904SOL    HW238346   0.613   1.684  16.954  0.6330  1.3024 -0.0727
 8905SOL     OW38347   3.823   1.574  17.691 -0.5845  0.2178  0.7214
 8905SOL    HW138348   3.810   1.608  17.602 -3.5675 -3.3368 -0.1859
 8905SOL    HW238349   3.814   1.480  17.675 -0.5096  0.4608 -0.7803
 8906SOL     OW38350   1.935   0.805   5.659 -0.0272 -0.4524  0.2712
 8906SOL    HW138351   2.020   0.764   5.675 -0.1268 -1.4359 -1.6309
 8906SOL    HW238352   1.928   0.823   5.565  1.9185  0.6436  0.3220
 8907SOL     OW38353   1.023   0.060   7.599 -0.3200 -0.0052 -0.7625
 8907SOL    HW138354   0.939   0.020   7.622  0.4287 -1.9508 -1.3549
 8907SOL    HW238355   1.089   4.731   7.608  0.8887  1.1709 -0.5431
 8908SOL     OW38356   4.631   2.960   6.972 -0.2702  0.6575  0.2350
 8908SOL    HW138357   4.568   2.901   7.013  1.1134  0.0889  1.5733
 8908SOL    HW238358   4.624   3.048   7.008 -2.7451  1.3034 -1.8621
 8909SOL     OW38359   0.554   4.721   7.299 -0.0472  0.1013  0.1640
 8909SOL    HW138360   0.519   4.632   7.314 -0.9677  0.6629  1.3843
 8909SOL    HW238361   0.500   0.007   7.225 -3.0284 -0.3028  2.1779
 8910SOL     OW38362   1.622   2.252  13.361 -0.3739 -0.7914 -0.3098
 8910SOL    HW138363   1.550   2.273  13.420 -0.0441 -1.8759  0.4757
 8910SOL    HW238364   1.697   2.231  13.416  0.0450 -1.3678 -1.1063
 8911SOL     OW38365   2.743   1.836   2.318  0.3977  0.2129 -0.1648
 8911SOL    HW138366   2.755   1.930   2.310 -0.1763  0.4469  1.7228
 8911SOL    HW238367   2.752   1.807   2.409 -1.1198 -2.6296 -0.9171
 8912SOL     OW38368   4.287   0.620   6.254 -0.4715  0.2580  0.0630
 8912SOL    HW138369   4.228   0.547   6.273 -0.8431  0.2893 -0.9961
 8912SOL    HW238370   4.358   0.566   6.219 -3.2304 -3.8913  0.9027
 8913SOL     OW38371   3.624   1.868  12.541  0.3314 -0.0274 -0.2202
 8913SOL    HW138372   3.568   1.877  12.464  0.3820 -1.9893 -0.4938
 8913SOL    HW238373   3.582   1.786  12.566 -0.0246  0.5155  0.9370
 8914SOL     OW38374   3.382   3.029  17.436  0.1536 -0.4586  0.3067
 8914SOL    HW138375   3.387   3.115  17.396  1.4735  0.2269  1.9166
 8914SOL    HW238376   3.472   3.014  17.466 -0.0408 -1.8384  0.2238
 8915SOL     OW38377   1.873   1.082   3.120  0.2732  0.1575 -0.1812
 8915SOL    HW138378   1.883   1.069   3.214 -0.2646 -0.6072 -0.2237
 8915SOL    HW238379   1.950   1.033   3.093 -0.3988 -1.1278  0.2209
 8916SOL     OW38380   3.103   0.233   9.184  0.0676 -0.5227  0.2095
 8916SOL    HW138381   3.118   0.145   9.218  1.1303 -0.7664 -0.9012
 8916SOL    HW238382   3.135   0.221   9.094  2.1035  0.2304  0.8521
 8917SOL     OW38383   4.320   1.025   6.961  0.5111  0.1750 -0.1490
 8917SOL    HW138384   4.264   1.022   6.883 -1.9622 -2.4832  1.7149
 8917SOL    HW238385   4.398   1.070   6.929 -0.3273  1.7065 -0.0409
 8918SOL     OW38386   0.175   1.957   9.872  0.1031  0.2278  0.4117
 8918SOL    HW138387   0.102   1.898   9.891  0.2305 -0.8943 -2.7121
 8918SOL    HW238388   0.133   2.037   9.840  0.8224 -0.0776 -1.2884
 8919SOL     OW38389   1.637   4.622   9.143  0.5311  0.2374  0.9478
 8919SOL    HW138390   1.677   4.551   9.093  0.0490  0.6736 -0.0657
 8919SOL    HW238391   1.551   4.589   9.170 -1.3245  2.7183 -1.8825
 8920SOL     OW38392   4.576   2.051   4.222  0.2613 -0.5880 -0.8718
 8920SOL    HW138393   4.657   2.101   4.237 -0.5216  0.3052  0.3723
 8920SOL    HW238394   4.571   2.066   4.128 -1.4796 -3.6651 -1.2600
 8921SOL     OW38395   2.751   3.046   6.142  0.1357  0.2934  0.2784
 8921SOL    HW138396   2.739   2.953   6.161  0.3935 -0.1151 -1.6002
 8921SOL    HW238397   2.837   3.065   6.179 -0.3571  1.5988  0.7502
 8922SOL     OW38398   3.527   1.106   5.272  0.2323 -0.7391 -0.4288
 8922SOL    HW138399   3.543   1.108   5.366 -2.4038 -0.3932  0.0077
 8922SOL    HW238400   3.531   1.200   5.253 -1.3153 -0.6931 -0.5937
 8923SOL     OW38401   3.838   4.571   2.431 -0.1084 -0.2334 -0.2407
 8923SOL    HW138402   3.906   4.633   2.405 -0.6066  0.9263  1.1690
 8923SOL    HW238403   3.844   4.504   2.363  0.5952 -0.8739  0.4612
 8924SOL     OW38404   4.560   3.261  17.513 -0.2581  0.1951  0.4774
 8924SOL    HW138405   4.540   3.233  17.424 -1.6064 -1.8751  1.4456
 8924SOL    HW238406   4.473   3.254  17.553 -1.1469  0.8320 -1.3016
 8925SOL     OW38407   2.219   1.616   2.543 -0.4676  0.6728 -0.4200
 8925SOL    HW138408   2.164   1.540   2.563 -0.9098  0.7885 -1.2044
 8925SOL    HW238409   2.222   1.662   2.627 -1.1126 -0.7002  0.3528
 8926SOL     OW38410   1.006   3.744  16.199 -0.1761 -0.2365  0.0560
 8926SOL    HW138411   1.064   3.804  16.246  0.3864 -1.0977  0.4605
 8926SOL    HW238412   1.067   3.702  16.139  2.3183 -0.2859  2.6468
 8927SOL     OW38413   0.916   1.809   2.168 -0.1366  0.0482  0.0334
 8927SOL    HW138414   0.933   1.716   2.185  2.8938  0.0821 -2.8170
 8927SOL    HW238415   0.918   1.802   2.072  1.6285  1.4116 -0.0308
 8928SOL     OW38416   0.504   4.083   6.101  0.2520  0.0952 -0.1728
 8928SOL    HW138417   0.574   4.066   6.037  0.9289  0.7340  0.3893
 8928SOL    HW238418   0.432   4.029   6.070 -1.0164  1.4596  0.4256
 8929SOL     OW38419   1.107   2.741   3.114 -0.0436  0.2850  0.2795
 8929SOL    HW138420   1.198   2.715   3.129  0.7137  1.4962 -2.2330
 8929SOL    HW238421   1.121   2.831   3.141  1.0766  0.0548  0.4821
 8930SOL     OW38422   0.498   4.716   6.521  0.3254  0.1421 -0.2256
 8930SOL    HW138423   0.533   0.053   6.477 -1.6296  2.4181  2.3098
 8930SOL    HW238424   0.571   4.696   6.580  0.5823  1.4273 -0.1142
 8931SOL     OW38425   3.266   3.707   7.275 -0.2334 -0.1761 -0.1218
 8931SOL    HW138426   3.299   3.796   7.268 -1.3119  0.3902  1.9779
 8931SOL    HW238427   3.174   3.730   7.266 -0.5179 -1.1391  0.3905
 8932SOL     OW38428   4.181   0.045   5.446 -0.6275  0.6205 -0.2506
 8932SOL    HW138429   4.275   0.038   5.460 -0.9654 -2.0620  0.7116
 8932SOL    HW238430   4.155   0.116   5.506 -0.7876 -1.7132  2.4237
 8933SOL     OW38431   3.006   2.466  10.269 -0.1768  0.0389  0.0160
 8933SOL    HW138432   2.924   2.476  10.317  1.0514  0.0521  2.1224
 8933SOL    HW238433   2.989   2.502  10.182  0.7866  0.3528 -0.0451
 8934SOL     OW38434   4.476   1.909   2.281 -0.3203  0.1971  0.0723
 8934SOL    HW138435   4.386   1.890   2.256 -0.7087  1.4218  0.5916
 8934SOL    HW238436   4.523   1.840   2.234  1.6215  2.5969 -1.5138
 8935SOL     OW38437   3.118   1.933   2.273  0.4922 -0.1491  0.4522
 8935SOL    HW138438   3.199   1.950   2.322  1.0480  3.3166 -1.6939
 8935SOL    HW238439   3.098   2.017   2.231 -0.5996 -0.8042 -0.3158
 8936SOL     OW38440   3.561   1.796   3.074 -0.2071  0.1517  0.0960
 8936SOL    HW138441   3.601   1.869   3.121 -0.5484  0.2007  0.3071
 8936SOL    HW238442   3.634   1.736   3.089 -2.1571 -1.3786  3.4007
 8937SOL     OW38443   3.268   0.026   8.335  0.0066  0.3892  0.1274
 8937SOL    HW138444   3.307   0.098   8.286  0.5726 -0.3649 -0.5273
 8937SOL    HW238445   3.347   0.017   8.389  1.2325  1.6115 -1.4866
 8938SOL     OW38446   2.491   3.028   8.382  0.3344  0.5178 -0.2614
 8938SOL    HW138447   2.499   2.941   8.421 -0.1185  0.4173 -0.3972
 8938SOL    HW238448   2.444   3.064   8.457  0.3004  0.2679 -0.1608
 8939SOL     OW38449   2.016   2.496   2.019 -0.2918 -0.3939  0.0347
 8939SOL    HW138450   2.013   2.583   2.059  2.9089 -0.5475  0.6088
 8939SOL    HW238451   2.088   2.454   2.067  1.1410  1.8535 -0.1926
 8940SOL     OW38452   0.707   2.164   4.988  0.2664  0.3163 -0.2555
 8940SOL    HW138453   0.668   2.088   5.031  1.7436 -1.7143 -2.4702
 8940SOL    HW238454   0.662   2.167   4.904 -2.5223  0.0413  1.2300
 8941SOL     OW38455   2.460   1.500   6.111 -0.3374  0.3123 -0.4341
 8941SOL    HW138456   2.430   1.506   6.202  3.2431 -2.7017  0.9485
 8941SOL    HW238457   2.551   1.524   6.129 -0.1908 -2.3350  2.5429
 8942SOL     OW38458   3.605   0.878   0.897 -0.3283  0.2589 -0.1098
 8942SOL    HW138459   3.665   0.936   0.851  0.4599 -0.4864 -0.0297
 8942SOL    HW238460   3.551   0.942   0.944  1.9708  0.7024  1.9241
 8943SOL     OW38461   0.707   4.463   5.497 -0.7117  0.0021  0.5540
 8943SOL    HW138462   0.653   4.465   5.419  1.1665 -1.4010 -0.7838
 8943SOL    HW238463   0.657   4.403   5.552  2.4667 -0.2562  3.1730
 8944SOL     OW38464   2.263   1.360   3.896  0.0168 -0.0654  0.2888
 8944SOL    HW138465   2.227   1.335   3.981  1.6480  0.2790  1.0942
 8944SOL    HW238466   2.293   1.271   3.877  1.5377  0.1249  1.7436
 8945SOL     OW38467   2.428   2.419  11.778  0.3269 -0.2023  0.4993
 8945SOL    HW138468   2.350   2.474  11.773 -0.0549 -0.8996 -1.2955
 8945SOL    HW238469   2.426   2.372  11.862 -2.3521  1.2884  1.2756
 8946SOL     OW38470   0.008   4.173  12.069  0.3349  0.5829 -0.1137
 8946SOL    HW138471   4.701   4.250  12.038 -0.1681  0.3913  0.1709
 8946SOL    HW238472   0.030   4.201  12.158  1.0906 -0.5904  0.0580
 8947SOL     OW38473   3.853   2.902   5.695  0.5121 -0.2872  0.5373
 8947SOL    HW138474   3.902   2.842   5.751  0.7703 -1.7693 -1.2578
 8947SOL    HW238475   3.761   2.891   5.718  0.4092  0.5948  0.5185
 8948SOL     OW38476   3.747   4.209   5.551 -0.0415  0.4285 -0.5327
 8948SOL    HW138477   3.793   4.260   5.484  0.8961 -1.0858 -1.0433
 8948SOL    HW238478   3.679   4.170   5.496 -0.6762 -0.5997  0.9770
 8949SOL     OW38479   3.065   3.103   5.733 -0.0706  0.2667  0.4773
 8949SOL    HW138480   2.979   3.066   5.753 -1.3824  0.8591 -4.0609
 8949SOL    HW238481   3.087   3.056   5.653 -2.8365  0.6631 -0.4960
 8950SOL     OW38482   2.713   0.173  10.753 -0.1408  0.3592  0.1842
 8950SOL    HW138483   2.739   0.161  10.662  0.0948  0.9898  0.1675
 8950SOL    HW238484   2.656   0.100  10.773  1.5976 -0.4771  2.1531
 8951SOL     OW38485   2.666   0.422  11.345  0.0377  0.1881  0.4251
 8951SOL    HW138486   2.605   0.496  11.348  0.8040  0.8975 -1.5265
 8951SOL    HW238487   2.636   0.369  11.271  0.0011 -1.3476  1.5377
 8952SOL     OW38488   0.052   2.737  12.171  0.2127  0.0344  0.2173
 8952SOL    HW138489   4.708   2.763  12.208  0.1702  0.7357 -0.3740
 8952SOL    HW238490   0.103   2.764  12.247 -0.9423 -0.0318  1.0228
 8953SOL     OW38491   1.844   3.060   2.306 -0.3688  0.1381  0.0543
 8953SOL    HW138492   1.833   2.971   2.273 -0.9630  0.9231 -1.8576
 8953SOL    HW238493   1.861   3.057   2.401  0.7797  0.1644 -0.1524
 8954SOL     OW38494   1.027   1.360   2.052 -0.6979  0.2836  0.0025
 8954SOL    HW138495   1.005   1.389   1.963  0.1770 -1.1838 -0.6918
 8954SOL    HW238496   1.102   1.303   2.035  0.1456  0.8629  1.8091
 8955SOL     OW38497   1.315   1.396  14.655 -0.1776  0.1986  0.2933
 8955SOL    HW138498   1.225   1.370  14.633  0.5145 -0.4233 -1.8228
 8955SOL    HW238499   1.365   1.329  14.608 -0.7329 -1.4124  1.9957
 8956SOL     OW38500   0.740   0.205   5.123  0.2412  0.4249 -0.0316
 8956SOL    HW138501   0.686   0.257   5.063 -1.2924 -0.9662  0.1464
 8956SOL    HW238502   0.753   0.273   5.189 -0.5295 -1.3806  1.9635
 8957SOL     OW38503   1.401   4.336   9.113  0.2534  0.3046  0.4091
 8957SOL    HW138504   1.307   4.347   9.120  0.0032 -0.6453 -1.3950
 8957SOL    HW238505   1.410   4.281   9.035  2.2736  0.8872  0.2300
 8958SOL     OW38506   4.118   2.598   8.687 -0.2822 -0.1088  0.1133
 8958SOL    HW138507   4.085   2.685   8.712 -3.7034 -1.3471 -0.1435
 8958SOL    HW238508   4.207   2.628   8.667 -1.2164  2.2169 -0.6141
 8959SOL     OW38509   4.066   1.415   5.244  0.2770  0.0623  0.4323
 8959SOL    HW138510   4.146   1.441   5.290  0.1965 -0.9884  1.1619
 8959SOL    HW238511   4.071   1.477   5.171 -2.2057  1.4061  1.4065
 8960SOL     OW38512   3.293   1.388   6.210  0.1965  0.8566 -0.5392
 8960SOL    HW138513   3.210   1.436   6.213  1.2763  2.6678  0.1843
 8960SOL    HW238514   3.331   1.431   6.134 -0.0359  0.6652 -0.7638
 8961SOL     OW38515   0.787   3.030   5.323 -0.5505 -0.1286 -0.9207
 8961SOL    HW138516   0.776   2.980   5.403 -1.0530  1.0167 -0.2779
 8961SOL    HW238517   0.712   3.089   5.328 -1.7348 -1.5730 -1.6007
 8962SOL     OW38518   1.963   4.421  14.162  0.0439 -0.0101 -0.3356
 8962SOL    HW138519   2.013   4.340  14.158 -1.3783 -0.9464  0.8668
 8962SOL    HW238520   1.987   4.459  14.077  0.8226 -1.7662 -0.8837
 8963SOL     OW38521   1.550   4.197   8.014  0.0798 -0.3696 -0.3220
 8963SOL    HW138522   1.498   4.259   7.963 -1.9961 -1.4298  0.5275
 8963SOL    HW238523   1.635   4.241   8.009  0.1803 -0.3369  1.7703
 8964SOL     OW38524   1.295   1.011  14.639  0.5073  0.6787 -0.0156
 8964SOL    HW138525   1.331   1.058  14.714  2.3100  0.1161 -0.5173
 8964SOL    HW238526   1.228   0.956  14.680 -0.3420  0.8816 -1.1247
 8965SOL     OW38527   0.515   1.974   1.138  0.3262  0.1288  0.0851
 8965SOL    HW138528   0.536   2.050   1.083  0.2443 -0.6827 -1.0610
 8965SOL    HW238529   0.440   2.002   1.191  0.2632 -0.9608  0.5706
 8966SOL     OW38530   4.396   0.391   8.385 -0.1689 -0.7887  0.0071
 8966SOL    HW138531   4.392   0.301   8.352  3.3416 -0.2042 -2.0717
 8966SOL    HW238532   4.486   0.423   8.374 -0.4537  0.3108  0.9972
 8967SOL     OW38533   1.009   1.055  15.436 -0.2641 -0.1035  0.5711
 8967SOL    HW138534   0.935   1.078  15.380 -1.1180 -0.9805  1.3200
 8967SOL    HW238535   0.997   1.104  15.517 -0.8934  0.9665 -0.1847
 8968SOL     OW38536   3.971   2.740   8.303 -0.8562  0.1566  0.0678
 8968SOL    HW138537   3.931   2.686   8.235  1.1769 -2.5452  1.0018
 8968SOL    HW238538   4.054   2.696   8.320  0.3632  1.0904 -3.5892
 8969SOL     OW38539   1.507   4.121  17.220 -0.4792 -0.2856 -0.8301
 8969SOL    HW138540   1.567   4.183  17.178  0.6364 -1.9647 -1.7045
 8969SOL    HW238541   1.535   4.036  17.187  0.5110  0.7843 -2.7229
 8970SOL     OW38542   4.566   1.462   3.242  0.0315  0.8060 -0.3318
 8970SOL    HW138543   4.587   1.401   3.313 -1.4308 -0.0074 -0.5925
 8970SOL    HW238544   4.525   1.531   3.294 -1.8341 -0.7882  0.3348
 8971SOL     OW38545   3.686   1.806   2.681 -0.0207 -0.9700 -0.7649
 8971SOL    HW138546   3.685   1.804   2.585 -1.6402  0.8877 -0.7793
 8971SOL    HW238547   3.708   1.897   2.697 -1.4191 -0.9279  0.8511
 8972SOL     OW38548   0.438   1.045  14.476  0.3408 -0.7177 -0.7275
 8972SOL    HW138549   0.528   1.017  14.493  0.4448 -0.3232 -0.6294
 8972SOL    HW238550   0.444   1.125  14.424  2.4479  0.6090  1.5621
 8973SOL     OW38551   3.409   2.983  10.011 -0.3906  0.3403 -0.2452
 8973SOL    HW138552   3.352   2.912  10.041 -1.3985  1.7582  1.1535
 8973SOL    HW238553   3.395   3.047  10.080  0.0080 -0.3596  0.4848
 8974SOL     OW38554   4.416   2.597  11.478 -0.1778  0.7201 -0.0253
 8974SOL    HW138555   4.475   2.587  11.553 -1.3116  1.5997  0.9826
 8974SOL    HW238556   4.357   2.524  11.501 -0.4243  0.9722  0.1407
 8975SOL     OW38557   3.392   1.385  13.924 -0.0638 -0.5864  0.0141
 8975SOL    HW138558   3.345   1.468  13.917  2.0344  0.5502 -0.5049
 8975SOL    HW238559   3.318   1.325  13.925  0.8728 -1.7590 -0.5598
 8976SOL     OW38560   4.060   3.178  10.592  0.5016 -0.4295  0.3459
 8976SOL    HW138561   4.153   3.183  10.569 -0.3306  1.0444 -2.6804
 8976SOL    HW238562   4.051   3.244  10.661  2.4015 -1.2599  1.3997
 8977SOL     OW38563   3.815   0.064  16.747  0.4678  0.1098 -0.6006
 8977SOL    HW138564   3.795   0.156  16.766  0.2400 -0.4876  2.1218
 8977SOL    HW238565   3.807   0.031  16.836 -0.7822  0.3710 -0.6111
 8978SOL     OW38566   1.649   4.132   1.040  0.2178  0.1638 -0.1029
 8978SOL    HW138567   1.692   4.185   0.973  0.3967 -0.9071 -0.8340
 8978SOL    HW238568   1.588   4.192   1.083 -1.5891 -0.6410 -1.5382
 8979SOL     OW38569   0.826   3.219  17.602 -0.5058  0.3281  0.0850
 8979SOL    HW138570   0.778   3.269  17.536  0.4997  1.7823  0.4486
 8979SOL    HW238571   0.767   3.146  17.622 -0.3702  0.1357 -0.2083
 8980SOL     OW38572   3.397   4.530  11.599 -0.2113 -0.3523  0.7561
 8980SOL    HW138573   3.466   4.480  11.643  0.6960  0.3728  0.1687
 8980SOL    HW238574   3.351   4.564  11.676  0.8293 -1.0287  1.6815
 8981SOL     OW38575   3.600   0.743   3.176 -0.0099  0.3133  0.5930
 8981SOL    HW138576   3.693   0.747   3.198  0.7091 -1.7168 -2.0587
 8981SOL    HW238577   3.600   0.811   3.108 -2.4290 -1.1099 -0.8123
 8982SOL     OW38578   2.747   4.592   4.809  0.0425  0.0214 -0.1676
 8982SOL    HW138579   2.709   4.577   4.896  0.3242  0.1235 -0.0304
 8982SOL    HW238580   2.686   4.656   4.772  0.3719 -0.8423 -2.2153
 8983SOL     OW38581   1.053   0.737  10.102  0.4774  0.3631  0.5369
 8983SOL    HW138582   1.035   0.828  10.124  0.4044  0.9355 -1.8390
 8983SOL    HW238583   1.113   0.711  10.171 -2.2085 -1.1320  2.3038
 8984SOL     OW38584   1.268   0.008   3.401 -0.1653  0.4771  0.5200
 8984SOL    HW138585   1.211   0.080   3.428 -1.5899 -0.8016  0.9264
 8984SOL    HW238586   1.210   4.673   3.398  0.9107 -0.3449  0.5286
 8985SOL     OW38587   0.638   1.490   0.838  0.3374  0.4308  0.3296
 8985SOL    HW138588   0.612   1.580   0.822  0.4810  0.3066 -0.5794
 8985SOL    HW238589   0.610   1.450   0.756 -1.6590 -0.8555  1.6534
 8986SOL     OW38590   1.892   0.857   1.952 -1.2479  0.3377  0.5826
 8986SOL    HW138591   1.798   0.871   1.965 -1.6926 -1.3398 -0.8638
 8986SOL    HW238592   1.898   0.765   1.977 -0.0546  0.9784  2.6953
 8987SOL     OW38593   2.902   3.883  12.587 -0.0381 -0.0374  0.1102
 8987SOL    HW138594   2.897   3.798  12.543  1.0522 -0.8484  1.5424
 8987SOL    HW238595   2.892   3.942  12.513 -2.5303 -0.1972  0.3122
 8988SOL     OW38596   2.776   4.543   7.804 -0.4724  0.0037 -0.4572
 8988SOL    HW138597   2.835   4.616   7.822  1.1146 -1.3940  0.0187
 8988SOL    HW238598   2.755   4.518   7.895  0.7056 -0.6769 -0.3746
 8989SOL     OW38599   2.561   0.540  13.430  0.2856  0.1106 -0.7684
 8989SOL    HW138600   2.525   0.575  13.511 -0.0205 -0.8387 -0.4928
 8989SOL    HW238601   2.484   0.493  13.397 -0.6289  0.1512  1.3121
 8990SOL     OW38602   4.170   4.630   4.170 -0.2055  0.8315 -0.4771
 8990SOL    HW138603   4.178   4.684   4.249 -1.2384 -1.6730  1.3121
 8990SOL    HW238604   4.256   4.659   4.139  0.1143 -0.1818 -0.5090
 8991SOL     OW38605   4.594   3.707   8.847  0.0678 -0.0475 -0.5579
 8991SOL    HW138606   4.614   3.616   8.825  1.6003 -0.0825  0.9983
 8991SOL    HW238607   4.499   3.700   8.860  0.1967  0.3419  0.5810
 8992SOL     OW38608   0.432   4.333   2.997 -0.2525 -0.2015 -0.1984
 8992SOL    HW138609   0.385   4.308   2.918  0.5179  0.4476 -0.8634
 8992SOL    HW238610   0.522   4.338   2.964 -0.3215 -0.9500 -0.4909
 8993SOL     OW38611   3.699   2.918   6.801 -0.6463  0.3366  0.6498
 8993SOL    HW138612   3.794   2.926   6.804 -0.5020 -1.0620 -0.6171
 8993SOL    HW238613   3.666   3.002   6.835 -1.8592 -0.6452  1.9178
 8994SOL     OW38614   0.563   2.701   3.982 -0.4960  0.2856  0.0643
 8994SOL    HW138615   0.568   2.782   4.034  1.3372  2.0271 -2.8210
 8994SOL    HW238616   0.605   2.643   4.046  0.8950 -0.0135 -1.1077
 8995SOL     OW38617   2.811   2.388   4.071 -0.1917 -0.2429  0.1368
 8995SOL    HW138618   2.902   2.389   4.101 -0.1338  0.4113 -0.0567
 8995SOL    HW238619   2.808   2.363   3.979  2.5476 -3.1774  0.8403
 8996SOL     OW38620   4.519   0.241   3.732 -0.3255 -0.3057  0.2502
 8996SOL    HW138621   4.592   0.298   3.709 -0.5610  0.0164  0.3083
 8996SOL    HW238622   4.561   0.174   3.786 -0.4342 -1.7300 -1.3948
 8997SOL     OW38623   1.798   2.973   5.833 -0.4537  0.2054  0.4060
 8997SOL    HW138624   1.833   3.019   5.756  0.3237  2.8736  2.3706
 8997SOL    HW238625   1.849   3.018   5.900 -0.7303  0.4703  0.4378
 8998SOL     OW38626   1.882   3.461  15.806  0.1375 -0.0000 -0.1770
 8998SOL    HW138627   1.849   3.440  15.719  0.0526 -2.0055  0.3477
 8998SOL    HW238628   1.956   3.517  15.782  1.0164 -0.5009  1.3493
 8999SOL     OW38629   0.874   3.766   6.551 -0.0314 -0.2489  0.2079
 8999SOL    HW138630   0.858   3.859   6.568 -0.6356 -0.4523  0.7838
 8999SOL    HW238631   0.907   3.745   6.639  0.5718 -1.6438 -0.3608
 9000SOL     OW38632   0.162   1.437   6.820  0.6038  0.2085  0.1167
 9000SOL    HW138633   0.174   1.412   6.911 -1.2115 -2.0832 -0.2732
 9000SOL    HW238634   0.103   1.364   6.803  0.7939 -0.4942  2.5401
 9001SOL     OW38635   3.036   1.161   6.531  0.7323  0.6909  0.7997
 9001SOL    HW138636   3.097   1.125   6.467  0.7899  1.3837  0.4624
 9001SOL    HW238637   3.033   1.254   6.507  1.1837  1.3904  3.3893
 9002SOL     OW38638   4.203   1.693  11.908 -0.1956  0.5056 -0.4256
 9002SOL    HW138639   4.129   1.682  11.848 -0.1263 -3.4156  0.2398
 9002SOL    HW238640   4.234   1.603  11.918  0.2659  0.9678  2.2999
 9003SOL     OW38641   1.593   3.915   6.531  0.1431  0.4565  0.1514
 9003SOL    HW138642   1.668   3.883   6.482 -1.4306  0.8988 -2.5424
 9003SOL    HW238643   1.513   3.886   6.487 -1.6547  1.4435  2.7888
 9004SOL     OW38644   1.243   4.701   2.466  0.3493  0.0433 -0.8748
 9004SOL    HW138645   1.173   0.025   2.463  0.7443  0.5132  0.6218
 9004SOL    HW238646   1.305   4.739   2.528 -0.5776 -1.0832  0.7480
 9005SOL     OW38647   3.090   1.314  16.916 -0.0938 -0.9354 -0.1358
 9005SOL    HW138648   3.140   1.362  16.850 -0.6728 -1.3259 -0.8670
 9005SOL    HW238649   3.019   1.288  16.857 -1.7802 -0.3282  1.6324
 9006SOL     OW38650   2.345   1.859   5.537  0.2843  0.1564  0.3189
 9006SOL    HW138651   2.362   1.881   5.445  0.8407  0.7360  0.5655
 9006SOL    HW238652   2.334   1.764   5.529  0.7887  0.1872 -0.6953
 9007SOL     OW38653   2.891   0.882   6.165  0.2794 -0.1488  1.2475
 9007SOL    HW138654   2.902   0.907   6.257  0.8972  0.6227  0.9566
 9007SOL    HW238655   2.797   0.863   6.165  0.1406  0.5450  1.0074
 9008SOL     OW38656   1.282   3.306   6.108  0.3419  0.4438  0.3211
 9008SOL    HW138657   1.213   3.260   6.060 -0.6509  1.6549  0.5917
 9008SOL    HW238658   1.325   3.224   6.133 -0.4886 -0.0486  0.1219
 9009SOL     OW38659   1.298   0.164   5.679  0.5327  0.2747 -0.4899
 9009SOL    HW138660   1.277   0.094   5.616  2.9823 -0.3203 -0.6329
 9009SOL    HW238661   1.277   0.246   5.635 -1.0258  0.3262  0.3211
 9010SOL     OW38662   2.079   3.778   1.390  0.2800 -0.1548  0.1969
 9010SOL    HW138663   2.027   3.770   1.471 -0.5414  0.3507 -0.2793
 9010SOL    HW238664   2.065   3.694   1.346  0.1901  0.2812 -0.6003
 9011SOL     OW38665   0.373   0.878  15.966  0.4452  0.0756  0.3379
 9011SOL    HW138666   0.411   0.934  15.899 -0.0284  0.3438  0.2939
 9011SOL    HW238667   0.282   0.908  15.964  1.1916  2.4227  1.8724
 9012SOL     OW38668   0.333   3.238   6.586 -0.1702 -0.3780  0.0156
 9012SOL    HW138669   0.405   3.274   6.535 -0.7942 -0.4655 -0.9310
 9012SOL    HW238670   0.290   3.170   6.533 -0.3585  0.1655 -0.5261
 9013SOL     OW38671   1.773   4.708   0.304 -0.1310 -0.4830 -0.0642
 9013SOL    HW138672   1.826   4.656   0.244 -0.8128 -2.3540  0.9600
 9013SOL    HW238673   1.691   4.737   0.264  0.8001 -0.4169 -1.9234
 9014SOL     OW38674   1.244   3.516   8.875 -0.0332 -0.0752  0.6994
 9014SOL    HW138675   1.190   3.532   8.952  1.0260  0.4972  1.3170
 9014SOL    HW238676   1.274   3.601   8.842 -2.2096  0.4538  0.0841
 9015SOL     OW38677   0.558   1.452   4.468  0.2981  0.2885 -0.0748
 9015SOL    HW138678   0.576   1.362   4.440 -1.1481 -0.1342  0.3680
 9015SOL    HW238679   0.563   1.445   4.564 -0.7800 -1.1901 -0.1289
 9016SOL     OW38680   1.839   3.889   9.039  0.2467  0.3769 -0.6076
 9016SOL    HW138681   1.785   3.924   9.110  0.8920 -0.4502  0.2864
 9016SOL    HW238682   1.810   3.798   9.041 -3.3405  1.5725  1.5507
 9017SOL     OW38683   2.475   1.085   4.109 -0.7736 -0.5795 -0.0068
 9017SOL    HW138684   2.456   1.118   4.021  1.2055 -0.6095 -0.4347
 9017SOL    HW238685   2.403   1.021   4.110 -0.5914 -0.8298 -2.1500
 9018SOL     OW38686   1.003   2.726  13.326  0.7565  0.2576 -0.0494
 9018SOL    HW138687   0.977   2.776  13.248 -1.1008  1.0097  1.0480
 9018SOL    HW238688   1.041   2.795  13.381  1.7923 -1.6700  1.6092
 9019SOL     OW38689   4.354   0.042   7.363 -0.1114 -0.1401 -0.5854
 9019SOL    HW138690   4.364   0.132   7.332  0.2733 -1.2416 -3.6085
 9019SOL    HW238691   4.440   0.012   7.335  0.5176  0.5907  0.5303
 9020SOL     OW38692   4.522   3.388   1.758 -0.0079 -0.7385  0.3916
 9020SOL    HW138693   4.441   3.373   1.808 -0.6804  2.1274  0.1632
 9020SOL    HW238694   4.505   3.478   1.731  1.3125 -0.2865  1.0600
 9021SOL     OW38695   0.124   1.669   4.630  0.3320  0.5197  0.1646
 9021SOL    HW138696   0.189   1.618   4.678  0.4121  0.4846  0.0175
 9021SOL    HW238697   0.182   1.732   4.586 -0.9187  1.1709 -0.5435
 9022SOL     OW38698   4.617   3.381  17.062 -0.1386  0.2800  0.3545
 9022SOL    HW138699   4.575   3.352  16.981  1.7227 -0.0573 -0.4898
 9022SOL    HW238700   4.703   3.345  17.040  0.4576  1.9283 -0.0376
 9023SOL     OW38701   2.185   3.483   8.871  0.5166  0.1984  0.0646
 9023SOL    HW138702   2.208   3.511   8.959  0.5084  0.2465  0.0514
 9023SOL    HW238703   2.190   3.390   8.895  0.0817  0.1110 -0.1818
 9024SOL     OW38704   0.696   3.985   8.197  0.1773  0.4787 -0.1861
 9024SOL    HW138705   0.762   4.008   8.131  0.7096 -2.3628 -0.6570
 9024SOL    HW238706   0.753   3.957   8.269 -2.4437 -0.9486  1.3152
 9025SOL     OW38707   0.194   1.564   1.866  0.3415  0.1171 -0.2015
 9025SOL    HW138708   0.202   1.542   1.773 -2.9611  1.7455 -0.8672
 9025SOL    HW238709   0.282   1.556   1.904  0.6885 -0.4253 -1.1098
 9026SOL     OW38710   3.171   2.255   2.813  0.2547  0.0345 -0.0920
 9026SOL    HW138711   3.207   2.267   2.901 -0.6269 -0.5711  0.3470
 9026SOL    HW238712   3.134   2.167   2.822 -2.8153  1.3277  0.0900
 9027SOL     OW38713   2.045   2.222  16.242 -0.0033 -0.3479 -0.3060
 9027SOL    HW138714   1.986   2.191  16.173  1.7722 -1.9647 -1.1024
 9027SOL    HW238715   2.121   2.175  16.207  2.9750  1.5428  3.6045
 9028SOL     OW38716   3.676   4.156  11.790  0.5017 -0.1799 -0.2719
 9028SOL    HW138717   3.737   4.162  11.716 -1.4665  1.1823 -1.7982
 9028SOL    HW238718   3.622   4.078  11.772 -0.0180  0.8804 -3.3935
 9029SOL     OW38719   1.903   0.584   5.848  0.4780  0.6919 -0.1688
 9029SOL    HW138720   1.853   0.653   5.804 -0.0625 -0.6187 -1.5854
 9029SOL    HW238721   1.962   0.639   5.901  0.7262  0.1506  0.1096
 9030SOL     OW38722   2.913   1.249   1.928  0.2332 -0.1085  0.2443
 9030SOL    HW138723   3.008   1.256   1.919  0.2870 -1.8533 -0.4671
 9030SOL    HW238724   2.886   1.339   1.908  0.2059  0.0888  1.1474
 9031SOL     OW38725   1.844   2.871   5.398  0.4176 -0.5952 -0.1024
 9031SOL    HW138726   1.750   2.878   5.415  0.2052 -2.1201 -0.6944
 9031SOL    HW238727   1.878   2.952   5.435  0.0325 -1.1172  1.3673
 9032SOL     OW38728   1.218   1.801   1.666  0.0768  0.7443 -0.2951
 9032SOL    HW138729   1.167   1.736   1.617  0.1155  0.6695 -0.2369
 9032SOL    HW238730   1.177   1.884   1.643 -0.8394  0.2577 -0.4555
 9033SOL     OW38731   3.174   0.012   7.107 -0.3373 -0.2061  0.3301
 9033SOL    HW138732   3.202   0.076   7.041  0.1253 -0.7628 -0.0162
 9033SOL    HW238733   3.106   0.057   7.157  1.5183 -1.0272  3.5230
 9034SOL     OW38734   1.700   0.439   5.629 -0.5891 -0.2065  0.3308
 9034SOL    HW138735   1.730   0.367   5.685 -1.3042 -1.1913 -0.5512
 9034SOL    HW238736   1.683   0.500   5.701 -0.5944  1.0616 -0.7429
 9035SOL     OW38737   3.727   0.650   6.132 -0.3792 -0.2678  0.2342
 9035SOL    HW138738   3.702   0.684   6.218 -0.4318  0.1272  0.0643
 9035SOL    HW238739   3.646   0.602   6.117 -1.3161  0.9907  1.2953
 9036SOL     OW38740   0.841   3.061   9.225  0.2753  0.0884 -0.2354
 9036SOL    HW138741   0.924   3.106   9.242 -0.8199  1.9340  0.1969
 9036SOL    HW238742   0.794   3.085   9.305  1.2199 -0.7833  0.5878
 9037SOL     OW38743   1.640   1.512   1.916 -0.3365 -0.3092 -0.1033
 9037SOL    HW138744   1.679   1.591   1.879  0.5778 -0.5557  0.3322
 9037SOL    HW238745   1.637   1.524   2.011 -0.4278  1.7697 -0.3719
 9038SOL     OW38746   4.639   0.384   9.837 -0.0152 -0.4866 -0.0148
 9038SOL    HW138747   4.553   0.344   9.842 -1.1835  1.7724 -2.4716
 9038SOL    HW238748   4.668   0.370   9.928  4.0898 -1.4859 -1.4683
 9039SOL     OW38749   0.504   1.667   1.072  0.4083  0.1138 -0.2052
 9039SOL    HW138750   0.488   1.667   0.977  0.4913 -2.2194 -0.2281
 9039SOL    HW238751   0.517   1.761   1.077  0.6004  0.1199 -0.8158
 9040SOL     OW38752   4.467   3.871   4.136 -0.0349  0.2180 -0.0140
 9040SOL    HW138753   4.442   3.919   4.216 -1.2670  0.1478 -0.3552
 9040SOL    HW238754   4.474   3.785   4.176 -1.3492  0.5182  0.8678
 9041SOL     OW38755   2.019   0.140  11.805  0.1521  0.4910 -0.3254
 9041SOL    HW138756   2.064   0.064  11.841 -0.2363  1.3744  2.0201
 9041SOL    HW238757   1.999   0.107  11.718  0.0401 -1.3621  0.4122
 9042SOL     OW38758   0.317   3.188   6.861  0.6474 -0.3765  0.3811
 9042SOL    HW138759   0.256   3.115   6.871 -1.1276  0.9838 -0.4465
 9042SOL    HW238760   0.305   3.197   6.767  1.3013 -2.0329  0.1510
 9043SOL     OW38761   1.359   2.869  12.047 -0.8218  0.8287 -0.5117
 9043SOL    HW138762   1.310   2.830  12.119 -0.3144  2.5178  0.7323
 9043SOL    HW238763   1.336   2.807  11.977 -1.3497 -0.8262  1.1432
 9044SOL     OW38764   2.762   0.553  13.712  0.0509 -0.6283 -0.0470
 9044SOL    HW138765   2.795   0.550  13.623  0.7781  0.3562  0.1981
 9044SOL    HW238766   2.816   0.620  13.753  0.5202 -1.4896  0.7637
 9045SOL     OW38767   1.979   1.098   4.124  0.3830  0.2064 -0.2798
 9045SOL    HW138768   1.942   1.023   4.077 -1.6883 -0.4295  2.3929
 9045SOL    HW238769   1.920   1.089   4.199  0.9503  1.8660  0.3679
 9046SOL     OW38770   0.895   0.172   8.212  0.0750 -0.0386  0.4131
 9046SOL    HW138771   0.802   0.155   8.224  0.2621 -1.0163  0.4349
 9046SOL    HW238772   0.922   0.219   8.292 -1.7949 -1.0448  1.6366
 9047SOL     OW38773   2.875   2.918   1.421  0.0741  0.2873  0.0729
 9047SOL    HW138774   2.846   2.882   1.505  0.6514 -0.8022 -0.1999
 9047SOL    HW238775   2.963   2.953   1.434 -0.2439  0.7237  1.0501
 9048SOL     OW38776   0.570   4.631   0.885 -0.0717 -0.0026  0.0151
 9048SOL    HW138777   0.550   4.593   0.971  2.9643 -0.0764  0.6913
 9048SOL    HW238778   0.492   4.607   0.835 -0.2677  3.6445 -1.4134
 9049SOL     OW38779   1.801   1.815   2.097  0.3659 -0.1729 -0.4261
 9049SOL    HW138780   1.725   1.828   2.154  0.0093 -1.2701 -0.6590
 9049SOL    HW238781   1.748   1.823   2.017  0.7407 -0.0811 -0.6669
 9050SOL     OW38782   4.410   1.221   2.596  0.6555 -0.0479 -0.4893
 9050SOL    HW138783   4.391   1.129   2.577  1.0543 -0.5013  1.4012
 9050SOL    HW238784   4.450   1.250   2.514  2.0569 -1.6983 -0.3919
 9051SOL     OW38785   2.313   2.258   7.590 -0.4003 -0.0096  0.2271
 9051SOL    HW138786   2.259   2.295   7.520  0.7674  0.9314 -0.1800
 9051SOL    HW238787   2.251   2.209   7.643  0.7783 -0.0059  1.6152
 9052SOL     OW38788   1.836   4.538   5.782  0.5086 -0.1401 -0.4035
 9052SOL    HW138789   1.904   4.478   5.755  1.4593  0.6783  0.1498
 9052SOL    HW238790   1.871   4.588   5.857  0.8730 -1.3414  0.2222
 9053SOL     OW38791   3.291   3.628   0.732 -0.4534 -0.5721 -0.6591
 9053SOL    HW138792   3.258   3.619   0.642  1.3710 -0.3465 -1.3476
 9053SOL    HW238793   3.383   3.645   0.713 -0.5786 -0.3033 -1.0452
 9054SOL     OW38794   2.105   0.098   3.458  0.2601 -0.0658 -0.0789
 9054SOL    HW138795   2.019   0.136   3.475  0.2306  0.0567 -0.5083
 9054SOL    HW238796   2.161   0.176   3.465 -0.0766  0.1335  0.3714
 9055SOL     OW38797   2.157   3.883  12.532  0.2055  0.3815  0.2656
 9055SOL    HW138798   2.179   3.825  12.605 -2.4853 -1.3224 -0.2563
 9055SOL    HW238799   2.075   3.844  12.501  0.5826  0.0399 -0.2908
 9056SOL     OW38800   4.169   1.825   3.897 -0.5400 -0.6700 -0.5164
 9056SOL    HW138801   4.101   1.758   3.901 -0.3668 -0.8143 -0.0610
 9056SOL    HW238802   4.118   1.892   3.852  0.7034  0.9706  0.5308
 9057SOL     OW38803   3.322   2.850   6.096 -0.2989 -0.0118  0.3007
 9057SOL    HW138804   3.315   2.761   6.064 -0.5484 -0.0630  0.4943
 9057SOL    HW238805   3.259   2.855   6.168  0.7446  0.4458  1.1801
 9058SOL     OW38806   3.146   0.524   8.058  0.2680  0.0416  0.2002
 9058SOL    HW138807   3.111   0.513   7.969  3.2739 -3.4845 -0.5420
 9058SOL    HW238808   3.158   0.619   8.058  0.0521  0.0726 -0.8061
 9059SOL     OW38809   2.444   4.330  15.342 -0.6514 -0.0375 -0.5551
 9059SOL    HW138810   2.413   4.420  15.333 -0.9663 -0.4765 -3.8296
 9059SOL    HW238811   2.530   4.331  15.299 -0.3993  0.9088 -0.0221
 9060SOL     OW38812   1.018   3.879   4.596 -0.0323  0.7157  0.3469
 9060SOL    HW138813   1.076   3.818   4.641 -0.4140  0.5445  0.6130
 9060SOL    HW238814   1.037   3.967   4.628 -0.5907  0.3597  1.6840
 9061SOL     OW38815   2.700   0.158   1.106  0.2276  0.2343  0.4551
 9061SOL    HW138816   2.622   0.194   1.148 -0.5744 -0.3259 -0.5485
 9061SOL    HW238817   2.662   0.136   1.021 -1.6131 -2.0922  1.8994
 9062SOL     OW38818   2.455   1.884   4.485  0.6106  0.1510  0.1020
 9062SOL    HW138819   2.381   1.932   4.448  0.3039  1.0840  1.9543
 9062SOL    HW238820   2.487   1.841   4.405 -3.9812 -0.5196 -1.3738
 9063SOL     OW38821   2.196   1.519  17.382 -0.0238  0.0888  0.0508
 9063SOL    HW138822   2.227   1.605  17.352 -0.6911  0.0845 -0.6455
 9063SOL    HW238823   2.102   1.526  17.367  0.2369  1.8488 -0.7412
 9064SOL     OW38824   2.578   0.363   4.698 -0.2993 -0.2264 -0.1413
 9064SOL    HW138825   2.494   0.350   4.654  0.5575 -0.1466 -1.7823
 9064SOL    HW238826   2.552   0.393   4.786  0.9321  0.9123 -0.1715
 9065SOL     OW38827   3.791   1.170   8.096  0.0948 -0.3452  0.0830
 9065SOL    HW138828   3.840   1.249   8.074 -0.4825  0.2188  0.8746
 9065SOL    HW238829   3.702   1.203   8.106  0.4743  0.3979  0.9913
 9066SOL     OW38830   2.771   1.652  15.342 -0.4491  0.3689  0.8701
 9066SOL    HW138831   2.798   1.664  15.251  1.8528  2.1179  1.7727
 9066SOL    HW238832   2.799   1.566  15.373 -0.1368 -0.2085 -1.0213
 9067SOL     OW38833   3.301   4.227  13.960  0.3064  0.0826  0.3248
 9067SOL    HW138834   3.279   4.283  13.885  0.8686 -0.4367 -0.2324
 9067SOL    HW238835   3.229   4.165  13.950 -1.1961  1.9681 -0.5890
 9068SOL     OW38836   0.304   0.201   5.787 -0.5550 -0.0611  0.3615
 9068SOL    HW138837   0.304   0.217   5.692  3.5847 -1.2180  0.1795
 9068SOL    HW238838   0.396   0.223   5.798 -0.4313 -0.2126 -0.3620
 9069SOL     OW38839   3.602   3.402  15.119 -0.3972 -0.5951  0.1715
 9069SOL    HW138840   3.542   3.401  15.045 -0.8193 -0.7979  0.5213
 9069SOL    HW238841   3.567   3.480  15.162  2.7566  0.2919  1.1368
 9070SOL     OW38842   2.937   3.404   7.326 -0.5898  0.1570 -0.0453
 9070SOL    HW138843   3.021   3.433   7.289 -0.4187  0.8242  0.8571
 9070SOL    HW238844   2.910   3.486   7.367  0.1646  0.8847 -1.0060
 9071SOL     OW38845   3.058   2.663   2.227  0.0838  0.7286  0.8684
 9071SOL    HW138846   3.021   2.731   2.284  1.5365  0.7134  1.8025
 9071SOL    HW238847   3.002   2.594   2.261 -0.8010  0.7661 -0.4934
 9072SOL     OW38848   2.393   4.049   4.570 -0.4310 -0.4653 -0.2706
 9072SOL    HW138849   2.348   4.011   4.646 -1.5206  0.0154 -0.6835
 9072SOL    HW238850   2.335   4.021   4.500 -0.5598 -0.6310 -0.0989
 9073SOL     OW38851   1.523   1.218   6.703 -0.0267 -0.5743 -0.5651
 9073SOL    HW138852   1.538   1.226   6.609  1.6965  1.4512 -0.1229
 9073SOL    HW238853   1.515   1.126   6.727 -0.3534 -0.3545  0.1736
 9074SOL     OW38854   1.896   2.686   5.785  0.0212 -0.4087  0.9630
 9074SOL    HW138855   1.879   2.777   5.811  2.7915  0.4527 -0.1265
 9074SOL    HW238856   1.980   2.693   5.739 -0.5989  0.7837 -0.0138
 9075SOL     OW38857   1.923   1.123   3.704  0.1555  0.3553 -0.0379
 9075SOL    HW138858   1.861   1.085   3.643  0.3111 -1.3709  0.8810
 9075SOL    HW238859   1.867   1.188   3.746 -1.6741 -0.7909 -0.7111
 9076SOL     OW38860   2.391   3.900   8.209  0.4453 -0.1101 -0.1476
 9076SOL    HW138861   2.376   3.925   8.117  1.4761  1.4505  0.1017
 9076SOL    HW238862   2.434   3.976   8.248  0.2898 -0.1377  0.0775
 9077SOL     OW38863   4.088   2.931   7.254 -0.2888 -0.5122 -0.3910
 9077SOL    HW138864   4.119   2.984   7.327 -0.5810  0.3695 -0.9102
 9077SOL    HW238865   4.118   2.984   7.180 -0.4977  0.5737  0.3163
 9078SOL     OW38866   0.437   0.155   1.973  0.0394 -0.1193  0.0530
 9078SOL    HW138867   0.437   0.095   1.898  1.4770  1.4883 -1.2361
 9078SOL    HW238868   0.372   0.109   2.026 -1.5285 -0.8104 -2.4644
 9079SOL     OW38869   3.437   0.296  12.479 -0.0589 -0.3634 -0.1590
 9079SOL    HW138870   3.401   0.257  12.558 -0.3014 -0.0435 -0.1100
 9079SOL    HW238871   3.422   0.386  12.511  0.4077 -0.0201 -0.9035
 9080SOL     OW38872   1.023   0.118   2.007 -0.6095  0.1838  0.8547
 9080SOL    HW138873   1.029   0.042   2.065  1.1481  0.3060  0.8323
 9080SOL    HW238874   1.087   0.176   2.049 -1.4736  0.6558  1.5047
 9081SOL     OW38875   2.012   4.717  14.153 -0.2718  0.6455  0.3628
 9081SOL    HW138876   2.006   0.071  14.142  1.5953  0.8051  0.6907
 9081SOL    HW238877   1.967   4.673  14.082 -2.3494  1.6707  1.0472
 9082SOL     OW38878   0.951   1.719   7.824  0.0983  0.6721 -0.3627
 9082SOL    HW138879   1.001   1.801   7.815 -1.0738  1.5667  1.1160
 9082SOL    HW238880   0.894   1.731   7.901 -0.9328 -1.1367 -0.8615
 9083SOL     OW38881   1.753   1.359  17.143  0.3391 -0.2813 -0.3996
 9083SOL    HW138882   1.785   1.291  17.085  0.9559  0.7560 -1.2684
 9083SOL    HW238883   1.705   1.417  17.084 -0.2918  0.1073  0.5049
 9084SOL     OW38884   4.052   4.559  10.562  0.2288  0.3680  0.5082
 9084SOL    HW138885   4.110   4.634  10.568  1.4630 -0.3346 -3.0108
 9084SOL    HW238886   4.047   4.562  10.467  0.9397  1.3880  0.5056
 9085SOL     OW38887   3.123   2.535   2.468  0.6417 -0.7955  0.0460
 9085SOL    HW138888   3.203   2.521   2.520  1.5718  2.0846 -0.6318
 9085SOL    HW238889   3.163   2.552   2.383  1.7245  2.5771  1.2592
 9086SOL     OW38890   3.900   0.951   6.971 -0.5268  0.2515  0.2151
 9086SOL    HW138891   3.958   0.920   6.901 -2.6282 -1.1840 -0.9082
 9086SOL    HW238892   3.816   0.912   6.946 -0.2054  0.1783 -0.7579
 9087SOL     OW38893   4.476   0.271   7.252 -0.1979  0.7063 -0.8325
 9087SOL    HW138894   4.416   0.299   7.183 -0.0314  4.1943  0.4339
 9087SOL    HW238895   4.494   0.355   7.296 -1.8692  1.4011 -1.4798
 9088SOL     OW38896   2.781   1.041  12.759 -0.1596 -0.0237  0.4079
 9088SOL    HW138897   2.774   0.947  12.775 -2.7743  0.1471  0.2990
 9088SOL    HW238898   2.783   1.078  12.848  1.6690  0.0692  0.3198
 9089SOL     OW38899   2.954   3.987   3.437  0.6562 -0.0834 -0.7064
 9089SOL    HW138900   2.906   3.972   3.519  1.9172  0.1704  0.0759
 9089SOL    HW238901   2.938   3.906   3.388 -2.0636 -0.5370  0.9479
 9090SOL     OW38902   3.524   4.521   8.748  0.2172 -0.5410  0.1030
 9090SOL    HW138903   3.502   4.485   8.662  1.2245 -0.6006 -0.1279
 9090SOL    HW238904   3.454   4.485   8.804 -0.9928  0.7405 -0.5790
 9091SOL     OW38905   2.026   4.389   1.771 -0.0377 -0.2737 -0.2757
 9091SOL    HW138906   2.070   4.429   1.697 -0.5717  2.3708  0.8340
 9091SOL    HW238907   1.955   4.341   1.729  1.7280 -2.2945 -0.8977
 9092SOL     OW38908   4.283   3.425   5.623 -0.2464  0.2994  0.7749
 9092SOL    HW138909   4.314   3.382   5.543 -0.5647 -0.1347  0.8829
 9092SOL    HW238910   4.352   3.489   5.637  0.7077 -0.5473 -0.0137
 9093SOL     OW38911   2.151   3.157   5.778  0.1078 -0.0972 -0.4227
 9093SOL    HW138912   2.179   3.180   5.690  0.8669  2.2999  0.4551
 9093SOL    HW238913   2.067   3.201   5.765  0.1995  0.1657 -0.1263
 9094SOL     OW38914   3.547   4.228   2.052 -0.6155 -0.1611  0.6328
 9094SOL    HW138915   3.512   4.316   2.041  2.0755  0.7323 -0.7772
 9094SOL    HW238916   3.472   4.173   2.076 -0.8434  0.0470  0.3907
 9095SOL     OW38917   4.307   0.937   3.705 -0.0134 -0.0880  0.2037
 9095SOL    HW138918   4.400   0.957   3.713  0.3949 -1.7381 -0.4628
 9095SOL    HW238919   4.303   0.952   3.610 -1.3140 -2.1529 -0.0621
 9096SOL     OW38920   1.723   1.577   6.594 -0.0736  0.3524  0.7104
 9096SOL    HW138921   1.731   1.669   6.570 -0.6401  0.3416  0.4743
 9096SOL    HW238922   1.642   1.556   6.547 -0.1141 -0.6397  1.2065
 9097SOL     OW38923   3.544   3.482   2.929  0.4834  0.0778 -0.4017
 9097SOL    HW138924   3.506   3.430   3.000  1.8385 -0.0711  0.1982
 9097SOL    HW238925   3.603   3.534   2.983 -0.3580 -1.7127  2.2471
 9098SOL     OW38926   2.963   4.263   6.476  0.9489  0.1516  0.1378
 9098SOL    HW138927   2.944   4.170   6.463 -1.0724  0.5928 -0.0488
 9098SOL    HW238928   3.017   4.263   6.396 -0.0253  0.2893 -0.5239
 9099SOL     OW38929   3.414   0.853   1.319 -0.0114  0.3843 -0.2744
 9099SOL    HW138930   3.399   0.948   1.328  1.0977  0.3710  1.8162
 9099SOL    HW238931   3.366   0.813   1.392  1.0585 -0.9848 -0.3199
 9100SOL     OW38932   3.280   3.215   6.619  0.2538  0.3474 -0.2618
 9100SOL    HW138933   3.360   3.206   6.672 -0.0546  1.7319  0.4322
 9100SOL    HW238934   3.266   3.309   6.620  0.8438  0.4416 -1.2799
 9101SOL     OW38935   4.103   1.605   7.749 -0.1117  0.1986  0.5271
 9101SOL    HW138936   4.015   1.633   7.775  0.0363  0.4982  0.6985
 9101SOL    HW238937   4.122   1.684   7.698 -1.0329 -0.5439 -0.9901
 9102SOL     OW38938   0.096   1.268  10.654 -0.1096 -0.9688  0.2776
 9102SOL    HW138939   0.169   1.288  10.595  0.0517  1.8990  1.4305
 9102SOL    HW238940   0.130   1.308  10.734 -1.2744  2.2714 -0.8712
 9103SOL     OW38941   1.081   3.242   6.463  0.4054 -0.2555  0.2887
 9103SOL    HW138942   1.137   3.243   6.540  1.2885  1.2864 -0.3908
 9103SOL    HW238943   1.107   3.316   6.408 -1.5335  0.5690  0.4588
 9104SOL     OW38944   2.693   2.126   9.082  0.3465  0.5992  0.5011
 9104SOL    HW138945   2.735   2.209   9.106 -0.2593  0.3338  2.4904
 9104SOL    HW238946   2.768   2.067   9.069  1.3293  1.7274  1.0143
 9105SOL     OW38947   1.591   3.874  17.173  0.0498 -0.2409  0.0900
 9105SOL    HW138948   1.569   3.851  17.263  0.0387 -0.8879 -0.0799
 9105SOL    HW238949   1.614   3.784  17.153  1.3127 -0.3137  1.8674
 9106SOL     OW38950   2.853   2.356   6.123  0.6286 -0.4016  0.5407
 9106SOL    HW138951   2.917   2.325   6.060 -2.2244 -1.3980 -1.8498
 9106SOL    HW238952   2.776   2.354   6.067  0.0082 -2.2463  1.4719
 9107SOL     OW38953   2.202   2.089   2.627 -0.0325  0.2490 -0.0087
 9107SOL    HW138954   2.223   2.044   2.709  0.6321  0.5248 -0.0361
 9107SOL    HW238955   2.149   2.026   2.577 -1.5459  1.7247 -0.2923
 9108SOL     OW38956   3.901   1.188   7.452 -0.6082 -0.2658  0.0881
 9108SOL    HW138957   3.976   1.247   7.458 -0.8256 -0.0348  0.5530
 9108SOL    HW238958   3.903   1.148   7.366  1.3464  1.9857 -0.8994
 9109SOL     OW38959   0.545   0.367   7.547 -0.1480  1.0481 -0.1243
 9109SOL    HW138960   0.541   0.271   7.555 -1.0524  0.9838 -1.2859
 9109SOL    HW238961   0.458   0.380   7.510  0.1286 -2.5475 -2.1189
 9110SOL     OW38962   4.662   3.331   4.064  1.0742 -0.1507  0.2663
 9110SOL    HW138963   4.655   3.301   4.154  2.3919  0.5618  0.6017
 9110SOL    HW238964   4.638   3.250   4.019  2.2343  0.0620 -0.7243
 9111SOL     OW38965   3.387   3.143   7.464  0.6148  0.4277 -0.2853
 9111SOL    HW138966   3.302   3.143   7.421 -0.3401 -1.0975  1.6020
 9111SOL    HW238967   3.356   3.131   7.554 -0.8467  0.8433 -0.7427
 9112SOL     OW38968   1.812   1.185   8.244 -0.6492 -0.6400 -0.1074
 9112SOL    HW138969   1.757   1.137   8.182  0.6534  0.0381 -1.7976
 9112SOL    HW238970   1.837   1.124   8.313  0.7262 -1.2264 -1.1235
 9113SOL     OW38971   3.011   4.716   8.283 -0.0040  0.4197 -0.2454
 9113SOL    HW138972   3.042   4.664   8.209  0.4633 -0.0706  0.3013
 9113SOL    HW238973   3.092   0.008   8.321  0.4809 -0.9790 -0.0968
 9114SOL     OW38974   1.458   1.908  12.020  0.2060  0.0237  0.6144
 9114SOL    HW138975   1.370   1.943  12.031 -0.8627 -1.8079 -2.0090
 9114SOL    HW238976   1.486   1.886  12.109  2.7771 -1.2155 -0.5060
 9115SOL     OW38977   2.969   0.281   5.114  0.1886  0.2389  0.4100
 9115SOL    HW138978   2.965   0.293   5.209 -0.3731 -1.0755  0.5610
 9115SOL    HW238979   2.882   0.250   5.087  0.3443 -0.0504  0.2352
 9116SOL     OW38980   2.080   0.940   6.324  0.2154  0.0715  0.4390
 9116SOL    HW138981   2.141   0.986   6.382 -1.0753  0.3711  1.5711
 9116SOL    HW238982   2.000   0.990   6.342  0.5867  0.0740  2.0998
 9117SOL     OW38983   3.177   4.425  15.925  0.1248  0.2684  0.3234
 9117SOL    HW138984   3.104   4.400  15.868 -1.1013  2.3827  0.9534
 9117SOL    HW238985   3.162   4.520  15.919 -1.9398 -0.1144 -0.7058
 9118SOL     OW38986   1.260   0.448   9.973 -0.5251 -0.0871  0.3015
 9118SOL    HW138987   1.274   0.416   9.884  0.9438  0.4555  0.3376
 9118SOL    HW238988   1.172   0.484   9.982 -1.1580 -1.0031 -2.3014
 9119SOL     OW38989   1.385   1.306   5.620  0.1412 -0.2489  0.5352
 9119SOL    HW138990   1.397   1.290   5.526 -1.1485 -0.4910  0.4215
 9119SOL    HW238991   1.417   1.222   5.652  0.3370 -0.2965  0.2148
 9120SOL     OW38992   3.110   4.599   2.149  0.8260 -0.0274 -0.0803
 9120SOL    HW138993   3.153   4.580   2.066  0.1544 -0.1775 -0.3951
 9120SOL    HW238994   3.116   4.511   2.186 -0.3484 -0.0368  0.1124
 9121SOL     OW38995   2.275   0.166   4.829  0.7328  0.1720  0.1888
 9121SOL    HW138996   2.292   0.164   4.735  2.3826  4.4022  0.4011
 9121SOL    HW238997   2.239   0.255   4.837  0.0209 -0.0313 -0.7773
 9122SOL     OW38998   2.420   2.738   1.743  0.5394 -0.2549  0.4224
 9122SOL    HW138999   2.330   2.708   1.755  1.0534 -0.5650  3.6743
 9122SOL    HW239000   2.397   2.827   1.717 -0.1655 -0.4551  0.3486
 9123SOL     OW39001   1.127   1.335  13.017 -0.5495  0.8778 -0.1418
 9123SOL    HW139002   1.155   1.324  13.108  1.1755 -0.9405 -0.8886
 9123SOL    HW239003   1.033   1.325  13.033 -0.6672  0.1545 -1.2953
 9124SOL     OW39004   0.608   2.259  17.516 -0.3667  0.9408 -0.3699
 9124SOL    HW139005   0.514   2.265  17.528 -0.4422  0.6572 -0.8234
 9124SOL    HW239006   0.609   2.190  17.449 -2.6819  1.3568 -0.8151
 9125SOL     OW39007   3.816   0.177   6.583  0.0207 -0.0450  0.0581
 9125SOL    HW139008   3.850   0.089   6.566  2.1312  0.8993 -0.6384
 9125SOL    HW239009   3.769   0.191   6.501 -0.2960  0.1827  0.2756
 9126SOL     OW39010   2.992   3.056   8.694 -0.3523  0.2458  0.0520
 9126SOL    HW139011   2.999   3.084   8.785 -0.3872  0.3358  0.0277
 9126SOL    HW239012   2.897   3.059   8.678 -0.6516 -2.7966  1.3036
 9127SOL     OW39013   0.128   3.381  15.897 -0.0401 -0.2783 -0.2324
 9127SOL    HW139014   0.191   3.329  15.947  0.9778  0.2226 -1.0036
 9127SOL    HW239015   0.057   3.318  15.907 -0.9768  0.9940  1.1081
 9128SOL     OW39016   0.079   0.992   1.047 -0.2168  0.0521 -0.1087
 9128SOL    HW139017   0.133   0.922   1.009  0.1509 -0.0439  0.5882
 9128SOL    HW239018   0.143   1.048   1.091 -0.9806  1.8273 -1.2999
 9129SOL     OW39019   4.086   2.463  13.177 -0.1519 -0.7644 -0.2440
 9129SOL    HW139020   4.103   2.369  13.182  1.6921 -0.4154  0.0723
 9129SOL    HW239021   4.055   2.490  13.264 -0.2599  0.4903 -0.6686
 9130SOL     OW39022   1.958   3.921   8.099 -0.5084 -0.0513  0.4343
 9130SOL    HW139023   1.988   3.830   8.092  1.5595  0.5243  1.8354
 9130SOL    HW239024   2.029   3.966   8.054 -0.1609 -1.1005 -0.0703
 9131SOL     OW39025   2.320   1.969   6.733 -0.0170  0.0893  0.0773
 9131SOL    HW139026   2.408   1.987   6.699 -0.1855  0.0768 -0.3618
 9131SOL    HW239027   2.272   1.964   6.650  0.1373  0.9094 -0.0618
 9132SOL     OW39028   4.090   2.772   2.927  0.5275  0.4087  0.4928
 9132SOL    HW139029   4.084   2.723   2.845  1.8115 -0.2065  0.7806
 9132SOL    HW239030   4.181   2.800   2.933  0.3131  1.1542  0.3828
 9133SOL     OW39031   0.300   4.046   9.763  0.0445  0.1166 -0.2105
 9133SOL    HW139032   0.237   4.101   9.810 -2.1924 -2.8111  0.1770
 9133SOL    HW239033   0.304   3.968   9.817 -1.7816  0.3734  0.2876
 9134SOL     OW39034   3.985   0.457   4.257  0.0299  0.4418  0.5415
 9134SOL    HW139035   3.984   0.392   4.328  2.8110 -1.1556 -0.8855
 9134SOL    HW239036   3.904   0.503   4.278  1.1995  2.8723 -0.3482
 9135SOL     OW39037   1.639   3.241  13.419 -0.1205 -0.5021 -0.8109
 9135SOL    HW139038   1.586   3.217  13.494  2.5135  0.8035  1.4778
 9135SOL    HW239039   1.725   3.264  13.455  0.2406  1.5620 -2.9433
 9136SOL     OW39040   0.836   3.759   4.787  0.2603 -0.0114  0.5030
 9136SOL    HW139041   0.855   3.829   4.725 -1.6862  0.4544  0.4560
 9136SOL    HW239042   0.925   3.721   4.784  0.4091  0.3875 -0.0051
 9137SOL     OW39043   0.990   3.361   3.623 -0.2575 -0.2093  0.7921
 9137SOL    HW139044   1.012   3.448   3.657  0.4825 -0.4134  0.8230
 9137SOL    HW239045   0.975   3.387   3.532 -0.2275  1.1892  1.1895
 9138SOL     OW39046   0.911   4.538   6.633 -0.2417 -0.0216  0.4139
 9138SOL    HW139047   0.902   4.458   6.685  0.7581 -0.5439 -0.2234
 9138SOL    HW239048   1.000   4.526   6.600 -0.0682 -1.1693  1.2876
 9139SOL     OW39049   1.680   2.228   6.954  0.2141 -0.5688 -0.1595
 9139SOL    HW139050   1.771   2.200   6.938 -0.2147 -1.5109 -0.9551
 9139SOL    HW239051   1.687   2.299   6.890  0.3024  0.6458  1.1941
 9140SOL     OW39052   3.599   0.322  12.200  0.2569  0.3305  0.1052
 9140SOL    HW139053   3.639   0.273  12.271 -0.5442 -1.8469 -0.9422
 9140SOL    HW239054   3.508   0.320  12.228  0.3467 -0.4031  0.3438
 9141SOL     OW39055   0.504   1.108   7.996 -0.6183 -0.6456  0.3370
 9141SOL    HW139056   0.533   1.023   8.029 -1.1882 -0.7062  0.6903
 9141SOL    HW239057   0.567   1.162   8.044 -0.7064  0.8398 -1.2283
 9142SOL     OW39058   0.009   2.830   5.473 -0.9462  0.0517  0.0671
 9142SOL    HW139059   0.063   2.864   5.402  1.0572 -1.9167  0.6617
 9142SOL    HW239060   0.075   2.801   5.536 -1.0514 -2.9201 -1.1661
 9143SOL     OW39061   4.322   3.165  17.085 -0.2254  0.5677 -0.0166
 9143SOL    HW139062   4.330   3.212  17.002  2.1569  3.1550  1.6526
 9143SOL    HW239063   4.230   3.139  17.084  0.1126 -0.6231 -0.1583
 9144SOL     OW39064   2.345   2.726   7.199 -0.1418  0.1450  0.2473
 9144SOL    HW139065   2.401   2.689   7.131  0.2308 -0.3824  0.8439
 9144SOL    HW239066   2.260   2.724   7.154 -0.0093  0.3167 -0.0099
 9145SOL     OW39067   1.582   4.124   6.685 -0.3061 -0.1436  0.1395
 9145SOL    HW139068   1.678   4.125   6.691 -0.2722 -0.0621 -0.4183
 9145SOL    HW239069   1.578   4.041   6.638 -0.2410 -0.9006  1.4592
 9146SOL     OW39070   1.899   3.512  12.554 -0.2352  0.0781  0.1857
 9146SOL    HW139071   1.896   3.423  12.519  3.3634 -0.0046  0.1391
 9146SOL    HW239072   1.810   3.525  12.587 -1.1456 -3.4160 -0.9423
 9147SOL     OW39073   3.533   2.281   4.498  0.1809  0.1014 -0.6832
 9147SOL    HW139074   3.542   2.304   4.590 -5.1226 -0.2282 -0.0868
 9147SOL    HW239075   3.615   2.314   4.461  1.0303  0.6908  1.7223
 9148SOL     OW39076   2.467   1.850  12.022  0.1550 -0.0661  0.6247
 9148SOL    HW139077   2.431   1.821  12.105 -2.4538  1.8433  0.1901
 9148SOL    HW239078   2.515   1.926  12.053 -0.0870  1.2036 -2.0645
 9149SOL     OW39079   1.668   3.262   6.099  0.3313 -0.5137  0.2590
 9149SOL    HW139080   1.695   3.341   6.147  1.8305 -0.9084  0.0832
 9149SOL    HW239081   1.695   3.277   6.009  0.8906  0.2051  0.5379
 9150SOL     OW39082   0.518   3.780   3.486 -0.3776  0.5933 -0.6028
 9150SOL    HW139083   0.488   3.714   3.423  0.9210 -1.0005  0.4405
 9150SOL    HW239084   0.539   3.716   3.554 -1.8686 -0.7633 -1.3995
 9151SOL     OW39085   2.723   3.470   4.304  0.0361  0.7383 -0.3319
 9151SOL    HW139086   2.733   3.380   4.333  0.0710  0.6645 -0.5669
 9151SOL    HW239087   2.647   3.457   4.247  1.0992 -0.7509 -1.4149
 9152SOL     OW39088   1.716   2.295  11.318 -0.5126 -0.5939  0.5690
 9152SOL    HW139089   1.765   2.215  11.304  0.9309  0.5460 -0.8575
 9152SOL    HW239090   1.765   2.323  11.395  0.8082 -0.6376 -0.2660
 9153SOL     OW39091   3.743   0.904   8.746  0.1444 -0.0649 -0.6846
 9153SOL    HW139092   3.701   0.938   8.667  1.1088 -0.4636 -1.3763
 9153SOL    HW239093   3.813   0.963   8.774 -1.2460  1.4211 -0.4038
 9154SOL     OW39094   1.117   3.338  11.591 -0.1362  0.5978  0.8114
 9154SOL    HW139095   1.147   3.305  11.675  1.8978 -2.8744 -1.2981
 9154SOL    HW239096   1.056   3.408  11.615 -0.9214  0.0688  0.3500
 9155SOL     OW39097   1.199   3.441  12.492  0.5348  0.2367  0.1162
 9155SOL    HW139098   1.153   3.521  12.517 -0.7263 -0.1832 -0.8356
 9155SOL    HW239099   1.217   3.399  12.577  1.8506 -0.2262 -0.3864
 9156SOL     OW39100   0.317   4.598   4.976  0.2440 -0.3167  0.0600
 9156SOL    HW139101   0.404   4.640   4.977 -0.5620  1.3954 -1.9596
 9156SOL    HW239102   0.279   4.622   5.060 -2.3157  1.0385 -1.4758
 9157SOL     OW39103   0.587   1.249  10.672 -0.4724 -0.1906  0.4031
 9157SOL    HW139104   0.676   1.214  10.667 -0.6859 -0.5277 -1.1003
 9157SOL    HW239105   0.592   1.344  10.677 -0.4673 -0.1467 -0.3811
 9158SOL     OW39106   2.148   2.134   3.317  0.0267 -0.2779 -0.1667
 9158SOL    HW139107   2.101   2.057   3.284 -0.7404 -1.2192  3.1548
 9158SOL    HW239108   2.201   2.095   3.387  0.4109  0.9686  0.2409
 9159SOL     OW39109   3.506   2.701   1.155 -0.2541 -0.5791 -0.5835
 9159SOL    HW139110   3.431   2.653   1.120 -1.8103  1.2612  0.2308
 9159SOL    HW239111   3.472   2.790   1.141 -0.4031 -0.7676 -1.4543
 9160SOL     OW39112   2.779   2.537   8.522  0.0814  0.5189 -0.0569
 9160SOL    HW139113   2.735   2.609   8.568 -1.0519 -1.4673  1.9535
 9160SOL    HW239114   2.857   2.518   8.575 -1.3370  0.9471  2.1669
 9161SOL     OW39115   3.742   4.017   6.316  0.2937 -0.4402 -0.3645
 9161SOL    HW139116   3.730   3.995   6.409  0.5968  0.1261 -0.1927
 9161SOL    HW239117   3.738   4.113   6.313 -0.0926 -0.4500 -0.1513
 9162SOL     OW39118   2.906   4.373  14.109  0.5342  0.6183 -0.0709
 9162SOL    HW139119   3.000   4.375  14.096  0.7998  2.1550  2.1799
 9162SOL    HW239120   2.901   4.422  14.191  0.4819  0.8288 -0.1999
 9163SOL     OW39121   4.024   1.872  17.752 -0.7344  0.5656  0.9113
 9163SOL    HW139122   4.038   1.784  17.717 -1.0130  0.6294  0.6332
 9163SOL    HW239123   4.110   1.887   0.028 -1.2583  0.2221  2.2563
 9164SOL     OW39124   1.140   4.600   6.478  0.5140  0.0761  0.5507
 9164SOL    HW139125   1.150   4.688   6.442 -0.3272 -0.8503 -1.9320
 9164SOL    HW239126   1.157   4.553   6.397  0.9182 -1.4806  1.5248
 9165SOL     OW39127   2.813   1.662   2.808 -0.0747  0.0277 -0.2577
 9165SOL    HW139128   2.810   1.696   2.719 -1.4539 -0.3788 -0.3756
 9165SOL    HW239129   2.900   1.622   2.809 -0.3578 -0.6231 -1.7899
 9166SOL     OW39130   4.102   2.526   4.090  0.5379 -0.3069  0.7380
 9166SOL    HW139131   4.167   2.508   4.022 -0.1090 -0.7962  0.2380
 9166SOL    HW239132   4.151   2.510   4.170 -0.7752 -1.6764  1.2699
 9167SOL     OW39133   4.000   2.529   7.637 -0.1766  0.5029  0.2720
 9167SOL    HW139134   4.065   2.467   7.604 -1.7422 -2.2495  2.3338
 9167SOL    HW239135   4.012   2.604   7.580  1.0992  0.1460  0.0702
 9168SOL     OW39136   3.152   0.923   4.039 -0.1086  0.1086  0.4472
 9168SOL    HW139137   3.132   0.972   3.960 -2.3500 -2.2918 -0.4747
 9168SOL    HW239138   3.075   0.942   4.094 -0.6187 -0.1153 -0.1970
 9169SOL     OW39139   1.850   1.751   3.836  0.3029  0.2444  0.2959
 9169SOL    HW139140   1.908   1.722   3.766  1.6379 -0.8573  1.8581
 9169SOL    HW239141   1.910   1.785   3.902  0.5638 -3.8611  2.1678
 9170SOL     OW39142   1.841   1.645   4.595 -0.5861 -0.3677 -0.3401
 9170SOL    HW139143   1.905   1.716   4.584 -0.4761 -0.6467 -1.5537
 9170SOL    HW239144   1.793   1.670   4.674  0.9034  2.4710 -0.3322
 9171SOL     OW39145   3.354   3.261   5.121 -0.0178 -0.1050 -0.6801
 9171SOL    HW139146   3.393   3.243   5.036 -1.2057  4.9285 -2.2751
 9171SOL    HW239147   3.290   3.329   5.101  2.6933  2.0334 -1.9731
 9172SOL     OW39148   0.380   1.470   2.572 -0.0941 -0.3664  0.5433
 9172SOL    HW139149   0.459   1.425   2.542  0.9109  1.9864 -0.2819
 9172SOL    HW239150   0.370   1.530   2.499  0.8791 -0.5109  0.2857
 9173SOL     OW39151   4.451   2.117   5.757 -1.1776  0.3508  0.5052
 9173SOL    HW139152   4.514   2.176   5.799  0.1644 -0.6008 -0.1951
 9173SOL    HW239153   4.489   2.108   5.670 -2.1098 -1.3231  0.2800
 9174SOL     OW39154   2.933   2.141   5.757  0.3328 -0.2136 -0.2006
 9174SOL    HW139155   3.001   2.091   5.713 -1.1091 -1.1896 -1.3209
 9174SOL    HW239156   2.895   2.068   5.806 -5.2241  0.6554 -3.1695
 9175SOL     OW39157   0.791   2.436  12.430  0.3201  0.3233  0.0389
 9175SOL    HW139158   0.820   2.405  12.344 -2.0978 -1.3170 -0.1578
 9175SOL    HW239159   0.806   2.531  12.428 -2.9706  0.8070 -0.6937
 9176SOL     OW39160   3.618   0.482   4.939  0.6478  0.2953  0.0843
 9176SOL    HW139161   3.541   0.521   4.897  1.3320 -1.0771 -2.4603
 9176SOL    HW239162   3.575   0.431   5.008  1.9316 -0.5237  0.2622
 9177SOL     OW39163   3.906   3.443   2.815 -0.0167 -0.2194 -0.3335
 9177SOL    HW139164   3.965   3.369   2.827 -0.5570 -0.1967  2.4930
 9177SOL    HW239165   3.893   3.467   2.907 -0.2707 -0.1242 -0.3924
 9178SOL     OW39166   4.389   4.007   5.079  0.2132 -0.0482 -0.0833
 9178SOL    HW139167   4.398   4.043   5.167  1.0003  2.7692 -1.3405
 9178SOL    HW239168   4.442   4.067   5.027 -0.3065  1.1461  0.7936
 9179SOL     OW39169   0.594   3.007  15.404 -0.2865  0.9180  0.7567
 9179SOL    HW139170   0.666   2.990  15.343  0.2470 -1.9052  2.1960
 9179SOL    HW239171   0.517   2.974  15.356 -0.5847  1.0670  1.1345
 9180SOL     OW39172   1.713   0.243  14.109 -0.0523 -0.6232  0.2532
 9180SOL    HW139173   1.683   0.157  14.137  1.0825 -1.4726 -1.1371
 9180SOL    HW239174   1.660   0.263  14.032 -0.6794 -1.6760  0.4180
 9181SOL     OW39175   1.633   3.801   4.521 -0.7086  0.7492  0.2715
 9181SOL    HW139176   1.615   3.720   4.570 -0.4825  1.0574  0.8621
 9181SOL    HW239177   1.549   3.842   4.545 -0.8877 -0.8372  2.3982
 9182SOL     OW39178   3.530   3.133  12.469  0.0110  0.1353 -0.3109
 9182SOL    HW139179   3.532   3.174  12.382 -1.7710  0.9723  0.0421
 9182SOL    HW239180   3.613   3.152  12.512  0.5571  1.5757 -2.0103
 9183SOL     OW39181   1.249   4.178   4.471  0.5247  0.1323 -1.0734
 9183SOL    HW139182   1.196   4.136   4.403 -1.8311 -1.1591  1.6098
 9183SOL    HW239183   1.290   4.241   4.411  0.5149  0.5703 -0.6196
 9184SOL     OW39184   0.471   2.080  13.911  0.1605 -0.0080  0.3872
 9184SOL    HW139185   0.472   2.011  13.844  1.4263  1.7369 -1.3931
 9184SOL    HW239186   0.489   2.155  13.854 -1.5758  0.6532  0.6970
 9185SOL     OW39187   1.002   4.504   8.560  0.1587  0.4046 -0.0893
 9185SOL    HW139188   0.968   4.527   8.473 -2.6395 -0.6064  0.7249
 9185SOL    HW239189   0.919   4.486   8.604 -0.9140  0.8858 -1.8934
 9186SOL     OW39190   3.204   1.568   5.484 -0.2744  0.1039 -0.1158
 9186SOL    HW139191   3.233   1.630   5.417 -3.0113  0.8879 -0.5875
 9186SOL    HW239192   3.291   1.541   5.513  0.3879 -1.0118 -3.1673
 9187SOL     OW39193   1.518   1.202  13.227 -0.2809 -0.5098 -0.4178
 9187SOL    HW139194   1.430   1.231  13.248  0.1748  0.1434  0.5540
 9187SOL    HW239195   1.515   1.193  13.131  3.6820  0.6189 -0.6586
 9188SOL     OW39196   3.021   3.962   8.019  0.5697  0.1523 -0.1823
 9188SOL    HW139197   3.059   3.987   8.103  1.3139 -3.5138  0.5414
 9188SOL    HW239198   2.934   3.936   8.048  1.9261 -1.9477  2.0166
 9189SOL     OW39199   0.772   2.425   2.385 -0.4573  0.6878 -0.1104
 9189SOL    HW139200   0.751   2.508   2.342  2.0475  1.0016 -0.7058
 9189SOL    HW239201   0.835   2.456   2.450 -1.2829 -0.1108  1.0757
 9190SOL     OW39202   1.294   0.921  10.791 -0.3437  0.4672  0.1893
 9190SOL    HW139203   1.200   0.935  10.806 -0.3139  0.2120  0.6037
 9190SOL    HW239204   1.290   0.874  10.708 -3.2267 -1.1804  1.2502
 9191SOL     OW39205   3.361   1.147   8.823 -0.6631  0.3150 -0.6496
 9191SOL    HW139206   3.415   1.138   8.902  0.6271  1.9435 -1.3393
 9191SOL    HW239207   3.423   1.115   8.757 -1.6204 -2.5374 -0.1578
 9192SOL     OW39208   2.064   3.398   7.661 -0.1235 -0.0088 -0.2076
 9192SOL    HW139209   2.120   3.385   7.585 -1.2643  1.5305 -1.3232
 9192SOL    HW239210   2.085   3.322   7.715  0.7184 -0.0317 -0.5724
 9193SOL     OW39211   3.545   0.501   8.174  0.1771  0.6512  0.5142
 9193SOL    HW139212   3.634   0.468   8.165  0.9748  4.1903 -4.5214
 9193SOL    HW239213   3.560   0.586   8.215  3.0602  0.6651 -0.6164
 9194SOL     OW39214   1.553   4.198   5.461  0.2454 -0.0013  0.3827
 9194SOL    HW139215   1.571   4.137   5.532 -1.7521 -0.7392  0.2500
 9194SOL    HW239216   1.621   4.262   5.485  1.0704 -0.5068 -0.5691
 9195SOL     OW39217   2.026   3.773   9.211  0.6418  0.8247  0.4961
 9195SOL    HW139218   2.039   3.867   9.199  2.0069  0.6269  0.4444
 9195SOL    HW239219   2.098   3.743   9.155  0.0008  0.6046 -0.2112
 9196SOL     OW39220   3.915   4.420  16.881 -0.0552  0.1655 -0.1403
 9196SOL    HW139221   3.923   4.378  16.795  0.3101  1.2424 -0.6227
 9196SOL    HW239222   3.941   4.508  16.853 -2.2428  1.6469  2.5136
 9197SOL     OW39223   4.347   1.474   4.120  0.0539 -0.4843  0.1845
 9197SOL    HW139224   4.321   1.519   4.040  1.0834 -0.4559 -0.1365
 9197SOL    HW239225   4.439   1.498   4.111 -0.1785 -0.0345 -0.9862
 9198SOL     OW39226   3.108   4.534   9.588 -0.0533  0.0958  0.2234
 9198SOL    HW139227   3.029   4.536   9.534  0.3046  1.7770 -0.2539
 9198SOL    HW239228   3.085   4.611   9.640 -2.0234  1.0561 -2.0536
 9199SOL     OW39229   4.177   1.150   7.172  0.3603 -0.2207  0.2522
 9199SOL    HW139230   4.172   1.124   7.080  0.3979 -0.2111  0.2478
 9199SOL    HW239231   4.249   1.091   7.196  0.7896  1.4114  2.9081
 9200SOL     OW39232   0.581   2.225   4.707  0.3497 -0.5376  0.1179
 9200SOL    HW139233   0.642   2.297   4.693 -1.9500  1.0106 -1.9304
 9200SOL    HW239234   0.511   2.285   4.730  1.2276  0.5853 -0.1119
 9201SOL     OW39235   2.103   2.110  12.554 -0.3575 -0.1833 -0.0727
 9201SOL    HW139236   2.051   2.190  12.548 -0.1331  0.0907  1.6624
 9201SOL    HW239237   2.186   2.148  12.526 -0.4932 -0.7221 -1.2213
 9202SOL     OW39238   2.962   2.520   0.631 -0.7916  0.3737  0.5314
 9202SOL    HW139239   2.929   2.481   0.550  0.2786 -0.8543  0.6792
 9202SOL    HW239240   3.020   2.589   0.600 -1.1030  0.0438 -0.8036
 9203SOL     OW39241   2.842   3.553   0.963  0.1225  0.3505 -0.0969
 9203SOL    HW139242   2.938   3.560   0.957  0.1682  0.5437  0.7615
 9203SOL    HW239243   2.835   3.490   1.035 -2.2298  0.6182 -0.0916
 9204SOL     OW39244   2.795   2.990   8.902  0.0552 -0.0503  0.5673
 9204SOL    HW139245   2.703   2.969   8.888 -0.0267 -0.6417  1.9488
 9204SOL    HW239246   2.777   3.070   8.950  2.3317  1.1957 -0.6439
 9205SOL     OW39247   0.451   3.770   6.677  0.1090 -0.3091  0.2507
 9205SOL    HW139248   0.396   3.837   6.719 -1.0457 -0.2498 -1.3280
 9205SOL    HW239249   0.415   3.695   6.725  0.6088  1.1975  2.9631
 9206SOL     OW39250   1.757   0.557   5.380  0.0703  0.1745 -0.0477
 9206SOL    HW139251   1.721   0.527   5.464 -1.6264  2.3505  0.0103
 9206SOL    HW239252   1.846   0.523   5.379  1.2061  3.1369  1.0567
 9207SOL     OW39253   1.547   3.666   2.051  0.3617  0.0547 -0.6152
 9207SOL    HW139254   1.457   3.635   2.038  1.1111 -1.8294 -1.2187
 9207SOL    HW239255   1.594   3.622   1.980  0.8960 -2.3622  1.2328
 9208SOL     OW39256   3.786   2.661   6.131 -0.3695  0.0424  0.0743
 9208SOL    HW139257   3.867   2.645   6.082 -0.0107  1.2756  0.2480
 9208SOL    HW239258   3.719   2.679   6.065 -2.0820  0.9554  2.0578
 9209SOL     OW39259   2.982   1.857   4.739  0.1056  0.1425 -0.4946
 9209SOL    HW139260   3.069   1.826   4.712 -0.6437  0.6435 -3.5282
 9209SOL    HW239261   2.991   1.898   4.825 -1.2375 -0.3307 -0.1337
 9210SOL     OW39262   3.760   0.161   7.229  0.2499  0.3531  0.1564
 9210SOL    HW139263   3.754   0.256   7.245  0.4552  0.4101 -0.0950
 9210SOL    HW239264   3.667   0.140   7.233 -0.1269  1.2138 -4.3713
 9211SOL     OW39265   3.271   4.287  15.274 -0.1186 -0.2551  0.3804
 9211SOL    HW139266   3.325   4.227  15.222 -1.8592  0.8206 -2.6212
 9211SOL    HW239267   3.273   4.357  15.209 -0.8862  0.7052  1.3807
 9212SOL     OW39268   3.300   3.329  15.160 -0.0409 -0.3219  0.3202
 9212SOL    HW139269   3.342   3.372  15.086 -3.0503  2.2794  0.1374
 9212SOL    HW239270   3.237   3.394  15.190  1.0513  0.8015  0.2056
 9213SOL     OW39271   0.068   2.012  17.331 -0.5745 -0.1966 -0.0816
 9213SOL    HW139272   0.024   2.088  17.291  2.3867  2.1518  1.1129
 9213SOL    HW239273   0.124   2.053  17.397  1.9957  0.2796 -2.5531
 9214SOL     OW39274   2.588   3.535   2.526 -1.3536 -0.0857  0.4909
 9214SOL    HW139275   2.493   3.519   2.533 -0.9532 -1.8052  1.9855
 9214SOL    HW239276   2.604   3.566   2.615 -0.0834  1.8442 -0.4381
 9215SOL     OW39277   4.397   0.155  13.493  0.1347 -0.2228 -0.2854
 9215SOL    HW139278   4.448   0.129  13.570 -1.0678  0.5831  0.7735
 9215SOL    HW239279   4.371   0.068  13.463  0.2513 -1.0740  2.1258
 9216SOL     OW39280   3.422   3.059   0.893 -0.0020  0.6749  0.2148
 9216SOL    HW139281   3.495   3.104   0.850  0.1366  1.1415  0.9308
 9216SOL    HW239282   3.350   3.112   0.861  0.8340  0.5320 -1.9115
 9217SOL     OW39283   0.692   4.294   8.992  0.6040  0.5206 -1.1971
 9217SOL    HW139284   0.610   4.310   9.040  1.1904 -0.7444  0.2491
 9217SOL    HW239285   0.691   4.200   8.975 -0.1040  0.2862  0.0959
 9218SOL     OW39286   0.087   2.663   6.087 -0.5803  0.1957 -0.5256
 9218SOL    HW139287   0.078   2.629   6.176 -2.8404  1.4071 -0.2826
 9218SOL    HW239288   0.134   2.744   6.109 -1.6796  0.3232  1.3323
 9219SOL     OW39289   0.787   1.496   4.034 -0.3557  0.7507  0.1523
 9219SOL    HW139290   0.724   1.538   3.976 -1.5216 -0.4888  0.5383
 9219SOL    HW239291   0.773   1.541   4.117 -1.0780  0.3322  0.2527
 9220SOL     OW39292   4.136   0.754   6.442  0.2068 -0.2225  0.7601
 9220SOL    HW139293   4.067   0.748   6.376  0.0179  0.2537  0.9162
 9220SOL    HW239294   4.195   0.700   6.390  0.9204  0.4963  0.8341
 9221SOL     OW39295   0.315   3.368   5.463  0.3284  0.3178  0.2126
 9221SOL    HW139296   0.308   3.302   5.394  0.0011  1.4342 -0.8195
 9221SOL    HW239297   0.285   3.447   5.418  0.3015  0.7344  0.9532
 9222SOL     OW39298   1.472   4.713   6.672  0.5450  0.0511  0.2630
 9222SOL    HW139299   1.530   4.649   6.632 -0.6981  0.2022 -1.7899
 9222SOL    HW239300   1.428   0.006   6.594  0.6531 -0.6112 -0.0860
 9223SOL     OW39301   0.477   1.260   6.242  0.1664 -0.0592 -0.3173
 9223SOL    HW139302   0.548   1.304   6.195  0.6944 -0.9886 -0.3821
 9223SOL    HW239303   0.477   1.308   6.324  0.7090 -0.4799 -0.0751
 9224SOL     OW39304   0.544   0.668   3.091 -0.5101 -0.8471  0.0636
 9224SOL    HW139305   0.495   0.600   3.045 -0.5615 -0.8066  0.0594
 9224SOL    HW239306   0.603   0.704   3.025  0.5289 -3.7335 -0.5915
 9225SOL     OW39307   4.407   2.844   9.760  0.0934  0.7999 -0.1702
 9225SOL    HW139308   4.459   2.798   9.694  0.8840  1.1843  0.1883
 9225SOL    HW239309   4.326   2.870   9.717  0.7390 -0.1487 -1.9721
 9226SOL     OW39310   3.746   1.926   3.446  0.4067  0.0322 -0.0061
 9226SOL    HW139311   3.749   1.925   3.350  0.0654 -0.3943 -0.0116
 9226SOL    HW239312   3.839   1.950   3.456  0.4489 -0.0618 -0.1738
 9227SOL     OW39313   0.749   1.853   0.622 -0.1371 -0.3663  0.5938
 9227SOL    HW139314   0.792   1.919   0.676 -2.8198  0.6603  1.5077
 9227SOL    HW239315   0.824   1.812   0.580  0.8180  0.0692  1.8937
 9228SOL     OW39316   3.870   3.068  12.358  0.6607  0.0589 -0.2103
 9228SOL    HW139317   3.826   3.030  12.282  0.6473 -3.2529  1.4495
 9228SOL    HW239318   3.872   2.999  12.424  0.1776  2.2562  2.1094
 9229SOL     OW39319   4.284   4.015  16.273  0.0635  0.5848 -0.2267
 9229SOL    HW139320   4.239   4.045  16.352 -1.6554  1.2821 -1.4826
 9229SOL    HW239321   4.297   4.097  16.226  0.7214  0.2434 -0.6455
 9230SOL     OW39322   2.105   3.683  16.794 -0.4259  0.2872 -0.1871
 9230SOL    HW139323   2.081   3.772  16.770 -0.1870  0.4834  0.3056
 9230SOL    HW239324   2.150   3.688  16.878 -0.8391  3.0292 -0.1225
 9231SOL     OW39325   3.352   4.638   3.759 -0.4944  0.2241 -0.0173
 9231SOL    HW139326   3.352   4.549   3.723 -2.6206  0.8823 -1.6557
 9231SOL    HW239327   3.266   4.674   3.738 -0.5574 -0.5917 -1.1665
 9232SOL     OW39328   2.477   0.760   7.159  1.0240  0.4213 -0.3313
 9232SOL    HW139329   2.469   0.772   7.065  3.4478 -3.0448 -0.9804
 9232SOL    HW239330   2.554   0.816   7.170  0.5581  0.8115  0.9485
 9233SOL     OW39331   1.434   4.631   5.179  0.2894 -0.1227 -0.5118
 9233SOL    HW139332   1.344   4.651   5.204  0.4632 -0.6085  0.5118
 9233SOL    HW239333   1.484   4.711   5.190  2.4809 -1.6840  0.9600
 9234SOL     OW39334   3.310   4.582   2.899 -0.2499 -0.0562  0.3710
 9234SOL    HW139335   3.305   4.538   2.814 -0.1505  2.9735 -1.2343
 9234SOL    HW239336   3.402   4.565   2.919  0.1068 -0.0162 -1.2433
 9235SOL     OW39337   1.990   1.534   6.475  0.1117  0.3204 -0.0658
 9235SOL    HW139338   1.925   1.570   6.535  0.6442 -0.8575  1.2145
 9235SOL    HW239339   1.970   1.557   6.385 -1.8186 -0.2376  0.2345
 9236SOL     OW39340   3.652   1.764   1.041 -0.3305 -0.1394  0.0840
 9236SOL    HW139341   3.712   1.691   1.025  1.1161  0.6838  1.8372
 9236SOL    HW239342   3.712   1.834   1.066  0.0663 -0.6100  0.4368
 9237SOL     OW39343   0.042   0.466   3.128  0.2876  0.1101 -0.2897
 9237SOL    HW139344   0.088   0.537   3.173  1.5902  0.8437 -2.7247
 9237SOL    HW239345   0.084   0.389   3.164 -1.4128 -1.1662 -1.0537
 9238SOL     OW39346   4.108   2.252   2.084 -0.0265 -0.1087  0.2712
 9238SOL    HW139347   4.052   2.303   2.025  0.3028  1.4991  1.3724
 9238SOL    HW239348   4.056   2.171   2.085 -0.1586 -0.0252  0.2295
 9239SOL     OW39349   4.084   2.682  17.107  0.6267 -0.2769  0.1158
 9239SOL    HW139350   4.082   2.731  17.025  1.2619  0.7831  0.7310
 9239SOL    HW239351   4.096   2.754  17.170 -0.7105 -0.7244  0.8773
 9240SOL     OW39352   0.886   0.866  16.113 -0.6901 -0.1130 -0.2564
 9240SOL    HW139353   0.926   0.846  16.197  0.6822  1.1597 -0.6090
 9240SOL    HW239354   0.850   0.780  16.091  0.0905 -1.1759  2.6501
 9241SOL     OW39355   3.851   3.165   6.433  0.1034  0.1799 -0.2059
 9241SOL    HW139356   3.827   3.078   6.401 -2.2247  1.5654 -2.2437
 9241SOL    HW239357   3.770   3.215   6.424 -0.3981 -0.2171  2.0715
 9242SOL     OW39358   1.389   3.438  12.982 -0.1242 -0.4057 -0.0036
 9242SOL    HW139359   1.440   3.489  12.920 -0.4602  1.4304  1.2106
 9242SOL    HW239360   1.334   3.507  13.021  0.1199  0.1826 -0.7021
 9243SOL     OW39361   1.142   1.872   7.619  1.1395 -0.1642 -0.5829
 9243SOL    HW139362   1.231   1.908   7.608  1.3955 -0.7516 -0.4073
 9243SOL    HW239363   1.109   1.912   7.700 -1.0818 -1.2009 -1.0069
 9244SOL     OW39364   4.467   1.885  11.290 -0.8061 -0.6320 -0.0378
 9244SOL    HW139365   4.511   1.850  11.212  0.5718 -0.8115  0.8209
 9244SOL    HW239366   4.415   1.952  11.247  0.1507  0.2968  0.2505
 9245SOL     OW39367   0.761   2.361   5.934  0.3943  0.1858 -0.1947
 9245SOL    HW139368   0.677   2.406   5.933  0.9151  1.1376 -1.1689
 9245SOL    HW239369   0.789   2.364   6.026 -0.1285  0.9854 -0.0663
 9246SOL     OW39370   0.697   0.208  11.835 -0.2817  0.4593 -0.2797
 9246SOL    HW139371   0.723   0.205  11.927  1.8985 -0.3260 -0.9196
 9246SOL    HW239372   0.609   0.171  11.831 -0.3024  0.8357 -2.9528
 9247SOL     OW39373   0.581   3.022  12.079 -0.1563  0.2043  0.3984
 9247SOL    HW139374   0.517   2.981  12.020 -2.3270  1.1615  2.0792
 9247SOL    HW239375   0.629   3.083  12.022 -0.0376 -0.7497 -0.5232
 9248SOL     OW39376   2.239   0.237   5.523  0.5889 -0.6951 -0.1130
 9248SOL    HW139377   2.203   0.300   5.585  0.2062 -1.0732  0.0475
 9248SOL    HW239378   2.292   0.293   5.467 -0.2433  0.5410  0.3465
 9249SOL     OW39379   2.939   1.352  16.260 -0.3628  0.0041 -0.2825
 9249SOL    HW139380   2.981   1.429  16.221  1.9480 -0.4845  1.2478
 9249SOL    HW239381   3.014   1.306  16.297 -0.5488 -1.1001 -1.2713
 9250SOL     OW39382   1.321   0.034   1.971 -0.9046  0.2971 -0.0594
 9250SOL    HW139383   1.312   0.095   2.045 -2.0139  1.2376 -0.9681
 9250SOL    HW239384   1.234   0.039   1.931 -1.8996  0.2512  2.1003
 9251SOL     OW39385   0.191   2.038  14.324  0.0495 -0.3209 -0.1439
 9251SOL    HW139386   0.102   2.073  14.331  0.6199  0.5344  2.6776
 9251SOL    HW239387   0.187   1.966  14.387 -0.0856 -1.8668 -1.9246
 9252SOL     OW39388   1.426   0.285  12.954 -0.2437 -0.4297 -0.0928
 9252SOL    HW139389   1.503   0.266  12.900  1.2306 -1.9354  2.5263
 9252SOL    HW239390   1.469   0.338  13.021 -0.3020  1.1075 -1.2740
 9253SOL     OW39391   1.985   3.633   6.701  0.0104  0.3985 -0.0193
 9253SOL    HW139392   1.994   3.725   6.727 -2.7997  0.5142  0.5904
 9253SOL    HW239393   2.068   3.601   6.735  0.2804  1.4647  0.3265
 9254SOL     OW39394   3.379   4.562   4.495 -0.0710 -0.6903 -0.0339
 9254SOL    HW139395   3.472   4.539   4.500  0.1158  0.1640  0.4245
 9254SOL    HW239396   3.348   4.488   4.443  1.7101 -1.3480 -0.1454
 9255SOL     OW39397   4.352   0.876   9.441 -0.0370 -0.2865  0.2072
 9255SOL    HW139398   4.381   0.785   9.438  3.9187  0.9737  0.2029
 9255SOL    HW239399   4.325   0.879   9.533  1.1446  0.5463  0.5225
 9256SOL     OW39400   1.045   2.168  15.066 -0.0267 -0.0089  0.0974
 9256SOL    HW139401   1.035   2.249  15.016 -1.6920 -1.0998 -1.3437
 9256SOL    HW239402   1.121   2.188  15.121 -0.4394 -1.3253  1.1505
 9257SOL     OW39403   0.559   0.912  17.170 -0.3431 -0.1808  0.6098
 9257SOL    HW139404   0.620   0.950  17.234 -0.8329  1.8962 -0.1511
 9257SOL    HW239405   0.488   0.976  17.172 -0.4985 -0.2610 -2.2663
 9258SOL     OW39406   2.653   2.360   5.908 -0.3497 -0.1033 -0.6730
 9258SOL    HW139407   2.624   2.270   5.896  2.0088 -0.8465 -0.8504
 9258SOL    HW239408   2.700   2.373   5.826  2.9987 -1.7905  0.9888
 9259SOL     OW39409   1.147   4.385   6.216  0.0363  0.0017 -0.1285
 9259SOL    HW139410   1.237   4.388   6.183 -0.2858 -1.5025 -1.1414
 9259SOL    HW239411   1.126   4.295   6.191 -0.8686  0.2094 -0.0956
 9260SOL     OW39412   3.345   4.652   7.923  0.3460  0.2288  0.1366
 9260SOL    HW139413   3.307   4.586   7.866 -0.0454  0.4243  0.1689
 9260SOL    HW239414   3.436   4.624   7.914  0.8490  1.6568  0.7187
 9261SOL     OW39415   4.264   4.293   3.423  0.3543  0.0327  0.3818
 9261SOL    HW139416   4.322   4.311   3.350 -0.3737 -1.4157 -0.5789
 9261SOL    HW239417   4.211   4.373   3.415  3.3124  1.9550  0.3179
 9262SOL     OW39418   2.229   3.320  12.278 -0.6068 -0.0443  0.6513
 9262SOL    HW139419   2.165   3.321  12.207  0.7519 -1.0739 -0.5792
 9262SOL    HW239420   2.211   3.237  12.323 -0.6664 -0.3268  0.1121
 9263SOL     OW39421   4.001   1.925   5.885 -0.0805  0.8525  0.0527
 9263SOL    HW139422   4.084   1.968   5.906  0.3497 -0.2880  0.7048
 9263SOL    HW239423   3.935   1.964   5.943 -0.4898  0.0278  0.1596
 9264SOL     OW39424   1.064   0.622   2.554 -0.4877  0.4258  0.0980
 9264SOL    HW139425   0.998   0.590   2.493  0.9124 -1.2097 -0.5599
 9264SOL    HW239426   1.131   0.663   2.499 -1.6601  2.1561 -0.0392
 9265SOL     OW39427   3.909   4.609   7.338 -0.1844 -0.1068 -0.3497
 9265SOL    HW139428   3.887   4.642   7.251  0.3717  3.1716  0.7879
 9265SOL    HW239429   3.992   4.560   7.336  0.2667  0.5691  1.5200
 9266SOL     OW39430   3.810   3.172   5.595 -0.0185  0.0022 -0.1215
 9266SOL    HW139431   3.721   3.146   5.619  0.6831 -4.0281 -1.9221
 9266SOL    HW239432   3.853   3.096   5.634 -1.9355  0.1527  2.3140
 9267SOL     OW39433   2.623   1.229   0.924  0.6562  0.0054 -0.4371
 9267SOL    HW139434   2.700   1.285   0.927  0.6384 -0.1987  4.6920
 9267SOL    HW239435   2.573   1.266   0.851  1.2536 -2.9785 -2.3817
 9268SOL     OW39436   2.924   3.347   2.310  0.1047  0.2322 -0.2010
 9268SOL    HW139437   2.952   3.275   2.367  1.9880  2.9995  2.4023
 9268SOL    HW239438   2.908   3.420   2.371 -1.6850 -1.3114  1.1709
 9269SOL     OW39439   1.986   4.341   5.352  0.7058  0.3861 -0.1423
 9269SOL    HW139440   2.008   4.250   5.373  1.7098  0.9259  1.1600
 9269SOL    HW239441   1.975   4.336   5.257 -1.3501 -2.0090  0.2201
 9270SOL     OW39442   0.326   0.027   2.255  0.3863  0.9221 -0.5868
 9270SOL    HW139443   0.262   0.010   2.186  0.3757 -2.0557  0.1575
 9270SOL    HW239444   0.299   4.718   2.333  3.2065 -0.6057 -0.5804
 9271SOL     OW39445   3.378   4.434   2.623  0.2399  0.0686 -0.2139
 9271SOL    HW139446   3.450   4.487   2.589  0.9808 -0.4422  0.5649
 9271SOL    HW239447   3.424   4.357   2.656 -0.3336  1.0344  2.8256
 9272SOL     OW39448   1.005   2.294   5.408  0.3553  0.1266  0.1913
 9272SOL    HW139449   1.003   2.292   5.504  0.2914 -1.5593  0.1555
 9272SOL    HW239450   1.026   2.202   5.390 -2.1150 -0.0548 -1.7036
 9273SOL     OW39451   0.981   3.249   1.255  0.2834  0.2216 -0.2036
 9273SOL    HW139452   0.963   3.298   1.175  0.2195 -1.4236 -1.2074
 9273SOL    HW239453   1.017   3.319   1.310  1.5176  0.4666 -1.3210
 9274SOL     OW39454   0.855   3.761  12.113 -0.0750 -0.1524  0.1960
 9274SOL    HW139455   0.768   3.721  12.117 -0.1022  0.0884  1.9107
 9274SOL    HW239456   0.844   3.813  12.033  0.4156  0.5019  0.5574
 9275SOL     OW39457   3.310   0.633   7.417  0.8104  0.0991  0.2553
 9275SOL    HW139458   3.385   0.590   7.378  1.4468  1.3162  0.1191
 9275SOL    HW239459   3.342   0.640   7.507 -0.7026 -1.3417  0.9033
 9276SOL     OW39460   0.688   3.890   6.954  0.2622  0.0601  0.6368
 9276SOL    HW139461   0.596   3.903   6.979  0.1026 -0.7111  0.4766
 9276SOL    HW239462   0.725   3.918   7.038  1.5904 -1.1749  0.4649
 9277SOL     OW39463   2.811   3.824   2.504  0.1595  0.2281  0.3799
 9277SOL    HW139464   2.869   3.898   2.490  2.0109 -1.5858 -1.5648
 9277SOL    HW239465   2.722   3.858   2.496 -0.8942 -2.2601  1.4249
 9278SOL     OW39466   0.237   2.205   5.483 -0.2680  0.0554  0.1428
 9278SOL    HW139467   0.170   2.201   5.550 -0.8058  2.6488 -0.2314
 9278SOL    HW239468   0.240   2.300   5.468  1.7838 -0.4058 -2.4406
 9279SOL     OW39469   4.266   4.450   5.788  0.0609 -0.3669  0.4330
 9279SOL    HW139470   4.193   4.435   5.847 -0.7495 -0.5412 -0.6222
 9279SOL    HW239471   4.307   4.532   5.815  4.1934 -2.0684 -0.6652
 9280SOL     OW39472   4.384   4.623   7.785 -0.4056 -0.0463 -0.0471
 9280SOL    HW139473   4.303   4.587   7.748 -0.0204  0.8679 -1.7723
 9280SOL    HW239474   4.388   4.581   7.871  2.7017 -1.7770 -1.0245
 9281SOL     OW39475   1.591   4.208  10.826 -0.4571  0.2372  0.2947
 9281SOL    HW139476   1.622   4.148  10.893  1.5404  0.4438 -0.4420
 9281SOL    HW239477   1.670   4.259  10.810  0.2087 -1.7046 -2.6802
 9282SOL     OW39478   1.449   0.409  11.793 -0.0591 -0.2775  0.2061
 9282SOL    HW139479   1.355   0.410  11.812 -0.2415  0.9955 -0.7594
 9282SOL    HW239480   1.471   0.325  11.833  0.6400 -0.2198 -0.0536
 9283SOL     OW39481   4.030   0.485   7.410 -0.1268 -0.4385  0.4578
 9283SOL    HW139482   4.072   0.487   7.496  0.3543  0.6316  0.1949
 9283SOL    HW239483   4.072   0.558   7.365 -2.1162  0.8391  0.6693
 9284SOL     OW39484   0.602   3.662  15.047 -0.0800  0.3180  0.5096
 9284SOL    HW139485   0.521   3.641  14.999 -0.1131  1.3854  0.0958
 9284SOL    HW239486   0.603   3.755  15.025 -2.4675  0.5027  1.1455
 9285SOL     OW39487   4.503   2.459  13.135 -0.0182 -0.2739  0.2793
 9285SOL    HW139488   4.583   2.411  13.115  0.4880  0.3359  0.8547
 9285SOL    HW239489   4.444   2.386  13.114 -0.3484  0.2530 -0.6433
 9286SOL     OW39490   4.372   0.525  12.898 -0.1652  0.4591  0.2020
 9286SOL    HW139491   4.291   0.546  12.945  0.2874  0.7011  0.8821
 9286SOL    HW239492   4.368   0.577  12.818  0.4763 -2.0728 -1.4691
 9287SOL     OW39493   4.461   2.854   6.691 -0.7436  0.3472  0.7109
 9287SOL    HW139494   4.436   2.836   6.781 -1.2805  1.8979  0.8725
 9287SOL    HW239495   4.557   2.856   6.695 -0.7527  0.2083  0.9788
 9288SOL     OW39496   2.634   4.150   4.531  0.6152  0.6313 -0.2262
 9288SOL    HW139497   2.552   4.101   4.537 -0.1828  2.2400  1.9056
 9288SOL    HW239498   2.607   4.227   4.481 -3.5596 -0.3104  0.6193
 9289SOL     OW39499   2.162   1.712  11.446 -0.2512  0.1064  0.3176
 9289SOL    HW139500   2.203   1.667  11.372 -0.3977  1.6081 -0.6967
 9289SOL    HW239501   2.144   1.644  11.510 -2.1946  0.7794  0.4742
 9290SOL     OW39502   1.742   3.893   3.794  0.0815 -0.0610 -0.3805
 9290SOL    HW139503   1.760   3.963   3.731  1.3167  0.6024  0.7101
 9290SOL    HW239504   1.718   3.936   3.876 -0.1770 -1.0991  0.0970
 9291SOL     OW39505   3.428   1.054   6.115 -0.3241  0.2332  0.4296
 9291SOL    HW139506   3.406   0.962   6.131  1.3575 -0.4345 -1.1134
 9291SOL    HW239507   3.374   1.090   6.045  0.3709  1.5861  0.5859
 9292SOL     OW39508   0.112   4.072  11.820  0.3175  0.1074 -0.4440
 9292SOL    HW139509   0.072   3.985  11.827 -0.3974  0.5649  1.2382
 9292SOL    HW239510   0.101   4.110  11.908 -0.6838  0.1638 -0.5949
 9293SOL     OW39511   0.806   0.244  12.132  0.5565  0.9058 -0.2916
 9293SOL    HW139512   0.876   0.180  12.115 -0.2032 -0.1170  0.4221
 9293SOL    HW239513   0.732   0.186  12.149  1.3646 -0.3579 -1.0734
 9294SOL     OW39514   4.587   0.907   7.201  0.6938 -0.1533 -0.5347
 9294SOL    HW139515   4.516   0.963   7.234  2.7150  0.2710  3.0797
 9294SOL    HW239516   4.541   0.826   7.181  0.1630 -0.2002  0.9086
 9295SOL     OW39517   4.605   2.008  15.662 -0.0794  0.1504 -0.3322
 9295SOL    HW139518   4.546   2.008  15.738 -0.7707  1.1533 -0.8597
 9295SOL    HW239519   4.626   1.916  15.647 -1.1788 -0.0788 -0.4904
 9296SOL     OW39520   3.636   4.531   6.428 -0.5843 -0.4693  0.0585
 9296SOL    HW139521   3.685   4.608   6.454  1.0011 -1.6396  0.4803
 9296SOL    HW239522   3.652   4.485   6.510 -0.3911 -1.0653 -0.3109
 9297SOL     OW39523   0.264   2.279   6.053  0.0941  0.0734  0.1659
 9297SOL    HW139524   0.289   2.328   6.132  0.3619 -2.5102  1.6654
 9297SOL    HW239525   0.352   2.259   6.021  0.9654  0.8683  2.0514
 9298SOL     OW39526   1.699   0.583   0.382 -0.1658  0.3837  0.9951
 9298SOL    HW139527   1.778   0.601   0.434 -0.4030  1.2063  1.0783
 9298SOL    HW239528   1.713   0.489   0.374 -3.1474 -0.0170  0.4227
 9299SOL     OW39529   2.956   2.887   1.996 -0.4239 -0.2137  0.5077
 9299SOL    HW139530   3.045   2.904   2.027 -0.2259 -0.4909  0.0967
 9299SOL    HW239531   2.923   2.976   2.004  0.0821 -0.1468  1.9276
 9300SOL     OW39532   2.739   2.598   2.869  0.9239 -0.2296 -0.3590
 9300SOL    HW139533   2.681   2.527   2.841  0.5361 -0.2819  0.5798
 9300SOL    HW239534   2.799   2.549   2.925 -0.8478 -0.3092  1.4967
 9301SOL     OW39535   1.980   0.230  14.175 -0.1314  0.3706  0.4699
 9301SOL    HW139536   1.891   0.242  14.143  0.7804  1.6656 -1.6278
 9301SOL    HW239537   2.028   0.310  14.149  0.8479 -0.1562  0.6500
 9302SOL     OW39538   3.149   1.495   3.234  0.0205  0.0850 -0.0563
 9302SOL    HW139539   3.113   1.574   3.193 -2.3415 -1.3115 -0.6145
 9302SOL    HW239540   3.234   1.497   3.190  2.6824  1.1690  5.1063
 9303SOL     OW39541   1.907   3.507   8.740  0.0265 -0.2926  0.7660
 9303SOL    HW139542   1.954   3.474   8.664 -3.4586  1.5090 -2.1399
 9303SOL    HW239543   1.987   3.518   8.793  1.6965  1.0576 -2.0065
 9304SOL     OW39544   1.428   1.656   8.327 -0.7022 -0.2877 -0.3110
 9304SOL    HW139545   1.370   1.585   8.356  1.6587 -2.2001 -0.2728
 9304SOL    HW239546   1.495   1.660   8.395 -0.2528 -0.3707 -0.7544
 9305SOL     OW39547   4.038   2.656   7.349  0.1857  0.5221 -0.1590
 9305SOL    HW139548   4.069   2.746   7.340 -1.0958  0.9881  0.1187
 9305SOL    HW239549   4.116   2.602   7.332 -1.0556 -0.7376 -1.9467
 9306SOL     OW39550   2.725   3.204   4.388  0.1743  0.3154 -0.4917
 9306SOL    HW139551   2.695   3.203   4.478  1.3131 -5.4737 -0.1679
 9306SOL    HW239552   2.720   3.110   4.374  0.6937  0.1493  0.4704
 9307SOL     OW39553   1.486   1.221  12.963  0.5101 -0.1542  0.0165
 9307SOL    HW139554   1.408   1.206  12.910  0.7477 -0.0286 -0.3726
 9307SOL    HW239555   1.543   1.258  12.896 -0.6267  0.4228 -0.6310
 9308SOL     OW39556   2.690   1.781   3.910 -0.2611 -0.1586  0.1411
 9308SOL    HW139557   2.723   1.865   3.877  2.0492 -0.7402  0.9767
 9308SOL    HW239558   2.687   1.788   4.005  0.8749 -0.4852  0.2067
 9309SOL     OW39559   1.783   2.836   6.696 -0.1522 -0.2941 -0.2844
 9309SOL    HW139560   1.737   2.896   6.755  2.1128  1.1499  0.0261
 9309SOL    HW239561   1.825   2.895   6.633 -2.1783  1.8134  0.3611
 9310SOL     OW39562   1.219   2.371  11.890 -0.4953 -0.0318 -0.0010
 9310SOL    HW139563   1.222   2.429  11.814 -0.4455  0.4792  0.3894
 9310SOL    HW239564   1.255   2.296  11.842  1.3109  0.4442  0.5920
 9311SOL     OW39565   1.602   1.360   8.628 -0.3313  0.5241  0.1169
 9311SOL    HW139566   1.618   1.349   8.534  2.7678 -0.7199  0.7979
 9311SOL    HW239567   1.634   1.449   8.642  1.0307 -0.4783  3.4479
 9312SOL     OW39568   2.994   0.987   8.590  0.0504  0.3865 -0.5267
 9312SOL    HW139569   2.993   0.900   8.551  1.5395 -0.3208  1.0164
 9312SOL    HW239570   2.955   0.974   8.676  0.6288  1.0836 -0.1615
 9313SOL     OW39571   1.762   0.994   1.557 -0.0076  0.0524  0.4248
 9313SOL    HW139572   1.693   0.997   1.491 -1.8368 -0.2156  2.3243
 9313SOL    HW239573   1.796   1.081   1.575 -2.3126  0.8505  0.9226
 9314SOL     OW39574   0.068   1.110   4.333  0.1186  0.1177  0.4080
 9314SOL    HW139575   0.093   1.028   4.290 -1.9402 -0.2042 -0.1777
 9314SOL    HW239576   0.012   1.148   4.265  2.1525  4.2404  1.0684
 9315SOL     OW39577   3.888   0.796   6.726  0.1124  0.2224 -0.0393
 9315SOL    HW139578   3.821   0.806   6.659  1.2551 -0.9375 -1.3373
 9315SOL    HW239579   3.831   0.761   6.794 -0.6197  1.8460  0.1781
 9316SOL     OW39580   4.615   0.635   1.591  0.4321  0.2759 -0.1278
 9316SOL    HW139581   4.593   0.660   1.501 -2.8162 -1.4120  0.2100
 9316SOL    HW239582   4.588   0.545   1.609  1.3397 -0.1104 -0.7070
 9317SOL     OW39583   0.317   4.095   7.272 -0.8385 -0.1790  0.0932
 9317SOL    HW139584   0.348   4.082   7.361 -1.0494 -2.1915 -0.1284
 9317SOL    HW239585   0.223   4.104   7.289 -0.5365 -0.6654  1.9848
 9318SOL     OW39586   2.879   4.226   9.491 -0.6768  0.5606  1.4103
 9318SOL    HW139587   2.966   4.262   9.507 -1.3087  1.6823  2.3189
 9318SOL    HW239588   2.893   4.186   9.405 -0.3311  4.6767 -0.4725
 9319SOL     OW39589   2.081   0.353   8.595 -0.2037 -0.4061 -0.0526
 9319SOL    HW139590   2.147   0.327   8.658 -0.1156  1.6986  0.7247
 9319SOL    HW239591   2.025   0.407   8.651 -1.0404 -2.8178  1.4462
 9320SOL     OW39592   3.896   1.086  14.116 -0.1929 -0.1421  0.0126
 9320SOL    HW139593   3.868   1.042  14.036  1.1697  0.3685 -0.7445
 9320SOL    HW239594   3.809   1.078  14.156  1.4619 -0.8875  3.4701
 9321SOL     OW39595   2.657   0.106   7.512 -0.7040 -0.1318  0.2721
 9321SOL    HW139596   2.748   0.132   7.523 -0.5835  0.0387 -1.1305
 9321SOL    HW239597   2.664   0.024   7.562  0.9123 -1.7781 -2.6750
 9322SOL     OW39598   3.816   3.588  12.428  0.4113  0.0509  0.1810
 9322SOL    HW139599   3.864   3.527  12.485 -0.0887  0.6871  1.2879
 9322SOL    HW239600   3.770   3.519  12.379  0.7519 -1.3178  1.7900
 9323SOL     OW39601   2.369   2.184   1.966 -0.3646  0.4001 -0.2062
 9323SOL    HW139602   2.448   2.234   1.946 -2.1978  3.9050  1.1316
 9323SOL    HW239603   2.348   2.139   1.884 -0.9427 -1.2736  0.8793
 9324SOL     OW39604   2.905   3.227  12.736 -0.3866  0.2897 -0.2844
 9324SOL    HW139605   2.829   3.178  12.764 -0.3952 -0.4817 -1.6415
 9324SOL    HW239606   2.937   3.167  12.668  1.0891 -0.1876  0.8206
 9325SOL     OW39607   2.459   4.068  14.835  0.0583 -0.0858  0.1732
 9325SOL    HW139608   2.438   3.998  14.773  0.4352  1.2987 -1.5384
 9325SOL    HW239609   2.375   4.073  14.882 -0.2007  1.9250 -0.4852
 9326SOL     OW39610   4.654   3.050   3.500 -0.1586  0.6940  0.4136
 9326SOL    HW139611   4.612   3.124   3.455 -0.5019  1.1379  1.4665
 9326SOL    HW239612   4.586   2.983   3.503  0.0142  0.4291 -1.2045
 9327SOL     OW39613   3.957   1.794   9.822 -0.2025 -0.4164  0.5495
 9327SOL    HW139614   3.869   1.766   9.848  0.3557 -0.8313  1.9739
 9327SOL    HW239615   3.961   1.885   9.794  0.6704 -0.5021  0.4074
 9328SOL     OW39616   0.336   4.412   6.679 -0.3448 -0.1270 -0.3404
 9328SOL    HW139617   0.272   4.478   6.706 -1.4683 -0.9659 -0.9416
 9328SOL    HW239618   0.282   4.335   6.662  0.3152 -0.7933  0.5511
 9329SOL     OW39619   4.269   3.918   7.553  0.2934 -0.3707  0.2750
 9329SOL    HW139620   4.291   3.882   7.466  2.0324  1.3044  0.0287
 9329SOL    HW239621   4.239   4.008   7.546 -0.7999 -0.7556  0.0925
 9330SOL     OW39622   1.450   3.624   3.877 -0.0637  0.3432 -0.1673
 9330SOL    HW139623   1.374   3.567   3.880  0.2939 -0.0773  1.1426
 9330SOL    HW239624   1.508   3.580   3.815  1.8035  0.2248  1.6476
 9331SOL     OW39625   4.077   0.410   5.324 -0.3419 -0.4923 -0.0703
 9331SOL    HW139626   4.141   0.460   5.274 -1.1223  1.3315  0.7401
 9331SOL    HW239627   4.107   0.418   5.415  4.2925  0.1641 -1.6703
 9332SOL     OW39628   4.416   2.459   7.276  0.6776  0.0837  0.1360
 9332SOL    HW139629   4.501   2.434   7.240  1.2572  2.8579 -0.3917
 9332SOL    HW239630   4.372   2.486   7.196 -0.4270  0.3302  0.8274
 9333SOL     OW39631   0.400   0.441   4.605  0.1396 -0.5900  0.0724
 9333SOL    HW139632   0.361   0.397   4.680 -0.0324 -5.2164 -2.6873
 9333SOL    HW239633   0.484   0.395   4.598  1.1130  1.0189  1.2719
 9334SOL     OW39634   0.575   4.491  15.358 -0.6887  0.9369  0.0486
 9334SOL    HW139635   0.662   4.451  15.352 -2.5221 -3.0824  0.7532
 9334SOL    HW239636   0.529   4.450  15.285 -2.3027  2.2696  0.3284
 9335SOL     OW39637   0.100   2.213   3.966 -0.1964  0.0444 -0.1483
 9335SOL    HW139638   0.080   2.260   3.885  1.3080  0.7423 -0.1101
 9335SOL    HW239639   0.148   2.141   3.925  2.7306  2.2087 -0.5083
 9336SOL     OW39640   0.666   2.375   7.223  0.0831  0.3272  0.2353
 9336SOL    HW139641   0.627   2.315   7.159  0.7653  0.2920 -0.1447
 9336SOL    HW239642   0.756   2.346   7.237 -0.5537 -0.5042  2.4875
 9337SOL     OW39643   0.896   3.534  16.319 -0.0188 -0.3808 -0.2469
 9337SOL    HW139644   0.975   3.480  16.326  1.2476  1.4978 -0.0321
 9337SOL    HW239645   0.934   3.609  16.273  1.1040 -1.3333 -0.8857
 9338SOL     OW39646   1.498   2.730   1.602 -0.0038  0.0560 -0.4568
 9338SOL    HW139647   1.501   2.635   1.615 -2.8072 -0.0493 -0.5818
 9338SOL    HW239648   1.571   2.753   1.544 -1.1940  0.7702 -1.6727
 9339SOL     OW39649   3.683   4.727  15.473 -0.1173 -0.0912  0.6869
 9339SOL    HW139650   3.624   4.740  15.399 -0.7659 -0.9897  1.0476
 9339SOL    HW239651   3.721   0.073  15.487 -0.3227  0.5994 -3.0156
 9340SOL     OW39652   2.532   3.672   8.973 -0.0144 -0.0712 -0.0324
 9340SOL    HW139653   2.597   3.734   8.939 -0.4092 -0.3237 -1.2360
 9340SOL    HW239654   2.518   3.620   8.894 -0.2650 -0.7898  0.4856
 9341SOL     OW39655   2.361   0.151   4.165 -0.4246 -0.2186  0.8473
 9341SOL    HW139656   2.403   0.186   4.087 -0.3874  0.6396  1.2573
 9341SOL    HW239657   2.438   0.160   4.222 -2.3344  0.1411  3.3439
 9342SOL     OW39658   3.020   2.375  15.372  0.3220  0.1499 -0.1190
 9342SOL    HW139659   2.929   2.375  15.401 -0.7521 -0.4929 -3.5099
 9342SOL    HW239660   3.070   2.351  15.450  0.4289  2.4586  0.5068
 9343SOL     OW39661   2.597   1.380   2.044 -0.1141  0.1889  0.5709
 9343SOL    HW139662   2.538   1.446   2.006  0.0474 -0.3903 -0.6960
 9343SOL    HW239663   2.663   1.380   1.974 -1.4540  3.7730 -0.7296
 9344SOL     OW39664   3.520   2.992   4.293  0.0246  0.2295 -0.1193
 9344SOL    HW139665   3.527   2.986   4.389  2.9412 -0.4016 -0.3824
 9344SOL    HW239666   3.444   2.935   4.282 -0.2432 -0.0098  2.8305
 9345SOL     OW39667   0.197   0.221  15.096 -0.5578  0.2659  0.2495
 9345SOL    HW139668   0.220   0.292  15.035 -1.7035  0.5895  0.2042
 9345SOL    HW239669   0.257   0.246  15.166  1.2502 -0.4579 -1.0166
 9346SOL     OW39670   1.212   2.997   4.177  0.3839 -0.4052  0.4089
 9346SOL    HW139671   1.229   3.080   4.223 -1.1738 -0.4169  1.0013
 9346SOL    HW239672   1.148   2.962   4.239  0.7433  1.4904  1.8785
 9347SOL     OW39673   2.146   3.996   3.834  0.4951  0.1546 -0.0247
 9347SOL    HW139674   2.227   4.023   3.791 -0.2406  1.4504 -0.5651
 9347SOL    HW239675   2.105   3.939   3.768 -0.3723 -1.0109  1.5067
 9348SOL     OW39676   2.905   3.091  13.051 -0.1428  0.4346 -0.1915
 9348SOL    HW139677   2.819   3.113  13.016 -1.0420 -0.3785  1.5023
 9348SOL    HW239678   2.866   3.025  13.108  0.6541  0.1210 -0.0159
 9349SOL     OW39679   1.332   0.523   5.819 -0.0331 -0.2361  0.1814
 9349SOL    HW139680   1.262   0.520   5.884  0.9686 -1.8312  1.1814
 9349SOL    HW239681   1.276   0.495   5.746 -1.2746  0.4556  0.8836
 9350SOL     OW39682   0.305   3.267   2.541 -0.0273  0.1187  0.1757
 9350SOL    HW139683   0.336   3.249   2.629  0.0007  1.6415  0.4821
 9350SOL    HW239684   0.231   3.208   2.530 -0.8836  1.4666 -1.4510
 9351SOL     OW39685   3.338   1.882   5.084  0.4933 -0.3991  0.3539
 9351SOL    HW139686   3.351   1.850   4.995 -0.5747  0.5575 -0.1600
 9351SOL    HW239687   3.379   1.969   5.077  0.3758 -0.2151  1.8170
 9352SOL     OW39688   3.858   0.791   3.168 -0.0499  0.1994 -0.1931
 9352SOL    HW139689   3.866   0.842   3.248  2.2366 -2.6098  1.3523
 9352SOL    HW239690   3.931   0.731   3.182  0.5076  1.1874  1.0825
 9353SOL     OW39691   3.181   4.191   6.309 -0.0484 -0.2882 -0.2330
 9353SOL    HW139692   3.229   4.267   6.276  0.0017  0.6310  1.9114
 9353SOL    HW239693   3.159   4.135   6.235  1.5454 -0.6999 -0.3963
 9354SOL     OW39694   3.957   1.952   5.627 -0.1844  0.1108  0.4432
 9354SOL    HW139695   3.898   2.026   5.632  2.2372  2.0444  0.2259
 9354SOL    HW239696   3.980   1.938   5.719 -2.2552 -0.8242  0.8244
 9355SOL     OW39697   2.371   0.284  13.106  0.2600  0.3071  0.6881
 9355SOL    HW139698   2.357   0.189  13.111 -0.7633  0.4701  1.0545
 9355SOL    HW239699   2.288   0.309  13.064  1.0789  0.5310 -0.7726
 9356SOL     OW39700   0.226   4.698   5.209 -0.0343  0.4677  0.2298
 9356SOL    HW139701   0.146   0.007   5.225  1.3303  2.3782  1.1213
 9356SOL    HW239702   0.290   0.021   5.242  3.3648 -0.8997 -3.6478
 9357SOL     OW39703   1.852   3.096   3.422 -0.1547  0.5594 -0.3768
 9357SOL    HW139704   1.881   3.076   3.333 -0.5658 -1.1795 -0.1201
 9357SOL    HW239705   1.761   3.123   3.410 -0.3134  1.3575  2.6851
 9358SOL     OW39706   3.909   2.061   2.034  0.2007  0.4522  0.3402
 9358SOL    HW139707   3.924   1.977   1.990 -3.1696 -0.7755  1.5661
 9358SOL    HW239708   3.835   2.096   1.983  0.9647 -0.1801 -1.2032
 9359SOL     OW39709   0.608   3.521   4.749  0.3313  0.2823  0.1256
 9359SOL    HW139710   0.653   3.443   4.718 -0.5413 -0.4312  0.6393
 9359SOL    HW239711   0.659   3.590   4.708 -0.4835  2.0740  2.1025
 9360SOL     OW39712   4.259   1.523   3.420  0.4220  0.3097 -0.6981
 9360SOL    HW139713   4.207   1.594   3.457 -1.1515 -0.3708 -1.5983
 9360SOL    HW239714   4.319   1.516   3.495 -1.9609  0.3569  1.2071
 9361SOL     OW39715   3.591   2.318   2.371 -0.1233 -0.1071 -0.4033
 9361SOL    HW139716   3.602   2.224   2.383  0.2180 -0.2131 -1.4979
 9361SOL    HW239717   3.496   2.318   2.366 -0.1477  1.3780 -0.0522
 9362SOL     OW39718   3.936   2.311   4.115  0.2051 -0.1254 -0.0395
 9362SOL    HW139719   3.978   2.396   4.128 -1.7589  0.9093 -0.4908
 9362SOL    HW239720   3.988   2.272   4.045  0.4943  1.0470 -0.4796
 9363SOL     OW39721   2.226   1.352   2.887 -0.0756 -0.5210 -0.4949
 9363SOL    HW139722   2.140   1.346   2.928  1.4651  2.5319  3.1719
 9363SOL    HW239723   2.247   1.277   2.831 -1.5146 -1.3271  0.0300
 9364SOL     OW39724   4.091   0.238   9.720  0.5255  0.3600 -0.3071
 9364SOL    HW139725   4.151   0.267   9.652  1.2996  1.4474  0.8403
 9364SOL    HW239726   4.152   0.196   9.779  0.1244  0.1815 -0.0180
 9365SOL     OW39727   0.365   4.032   7.521 -0.4124  0.0127 -0.4033
 9365SOL    HW139728   0.436   4.043   7.585 -2.7941  0.4265  2.1738
 9365SOL    HW239729   0.368   3.937   7.509  1.2945  0.3095 -2.3595
 9366SOL     OW39730   2.712   3.199  17.557 -0.3552 -1.0247 -0.0651
 9366SOL    HW139731   2.643   3.214  17.621  0.4273 -0.1786  0.5988
 9366SOL    HW239732   2.730   3.288  17.527 -0.5902 -0.8767  0.2319
 9367SOL     OW39733   4.008   3.404   8.212 -0.0568  0.0295  0.2318
 9367SOL    HW139734   4.066   3.480   8.203 -1.1565  0.8628  0.1694
 9367SOL    HW239735   4.041   3.342   8.146  1.6452  0.8610  0.2887
 9368SOL     OW39736   2.335   2.895   1.328  0.2504 -0.1663 -0.3529
 9368SOL    HW139737   2.314   2.981   1.365  2.2671 -0.3708  1.2947
 9368SOL    HW239738   2.430   2.901   1.322  0.1076 -1.3113 -3.5675
 9369SOL     OW39739   4.677   4.075   5.922  0.2585  0.0106 -0.1975
 9369SOL    HW139740   4.701   4.025   6.000  0.3315  1.8222  0.9547
 9369SOL    HW239741   4.587   4.107   5.931 -1.0779 -3.8890  0.1417
 9370SOL     OW39742   2.970   4.038   2.431 -0.7382 -0.0444 -0.6943
 9370SOL    HW139743   2.934   4.127   2.432 -0.6058  0.0035 -0.4111
 9370SOL    HW239744   3.062   4.060   2.415 -1.3276 -0.2740 -4.3851
 9371SOL     OW39745   2.955   4.616   9.821  0.2996 -0.2753 -0.0228
 9371SOL    HW139746   3.033   4.564   9.842  1.9582  2.7371  1.3791
 9371SOL    HW239747   2.892   4.547   9.800  1.1534 -0.9146 -0.4836
 9372SOL     OW39748   4.596   3.694   6.596  0.3683  0.0137  0.0195
 9372SOL    HW139749   4.585   3.768   6.537  1.6700  0.3216  0.1641
 9372SOL    HW239750   4.555   3.627   6.542 -0.2914 -0.9306  1.6689
 9373SOL     OW39751   2.274   4.454  14.973 -0.4150  0.3146 -0.1670
 9373SOL    HW139752   2.290   4.407  15.056 -3.3799 -2.8449 -1.3589
 9373SOL    HW239753   2.187   4.486  14.997  0.5373  0.8254  2.6068
 9374SOL     OW39754   2.806   2.618   5.669 -0.0643 -0.1908 -0.4149
 9374SOL    HW139755   2.814   2.676   5.592 -0.8887 -0.4369 -0.6862
 9374SOL    HW239756   2.772   2.538   5.630  0.9382 -0.1252 -1.4430
 9375SOL     OW39757   0.714   2.451   8.169  0.6719 -0.1054 -0.3727
 9375SOL    HW139758   0.619   2.451   8.161  0.7068 -0.6666 -0.8068
 9375SOL    HW239759   0.719   2.544   8.188 -0.6664 -0.0948 -0.0892
 9376SOL     OW39760   3.949   1.216   6.387  0.0835  0.4163  0.6934
 9376SOL    HW139761   4.036   1.191   6.418  0.2982 -1.7874 -1.7007
 9376SOL    HW239762   3.891   1.149   6.425  1.5800 -0.3206  1.6869
 9377SOL     OW39763   3.229   3.254   1.478  0.6179 -0.0164  0.0345
 9377SOL    HW139764   3.268   3.285   1.560  0.4033  1.0062 -0.2527
 9377SOL    HW239765   3.219   3.160   1.491  0.9278 -0.0653 -0.0807
 9378SOL     OW39766   0.153   2.934   6.852 -0.2490  0.1901 -1.0244
 9378SOL    HW139767   0.109   2.892   6.779  3.5662 -1.7446 -2.2132
 9378SOL    HW239768   0.078   2.958   6.906  0.2458 -2.2212  0.6943
 9379SOL     OW39769   3.408   3.749   7.866  0.1933 -0.6776 -0.5446
 9379SOL    HW139770   3.318   3.735   7.895  0.8150 -1.8956  0.7984
 9379SOL    HW239771   3.422   3.701   7.785  0.4299 -1.4531 -0.0420
 9380SOL     OW39772   3.342   3.559  17.466  0.2553 -0.1538 -0.1595
 9380SOL    HW139773   3.424   3.604  17.448  0.3167  0.2034  1.0084
 9380SOL    HW239774   3.328   3.570  17.561 -1.0676  1.0315 -0.4877
 9381SOL     OW39775   0.136   2.465   7.336 -0.1721  0.4370 -0.4994
 9381SOL    HW139776   0.078   2.508   7.399  0.5149 -1.1066  1.1882
 9381SOL    HW239777   0.093   2.383   7.313  1.4949 -0.4153 -0.5681
 9382SOL     OW39778   0.339   3.665   3.970  0.2239 -0.0614  0.4199
 9382SOL    HW139779   0.359   3.611   4.046 -1.2314 -0.0552  0.8001
 9382SOL    HW239780   0.246   3.682   3.985 -0.1333 -1.7870  0.1660
 9383SOL     OW39781   4.660   1.758   7.050  0.1687  0.3111 -0.1950
 9383SOL    HW139782   0.014   1.767   7.054  0.3298 -2.0702  1.3838
 9383SOL    HW239783   4.656   1.668   7.083 -0.5209  0.6815  0.7538
 9384SOL     OW39784   2.744   2.896  17.707 -0.5635 -0.9290  0.0968
 9384SOL    HW139785   2.720   2.963  17.643  0.6165 -0.6018 -0.0055
 9384SOL    HW239786   2.774   2.950   0.019  0.4934  1.0473 -1.7832
 9385SOL     OW39787   0.146   2.313   8.673  0.6866  0.7220  0.2171
 9385SOL    HW139788   0.115   2.228   8.703  0.6463  0.3487 -0.8524
 9385SOL    HW239789   0.210   2.335   8.741 -0.4965  0.8183  1.2915
 9386SOL     OW39790   3.155   1.926  15.769 -0.2807  0.0924 -0.1236
 9386SOL    HW139791   3.204   1.878  15.836 -0.3823 -0.7864 -0.6855
 9386SOL    HW239792   3.063   1.915  15.793 -0.0867 -0.0661  0.5617
 9387SOL     OW39793   3.790   1.327  11.091  0.1172 -0.0204  0.0497
 9387SOL    HW139794   3.735   1.279  11.154  0.3527  1.6502  1.5242
 9387SOL    HW239795   3.863   1.265  11.084  1.0496  0.7330  3.2048
 9388SOL     OW39796   0.443   3.801  16.534 -0.0155 -0.1370  0.2405
 9388SOL    HW139797   0.363   3.771  16.491  0.9217 -0.2357 -1.4043
 9388SOL    HW239798   0.511   3.748  16.493 -1.0866 -1.4661  0.1799
 9389SOL     OW39799   3.324   0.291  12.231  0.0805 -0.7457  0.3444
 9389SOL    HW139800   3.247   0.235  12.227  1.3017 -2.4399  0.7886
 9389SOL    HW239801   3.345   0.298  12.324  0.4704  3.2053 -0.0062
 9390SOL     OW39802   0.163   4.446   5.419 -0.5090  0.0694 -0.3122
 9390SOL    HW139803   0.135   4.530   5.384 -1.6451 -1.1335 -2.3294
 9390SOL    HW239804   0.080   4.399   5.430  1.2592 -3.0657 -0.3142
 9391SOL     OW39805   2.593   3.394   3.129  0.2059  0.1099  0.0654
 9391SOL    HW139806   2.608   3.372   3.221 -4.7066 -0.0633  0.8091
 9391SOL    HW239807   2.669   3.355   3.084  2.3343  2.1185  1.9481
 9392SOL     OW39808   3.863   3.922   3.314 -0.7803 -0.7159  0.2308
 9392SOL    HW139809   3.820   4.007   3.329 -0.8691 -0.6919 -0.1681
 9392SOL    HW239810   3.931   3.948   3.376 -1.4072 -2.0135  1.4552
 9393SOL     OW39811   1.701   2.592   9.268  0.2055 -0.2411  0.5941
 9393SOL    HW139812   1.648   2.655   9.316 -0.4607 -1.2596  1.1885
 9393SOL    HW239813   1.786   2.622   9.299  1.0216 -0.5148 -1.3858
 9394SOL     OW39814   3.264   1.400   7.040  0.4630  0.2508 -0.0051
 9394SOL    HW139815   3.280   1.335   6.971 -1.5007 -1.7562  1.4181
 9394SOL    HW239816   3.196   1.454   7.000  0.3543 -2.1140 -3.0585
 9395SOL     OW39817   0.610   2.562   5.166 -0.1069  0.0671 -0.3290
 9395SOL    HW139818   0.683   2.594   5.218  0.4894 -1.8392 -0.0356
 9395SOL    HW239819   0.610   2.467   5.172  1.2030  0.1888  1.5750
 9396SOL     OW39820   0.048   2.910   7.678 -0.2179  0.1317  0.2246
 9396SOL    HW139821   0.072   2.985   7.732  3.8623  0.0023 -1.4525
 9396SOL    HW239822   0.080   2.836   7.730  3.4869  0.1306 -2.0612
 9397SOL     OW39823   4.280   2.251   5.566 -0.2840 -0.5004 -0.3712
 9397SOL    HW139824   4.314   2.339   5.548  0.7522 -0.6320  0.9281
 9397SOL    HW239825   4.337   2.234   5.641  2.1520  0.6593 -1.9665
 9398SOL     OW39826   2.843   2.150   8.305  0.9758  0.0038 -0.1201
 9398SOL    HW139827   2.895   2.170   8.227  1.3732  2.0549  0.6640
 9398SOL    HW239828   2.794   2.231   8.319  1.1894 -0.1052  1.2840
 9399SOL     OW39829   0.275   2.996   6.448 -0.3474 -0.0015  0.3793
 9399SOL    HW139830   0.181   2.998   6.467 -0.4427 -1.8020  0.0669
 9399SOL    HW239831   0.299   2.912   6.487  0.9022  1.0443  1.8412
 9400SOL     OW39832   4.086   1.832  15.472  0.2470  0.0776  0.1347
 9400SOL    HW139833   4.040   1.848  15.389  2.2112 -1.9024 -1.3394
 9400SOL    HW239834   4.147   1.905  15.485  0.7335  0.0627 -2.0398
 9401SOL     OW39835   3.106   4.704   9.279  0.2893  0.4176 -0.4071
 9401SOL    HW139836   3.186   4.675   9.324 -0.3067 -1.1715 -0.3482
 9401SOL    HW239837   3.071   4.622   9.244  2.5649 -0.9959  0.6124
 9402SOL     OW39838   2.598   0.058   8.780  0.1930  0.2162  0.2329
 9402SOL    HW139839   2.564   4.737   8.844  3.1030 -0.9189  0.6601
 9402SOL    HW239840   2.679   0.011   8.759 -1.6594 -1.5721 -2.8323
 9403SOL     OW39841   0.464   1.499   3.592 -0.5145  0.0770 -0.6097
 9403SOL    HW139842   0.536   1.510   3.529 -0.8063 -1.1832 -1.1599
 9403SOL    HW239843   0.388   1.483   3.536 -0.5574  0.4186 -0.6525
 9404SOL     OW39844   4.710   3.162   0.410  0.2442 -0.0588  0.1095
 9404SOL    HW139845   0.001   3.237   0.360  2.0385 -1.0857 -0.2459
 9404SOL    HW239846   0.043   3.162   0.471 -0.1589  1.0412  0.5918
 9405SOL     OW39847   1.055   3.447   8.337  0.1966  0.6549 -0.0241
 9405SOL    HW139848   1.086   3.486   8.418 -0.9498 -0.1027  0.7616
 9405SOL    HW239849   0.965   3.477   8.326 -0.9141 -2.0429  1.7782
 9406SOL     OW39850   3.488   2.353  10.594 -0.0337 -0.0249 -0.9914
 9406SOL    HW139851   3.409   2.396  10.562  0.4465  0.1242 -1.9707
 9406SOL    HW239852   3.508   2.400  10.675 -1.1621 -1.5910  0.2046
 9407SOL     OW39853   0.618   4.729   4.639  0.5410 -0.2641  0.2243
 9407SOL    HW139854   0.623   0.079   4.667  1.5214 -0.8473  1.9780
 9407SOL    HW239855   0.708   4.722   4.606  1.4263 -0.0043  2.5786
 9408SOL     OW39856   0.531   0.843   3.330 -0.0190 -0.1781  0.9062
 9408SOL    HW139857   0.522   0.813   3.239  2.4447 -0.3223  0.7056
 9408SOL    HW239858   0.626   0.846   3.332 -0.0305  0.2176  0.8754
 9409SOL     OW39859   0.659   1.292   3.686  0.0829 -0.2810  0.6614
 9409SOL    HW139860   0.564   1.306   3.683  0.1825  0.0099 -1.6961
 9409SOL    HW239861   0.660   1.230   3.613  0.5223  1.8438 -1.1523
 9410SOL     OW39862   3.186   2.062   7.287 -0.4165 -0.5842  0.2713
 9410SOL    HW139863   3.272   2.082   7.323 -0.9079 -0.6408  1.4758
 9410SOL    HW239864   3.196   1.967   7.278 -1.2839 -0.5971 -0.6294
 9411SOL     OW39865   2.157   0.434   9.362  0.5592  0.9095  0.0139
 9411SOL    HW139866   2.167   0.514   9.413  1.7089  1.6945 -1.4378
 9411SOL    HW239867   2.221   0.388   9.417  0.1208  1.2195  0.7793
 9412SOL     OW39868   1.679   2.212   0.581 -0.2126  0.7286  0.2853
 9412SOL    HW139869   1.587   2.234   0.570 -0.0515  0.4120 -1.6245
 9412SOL    HW239870   1.723   2.290   0.546  2.2418 -0.2336  1.2532
 9413SOL     OW39871   1.186   2.505  17.168  0.2268 -0.3013 -0.5328
 9413SOL    HW139872   1.230   2.561  17.232 -1.3538  1.9695 -1.4138
 9413SOL    HW239873   1.258   2.449  17.138  0.6950  0.5579 -1.0278
 9414SOL     OW39874   1.549   3.290  16.509 -0.5747 -0.0119 -0.5053
 9414SOL    HW139875   1.511   3.234  16.576  0.6841  1.1707  1.1781
 9414SOL    HW239876   1.621   3.320  16.564 -2.0024 -0.0183  1.3408
 9415SOL     OW39877   2.841   0.074   9.123  0.1145 -0.2846  0.1603
 9415SOL    HW139878   2.893   0.020   9.182  2.6745 -0.9351 -2.6945
 9415SOL    HW239879   2.755   0.088   9.163  0.0601  3.3047 -1.1893
 9416SOL     OW39880   3.817   4.267   7.146  0.2709 -0.5095 -0.1069
 9416SOL    HW139881   3.809   4.309   7.232 -2.8766 -2.9123  0.7720
 9416SOL    HW239882   3.901   4.221   7.153  0.2715 -0.0228  3.3636
 9417SOL     OW39883   0.708   3.219  12.788  0.0895  0.2178  0.4073
 9417SOL    HW139884   0.746   3.275  12.855 -1.8166 -0.7135  2.2584
 9417SOL    HW239885   0.619   3.252  12.794  0.2591  0.5629  0.9405
 9418SOL     OW39886   3.299   3.900  15.875 -0.0674 -0.1467  0.1770
 9418SOL    HW139887   3.251   3.900  15.792 -0.2928 -0.6842  0.3087
 9418SOL    HW239888   3.284   3.986  15.915  1.6354  0.8778 -1.3800
 9419SOL     OW39889   0.539   0.639  15.373 -0.5972  0.2690 -0.3101
 9419SOL    HW139890   0.492   0.609  15.295 -1.0937 -0.8043  0.4031
 9419SOL    HW239891   0.595   0.703  15.328  1.0116 -1.3386 -0.5570
 9420SOL     OW39892   1.275   1.849   1.309 -0.3465  0.1502 -0.2187
 9420SOL    HW139893   1.328   1.794   1.251 -0.6573  0.7093 -1.0514
 9420SOL    HW239894   1.347   1.897   1.350 -1.3046  0.9543  0.5233
 9421SOL     OW39895   1.789   3.432   6.676  0.0664  0.1835 -0.3987
 9421SOL    HW139896   1.857   3.391   6.622  1.2002  1.2043  0.2537
 9421SOL    HW239897   1.821   3.522   6.679  1.1164 -0.2159  0.3439
 9422SOL     OW39898   0.790   2.602  15.039  0.8254 -0.4047  0.0351
 9422SOL    HW139899   0.823   2.625  15.126  1.1037 -0.7042  0.0063
 9422SOL    HW239900   0.819   2.512  15.026 -0.9086 -0.7612 -1.3201
 9423SOL     OW39901   2.665   2.158   5.419  0.0164 -0.1449  0.2634
 9423SOL    HW139902   2.677   2.065   5.398  0.5575  0.3796 -1.6577
 9423SOL    HW239903   2.572   2.178   5.409  0.1906  0.2620 -0.4811
 9424SOL     OW39904   0.059   1.299  11.231  0.2608 -0.1906 -0.2943
 9424SOL    HW139905   0.011   1.253  11.301  0.3120 -0.8281 -0.6783
 9424SOL    HW239906   0.101   1.369  11.281 -1.6166  0.9883 -0.3345
 9425SOL     OW39907   1.870   3.833   3.455 -0.4175  0.5929 -0.1841
 9425SOL    HW139908   1.889   3.912   3.405  0.8430  0.0492 -0.5586
 9425SOL    HW239909   1.774   3.835   3.455 -0.4451 -0.5499 -0.7451
 9426SOL     OW39910   1.891   4.633   1.592 -0.5569  0.2405  0.4622
 9426SOL    HW139911   1.878   4.670   1.505 -0.3940  1.1246  0.8209
 9426SOL    HW239912   1.982   4.605   1.589 -1.3225 -2.3098  0.1064
 9427SOL     OW39913   0.345   3.009   2.143 -0.3656  0.0513 -0.6465
 9427SOL    HW139914   0.250   3.001   2.139 -0.6274  2.6086 -0.0116
 9427SOL    HW239915   0.358   2.926   2.188  2.1977 -0.1238 -1.7108
 9428SOL     OW39916   0.912   3.538   2.379  0.5601 -0.3270 -0.2199
 9428SOL    HW139917   0.958   3.459   2.352 -1.4628 -1.2601 -0.9742
 9428SOL    HW239918   0.854   3.508   2.449  0.2733  1.0784  0.1388
 9429SOL     OW39919   1.862   0.067   0.756 -0.0207 -0.2089  0.2590
 9429SOL    HW139920   1.886   0.008   0.827 -1.8517 -1.4139 -0.1024
 9429SOL    HW239921   1.910   0.024   0.686  0.3942  1.4565 -0.4732
 9430SOL     OW39922   0.630   0.914   3.647 -0.4744  0.7138 -0.1482
 9430SOL    HW139923   0.700   0.977   3.665  0.4315  0.1494 -1.7170
 9430SOL    HW239924   0.667   0.835   3.688 -1.4836  1.1754  1.6873
 9431SOL     OW39925   2.286   3.132   1.057  0.2416  0.2653  0.4830
 9431SOL    HW139926   2.370   3.115   1.100  0.5692  1.3776  0.3013
 9431SOL    HW239927   2.317   3.127   0.967 -0.2955 -1.8926  0.4169
 9432SOL     OW39928   0.399   0.222   6.904 -0.2880 -0.0399  0.3910
 9432SOL    HW139929   0.471   0.278   6.878  0.5592 -0.8040  1.0558
 9432SOL    HW239930   0.393   0.159   6.832  1.5663  0.0857  0.1352
 9433SOL     OW39931   3.521   3.330  13.841 -0.4769  0.5233 -0.1230
 9433SOL    HW139932   3.510   3.277  13.761  0.9584  0.4197 -0.2416
 9433SOL    HW239933   3.485   3.269  13.905  1.0450  0.4225  0.6209
 9434SOL     OW39934   1.310   2.009   6.379 -0.3286 -0.5812 -0.0366
 9434SOL    HW139935   1.290   1.928   6.426  1.5954 -0.2835  1.2698
 9434SOL    HW239936   1.218   2.031   6.367 -0.5120 -0.7766  1.0773
 9435SOL     OW39937   0.506   3.861   5.668 -0.6356  0.0284  0.2721
 9435SOL    HW139938   0.571   3.830   5.604 -0.3613 -0.1236  0.6243
 9435SOL    HW239939   0.456   3.920   5.611  1.8604  0.9525 -0.9863
 9436SOL     OW39940   0.420   4.249   2.528 -0.3662 -0.6255 -0.2752
 9436SOL    HW139941   0.455   4.198   2.455  0.7565 -0.8075  0.4024
 9436SOL    HW239942   0.345   4.291   2.485 -0.7003  0.4830  1.3985
 9437SOL     OW39943   0.129   4.540   6.753  0.3855  0.1994 -0.7156
 9437SOL    HW139944   0.070   4.471   6.721 -0.3233  0.5460 -0.1672
 9437SOL    HW239945   0.094   4.559   6.840  0.2159 -0.4533 -0.6398
 9438SOL     OW39946   0.424   0.026   7.068 -0.2473 -0.0660 -0.1711
 9438SOL    HW139947   0.437   4.721   6.986 -0.2119 -1.3546  0.5644
 9438SOL    HW239948   0.433   0.116   7.036 -0.8316  0.1947  0.3881
 9439SOL     OW39949   1.949   0.291   3.979 -0.0332 -0.1500 -0.1877
 9439SOL    HW139950   1.998   0.274   3.899 -0.5210 -1.1743 -0.2721
 9439SOL    HW239951   2.000   0.257   4.052  1.3902 -1.6472 -1.8905
 9440SOL     OW39952   0.893   2.899   3.060  0.1217  0.8199 -0.7237
 9440SOL    HW139953   0.954   2.830   3.085 -0.1984  0.8992  0.2518
 9440SOL    HW239954   0.943   2.981   3.070  0.2626  0.5056  0.9736
 9441SOL     OW39955   3.000   0.440  17.423  0.3888 -0.0970 -0.3232
 9441SOL    HW139956   2.913   0.439  17.463  0.4572  1.0228 -0.1535
 9441SOL    HW239957   3.011   0.359  17.372  1.5221 -0.7707  1.0165
 9442SOL     OW39958   3.724   0.934   9.790  0.0843 -0.1971  0.3803
 9442SOL    HW139959   3.722   0.841   9.812 -1.0964 -1.1509 -3.8954
 9442SOL    HW239960   3.804   0.956   9.838 -0.5970  3.9198 -0.3525
 9443SOL     OW39961   0.464   0.964  12.306 -0.3936 -0.1084 -0.0126
 9443SOL    HW139962   0.486   0.951  12.214 -0.7200  2.5064 -0.4606
 9443SOL    HW239963   0.379   1.008  12.298 -0.2982  0.3160  1.3539
 9444SOL     OW39964   1.938   3.816   5.426 -0.2331 -0.0022 -0.0640
 9444SOL    HW139965   1.883   3.753   5.379  0.3177  0.2341 -1.0219
 9444SOL    HW239966   1.882   3.825   5.503 -1.6314  0.2227 -1.1191
 9445SOL     OW39967   1.274   2.354   6.606  0.1699 -0.4166  0.4947
 9445SOL    HW139968   1.229   2.400   6.677 -0.7598  0.7140 -0.8247
 9445SOL    HW239969   1.215   2.371   6.533  0.5315 -1.6199 -0.0686
 9446SOL     OW39970   1.719   2.481   3.315  0.3722 -1.2138  0.5271
 9446SOL    HW139971   1.674   2.402   3.346  0.6820 -1.7929 -0.5048
 9446SOL    HW239972   1.802   2.462   3.359  0.3622 -1.1523  0.5727
 9447SOL     OW39973   4.603   1.968   1.736 -0.2527 -0.0648 -0.2524
 9447SOL    HW139974   4.536   1.960   1.668 -1.4025  2.0566  0.6430
 9447SOL    HW239975   4.652   2.045   1.709 -1.0841  0.4469 -0.3094
 9448SOL     OW39976   3.299   3.008   8.343 -0.2952 -0.5796  0.6622
 9448SOL    HW139977   3.235   3.073   8.373  0.1574  0.0751  0.2258
 9448SOL    HW239978   3.335   2.970   8.422  1.7179  0.5149  0.2682
 9449SOL     OW39979   2.599   3.637   6.315  0.1532  0.3997 -0.3593
 9449SOL    HW139980   2.596   3.695   6.239  0.9559 -0.2720 -0.8942
 9449SOL    HW239981   2.690   3.653   6.340  0.6760 -0.1878 -1.8975
 9450SOL     OW39982   3.181   3.061   1.740  0.2294 -0.3658  0.4616
 9450SOL    HW139983   3.187   3.108   1.823  0.3363  1.3054 -0.4907
 9450SOL    HW239984   3.266   3.016   1.745  0.2748 -0.1946  1.2777
 9451SOL     OW39985   2.720   1.379   4.596  0.2798  0.4063  0.0892
 9451SOL    HW139986   2.650   1.324   4.562  1.3343 -1.1990  0.4937
 9451SOL    HW239987   2.676   1.463   4.610 -0.6799 -0.2370  0.9151
 9452SOL     OW39988   0.442   1.791   8.584  0.1212 -0.4186 -0.1868
 9452SOL    HW139989   0.472   1.744   8.662 -1.7743  0.9720  1.3806
 9452SOL    HW239990   0.498   1.749   8.519  1.9884 -1.9847  2.3976
 9453SOL     OW39991   2.775   1.939  14.755  0.4164  0.0267  0.2823
 9453SOL    HW139992   2.845   2.005  14.753 -1.1070  1.5195 -3.1891
 9453SOL    HW239993   2.822   1.861  14.728 -0.5398 -0.6660  0.6430
 9454SOL     OW39994   4.574   1.265   9.119 -0.2401  0.4248  0.7226
 9454SOL    HW139995   4.533   1.215   9.189 -2.5169 -1.3071 -1.8304
 9454SOL    HW239996   4.663   1.269   9.154 -0.1775  2.4762  0.3071
 9455SOL     OW39997   0.442   1.285   8.482 -0.1057 -0.3296  0.3359
 9455SOL    HW139998   0.426   1.247   8.568 -0.7672 -2.0080 -0.5319
 9455SOL    HW239999   0.511   1.231   8.443 -0.4923  0.7405 -1.8827
 9456SOL     OW40000   2.678   3.803   1.860  0.1401 -0.0297 -0.5459
 9456SOL    HW140001   2.707   3.736   1.799  1.1458 -0.5470  0.4954
 9456SOL    HW240002   2.596   3.770   1.897  0.2488  0.6803  0.3226
 9457SOL     OW40003   3.656   1.956   8.486  0.5231  0.5947  0.4684
 9457SOL    HW140004   3.582   2.011   8.462  0.0019 -0.6446 -0.7676
 9457SOL    HW240005   3.718   2.007   8.538 -1.2665  1.6142  1.5877
 9458SOL     OW40006   3.296   3.504   1.944 -0.5964  0.2367  0.5757
 9458SOL    HW140007   3.333   3.591   1.958 -1.9112  0.8382  0.3894
 9458SOL    HW240008   3.210   3.529   1.910  0.7503 -0.1170 -3.0708
 9459SOL     OW40009   3.652   3.338   4.799 -0.0148  0.1524 -0.1749
 9459SOL    HW140010   3.556   3.348   4.804 -0.1027 -0.8525  0.1805
 9459SOL    HW240011   3.672   3.372   4.887  2.0542 -1.9429  0.1408
 9460SOL     OW40012   3.524   0.883   5.703  0.6460  0.3130 -0.7890
 9460SOL    HW140013   3.587   0.856   5.770 -0.4361  2.2964  1.0205
 9460SOL    HW240014   3.441   0.846   5.732  0.7432  1.9523  1.5892
 9461SOL     OW40015   0.749   0.924   6.075  0.3689 -0.2560 -0.0857
 9461SOL    HW140016   0.693   0.982   6.022  0.3024  0.3912  0.6986
 9461SOL    HW240017   0.675   0.878   6.114 -0.2560  2.0132  1.4132
 9462SOL     OW40018   4.035   1.250  12.352 -0.1627  0.3944  0.4949
 9462SOL    HW140019   4.001   1.300  12.277  0.9146  0.9176  0.3563
 9462SOL    HW240020   3.968   1.276  12.415 -1.0118 -3.2032  1.1152
 9463SOL     OW40021   1.239   2.751  15.061 -0.4143 -0.0480  0.1154
 9463SOL    HW140022   1.321   2.735  15.107  0.3275  1.1147 -0.8005
 9463SOL    HW240023   1.215   2.660  15.043 -2.1725  0.7828 -1.7230
 9464SOL     OW40024   1.866   0.330   6.321 -0.0493 -0.2602  0.3381
 9464SOL    HW140025   1.828   0.249   6.353 -0.0307 -1.1430 -1.8709
 9464SOL    HW240026   1.838   0.394   6.386  1.4661 -2.2887  2.9430
 9465SOL     OW40027   0.978   0.994   2.333  0.1929  0.5349  0.0831
 9465SOL    HW140028   1.058   1.046   2.332  0.1464  0.6042 -0.0011
 9465SOL    HW240029   0.933   1.060   2.385  0.5215 -0.2016  1.3018
 9466SOL     OW40030   3.904   2.087   5.199  0.3829 -0.2430 -0.4069
 9466SOL    HW140031   3.986   2.135   5.206  1.2362 -1.7635 -0.0136
 9466SOL    HW240032   3.845   2.158   5.173  0.0454  0.0216  1.1138
 9467SOL     OW40033   0.035   0.777   3.776 -0.6514  0.3377  0.1703
 9467SOL    HW140034   4.721   0.717   3.826  0.9829 -1.5776 -0.3428
 9467SOL    HW240035   0.096   0.721   3.728 -0.4336  1.6091 -1.0357
 9468SOL     OW40036   1.811   2.468   6.337  0.2438  0.3227 -0.4664
 9468SOL    HW140037   1.742   2.426   6.286 -2.8898  1.1991  3.0377
 9468SOL    HW240038   1.855   2.392   6.375 -2.0069 -0.2182  1.0634
 9469SOL     OW40039   2.719   4.624   6.229  0.0148  0.2201 -0.1724
 9469SOL    HW140040   2.634   4.663   6.209 -0.6314 -2.0748 -1.7907
 9469SOL    HW240041   2.721   4.666   6.315 -3.3780  0.0371  0.0141
 9470SOL     OW40042   2.147   2.578  13.231  0.4840  0.1480  0.5040
 9470SOL    HW140043   2.138   2.622  13.316  1.6547  0.9877  0.1962
 9470SOL    HW240044   2.062   2.598  13.192  0.7520  0.6178  0.1570
 9471SOL     OW40045   4.309   0.574   2.909  0.3372  0.6224 -0.1284
 9471SOL    HW140046   4.403   0.563   2.923 -0.3543 -3.9952  0.8812
 9471SOL    HW240047   4.281   0.593   2.999  0.6307  2.4907 -0.4435
 9472SOL     OW40048   1.897   0.275   4.849  0.0159 -0.7618 -0.2846
 9472SOL    HW140049   1.988   0.294   4.875 -1.6143  2.2449  3.3282
 9472SOL    HW240050   1.859   0.359   4.875 -0.6314 -0.9379 -0.6832
 9473SOL     OW40051   3.092   0.735   5.004  0.1743  0.2669 -0.6680
 9473SOL    HW140052   3.173   0.786   5.018  0.8622 -0.9858 -0.0739
 9473SOL    HW240053   3.106   0.715   4.912 -0.4917 -0.9437 -0.4943
 9474SOL     OW40054   1.959   1.025  16.059 -0.1178  0.0561  0.1707
 9474SOL    HW140055   1.989   0.987  15.976  0.0228  2.8317 -1.0380
 9474SOL    HW240056   1.873   0.984  16.069 -0.2490  0.5204  0.9455
 9475SOL     OW40057   1.194   2.941  17.497 -0.4566  0.0789  0.0993
 9475SOL    HW140058   1.282   2.974  17.510 -0.4789  0.0553  0.3084
 9475SOL    HW240059   1.211   2.847  17.500  0.1520  0.2567  2.2789
 9476SOL     OW40060   0.832   3.252  13.369  0.2253  0.1283  0.3722
 9476SOL    HW140061   0.819   3.300  13.451 -0.1089  1.6807 -0.5980
 9476SOL    HW240062   0.921   3.284  13.353 -0.3804  2.2129  1.1692
 9477SOL     OW40063   2.838   3.743  17.506 -0.1358  0.0213 -0.2688
 9477SOL    HW140064   2.832   3.768  17.598  0.0807  1.0501 -0.5355
 9477SOL    HW240065   2.781   3.807  17.464  0.4159  0.9303  0.3760
 9478SOL     OW40066   3.970   3.308   7.247 -0.5815  0.0720 -0.0352
 9478SOL    HW140067   3.902   3.241   7.254 -0.1425 -0.2405  1.1827
 9478SOL    HW240068   3.916   3.386   7.257 -1.0394 -0.4125  1.2283
 9479SOL     OW40069   2.018   0.531   2.345 -0.3599 -0.2866 -0.3562
 9479SOL    HW140070   1.997   0.623   2.360  0.5598 -0.4888  2.1017
 9479SOL    HW240071   2.098   0.551   2.296 -0.2005  1.2711  0.5640
 9480SOL     OW40072   4.101   1.426   2.365  0.4866  0.0115 -0.0175
 9480SOL    HW140073   4.036   1.497   2.364 -0.3449 -0.7643 -1.7522
 9480SOL    HW240074   4.095   1.396   2.456 -1.5136  1.1050  0.2091
 9481SOL     OW40075   3.806   4.188  11.553 -0.0161  0.0490 -0.6534
 9481SOL    HW140076   3.784   4.281  11.552 -0.2435 -0.0013 -0.0991
 9481SOL    HW240077   3.767   4.157  11.471 -1.8008 -0.3017  0.3447
 9482SOL     OW40078   1.813   3.913  11.610  0.0387 -1.1067 -0.0922
 9482SOL    HW140079   1.906   3.931  11.600 -0.1352 -0.5093 -0.6185
 9482SOL    HW240080   1.806   3.846  11.678  1.2411 -1.3651 -0.2186
 9483SOL     OW40081   4.556   1.875   7.862  0.5596 -0.1074  0.1858
 9483SOL    HW140082   4.526   1.956   7.903 -2.0070 -0.2471 -1.4330
 9483SOL    HW240083   4.592   1.916   7.784 -0.8397 -0.3733 -0.6111
 9484SOL     OW40084   4.297   4.131   6.561 -0.0793  0.1718 -0.6430
 9484SOL    HW140085   4.207   4.145   6.531  0.1759  1.5702 -0.7465
 9484SOL    HW240086   4.300   4.200   6.627 -0.4418  0.7826 -1.2705
 9485SOL     OW40087   3.578   3.379   3.968 -0.7275  0.2266 -0.0476
 9485SOL    HW140088   3.512   3.433   4.012 -1.4630 -3.2368  3.0486
 9485SOL    HW240089   3.537   3.293   3.977  1.1846 -0.7258 -0.5795
 9486SOL     OW40090   0.229   2.404   7.771 -0.2115 -0.6604 -0.0679
 9486SOL    HW140091   0.236   2.385   7.865  0.2938 -0.6777 -0.1078
 9486SOL    HW240092   0.209   2.498   7.770 -1.7631 -1.0150 -1.5427
 9487SOL     OW40093   4.180   1.562   4.327 -0.6532 -0.2120  0.0962
 9487SOL    HW140094   4.237   1.527   4.258 -0.8286 -1.5020  0.6151
 9487SOL    HW240095   4.189   1.500   4.399 -1.2346 -1.2024 -0.6856
 9488SOL     OW40096   2.547   3.038   5.836 -0.5663 -0.0083 -0.0028
 9488SOL    HW140097   2.488   2.967   5.811 -1.3688  0.4740  0.5372
 9488SOL    HW240098   2.514   3.064   5.922  1.3870  0.7823  0.5189
 9489SOL     OW40099   2.111   2.762   4.236 -0.0221 -0.3373 -0.1004
 9489SOL    HW140100   2.124   2.669   4.254 -1.6715 -0.5825 -0.1574
 9489SOL    HW240101   2.126   2.780   4.328 -0.7643 -0.4148  0.0359
 9490SOL     OW40102   2.046   1.637   4.234  1.0279 -0.1493 -0.0113
 9490SOL    HW140103   2.111   1.569   4.250  0.0692 -0.9827  0.2753
 9490SOL    HW240104   2.040   1.673   4.322 -0.5617 -0.9366  0.2065
 9491SOL     OW40105   3.706   4.349   6.763 -0.1129 -0.1354 -0.1890
 9491SOL    HW140106   3.688   4.293   6.688  1.2223 -1.0829  0.2080
 9491SOL    HW240107   3.616   4.365   6.791  0.1020  3.5884 -1.6647
 9492SOL     OW40108   2.032   4.713   4.611  0.0400 -0.0821  0.2456
 9492SOL    HW140109   2.022   4.639   4.551  0.3733  0.7201 -0.8100
 9492SOL    HW240110   2.127   4.718   4.601 -0.0317  0.3443 -0.2276
 9493SOL     OW40111   2.671   1.870   6.444 -0.0454 -0.3410 -0.5051
 9493SOL    HW140112   2.594   1.924   6.461  1.4671  1.9971 -1.0692
 9493SOL    HW240113   2.728   1.903   6.513 -1.3634  0.4827  0.2025
 9494SOL     OW40114   0.589   0.657  15.021  0.2258  0.6002  0.2813
 9494SOL    HW140115   0.637   0.602  14.959 -1.1149  0.3835 -0.5613
 9494SOL    HW240116   0.603   0.744  14.983 -1.3426 -0.2927 -2.3278
 9495SOL     OW40117   4.464   1.725   6.882  0.2229  0.0005 -0.2254
 9495SOL    HW140118   4.499   1.775   6.809  0.0526  2.2248  1.2084
 9495SOL    HW240119   4.532   1.745   6.947 -1.1165  0.0666  1.1758
 9496SOL     OW40120   2.172   3.802   2.104  0.1417  0.1852  0.2607
 9496SOL    HW140121   2.174   3.710   2.078 -1.4392 -0.0069  0.8254
 9496SOL    HW240122   2.203   3.836   2.019 -0.6157  0.7085  0.2010
 9497SOL     OW40123   3.573   4.603   2.523  0.0831  0.0592 -0.6332
 9497SOL    HW140124   3.599   4.662   2.595  2.0309 -0.2174 -1.1334
 9497SOL    HW240125   3.654   4.597   2.474 -0.1806  0.8845 -1.1775
 9498SOL     OW40126   1.115   2.136   2.801 -0.6199  0.5439 -0.6120
 9498SOL    HW140127   1.127   2.079   2.877  1.7917  0.3755 -1.1330
 9498SOL    HW240128   1.147   2.081   2.729 -0.2559  0.4091 -0.3437
 9499SOL     OW40129   1.319   4.430  12.918  1.2526 -0.2017 -0.2117
 9499SOL    HW140130   1.364   4.465  12.995  1.0306  0.2928 -0.3126
 9499SOL    HW240131   1.232   4.463  12.936  1.6222  1.0621 -0.7436
 9500SOL     OW40132   0.025   0.415  15.268 -0.2766 -0.0936  0.6558
 9500SOL    HW140133   0.091   0.420  15.199 -0.9532  0.1818  0.0284
 9500SOL    HW240134   0.071   0.371  15.340  1.5612  0.1554 -0.3518
 9501SOL     OW40135   3.893   4.723   6.880 -0.0692 -0.2177 -0.1407
 9501SOL    HW140136   3.882   4.629   6.899  2.0413 -0.6229 -0.9884
 9501SOL    HW240137   3.957   0.007   6.946 -1.5910 -1.2190  1.7440
 9502SOL     OW40138   3.942   3.300   5.816  0.1780  0.2681 -0.2627
 9502SOL    HW140139   3.860   3.282   5.862 -0.5041 -1.0603 -2.0053
 9502SOL    HW240140   3.913   3.326   5.728  1.6370  0.0311 -0.8181
 9503SOL     OW40141   1.135   2.237  17.591 -0.3018 -0.6992  0.1712
 9503SOL    HW140142   1.086   2.319  17.595  1.4705  0.3963 -0.6747
 9503SOL    HW240143   1.185   2.253  17.511 -0.7541  2.9566  0.6311
 9504SOL     OW40144   3.431   3.447   6.794 -0.2527 -0.1343  0.0202
 9504SOL    HW140145   3.355   3.404   6.834  1.5195 -3.0538  0.2566
 9504SOL    HW240146   3.509   3.413   6.838 -1.9787 -1.6088  1.9793
 9505SOL     OW40147   1.871   3.462   4.801 -0.2118 -0.5221  0.3180
 9505SOL    HW140148   1.905   3.373   4.812 -0.0917 -0.3301  1.5311
 9505SOL    HW240149   1.891   3.501   4.887 -1.2108 -0.7982  0.6793
 9506SOL     OW40150   0.725   0.404  12.323  0.0170 -0.6496  0.0539
 9506SOL    HW140151   0.649   0.433  12.273  0.7875 -1.3035 -1.4882
 9506SOL    HW240152   0.769   0.342  12.264 -1.9432 -2.0277  0.0573
 9507SOL     OW40153   3.911   0.969   4.208  0.1970  1.0043 -0.4849
 9507SOL    HW140154   3.817   0.960   4.189  0.6997 -1.1632 -2.0214
 9507SOL    HW240155   3.902   1.005   4.296  0.8480  1.0053 -0.4237
 9508SOL     OW40156   0.975   3.772   4.347 -0.7065  0.3602 -0.6083
 9508SOL    HW140157   0.963   3.848   4.290 -2.6159  2.0243  2.0375
 9508SOL    HW240158   1.001   3.814   4.429 -2.5912 -1.0475  0.7187
 9509SOL     OW40159   3.383   4.306   4.135  0.5092  0.3317 -0.6544
 9509SOL    HW140160   3.421   4.222   4.158  5.2481  2.5887 -0.1412
 9509SOL    HW240161   3.457   4.365   4.120 -0.0214  0.7438 -1.7064
 9510SOL     OW40162   4.436   1.463  14.785 -0.0465  0.0117 -0.0133
 9510SOL    HW140163   4.371   1.482  14.717  0.7520 -0.1163 -0.8067
 9510SOL    HW240164   4.470   1.551  14.802  0.4505  0.1134 -1.5627
 9511SOL     OW40165   0.806   2.182   3.358 -0.2414 -0.4247  1.0167
 9511SOL    HW140166   0.725   2.141   3.325  0.7740 -1.1507 -0.5607
 9511SOL    HW240167   0.774   2.271   3.370 -2.1581 -0.9669  0.1159
 9512SOL     OW40168   3.570   2.908   7.396 -0.6156 -0.2882  0.4345
 9512SOL    HW140169   3.493   2.962   7.414 -1.4391 -1.8616  1.6716
 9512SOL    HW240170   3.643   2.970   7.393 -2.0123  1.3805  0.9719
 9513SOL     OW40171   3.420   3.944   6.343 -0.3837  0.3237  0.5831
 9513SOL    HW140172   3.330   3.925   6.370  0.2209  1.7043  3.4987
 9513SOL    HW240173   3.409   3.945   6.248 -1.5028 -0.0652  0.7016
 9514SOL     OW40174   3.890   4.613   6.630  0.0189  0.2089 -0.6148
 9514SOL    HW140175   3.890   4.522   6.661  0.1163  0.3751 -0.1315
 9514SOL    HW240176   3.885   4.670   6.706  1.7268 -1.8612  1.0724
 9515SOL     OW40177   3.936   2.945   8.503  0.2981  0.0689  0.1594
 9515SOL    HW140178   3.940   2.861   8.458 -2.9071  0.2416 -0.4863
 9515SOL    HW240179   3.979   2.998   8.435  0.1467 -0.4899 -0.3714
 9516SOL     OW40180   1.170   4.111   5.648  0.3941 -0.2925 -0.3023
 9516SOL    HW140181   1.127   4.026   5.659 -0.6502 -0.1450 -3.3250
 9516SOL    HW240182   1.108   4.181   5.667 -0.1512 -0.4042 -1.6894
 9517SOL     OW40183   0.337   1.056  13.795 -0.1031  0.5177 -0.9455
 9517SOL    HW140184   0.411   1.102  13.833 -2.3795  2.6552  0.8837
 9517SOL    HW240185   0.368   1.032  13.708  0.7564 -0.3686 -0.3988
 9518SOL     OW40186   2.251   1.062   7.928 -0.6073  0.0651  0.2514
 9518SOL    HW140187   2.320   1.001   7.900 -1.5434 -1.0098  0.3097
 9518SOL    HW240188   2.251   1.045   8.022 -0.1140 -0.4092  0.1670
 9519SOL     OW40189   0.866   2.614   0.282 -0.4014 -0.2149  0.2584
 9519SOL    HW140190   0.949   2.629   0.327  1.0949  0.0298 -2.5458
 9519SOL    HW240191   0.906   2.603   0.196 -0.1067  0.1209  0.3558
 9520SOL     OW40192   3.222   4.042   5.687 -0.0077 -0.0928  0.6572
 9520SOL    HW140193   3.290   4.109   5.674  1.7153 -1.8302  0.7525
 9520SOL    HW240194   3.252   4.010   5.773  0.4943 -1.5368 -0.0567
 9521SOL     OW40195   3.200   4.341   3.024  0.1258  0.0254  0.4120
 9521SOL    HW140196   3.236   4.394   2.954  1.9522  3.2184  3.7878
 9521SOL    HW240197   3.177   4.412   3.084  0.3885 -1.9554  2.8926
 9522SOL     OW40198   3.279   2.758   2.987  0.3585 -0.0355  0.0037
 9522SOL    HW140199   3.297   2.701   3.062 -1.6264  0.2237  0.6733
 9522SOL    HW240200   3.368   2.783   2.962  1.2648 -2.5084  0.6617
 9523SOL     OW40201   0.848   1.308   6.581 -0.0533 -0.7430 -0.6869
 9523SOL    HW140202   0.812   1.260   6.656  1.4257 -0.1855  0.3826
 9523SOL    HW240203   0.861   1.394   6.619 -1.9471 -0.1981 -1.2875
 9524SOL     OW40204   0.616   1.402   7.368 -0.8549 -0.1442 -0.3127
 9524SOL    HW140205   0.646   1.401   7.459 -2.1491 -2.3071  0.0976
 9524SOL    HW240206   0.524   1.378   7.378 -1.3493  1.0950 -1.8234
 9525SOL     OW40207   1.705   3.781   4.844 -0.1720  0.2526 -0.1989
 9525SOL    HW140208   1.616   3.802   4.872 -0.8822  0.6155 -2.7363
 9525SOL    HW240209   1.693   3.697   4.800 -2.3579  0.3060  0.2890
 9526SOL     OW40210   4.139   3.925   5.065  0.1953 -0.0835 -0.2982
 9526SOL    HW140211   4.138   3.846   5.120 -3.2848  0.3771  0.3374
 9526SOL    HW240212   4.232   3.943   5.053  0.0011  0.3237 -1.1709
 9527SOL     OW40213   3.669   1.325  16.139  0.0619 -0.7924 -0.8641
 9527SOL    HW140214   3.690   1.300  16.049 -1.8358  0.9880 -1.8033
 9527SOL    HW240215   3.692   1.418  16.140  1.0146 -0.9997 -2.5379
 9528SOL     OW40216   1.218   2.614   6.067  0.5552 -0.0285  0.2327
 9528SOL    HW140217   1.123   2.607   6.072  0.4852 -1.6302 -3.3287
 9528SOL    HW240218   1.227   2.707   6.048  2.2153 -0.4043 -0.8208
 9529SOL     OW40219   1.599   2.204  11.898  0.1379  0.0217  0.1396
 9529SOL    HW140220   1.504   2.196  11.887  0.0549  0.2299  0.7020
 9529SOL    HW240221   1.635   2.173  11.815 -3.0741 -3.3578 -0.0333
 9530SOL     OW40222   3.651   0.259   6.359 -0.5218  0.2557  0.1507
 9530SOL    HW140223   3.624   0.203   6.286  0.1509  0.6730 -0.4105
 9530SOL    HW240224   3.570   0.259   6.411 -0.4649 -3.2748  0.3014
 9531SOL     OW40225   2.176   0.863   3.491  0.0741 -0.3975 -0.1623
 9531SOL    HW140226   2.094   0.829   3.458 -1.9485  0.1748  4.2338
 9531SOL    HW240227   2.233   0.859   3.414  1.5784  0.9895  0.8649
 9532SOL     OW40228   4.312   2.964   4.493  0.1921  0.1214 -0.0504
 9532SOL    HW140229   4.365   2.910   4.551 -0.5186 -2.2983 -1.6413
 9532SOL    HW240230   4.274   3.026   4.554  0.5437  0.3490 -0.0597
 9533SOL     OW40231   2.230   2.630  15.221 -0.7754 -0.0140 -0.1315
 9533SOL    HW140232   2.306   2.688  15.220 -1.0613  0.3549 -0.6773
 9533SOL    HW240233   2.241   2.589  15.135 -0.9047  3.4202 -1.7845
 9534SOL     OW40234   3.672   3.855   2.252  0.5907  0.7784 -0.0402
 9534SOL    HW140235   3.722   3.886   2.177 -0.4956  0.5296 -0.8626
 9534SOL    HW240236   3.723   3.882   2.328 -0.2249  1.1140  0.3911
 9535SOL     OW40237   1.119   1.064  17.603 -0.3975 -0.2951  0.4677
 9535SOL    HW140238   1.060   1.037  17.533  1.3585  0.0921 -1.1656
 9535SOL    HW240239   1.154   1.143  17.561  1.1555 -1.1402  0.1577
 9536SOL     OW40240   1.891   0.212   8.938 -0.7602 -0.5815  0.5852
 9536SOL    HW140241   1.974   0.165   8.932 -0.7322 -0.2007 -2.2405
 9536SOL    HW240242   1.928   0.300   8.938  0.1920 -0.9810  0.6446
 9537SOL     OW40243   0.139   1.292  11.593 -0.1145 -0.5193  0.0286
 9537SOL    HW140244   0.052   1.272  11.561 -1.2528  3.7877  0.3824
 9537SOL    HW240245   0.188   1.221  11.552 -1.6243  0.5544 -3.6086
 9538SOL     OW40246   2.910   0.994   7.354  0.3930  0.0804  0.3070
 9538SOL    HW140247   2.942   1.004   7.264 -1.1240  1.4790 -0.0648
 9538SOL    HW240248   2.926   1.087   7.371  1.3652  0.4374 -2.4637
 9539SOL     OW40249   4.008   3.033   3.115  0.5050 -0.3694 -0.4480
 9539SOL    HW140250   4.093   2.999   3.089  0.5718 -0.4150 -0.1648
 9539SOL    HW240251   4.005   3.126   3.094  0.6340 -0.6884 -1.8826
 9540SOL     OW40252   3.999   1.049   0.715 -0.3669  0.4139 -0.6862
 9540SOL    HW140253   4.050   1.048   0.634 -0.3855 -2.9473 -0.6551
 9540SOL    HW240254   4.070   1.046   0.779 -0.9216 -1.6425 -0.1709
 9541SOL     OW40255   1.732   2.783   0.219 -0.7139 -0.1956 -0.4048
 9541SOL    HW140256   1.719   2.877   0.227 -2.0229 -0.6422  2.5952
 9541SOL    HW240257   1.759   2.777   0.127 -0.2548  0.9417 -0.3463
 9542SOL     OW40258   4.275   1.873   3.243  0.1277 -0.3736 -0.0794
 9542SOL    HW140259   4.192   1.826   3.250  0.1335 -0.4781 -0.7564
 9542SOL    HW240260   4.242   1.957   3.277 -1.8893 -1.5970  0.9866
 9543SOL     OW40261   2.146   0.564   2.629 -0.2304  0.5984 -0.1922
 9543SOL    HW140262   2.170   0.631   2.565 -0.1515  1.8323  1.1433
 9543SOL    HW240263   2.137   0.483   2.579  0.0932  0.3012  0.2264
 9544SOL     OW40264   3.289   4.324   8.136 -0.4468  0.0460 -0.0437
 9544SOL    HW140265   3.313   4.249   8.082  0.7949  0.3225  0.1064
 9544SOL    HW240266   3.357   4.328   8.204 -0.5084  0.7028 -0.0146
 9545SOL     OW40267   0.544   2.258  12.731 -0.0198  0.9241 -0.2397
 9545SOL    HW140268   0.568   2.341  12.772 -0.7929  0.9827  0.1096
 9545SOL    HW240269   0.618   2.245  12.673  0.2506  0.9423  0.1027
 9546SOL     OW40270   2.412   3.263   3.556  0.4244  0.3001 -0.9235
 9546SOL    HW140271   2.328   3.303   3.576  1.2844  0.7624  1.7471
 9546SOL    HW240272   2.391   3.173   3.581 -0.3743  0.6675 -0.2667
 9547SOL     OW40273   4.345   2.779  14.733  0.2743  0.0156 -0.0339
 9547SOL    HW140274   4.388   2.811  14.654  1.7791  0.5953  1.0315
 9547SOL    HW240275   4.259   2.772  14.692 -0.9494 -0.4759  2.6017
 9548SOL     OW40276   4.461   1.930   1.498 -0.6167 -0.2139  0.1528
 9548SOL    HW140277   4.390   1.869   1.515 -0.7606  0.6798  2.7310
 9548SOL    HW240278   4.413   1.995   1.446 -0.2297  0.8813  1.1582
 9549SOL     OW40279   4.339   0.515   7.657  0.2710 -0.1820  0.4651
 9549SOL    HW140280   4.292   0.546   7.735  0.9302  0.4818  0.6011
 9549SOL    HW240281   4.285   0.443   7.626 -0.0234 -0.3939  1.4553
 9550SOL     OW40282   1.341   2.053  13.489  0.5012  0.3327  0.0042
 9550SOL    HW140283   1.259   2.024  13.530  1.2369  0.0950  1.3108
 9550SOL    HW240284   1.349   2.004  13.407 -0.3868 -2.0102  1.3114
 9551SOL     OW40285   1.306   3.821   3.072  0.9299  0.0898 -0.7040
 9551SOL    HW140286   1.277   3.764   3.143 -0.8926  2.2280  0.2883
 9551SOL    HW240287   1.246   3.892   3.094 -0.4235 -0.6840 -1.9623
 9552SOL     OW40288   3.864   2.766   3.783  0.4368  0.6101  0.8347
 9552SOL    HW140289   3.842   2.683   3.824  1.0693 -0.2292 -0.5400
 9552SOL    HW240290   3.959   2.760   3.786  0.2659 -1.7047  0.9704
 9553SOL     OW40291   4.066   4.558   7.879  0.4549 -0.3529 -0.4410
 9553SOL    HW140292   4.004   4.555   7.953  1.8304 -1.0871  0.6695
 9553SOL    HW240293   4.087   4.465   7.879  0.8803 -0.2567 -0.5412
 9554SOL     OW40294   3.685   0.012  16.533 -0.1390 -0.3695  0.2331
 9554SOL    HW140295   3.731   0.080  16.483 -1.7059 -1.6816 -2.9847
 9554SOL    HW240296   3.723   0.034  16.618  0.1876 -3.2917  0.8461
 9555SOL     OW40297   4.431   1.120  14.411 -0.0263 -0.7020  0.1470
 9555SOL    HW140298   4.375   1.192  14.441  0.2932 -0.4692  0.1890
 9555SOL    HW240299   4.392   1.051  14.465 -1.8657 -1.4534 -2.1982
 9556SOL     OW40300   1.157   3.797   8.279  0.2579 -0.1957  0.3465
 9556SOL    HW140301   1.199   3.775   8.362  2.0429  1.6259 -0.0531
 9556SOL    HW240302   1.075   3.748   8.288  0.8280 -1.1474  0.3387
 9557SOL     OW40303   2.075   4.667   2.805 -0.3679  0.3457 -0.1362
 9557SOL    HW140304   2.092   4.736   2.870 -0.4636  0.4812 -0.2564
 9557SOL    HW240305   2.122   4.596   2.847 -1.3160 -0.3781 -0.2955
 9558SOL     OW40306   3.708   1.638   3.761  0.1847  0.7625  0.1025
 9558SOL    HW140307   3.720   1.616   3.853  1.2538  0.2171 -0.1697
 9558SOL    HW240308   3.619   1.674   3.769 -1.9284 -4.6602  0.9867
 9559SOL     OW40309   0.393   4.466  12.082  0.0281 -0.3285  0.1844
 9559SOL    HW140310   0.422   4.546  12.039 -0.0567 -0.6309 -0.4387
 9559SOL    HW240311   0.330   4.426  12.022 -0.1281 -0.2273  0.2815
 9560SOL     OW40312   0.256   0.482   9.830  0.0329  0.0445 -0.1527
 9560SOL    HW140313   0.310   0.537   9.886 -0.1923 -0.0713  0.1741
 9560SOL    HW240314   0.196   0.450   9.897  1.1808 -2.5499 -0.3599
 9561SOL     OW40315   2.857   0.718  14.977  0.1573  0.3558 -0.0728
 9561SOL    HW140316   2.951   0.710  14.989  0.0874  1.2941  1.1144
 9561SOL    HW240317   2.832   0.629  14.952 -0.5307  0.5517 -0.1022
 9562SOL     OW40318   0.996   1.467   6.158 -0.0169  0.0282 -0.0490
 9562SOL    HW140319   1.074   1.452   6.105 -0.2486  0.9789 -0.6519
 9562SOL    HW240320   1.001   1.561   6.174 -4.3265  0.4106 -0.9974
 9563SOL     OW40321   3.954   2.729   9.763  0.1219 -0.0468  0.1502
 9563SOL    HW140322   3.952   2.640   9.730  2.4157  0.6804 -1.8753
 9563SOL    HW240323   3.858   2.731   9.768  0.2839  5.0257  1.0058
 9564SOL     OW40324   4.032   3.793   7.640 -0.1361 -0.1003 -0.1522
 9564SOL    HW140325   3.978   3.869   7.617 -0.8128 -0.2853  0.8149
 9564SOL    HW240326   4.120   3.823   7.617 -0.1812 -0.8528 -1.2782
 9565SOL     OW40327   0.173   3.607   0.531  0.6550  0.3470 -0.1298
 9565SOL    HW140328   0.206   3.686   0.575  0.1377  0.0101  0.8666
 9565SOL    HW240329   0.154   3.548   0.604  1.0296 -1.1540 -1.2624
 9566SOL     OW40330   0.060   2.027   0.527 -0.0419  0.0564 -0.4716
 9566SOL    HW140331   0.118   2.071   0.590  0.2329 -0.7770 -0.1501
 9566SOL    HW240332   4.721   2.069   0.558 -0.1866 -0.0536 -0.6996
 9567SOL     OW40333   1.202   0.671   0.645  0.2901  0.1843  0.2545
 9567SOL    HW140334   1.253   0.615   0.586 -0.8559 -1.4612  0.8273
 9567SOL    HW240335   1.118   0.680   0.600  0.0552  1.9496  1.0360
 9568SOL     OW40336   1.398   1.597  12.950 -0.0926  0.0727 -0.4692
 9568SOL    HW140337   1.476   1.547  12.925 -0.4963 -1.8782  2.2373
 9568SOL    HW240338   1.324   1.572  12.895 -1.9924  1.1081  1.6002
 9569SOL     OW40339   0.062   4.506   2.016  0.6823 -0.0614 -0.1394
 9569SOL    HW140340   4.726   4.452   2.030  0.7289 -0.4786 -1.5044
 9569SOL    HW240341   0.057   4.502   1.920  0.8720  0.3106 -0.1662
 9570SOL     OW40342   2.780   3.477  12.241 -0.1224  0.4774 -0.2555
 9570SOL    HW140343   2.835   3.432  12.306  0.2960  2.9924  1.1428
 9570SOL    HW240344   2.732   3.530  12.306 -0.1030  0.8837 -0.5719
 9571SOL     OW40345   2.219   4.303   5.059 -0.3762  0.0282  0.1284
 9571SOL    HW140346   2.200   4.395   5.041 -1.1780 -0.5234 -1.7721
 9571SOL    HW240347   2.252   4.273   4.975 -0.6143 -2.2057  0.8209
   4.74102   4.74102  17.76145
