Membrane in water
40347
    1TMC1    C1    1   2.953   3.436  11.355 -0.3284  0.7601 -0.8238
    1TMC1    C2    2   2.879   3.506  11.263  0.2203 -0.0712 -0.5659
    1TMC1    C3    3   2.948   3.546  11.155 -0.2321  0.1382 -0.8359
    1TMC1    C4    4   3.094   3.434  11.353 -0.5056  0.1168  0.2564
    1TMC1    C5    5   3.154   3.501  11.251 -0.1217  0.0598 -0.3859
    1TMC1    C6    6   3.083   3.546  11.144  0.3178 -0.0314  0.4250
    1TMC1     C    7   2.884   3.337  11.433 -0.5098  0.0471 -0.3399
    1TMC1     O    8   2.765   3.329  11.416  0.1709 -0.0583 -0.2419
    1TMC1     H    9   2.771   3.496  11.257  0.0774  0.4497  1.0336
    1TMC1    H1   10   3.148   3.423  11.447  0.2511  0.5620 -0.1277
    1TMC1    H2   11   3.134   3.601  11.066 -0.6357 -2.2297 -1.7194
    1TMC1    C7   12   3.303   3.517  11.249 -0.3413  0.0042  0.2539
    1TMC1    C8   13   2.895   3.623  11.041 -0.1348 -0.6022  0.5503
    1TMC1    O1   14   3.365   3.604  11.188 -0.0498  0.2227 -0.0778
    1TMC1    O2   15   2.950   3.638  10.929  0.2447 -0.0402  0.0227
    1TMC1    O3   16   3.335   3.388  11.237 -0.1551  0.4116 -0.2571
    1TMC1    H3   17   3.258   3.328  11.253  0.4643 -0.3427 -0.1081
    1TMC1    O5   18   2.800   3.707  11.091  0.6479 -0.1337  0.3622
    1TMC1    H5   19   2.796   3.693  11.188  0.6741 -0.6268  0.2938
    2MPD2     C   20   2.862   2.860  11.606  0.2242 -0.2794  0.9640
    2MPD2    C1   21   2.756   2.954  11.600  0.3129 -0.3845 -0.5904
    2MPD2    C2   22   2.795   3.087  11.576 -0.0392 -0.0546 -0.4476
    2MPD2    C3   23   2.927   3.122  11.540 -0.0866  0.4347 -0.5526
    2MPD2    C4   24   3.025   3.027  11.557  0.0219  0.2136 -0.1263
    2MPD2    C5   25   2.994   2.896  11.590 -0.3765 -1.2309  0.3733
    2MPD2     H   26   2.730   3.173  11.568 -1.1858 -0.8426  0.5996
    2MPD2    H1   27   3.128   3.055  11.539 -0.8195  1.8469 -2.3982
    2MPD2    H2   28   2.843   2.755  11.622 -2.9403  0.6001  3.0269
    2MPD2    H3   29   3.070   2.821  11.605  1.2812  0.3114 -0.3907
    2MPD2     N   30   2.976   3.246  11.491  0.2456  0.6091 -0.0719
    2MPD2    H5   31   3.076   3.256  11.476  0.1346  2.1085  0.1433
    2MPD2    N1   32   2.620   2.929  11.627  0.0561  0.4017  0.0385
    2MPD2    H7   33   2.562   3.013  11.624 -1.4370 -0.6661 -0.8599
    3TMC1    C1   34   2.007   4.151  10.709 -0.4325 -0.0885 -0.0829
    3TMC1    C2   35   2.121   4.115  10.641 -0.2427 -0.0854 -0.0785
    3TMC1    C3   36   2.182   4.204  10.549  0.2387 -0.3812 -0.1903
    3TMC1    C4   37   1.955   4.276  10.694 -0.8525  0.2637 -0.6068
    3TMC1    C5   38   2.015   4.358  10.604 -0.2204 -0.0979  0.3084
    3TMC1    C6   39   2.124   4.330  10.527  0.1647  0.0827 -0.3565
    3TMC1     C   40   1.963   4.066  10.813 -0.0835 -0.4243  0.4642
    3TMC1     O   41   2.010   3.953  10.822 -0.2035 -0.2094 -0.0139
    3TMC1     H   42   2.161   4.016  10.657 -1.7735 -0.8300 -0.8795
    3TMC1    H1   43   1.851   4.299  10.714 -0.5207  3.1917 -2.1814
    3TMC1    H2   44   2.160   4.402  10.454  2.4206 -0.8337 -0.1415
    3TMC1    C7   45   1.942   4.474  10.566 -0.6395  0.0412 -0.1777
    3TMC1    C8   46   2.237   4.140  10.427 -0.1826  0.6920  0.4391
    3TMC1    O1   47   1.820   4.457  10.565 -0.5393 -0.7426  0.1263
    3TMC1    O2   48   2.233   4.193  10.315 -0.1245 -0.0749 -0.1703
    3TMC1    O3   49   2.010   4.575  10.606 -0.5960  0.0602  0.0285
    3TMC1    H3   50   2.108   4.567  10.605 -0.4752  1.3989  0.6434
    3TMC1    O5   51   2.274   4.012  10.461 -0.2407  0.1512  0.1940
    3TMC1    H5   52   2.300   3.997  10.555  1.9814  0.3365 -0.3931
    4MPD2     C   53   1.682   3.952  11.221  0.5848 -0.5255 -0.0617
    4MPD2    C1   54   1.682   4.090  11.215  0.8399 -0.0284  0.3375
    4MPD2    C2   55   1.745   4.143  11.107  0.2904  0.2498 -0.1599
    4MPD2    C3   56   1.809   4.062  11.016 -0.4011 -0.0902 -0.2726
    4MPD2    C4   57   1.796   3.921  11.023  0.4923  0.3170 -0.2136
    4MPD2    C5   58   1.736   3.869  11.127  0.3466 -0.5176 -0.3037
    4MPD2     H   59   1.749   4.251  11.099 -1.7140  0.3133 -0.2596
    4MPD2    H1   60   1.843   3.855  10.950  0.0544  0.9345 -1.0577
    4MPD2    H2   61   1.630   3.901  11.301  0.2833  0.8374  0.6090
    4MPD2    H3   62   1.744   3.763  11.150 -0.3215 -0.5180 -0.0850
    4MPD2     N   63   1.873   4.125  10.906  0.1557 -0.3719  0.2024
    4MPD2    H5   64   1.859   4.226  10.909  1.8336 -0.1163 -0.2624
    4MPD2    N1   65   1.617   4.174  11.313  0.0496 -0.1445 -0.1230
    4MPD2    H7   66   1.597   4.122  11.398  0.7561  0.6851  0.5584
    5TCq1    O1   67   2.334   1.808  11.261  0.1099  0.2108 -0.1913
    5TCq1    C1   68   2.417   1.701  11.266 -0.1818 -0.1603  0.1539
    5TCq1    O2   69   2.485   1.672  11.364 -0.1878  0.1785 -0.0299
    5TCq1    C2   70   2.424   1.641  11.134 -0.4836 -0.0614 -0.1243
    5TCq1    C3   71   2.313   1.614  11.067  0.4202  0.2323 -0.8812
    5TCq1    C4   72   2.326   1.539  10.954  0.5275 -1.0056 -0.4212
    5TCq1    C5   73   2.445   1.499  10.906 -0.4807 -0.7062  0.4926
    5TCq1    C6   74   2.555   1.522  10.982  0.8045  0.4019 -0.6193
    5TCq1    C7   75   2.543   1.593  11.096  0.0569  0.4862 -1.0915
    5TCq1    C8   76   2.656   1.421  10.965  0.3315 -0.4652 -0.7500
    5TCq1    O4   77   2.622   1.306  10.937 -0.1437 -0.0116  0.0092
    5TCq1    C9   78   2.204   1.501  10.884  0.2632 -0.4480  0.5302
    5TCq1    O5   79   2.206   1.425  10.781  0.5229 -0.3446  0.5131
    5TCq1    O6   80   2.094   1.552  10.923 -0.2457 -0.6373  0.0147
    5TCq1    H1   81   2.279   1.806  11.179 -1.0983 -0.2040  0.6413
    5TCq1    H2   82   2.217   1.640  11.110  0.0281 -2.1409 -0.3194
    5TCq1    H3   83   2.442   1.444  10.813 -2.0624 -1.7062  1.1348
    5TCq1    H4   84   2.634   1.604  11.154  0.1684 -0.2403 -1.1246
    6MPD2     C   85   2.995   1.435  11.101  0.0913 -0.2301 -0.6786
    6MPD2    C1   86   2.888   1.370  11.035  0.3993  0.0335  0.8991
    6MPD2    C2   87   2.892   1.235  11.015  0.0143  0.2031  0.0005
    6MPD2    C3   88   2.996   1.155  11.069  0.4111 -0.0327  0.1912
    6MPD2    C4   89   3.105   1.218  11.136 -0.0081 -0.0036 -0.0276
    6MPD2    C5   90   3.104   1.360  11.146  0.4764  0.2531  0.4128
    6MPD2     H   91   2.814   1.184  10.961 -0.9844 -1.3366  2.8751
    6MPD2    H1   92   3.190   1.163  11.174  0.6254  0.0735 -1.2996
    6MPD2    H2   93   2.997   1.543  11.107 -2.0403 -0.1773 -0.6776
    6MPD2    H3   94   3.185   1.420  11.185  0.9020 -1.0806  1.5795
    6MPD2     N   95   2.987   1.018  11.049  0.5903  0.5938  0.0910
    6MPD2    H5   96   2.921   0.984  10.980 -0.7980 -1.4766  2.4184
    6MPD2    N1   97   2.781   1.460  11.002  0.3851 -0.0588 -0.0127
    6MPD2    H7   98   2.797   1.560  11.010  1.9956 -0.2253 -1.1566
    7TCq1    O1   99   4.735   0.474  13.574 -0.5011  0.0781 -0.3636
    7TCq1    C1  100   0.079   0.529  13.489 -0.2711 -0.4687  0.2303
    7TCq1    O2  101   0.123   0.640  13.509 -0.3296  0.3414  0.8572
    7TCq1    C2  102   0.076   0.466  13.355 -0.6765 -0.1713 -0.2387
    7TCq1    C3  103   0.060   0.551  13.246  1.0553  0.8211  0.0052
    7TCq1    C4  104   0.053   0.492  13.120  0.8039  0.2670  0.3666
    7TCq1    C5  105   0.060   0.359  13.108 -0.7060  0.0928  0.8092
    7TCq1    C6  106   0.070   0.272  13.218 -0.5504  0.0691 -0.8985
    7TCq1    C7  107   0.093   0.327  13.339 -0.3375 -0.3375 -0.2337
    7TCq1    C8  108   0.088   0.130  13.199  0.0006 -0.7186  0.1955
    7TCq1    O4  109   0.073   0.058  13.297 -0.5252  0.4818 -0.7777
    7TCq1    C9  110   0.043   0.579  13.006 -0.4867  0.0754  0.3926
    7TCq1    O5  111   0.061   0.526  12.895 -0.1807  0.2239  0.3459
    7TCq1    O6  112   0.011   0.702  13.032 -0.3014 -0.1185  0.1495
    7TCq1    H1  113   4.681   0.397  13.548 -0.2579 -0.4802  0.7675
    7TCq1    H2  114   0.058   0.658  13.262 -0.6383  1.2340 -3.0694
    7TCq1    H3  115   0.060   0.327  13.004 -0.2450  0.1056  0.8069
    7TCq1    H4  116   0.106   0.274  13.433 -3.1024 -1.8300 -0.6866
    8MPD2     C  117   0.292   4.490  12.929 -0.3999 -0.2749 -0.2205
    8MPD2    C1  118   0.267   4.488  13.065  0.0807  0.2838 -0.2371
    8MPD2    C2  119   0.216   4.610  13.124 -0.4742 -0.3328 -0.4265
    8MPD2    C3  120   0.206   4.724  13.038 -0.1534 -0.0318 -1.0809
    8MPD2    C4  121   0.236   4.712  12.906  0.6324 -0.1838 -0.2144
    8MPD2    C5  122   0.281   4.599  12.849 -0.5311  0.4163 -0.6316
    8MPD2     H  123   0.201   4.604  13.231 -0.4416 -1.8444 -0.5170
    8MPD2    H1  124   0.224   0.061  12.845  1.6371  1.1898  1.5636
    8MPD2    H2  125   0.333   4.399  12.885 -0.3641 -0.4896  0.2503
    8MPD2    H3  126   0.316   4.593  12.747 -1.5218  1.4640 -1.0324
    8MPD2     N  127   0.148   0.110  13.083 -0.1791  0.1268 -0.5677
    8MPD2    H5  128   0.149   0.188  13.018  0.2334  0.6686  0.0897
    8MPD2    N1  129   0.276   4.358  13.132 -0.1852 -0.0451 -0.1985
    8MPD2    H7  130   0.313   4.285  13.071 -0.4705 -1.5744  1.4266
    9TMC1    C1  131   2.484   4.374  11.634  0.3075 -0.2882  0.1389
    9TMC1    C2  132   2.358   4.424  11.633 -0.2757  0.1044  0.5864
    9TMC1    C3  133   2.336   4.534  11.551 -0.4436 -0.2743 -0.2730
    9TMC1    C4  134   2.585   4.439  11.575 -0.6708 -0.1225 -0.7204
    9TMC1    C5  135   2.560   4.565  11.523  0.4136 -0.4827 -0.0082
    9TMC1    C6  136   2.435   4.613  11.501  0.3325 -0.5066 -1.3188
    9TMC1     C  137   2.520   4.279  11.739  0.1792  0.7694 -0.1854
    9TMC1     O  138   2.635   4.283  11.776  0.8958  0.1739 -0.8348
    9TMC1     H  139   2.276   4.373  11.682 -0.6890 -0.2605 -0.4765
    9TMC1    H1  140   2.682   4.391  11.579  0.4676  2.1221 -1.3445
    9TMC1    H2  141   2.422   4.705  11.445  2.6947  1.3191  1.1688
    9TMC1    C7  142   2.660   4.619  11.432  0.3181 -0.1577 -0.1950
    9TMC1    C8  143   2.208   4.599  11.576  0.1438  0.9011 -0.1146
    9TMC1    O1  144   2.632   4.679  11.330  1.1076 -0.1764  0.4219
    9TMC1    O2  145   2.134   4.566  11.663 -0.4814  0.2099  0.3054
    9TMC1    O3  146   2.779   4.569  11.460  0.1812 -0.3587  0.5095
    9TMC1    H3  147   2.785   4.529  11.549 -0.1179  0.1094  0.7384
    9TMC1    O5  148   2.177   4.686  11.477 -0.7151 -0.8301  0.2405
    9TMC1    H5  149   2.249   4.697  11.411 -0.0541 -1.0723  0.9072
   10MPD2     C  150   2.542   4.075  11.952  0.6128 -0.6205 -0.3061
   10MPD2    C1  151   2.424   4.106  11.886 -0.1548  0.1256  0.2428
   10MPD2    C2  152   2.310   4.037  11.923  0.1013 -0.1546 -0.3268
   10MPD2    C3  153   2.316   3.943  12.023  0.4823 -0.0454  0.2978
   10MPD2    C4  154   2.434   3.912  12.084  0.3940 -0.8879 -0.6483
   10MPD2    C5  155   2.548   3.978  12.050  0.7454  0.2438  0.4128
   10MPD2     H  156   2.219   4.061  11.869 -0.6052  2.5895  2.0940
   10MPD2    H1  157   2.439   3.832  12.156 -0.2091 -1.4898 -1.2763
   10MPD2    H2  158   2.634   4.122  11.920 -0.5863  0.9439 -1.4256
   10MPD2    H3  159   2.644   3.960  12.097  0.3586  1.4338  1.6461
   10MPD2     N  160   2.208   3.861  12.048  0.2873  0.0652  0.2298
   10MPD2    H5  161   2.230   3.788  12.114 -0.4215 -0.7800 -0.4692
   10MPD2    N1  162   2.414   4.202  11.785  0.4200 -0.1583  0.1712
   10MPD2    H7  163   2.319   4.222  11.755  1.0213  1.9133 -0.3300
   11TCq1    O1  164   3.328   3.695  14.680  0.4643  0.0121 -0.2952
   11TCq1    C1  165   3.448   3.649  14.638 -0.2567 -1.0867 -0.2013
   11TCq1    O2  166   3.554   3.702  14.675  0.4934  0.4886 -0.3837
   11TCq1    C2  167   3.414   3.611  14.504  0.0833  0.8263 -0.7152
   11TCq1    C3  168   3.500   3.645  14.401  0.1099  0.4899  0.1861
   11TCq1    C4  169   3.450   3.627  14.275  0.3761 -0.2419 -0.5252
   11TCq1    C5  170   3.333   3.560  14.249 -0.4894 -0.5033 -0.0481
   11TCq1    C6  171   3.262   3.511  14.359  0.2582  0.0706  0.0196
   11TCq1    C7  172   3.291   3.549  14.487 -0.1673 -0.4029  0.0576
   11TCq1    C8  173   3.188   3.393  14.343  0.2055  0.1957 -0.6350
   11TCq1    O4  174   3.161   3.334  14.446  0.1215 -0.6179  0.1542
   11TCq1    C9  175   3.531   3.666  14.158  0.2488  0.4674 -0.0514
   11TCq1    O5  176   3.478   3.640  14.046 -0.2931  0.3459 -0.6861
   11TCq1    O6  177   3.638   3.735  14.170 -0.2995 -0.5248  0.6246
   11TCq1    H1  178   3.256   3.692  14.613  0.1443 -0.0924  0.0548
   11TCq1    H2  179   3.591   3.704  14.406  0.2774  0.4398 -2.0520
   11TCq1    H3  180   3.300   3.552  14.146  1.3890  0.4663 -0.7232
   11TCq1    H4  181   3.251   3.494  14.571 -0.3963  0.5738  0.5808
   12MPD2     C  182   3.160   3.120  14.231 -0.1865  0.3402 -0.3923
   12MPD2    C1  183   3.145   3.233  14.156  0.6222  0.4481  0.0090
   12MPD2    C2  184   3.110   3.211  14.023  1.2698 -0.5779 -0.5796
   12MPD2    C3  185   3.084   3.086  13.976 -0.0058 -0.4475 -0.3419
   12MPD2    C4  186   3.086   2.976  14.059  0.1735  0.3865  0.0837
   12MPD2    C5  187   3.126   2.993  14.190  0.1091 -0.3201  0.3922
   12MPD2     H  188   3.108   3.297  13.958  0.2554 -1.3003 -1.4998
   12MPD2    H1  189   3.052   2.882  14.017 -1.3175  0.3433  1.3815
   12MPD2    H2  190   3.206   3.126  14.329 -0.5987  0.1405 -0.1859
   12MPD2    H3  191   3.129   2.911  14.260 -1.6534 -0.3715  0.4064
   12MPD2     N  192   3.058   3.066  13.840 -0.9540 -0.6852 -0.1093
   12MPD2    H5  193   3.036   2.974  13.803  2.1167 -0.9681 -1.2260
   12MPD2    N1  194   3.177   3.362  14.211  1.0874  0.4860 -0.3055
   12MPD2    H7  195   3.173   3.442  14.149  2.1135  0.2682 -0.6466
   13TCq1    O1  196   3.211   4.432  11.004 -0.2323 -0.6185  0.3728
   13TCq1    C1  197   3.104   4.349  11.012  0.5604 -0.0366 -0.0931
   13TCq1    O2  198   3.005   4.352  10.941  0.3171  0.6458  0.0061
   13TCq1    C2  199   3.096   4.307  11.153  0.2495  0.5798 -0.0013
   13TCq1    C3  200   3.186   4.339  11.253  0.3301  0.2127 -0.2322
   13TCq1    C4  201   3.171   4.295  11.382  0.1978 -0.7581 -0.2622
   13TCq1    C5  202   3.058   4.227  11.422  0.4047  0.4193 -0.4178
   13TCq1    C6  203   2.959   4.215  11.329 -0.7375  0.6142  0.1053
   13TCq1    C7  204   2.978   4.257  11.197  0.5026  0.2208 -0.1710
   13TCq1    C8  205   2.827   4.160  11.365 -0.0591 -0.3655 -0.0516
   13TCq1    O4  206   2.744   4.162  11.275 -1.0756 -0.5352 -0.1630
   13TCq1    C9  207   3.271   4.324  11.484  0.0914 -0.6098 -0.2982
   13TCq1    O5  208   3.363   4.403  11.452  0.1981  0.1011 -0.2723
   13TCq1    O6  209   3.242   4.289  11.599 -0.3448  0.1504 -0.2943
   13TCq1    H1  210   3.284   4.395  11.059  0.7470  0.3655 -0.2612
   13TCq1    H2  211   3.277   4.394  11.230  0.5360  0.5017  1.2680
   13TCq1    H3  212   3.043   4.197  11.525  0.1507  0.5181 -0.4247
   13TCq1    H4  213   2.896   4.264  11.127  1.4462  0.3979 -1.2621
   14MPD2     C  214   2.775   3.957  11.656  0.1509  0.0364 -0.6945
   14MPD2    C1  215   2.729   4.036  11.551 -0.0225 -0.1549  0.4824
   14MPD2    C2  216   2.599   4.039  11.518  0.4369 -0.3128 -0.3703
   14MPD2    C3  217   2.508   3.955  11.581 -0.6844  0.1517 -0.7778
   14MPD2    C4  218   2.550   3.882  11.691 -0.5851 -0.1638 -0.1518
   14MPD2    C5  219   2.681   3.891  11.729  0.3565  0.0722  0.4345
   14MPD2     H  220   2.579   4.106  11.435  0.3392  2.4072  1.8601
   14MPD2    H1  221   2.488   3.828  11.761 -0.3281  1.5417  1.3983
   14MPD2    H2  222   2.881   3.974  11.674  0.2462  0.5645 -1.7694
   14MPD2    H3  223   2.709   3.845  11.824 -0.2330 -0.3939  0.3836
   14MPD2     N  224   2.376   3.966  11.542 -0.2823 -0.1558  0.4220
   14MPD2    H5  225   2.345   4.042  11.482 -0.2047 -0.2456  0.2671
   14MPD2    N1  226   2.828   4.111  11.491  0.3331  0.9210 -0.9113
   14MPD2    H7  227   2.917   4.115  11.539 -0.3418  1.4215  0.2757
   15TCq1    O1  228   3.668   1.504   1.769  0.1635  0.3858 -0.7903
   15TCq1    C1  229   3.737   1.443   1.665  0.6244 -0.1389  0.1565
   15TCq1    O2  230   3.684   1.410   1.562 -0.1814 -0.2365  0.2363
   15TCq1    C2  231   3.870   1.497   1.670  0.0556 -0.0340 -0.6504
   15TCq1    C3  232   3.917   1.524   1.790  0.1971 -0.4458  0.5009
   15TCq1    C4  233   4.037   1.571   1.803 -0.2744  0.1092 -0.1122
   15TCq1    C5  234   4.102   1.633   1.697  0.5001 -0.4191 -0.2817
   15TCq1    C6  235   4.044   1.623   1.573 -0.2665 -0.4340 -0.2923
   15TCq1    C7  236   3.930   1.547   1.555 -0.7388  0.3590 -0.9043
   15TCq1    C8  237   4.130   1.626   1.460  0.0518 -0.8905 -0.3138
   15TCq1    O4  238   4.247   1.638   1.490 -0.1506  0.3696  0.2802
   15TCq1    C9  239   4.104   1.572   1.933  0.0971  0.7869 -0.0187
   15TCq1    O5  240   4.230   1.584   1.937 -0.5255 -0.1120 -0.1803
   15TCq1    O6  241   4.029   1.553   2.031  0.5578 -0.1442  0.4623
   15TCq1    H1  242   3.719   1.547   1.840  0.4254  1.4082 -1.5947
   15TCq1    H2  243   3.870   1.478   1.876 -0.2625  1.7137  1.4032
   15TCq1    H3  244   4.197   1.681   1.717  0.3027 -0.7467  1.3883
   15TCq1    H4  245   3.874   1.543   1.462 -1.1778 -0.9450 -0.5887
   16MPD2     C  246   4.044   1.594   1.097  0.3893  0.0326 -0.3616
   16MPD2    C1  247   4.123   1.601   1.211 -0.0462 -0.2485  0.2447
   16MPD2    C2  248   4.264   1.582   1.195 -0.1050  0.1336 -0.3048
   16MPD2    C3  249   4.314   1.561   1.067 -0.4723  0.4000  0.1249
   16MPD2    C4  250   4.224   1.548   0.962 -0.1268 -0.5640 -0.2407
   16MPD2    C5  251   4.092   1.565   0.975 -0.4874  0.8287 -0.4572
   16MPD2     H  252   4.341   1.600   1.269  0.8487 -1.6618 -0.8708
   16MPD2    H1  253   4.249   1.517   0.862 -1.6907  0.7655 -1.0459
   16MPD2    H2  254   3.939   1.623   1.098  0.6442  0.9580 -0.2976
   16MPD2    H3  255   4.027   1.548   0.891 -0.2177 -0.0412 -0.4961
   16MPD2     N  256   4.454   1.545   1.061 -0.1273  0.8071 -0.1236
   16MPD2    H5  257   4.513   1.561   1.141 -1.6694 -0.0430  1.1910
   16MPD2    N1  258   4.060   1.618   1.339 -0.0317 -0.0187 -0.1602
   16MPD2    H7  259   3.960   1.630   1.341 -0.1010 -1.4918  4.5066
   17TMC1    C1  260   1.612   2.631  11.185  0.9678 -0.2176 -0.6785
   17TMC1    C2  261   1.540   2.542  11.114  0.4403 -0.1676 -0.0761
   17TMC1    C3  262   1.445   2.585  11.026 -0.1422 -0.4941 -0.5744
   17TMC1    C4  263   1.594   2.767  11.186 -0.9595 -0.5370 -0.6785
   17TMC1    C5  264   1.495   2.809  11.091  0.3431 -0.0128  0.0237
   17TMC1    C6  265   1.430   2.719  11.012 -0.6375 -0.2058  1.0306
   17TMC1     C  266   1.708   2.570  11.278 -0.8952 -0.2065  0.2346
   17TMC1     O  267   1.677   2.472  11.345 -0.0348  0.2553  0.1861
   17TMC1     H  268   1.556   2.437  11.132 -1.2842 -0.4368 -0.0406
   17TMC1    H1  269   1.640   2.837  11.254 -0.3342 -0.1232 -1.5379
   17TMC1    H2  270   1.365   2.760  10.936 -0.3120  1.5580  1.7097
   17TMC1    C7  271   1.514   2.942  11.028  0.0824 -0.2339  0.1596
   17TMC1    C8  272   1.386   2.503  10.929 -0.1049  0.0722 -0.1286
   17TMC1    O1  273   1.435   2.976  10.944 -0.1044  0.1626 -0.1478
   17TMC1    O2  274   1.343   2.555  10.826  0.0812 -0.2471 -0.7004
   17TMC1    O3  275   1.646   2.924  10.992  0.5512  0.7406  0.5706
   17TMC1    H3  276   1.709   2.921  11.067 -1.1983 -0.4700  1.9821
   17TMC1    O5  277   1.348   2.383  10.977 -0.1652  0.2329 -0.3526
   17TMC1    H5  278   1.360   2.380  11.075  0.5047  0.9898 -0.4164
   18MPD2     C  279   1.952   2.494  11.426 -0.0711  0.6783  0.5374
   18MPD2    C1  280   1.937   2.609  11.351 -0.2918 -0.2383 -0.0075
   18MPD2    C2  281   2.043   2.695  11.338  0.7890  0.1317 -0.3016
   18MPD2    C3  282   2.172   2.666  11.399 -0.5451  0.2426 -0.1275
   18MPD2    C4  283   2.186   2.551  11.475 -0.4727 -0.4581  0.4576
   18MPD2    C5  284   2.076   2.463  11.480 -0.4600 -0.0580 -0.8778
   18MPD2     H  285   2.032   2.786  11.281 -1.2076 -0.0970 -0.2941
   18MPD2    H1  286   2.271   2.512  11.529 -1.8159 -3.1504  0.6206
   18MPD2    H2  287   1.870   2.424  11.435 -0.5042  1.1353  0.1525
   18MPD2    H3  288   2.095   2.372  11.536  0.8101  0.0334 -1.1589
   18MPD2     N  289   2.286   2.754  11.368  0.4761 -0.3384  0.6291
   18MPD2    H5  290   2.377   2.721  11.398  0.6441  0.2864  0.7972
   18MPD2    N1  291   1.820   2.651  11.284  0.3989  0.3151  0.0530
   18MPD2    H7  292   1.815   2.742  11.240  1.3031  0.0325 -0.6142
   19TMC2    C1  293   4.545   3.153  13.748 -0.6650  0.8880 -0.1216
   19TMC2    C2  294   4.511   3.219  13.636  0.3224 -0.2089 -0.3865
   19TMC2    C3  295   4.383   3.264  13.617  0.1870  0.2767  0.1292
   19TMC2    C4  296   4.444   3.127  13.843 -0.6838 -0.7654 -0.0088
   19TMC2    C5  297   4.318   3.184  13.821 -0.2733 -0.1918 -0.3450
   19TMC2    C6  298   4.286   3.252  13.709  0.4923  0.3937 -0.0213
   19TMC2     C  299   4.679   3.108  13.763  0.4625  0.5580  0.2952
   19TMC2     O  300   0.014   3.125  13.664 -0.0870  0.5707 -0.3766
   19TMC2     H  301   4.586   3.233  13.558 -0.2997  2.0287 -0.6078
   19TMC2    H1  302   4.477   3.075  13.932 -0.1475 -0.6616 -0.1465
   19TMC2    H2  303   4.190   3.293  13.679 -0.1046 -0.3778  0.8194
   19TMC2    C7  304   4.213   3.163  13.925 -0.0686  0.6932 -0.3060
   19TMC2    C8  305   4.354   3.339  13.491 -0.3038  0.2437 -0.6502
   19TMC2    O1  306   4.241   3.071  14.003  0.0784 -0.5694  0.4070
   19TMC2    O2  307   4.253   3.409  13.493  0.0469 -0.0888 -0.2559
   19TMC2    O5  308   4.406   3.270  13.389 -0.4347 -0.5114  0.8652
   19TMC2    H5  309   4.468   3.199  13.415  0.1116 -0.5684 -0.5959
   20MPD2     C  310   0.206   3.017  13.865 -0.4408  0.1699  0.1911
   20MPD2    C1  311   0.089   3.028  13.941  0.6695  0.1663 -0.2581
   20MPD2    C2  312   0.099   3.016  14.083  0.1347  0.1947 -0.1123
   20MPD2    C3  313   0.213   2.975  14.141 -0.4124  0.7677  0.2132
   20MPD2    C4  314   0.319   2.947  14.062  0.0034  0.2984  0.0321
   20MPD2    C5  315   0.317   2.971  13.928  0.4918  0.2920  0.5647
   20MPD2     H  316   0.005   3.027  14.136  0.4646 -1.2428  0.7637
   20MPD2    H1  317   0.406   2.896  14.100 -1.2787 -0.7502  1.5755
   20MPD2    H2  318   0.204   3.015  13.757  0.5768  1.1584  0.1585
   20MPD2    H3  319   0.408   2.957  13.871  0.5784  0.0196  0.7733
   20MPD2     N  320   0.215   2.940  14.280 -0.3568  0.4242 -0.1001
   20MPD2    H5  321   0.304   2.913  14.321 -1.0303 -2.3558 -0.4761
   20MPD2    N1  322   4.703   3.062  13.887  0.0343  0.2895  0.2128
   20MPD2    H7  323   4.621   3.069  13.945 -0.1521  3.1522 -0.3998
   21TMC2    C1  324   2.213   3.335  14.422 -0.9127 -0.1922  0.3670
   21TMC2    C2  325   2.276   3.230  14.479  0.6305  0.3858 -0.3518
   21TMC2    C3  326   2.301   3.231  14.608  0.1127  0.0461  0.6581
   21TMC2    C4  327   2.191   3.454  14.490 -0.0944  0.1639 -0.4738
   21TMC2    C5  328   2.208   3.444  14.627 -0.7711  0.1675 -0.5333
   21TMC2    C6  329   2.277   3.340  14.684  0.0799  0.0875  0.6560
   21TMC2     C  330   2.215   3.339  14.276  0.3341  0.1906  0.5570
   21TMC2     O  331   2.116   3.302  14.218  0.1090 -0.0060  0.0468
   21TMC2     H  332   2.300   3.148  14.412  0.3865 -0.7532  0.9639
   21TMC2    H1  333   2.148   3.542  14.445 -1.1749 -0.4358 -0.6315
   21TMC2    H2  334   2.286   3.335  14.792 -1.0192 -1.3990  0.6863
   21TMC2    C7  335   2.198   3.566  14.710 -0.2531  0.6846 -0.3657
   21TMC2    C8  336   2.382   3.132  14.670  0.4136  0.4045  0.3250
   21TMC2    O1  337   2.274   3.575  14.807  0.9228 -0.6186  0.0110
   21TMC2    O2  338   2.425   3.141  14.784  0.4620  0.4339  0.2188
   21TMC2    O5  339   2.441   3.057  14.576 -0.4242  0.0024 -0.5371
   21TMC2    H5  340   2.415   3.075  14.483 -1.4873  0.0494 -0.2324
   22MPD2     C  341   2.527   3.350  13.884  0.6222 -0.6640  0.4351
   22MPD2    C1  342   2.589   3.414  13.986  0.6052  0.2559 -0.6172
   22MPD2    C2  343   2.524   3.419  14.106  0.5860  0.0495 -0.0338
   22MPD2    C3  344   2.398   3.365  14.122  0.6326 -0.7865 -0.2850
   22MPD2    C4  345   2.328   3.313  14.015 -0.3496  0.1664 -0.0220
   22MPD2    C5  346   2.397   3.306  13.900  0.6348  0.9290  0.0187
   22MPD2     H  347   2.552   3.466  14.200 -0.6374  0.6181  0.0539
   22MPD2    H1  348   2.230   3.269  14.026 -0.6569  1.0561  0.8654
   22MPD2    H2  349   2.576   3.345  13.788  0.9166  1.7361  0.4634
   22MPD2    H3  350   2.351   3.263  13.811  1.9468  0.8117 -0.5986
   22MPD2     N  351   2.342   3.374  14.246  0.0493 -0.2460 -0.1107
   22MPD2    H5  352   2.401   3.406  14.322 -1.1460  0.7290  0.4201
   22MPD2    N1  353   2.718   3.465  13.966 -0.2304 -1.1389 -0.1385
   22MPD2    H7  354   2.738   3.465  13.866  0.2826 -0.0554 -0.0327
   23TMC2    C1  355   3.385   4.731  14.746  0.4583  0.0364 -0.7306
   23TMC2    C2  356   3.368   0.012  14.607  0.1363  0.0387  0.4123
   23TMC2    C3  357   3.238   0.003  14.561 -0.3301  0.5390 -0.1917
   23TMC2    C4  358   3.279   4.710  14.834  0.0889  0.1321 -0.0690
   23TMC2    C5  359   3.154   4.705  14.770  0.2519  0.6143 -0.4033
   23TMC2    C6  360   3.132   4.734  14.640 -0.1945 -0.8846 -0.5093
   23TMC2     C  361   3.521   4.728  14.800 -0.2815  0.7624  0.2003
   23TMC2     O  362   3.527   4.722  14.923  0.3078 -0.3999 -0.2216
   23TMC2     H  363   3.447   0.002  14.533 -0.3497 -0.8101  0.0043
   23TMC2    H1  364   3.285   4.691  14.940 -2.0562  2.0335  0.3934
   23TMC2    H2  365   3.029   0.008  14.607 -0.1463  1.8375  0.5304
   23TMC2    C7  366   3.075   4.603  14.823  0.8996  0.3879 -0.3940
   23TMC2    C8  367   3.204   0.039  14.429 -0.5266 -0.1806  0.0553
   23TMC2    O1  368   3.131   4.529  14.899  0.0026  0.9911  0.5110
   23TMC2    O2  369   3.103   0.010  14.376 -0.0734  0.4124  1.1096
   23TMC2    O5  370   3.247   0.169  14.422  0.0510  0.0591  0.3351
   23TMC2    H5  371   3.323   0.185  14.483  0.5679  1.6212 -0.7344
   24MPD2     C  372   3.964   4.481  14.787  0.3468  0.3479  0.5007
   24MPD2    C1  373   3.865   4.481  14.888 -0.1442 -0.3937  0.7057
   24MPD2    C2  374   3.756   4.560  14.868 -0.4073  0.2708  0.1556
   24MPD2    C3  375   3.742   4.629  14.751 -0.1971  0.3475  0.1744
   24MPD2    C4  376   3.842   4.630  14.649 -0.5269 -0.6231 -0.1145
   24MPD2    C5  377   3.951   4.552  14.670 -0.3157  0.2767 -0.8486
   24MPD2     H  378   3.672   4.563  14.938 -0.3906 -1.3516  0.2435
   24MPD2    H1  379   3.839   4.676  14.551  1.8239 -0.9232 -0.3157
   24MPD2    H2  380   4.052   4.422  14.808 -0.0770 -1.0062 -1.5675
   24MPD2    H3  381   4.026   4.556  14.592 -0.9375 -0.4522 -1.4810
   24MPD2     N  382   3.624   4.700  14.712 -0.0143 -0.1112 -0.0315
   24MPD2    H5  383   3.625   4.713  14.612  0.5976  2.4061  0.2958
   24MPD2    N1  384   3.855   4.400  15.003 -0.3960 -0.4692  0.4865
   24MPD2    H7  385   3.768   4.407  15.054 -1.0030  0.2780 -0.6477
   25TMC2    C1  386   1.883   2.587  12.215  0.4628 -0.4634  0.6023
   25TMC2    C2  387   2.006   2.632  12.230  0.2097  0.3257 -0.3933
   25TMC2    C3  388   2.056   2.603  12.356 -0.6879  0.5281  0.4029
   25TMC2    C4  389   1.808   2.530  12.318  0.0524 -0.0514 -0.1977
   25TMC2    C5  390   1.852   2.520  12.447 -0.2494 -0.1757 -0.2676
   25TMC2    C6  391   1.982   2.551  12.461  0.2695  0.4218  0.0995
   25TMC2     C  392   1.819   2.612  12.087 -0.4965 -0.0779 -0.1452
   25TMC2     O  393   1.847   2.718  12.038 -0.1268 -0.6042  0.6370
   25TMC2     H  394   2.062   2.683  12.152 -0.2820  1.0117 -0.2941
   25TMC2    H1  395   1.707   2.500  12.293 -0.4364  0.0982  1.6495
   25TMC2    H2  396   2.031   2.548  12.557  0.5550 -0.5939 -0.0743
   25TMC2    C7  397   1.758   2.510  12.563 -0.4331  0.2472 -0.2341
   25TMC2    C8  398   2.198   2.589  12.379 -0.5050  0.2829 -0.3858
   25TMC2    O1  399   1.800   2.478  12.678 -0.0977  0.2517 -0.2764
   25TMC2    O2  400   2.252   2.508  12.455  0.2201 -0.2806 -0.0708
   25TMC2    O5  401   2.257   2.693  12.323 -0.5261  0.1457 -0.1227
   25TMC2    H5  402   2.200   2.747  12.263 -2.1736 -1.4269  0.0067
   26MPD2     C  403   1.565   2.500  11.662  0.3684 -0.1697 -0.3442
   26MPD2    C1  404   1.593   2.382  11.726 -0.0687 -0.6551 -0.4701
   26MPD2    C2  405   1.666   2.380  11.844  1.0470  0.6289  0.1166
   26MPD2    C3  406   1.697   2.504  11.903 -0.3424  0.3374 -0.3257
   26MPD2    C4  407   1.647   2.613  11.849 -0.1260 -0.0191  0.2350
   26MPD2    C5  408   1.591   2.614  11.724  0.5117  0.2433 -0.5741
   26MPD2     H  409   1.698   2.286  11.885  2.6301  2.0269  2.0352
   26MPD2    H1  410   1.677   2.707  11.896 -0.7607  1.0311 -1.4441
   26MPD2    H2  411   1.515   2.499  11.566 -0.4092 -0.6224  0.0720
   26MPD2    H3  412   1.558   2.707  11.679 -1.3403 -0.7762 -1.3655
   26MPD2     N  413   1.764   2.502  12.024  0.3084 -0.0978  0.2592
   26MPD2    H5  414   1.782   2.413  12.069  1.8839  0.0080 -0.1469
   26MPD2    N1  415   1.557   2.264  11.656 -0.3839  0.0757 -0.0128
   26MPD2    H7  416   1.508   2.273  11.568  2.0517 -3.5603 -1.7756
   27TMC2    C1  417   0.990   4.567  12.202 -0.9889  0.1654 -0.2462
   27TMC2    C2  418   0.976   4.686  12.131 -0.2612  0.4523  0.1366
   27TMC2    C3  419   1.043   0.043  12.194 -0.5543  0.7067  0.1245
   27TMC2    C4  420   1.037   4.550  12.329  0.5885  0.5893  0.7233
   27TMC2    C5  421   1.095   4.657  12.388  0.0361 -0.4689 -0.1154
   27TMC2    C6  422   1.099   0.034  12.315  0.6941 -0.4430  0.7853
   27TMC2     C  423   0.894   4.470  12.146  0.3101 -0.0908  0.2052
   27TMC2     O  424   0.825   4.507  12.051 -0.3033  0.5074 -0.0788
   27TMC2     H  425   0.952   4.689  12.025  1.0999  0.1460 -0.1758
   27TMC2    H1  426   1.048   4.452  12.373 -1.0180  0.7680  1.4964
   27TMC2    H2  427   1.152   0.120  12.357  0.2397  1.2960 -2.1935
   27TMC2    C7  428   1.089   4.649  12.530  0.3474  0.8309 -0.3280
   27TMC2    C8  429   1.080   0.149  12.116  0.3516  0.4661  0.4339
   27TMC2    O1  430   1.134   4.553  12.591 -0.2172 -0.0428  0.0491
   27TMC2    O2  431   1.186   0.204  12.134  0.8835  0.2507 -0.3297
   27TMC2    O5  432   0.977   0.183  12.031  0.5143  0.5482  0.3303
   27TMC2    H5  433   0.897   0.127  12.023 -0.2634  1.6876  0.1208
   28MPD2     C  434   0.602   4.059  12.193  0.6335 -0.1783  1.0046
   28MPD2    C1  435   0.687   4.070  12.301  0.9243  0.0875  0.6491
   28MPD2    C2  436   0.788   4.163  12.298 -0.5517 -0.4487 -0.1137
   28MPD2    C3  437   0.802   4.247  12.191 -1.1028 -0.2076 -0.3664
   28MPD2    C4  438   0.717   4.238  12.084 -0.4030  0.4778 -0.0418
   28MPD2    C5  439   0.620   4.147  12.087  0.4561  0.2485  0.2282
   28MPD2     H  440   0.858   4.175  12.380 -0.8269  1.4299 -0.1532
   28MPD2    H1  441   0.715   4.307  12.000  0.0755  0.5629  0.0171
   28MPD2    H2  442   0.521   3.990  12.176 -1.1318  2.3387 -0.8053
   28MPD2    H3  443   0.555   4.144  12.000  0.0032  0.3119  0.5617
   28MPD2     N  444   0.891   4.351  12.215 -0.3658 -0.6039  0.1391
   28MPD2    H5  445   0.958   4.336  12.290  2.9054  0.3513 -2.5649
   28MPD2    N1  446   0.650   3.990  12.414  0.2493  0.1243 -0.3986
   28MPD2    H7  447   0.562   3.940  12.405  0.8760 -1.2092  1.0248
   29TMC2    C1  448   0.921   2.055  14.455  0.5638  0.5194  0.8013
   29TMC2    C2  449   0.850   2.129  14.546  0.9112 -0.1859 -0.1848
   29TMC2    C3  450   0.903   2.247  14.587  0.4310  0.8587 -0.4777
   29TMC2    C4  451   1.043   2.091  14.403 -0.5604 -0.3618  0.5222
   29TMC2    C5  452   1.085   2.214  14.449  0.5255 -0.1400 -0.3850
   29TMC2    C6  453   1.019   2.296  14.539 -0.9254  0.0218 -0.6529
   29TMC2     C  454   0.868   1.924  14.415  0.7575 -0.2962 -0.4841
   29TMC2     O  455   0.940   1.824  14.418  0.2032 -0.1307 -0.0014
   29TMC2     H  456   0.765   2.081  14.593  1.0128  0.5400  0.7300
   29TMC2    H1  457   1.104   2.021  14.346 -2.9450 -1.9542 -0.0840
   29TMC2    H2  458   1.037   2.401  14.559 -0.6899 -0.3815  1.2277
   29TMC2    C7  459   1.196   2.275  14.374  0.1118 -0.4603 -0.2516
   29TMC2    C8  460   0.842   2.308  14.705 -1.2439 -0.3492 -0.8697
   29TMC2    O1  461   1.235   2.221  14.273 -0.2740  0.2360 -0.3406
   29TMC2    O2  462   0.725   2.293  14.728 -0.3826  0.3396 -0.4788
   29TMC2    O5  463   0.937   2.305  14.807  0.2478  0.1168 -0.4612
   29TMC2    H5  464   1.030   2.303  14.776 -0.1717 -1.3458 -1.6443
   30MPD2     C  465   0.471   1.625  14.343  0.7507 -0.2651 -0.7052
   30MPD2    C1  466   0.598   1.597  14.353  0.5532  0.5187  0.4073
   30MPD2    C2  467   0.686   1.701  14.373 -0.1660 -0.3162  0.5682
   30MPD2    C3  468   0.647   1.832  14.375 -0.4841  0.2709 -0.3383
   30MPD2    C4  469   0.517   1.863  14.348  0.6548  0.7338 -0.1143
   30MPD2    C5  470   0.432   1.759  14.340  0.2561 -0.4469 -0.1231
   30MPD2     H  471   0.788   1.672  14.393  0.2570  0.6025 -0.2260
   30MPD2    H1  472   0.483   1.966  14.355  1.9406  1.2727 -1.9866
   30MPD2    H2  473   0.394   1.549  14.334 -0.9539  1.4528 -0.6040
   30MPD2    H3  474   0.325   1.777  14.343  0.1992 -0.8569  0.3550
   30MPD2     N  475   0.735   1.941  14.391 -0.4279 -0.3284  0.2822
   30MPD2    H5  476   0.701   2.036  14.383  0.9082 -0.0575 -2.5080
   30MPD2    N1  477   0.647   1.463  14.353 -0.5739  0.0889 -0.1398
   30MPD2    H7  478   0.748   1.465  14.362 -0.5563  1.8385 -0.6243
   31TMC2    C1  479   2.859   0.453  15.669 -0.1611  0.2085  0.8132
   31TMC2    C2  480   2.722   0.454  15.657  0.5494  0.6776  0.1244
   31TMC2    C3  481   2.651   0.419  15.770  0.0285 -0.1407 -0.1776
   31TMC2    C4  482   2.909   0.462  15.799  0.1017 -0.2757  0.5853
   31TMC2    C5  483   2.830   0.441  15.914  0.4449  0.0397 -0.0532
   31TMC2    C6  484   2.698   0.401  15.897 -0.4270 -0.2561 -0.2026
   31TMC2     C  485   2.937   0.471  15.553  0.7557 -0.1444 -1.0902
   31TMC2     O  486   2.881   0.518  15.451  0.0019  0.2091  0.4751
   31TMC2     H  487   2.676   0.482  15.563  1.3599  0.0077 -0.4693
   31TMC2    H1  488   3.014   0.491  15.810 -0.1341  1.5996 -2.2027
   31TMC2    H2  489   2.633   0.399  15.984  0.8377  0.8928  0.7773
   31TMC2    C7  490   2.897   0.450  16.040  0.0806  0.1067 -0.3402
   31TMC2    C8  491   2.507   0.406  15.757  0.4015  0.2456 -0.1026
   31TMC2    O1  492   2.841   0.390  16.126 -0.4683 -0.6658  0.1298
   31TMC2    O2  493   2.433   0.406  15.851  0.4558  0.0051 -0.0906
   31TMC2    O5  494   2.483   0.334  15.645  0.3475  0.3287  0.1848
   31TMC2    H5  495   2.565   0.317  15.594  0.0344  0.0171 -0.2231
   32MPD2     C  496   3.389   0.459  15.319  0.4352 -0.4178  0.7987
   32MPD2    C1  497   3.279   0.527  15.286 -0.6169  0.1833 -0.8373
   32MPD2    C2  498   3.164   0.518  15.355  0.3252 -0.1525 -0.8240
   32MPD2    C3  499   3.161   0.422  15.468 -0.2055 -0.5870 -0.1226
   32MPD2    C4  500   3.271   0.341  15.484  0.1490 -0.2697  0.3907
   32MPD2    C5  501   3.393   0.364  15.417  0.2641 -0.1465  0.8094
   32MPD2     H  502   3.074   0.575  15.335  1.1330  0.6758 -2.0367
   32MPD2    H1  503   3.280   0.270  15.566  1.0159 -2.2192 -1.4124
   32MPD2    H2  504   3.479   0.476  15.262 -0.3999  1.7416  0.1455
   32MPD2    H3  505   3.487   0.312  15.435  0.1419 -0.4767  0.4985
   32MPD2     N  506   3.062   0.415  15.562 -0.0208  0.7926 -0.0251
   32MPD2    H5  507   3.086   0.364  15.647  1.8625 -0.7700 -1.5143
   32MPD2    N1  508   3.305   0.628  15.192  0.3156  0.3898  0.1408
   32MPD2    H7  509   3.402   0.655  15.177  0.3951  0.1248  0.1806
   33TMC2    C1  510   2.715   3.414  10.547 -0.0197 -0.0829 -0.1089
   33TMC2    C2  511   2.783   3.301  10.507 -0.0442  0.0756  0.2618
   33TMC2    C3  512   2.818   3.292  10.377 -0.5869  0.0671 -0.0995
   33TMC2    C4  513   2.689   3.516  10.466  0.0853 -0.0061  0.2858
   33TMC2    C5  514   2.718   3.498  10.336  0.7784  0.2781 -0.0179
   33TMC2    C6  515   2.783   3.388  10.290  1.1475  0.4791 -0.1641
   33TMC2     C  516   2.699   3.428  10.693  0.2234 -0.0941 -0.3048
   33TMC2     O  517   2.767   3.351  10.764 -0.1947  0.0276  0.6407
   33TMC2     H  518   2.795   3.219  10.577 -1.1801  0.2431  0.6538
   33TMC2    H1  519   2.659   3.609  10.512 -2.2282 -0.6317  0.0203
   33TMC2    H2  520   2.825   3.384  10.190 -0.9427 -2.2380 -0.9239
   33TMC2    C7  521   2.754   3.620  10.275 -0.1895  0.5095 -0.2813
   33TMC2    C8  522   2.892   3.172  10.337 -0.6828 -0.0360  0.5236
   33TMC2    O1  523   2.858   3.618  10.215 -0.3701  0.1648 -0.2313
   33TMC2    O2  524   2.973   3.178  10.244  0.4639 -0.4837  0.0780
   33TMC2    O5  525   2.804   3.067  10.354  0.3106 -0.3286 -0.2838
   33TMC2    H5  526   2.726   3.094  10.408  1.4503  0.3467  1.0257
   34MPD2     C  527   2.396   3.508  11.102  0.1362 -0.0491 -0.3317
   34MPD2    C1  528   2.493   3.410  11.081  0.1232  0.3335 -0.6975
   34MPD2    C2  529   2.570   3.412  10.960 -0.8162  0.3661  0.1073
   34MPD2    C3  530   2.546   3.513  10.865 -0.2837 -0.3039  0.1127
   34MPD2    C4  531   2.453   3.613  10.894 -0.0041  0.1093 -0.3440
   34MPD2    C5  532   2.384   3.607  11.014  0.2648  0.8529 -0.6555
   34MPD2     H  533   2.637   3.331  10.934 -0.4771  0.3601  0.9858
   34MPD2    H1  534   2.426   3.691  10.824 -1.6208 -0.5742 -0.4903
   34MPD2    H2  535   2.327   3.499  11.186  0.2633  0.4679 -0.1710
   34MPD2    H3  536   2.303   3.678  11.026 -1.5536 -1.0093 -1.9368
   34MPD2     N  537   2.602   3.514  10.736 -0.6011  0.5072  0.1704
   34MPD2    H5  538   2.572   3.587  10.672 -0.1700 -0.4612 -1.1340
   34MPD2    N1  539   2.507   3.311  11.180 -0.2953  1.2321  0.7192
   34MPD2    H7  540   2.445   3.323  11.259 -1.7058 -1.0350 -0.0543
   35TMC2    C1  541   3.767   4.462  11.759 -0.1573  0.0618 -0.6643
   35TMC2    C2  542   3.681   4.566  11.753  0.5693  0.1744  0.6846
   35TMC2    C3  543   3.552   4.536  11.722 -0.1803  0.3320  0.4439
   35TMC2    C4  544   3.737   4.325  11.744  0.1227 -0.7401 -0.0050
   35TMC2    C5  545   3.599   4.306  11.740  0.7138  0.1398  0.0462
   35TMC2    C6  546   3.508   4.408  11.729 -0.2855 -0.3116  0.0189
   35TMC2     C  547   3.898   4.506  11.805 -0.9558  0.1580  0.1727
   35TMC2     O  548   3.922   4.625  11.817 -0.2796  0.1036  0.2227
   35TMC2     H  549   3.711   4.670  11.742 -2.7392  1.2885  2.1592
   35TMC2    H1  550   3.806   4.242  11.749  0.8354 -0.0910  0.9516
   35TMC2    H2  551   3.401   4.392  11.715 -0.5688  0.7617  0.9276
   35TMC2    C7  552   3.563   4.160  11.778 -0.4903  0.0060  0.5760
   35TMC2    C8  553   3.465   4.644  11.681  0.5120  0.0698 -0.4776
   35TMC2    O1  554   3.645   4.096  11.844 -0.0526  0.1508 -0.6797
   35TMC2    O2  555   3.495   0.024  11.694 -0.0399  0.2604 -0.4963
   35TMC2    O5  556   3.357   4.601  11.620 -0.3060  0.5452 -0.0351
   35TMC2    H5  557   3.377   4.519  11.569 -0.0586  0.0682  0.8241
   36MPD2     C  558   4.378   4.416  11.957 -0.5869  0.0625 -0.4325
   36MPD2    C1  559   4.314   4.295  11.934  0.1874 -0.2883  0.0294
   36MPD2    C2  560   4.179   4.289  11.896 -0.4273 -0.6581 -0.0297
   36MPD2    C3  561   4.115   4.412  11.871  0.3179  0.6933 -0.1262
   36MPD2    C4  562   4.180   4.531  11.883  0.7192  0.5340  0.7604
   36MPD2    C5  563   4.312   4.535  11.925 -0.1030  0.2769  0.4008
   36MPD2     H  564   4.124   4.197  11.885 -1.3387  0.2235 -2.9631
   36MPD2    H1  565   4.143   4.629  11.854  2.3235  0.6619 -0.7812
   36MPD2    H2  566   4.480   4.423  11.991 -0.6894 -2.1036  0.3677
   36MPD2    H3  567   4.371   4.626  11.935  1.4586 -0.7472  0.4929
   36MPD2     N  568   3.981   4.404  11.828 -0.3876 -0.4908  0.2861
   36MPD2    H5  569   3.932   4.315  11.830 -0.2132 -0.6263 -2.0209
   36MPD2    N1  570   4.395   4.178  11.948  0.1551 -0.4558  0.1394
   36MPD2    H7  571   4.494   4.192  11.965  0.0955 -1.5386  1.3678
   37TMC2    C1  572   1.774   0.121  12.018  0.5375 -0.2856  0.6128
   37TMC2    C2  573   1.677   0.136  11.920 -0.7061  0.3512 -0.3294
   37TMC2    C3  574   1.719   0.164  11.790 -0.6399 -0.4961 -0.5023
   37TMC2    C4  575   1.905   0.139  11.997  0.0560 -1.3517 -0.0317
   37TMC2    C5  576   1.940   0.174  11.865 -0.3116 -0.4809  0.0890
   37TMC2    C6  577   1.851   0.181  11.764  0.2017  0.5669 -0.5335
   37TMC2     C  578   1.729   0.066  12.148 -0.4361 -0.3002 -0.2482
   37TMC2     O  579   1.797   4.719  12.196 -0.2895 -0.0777  0.4365
   37TMC2     H  580   1.574   0.117  11.947 -0.5496 -1.8508 -1.3552
   37TMC2    H1  581   1.975   0.148  12.079  1.0294  1.2974 -1.1385
   37TMC2    H2  582   1.878   0.228  11.670 -0.7350 -0.1901 -1.1808
   37TMC2    C7  583   2.085   0.212  11.846 -0.4609  0.5019  1.1403
   37TMC2    C8  584   1.630   0.172  11.677 -0.2495  0.4621  0.6805
   37TMC2    O1  585   2.140   0.252  11.946  0.5659  0.3156  0.4889
   37TMC2    O2  586   1.511   0.199  11.702 -0.0335  0.4022  0.5360
   37TMC2    O5  587   1.676   0.076  11.586  0.2879 -0.0368  0.3394
   37TMC2    H5  588   1.755   0.028  11.620 -0.7725 -1.0209  1.4004
   38MPD2     C  589   1.474   0.136  12.597 -0.4160  0.5027  0.2481
   38MPD2    C1  590   1.588   0.073  12.564 -0.1694 -0.0438 -0.1845
   38MPD2    C2  591   1.631   0.060  12.434 -0.3317 -0.0302  0.6149
   38MPD2    C3  592   1.566   0.126  12.333 -0.5244  0.4845 -0.9694
   38MPD2    C4  593   1.452   0.198  12.367 -0.3690 -0.2764 -0.6404
   38MPD2    C5  594   1.406   0.199  12.498  0.3922  0.1923 -0.8519
   38MPD2     H  595   1.721   0.001  12.422 -1.3512 -1.5474  0.2907
   38MPD2    H1  596   1.394   0.244  12.287 -1.2301  0.5639  0.4701
   38MPD2    H2  597   1.430   0.132  12.696  0.1438  0.9012  0.5121
   38MPD2    H3  598   1.312   0.244  12.528 -0.4432 -0.2988 -2.7552
   38MPD2     N  599   1.614   0.131  12.197 -0.2935  0.4885 -0.1253
   38MPD2    H5  600   1.571   0.198  12.135 -2.2464 -1.5331 -0.9436
   38MPD2    N1  601   1.676   0.010  12.657  0.5913 -0.3517  0.3980
   38MPD2    H7  602   1.768   4.730  12.620 -0.1475 -1.1142 -1.0790
   39TMC2    C1  603   0.101   1.223   1.637  0.1852  0.0221  0.2967
   39TMC2    C2  604   0.001   1.217   1.731  0.6434  0.1483 -0.8427
   39TMC2    C3  605   0.029   1.255   1.863 -0.3793 -0.3365 -0.2126
   39TMC2    C4  606   0.233   1.247   1.673 -0.6241 -0.1360 -0.5892
   39TMC2    C5  607   0.257   1.266   1.809  0.1223  0.1575  0.3326
   39TMC2    C6  608   0.159   1.267   1.907 -0.6491 -0.7698  0.1518
   39TMC2     C  609   0.057   1.187   1.498  0.0115  0.1407  0.1439
   39TMC2     O  610   4.676   1.186   1.476 -0.0409  0.3156  0.1021
   39TMC2     H  611   4.643   1.176   1.712 -0.3639  2.4297 -0.6032
   39TMC2    H1  612   0.316   1.256   1.603  0.5000 -0.0415  0.7675
   39TMC2    H2  613   0.186   1.264   2.011 -1.1899  0.0961  0.3160
   39TMC2    C7  614   0.386   1.325   1.836  0.1478 -0.1573  0.0252
   39TMC2    C8  615   4.668   1.221   1.963 -0.1448  0.8033 -0.0130
   39TMC2    O1  616   0.476   1.276   1.765 -0.0569  0.2716  0.7035
   39TMC2    O2  617   4.564   1.169   1.927 -0.1486 -0.0222 -0.7165
   39TMC2    O5  618   4.689   1.311   2.059  0.1944  0.4826 -0.2585
   39TMC2    H5  619   0.039   1.348   2.045  0.2849  0.3910  0.0737
   40MPD2     C  620   0.259   1.045   1.219 -0.1617  0.0259 -0.0925
   40MPD2    C1  621   0.151   1.108   1.278 -0.1119  0.3934  0.4426
   40MPD2    C2  622   0.046   1.121   1.202 -0.2298 -0.0860 -0.2495
   40MPD2    C3  623   0.039   1.089   1.072 -0.1261  0.2318 -0.2236
   40MPD2    C4  624   0.140   1.016   1.017 -0.3723  0.1217  0.5158
   40MPD2    C5  625   0.251   1.001   1.090  0.4268 -0.8405 -0.6307
   40MPD2     H  626   4.701   1.171   1.247  0.6237  1.6184 -0.5167
   40MPD2    H1  627   0.143   0.982   0.914 -3.0529 -0.8568  0.7618
   40MPD2    H2  628   0.351   1.040   1.274 -0.1573  2.9254  0.1368
   40MPD2    H3  629   0.341   0.954   1.054  1.4673  0.1560  0.6398
   40MPD2     N  630   4.662   1.108   0.996  0.6286  0.1412  0.0752
   40MPD2    H5  631   4.667   1.084   0.897 -2.6725  1.4774 -0.4228
   40MPD2    N1  632   0.160   1.147   1.418 -0.4477 -0.6421 -0.5736
   40MPD2    H7  633   0.252   1.130   1.457 -0.8290  0.4180  0.7933
   41TMC2    C1  634   4.209   4.396  13.722 -0.3706  0.0764  0.0211
   41TMC2    C2  635   4.294   4.462  13.804 -0.7010  0.0594  0.1528
   41TMC2    C3  636   4.356   4.578  13.751  0.2646  0.4105 -0.0015
   41TMC2    C4  637   4.204   4.425  13.588 -0.3117 -0.0269  0.2898
   41TMC2    C5  638   4.288   4.524  13.539  0.1227 -0.3711  0.4347
   41TMC2    C6  639   4.356   4.607  13.621 -0.0352  0.8175  0.1048
   41TMC2     C  640   4.136   4.287  13.775 -0.2122 -0.2559 -0.0265
   41TMC2     O  641   4.038   4.245  13.717 -0.1079 -0.1123  0.4728
   41TMC2     H  642   4.308   4.441  13.909  3.0990  1.6384 -0.0199
   41TMC2    H1  643   4.130   4.378  13.524  0.0803 -0.3838  0.0986
   41TMC2    H2  644   4.423   4.680  13.579  0.7290 -1.6020 -2.8837
   41TMC2    C7  645   4.250   4.581  13.408  0.1182  0.7592  0.6267
   41TMC2    C8  646   4.471   4.615  13.826 -0.4047  0.3058 -0.2798
   41TMC2    O1  647   4.250   4.702  13.400 -0.2086  0.0495 -0.2566
   41TMC2    O2  648   4.535   4.531  13.894 -0.2886  0.3353  0.1220
   41TMC2    O5  649   4.510   4.736  13.778 -0.2569  0.1754 -0.0885
   41TMC2    H5  650   4.439   0.053  13.743 -0.2922  0.1602 -0.0400
   42MPD2     C  651   4.022   4.088  13.969  0.0666  0.5163 -0.2756
   42MPD2    C1  652   4.150   4.141  13.978  0.1985  0.1490  0.3439
   42MPD2    C2  653   4.235   4.109  14.076  0.6939  0.5633 -0.0589
   42MPD2    C3  654   4.192   4.033  14.189 -0.8419  0.0596  0.0298
   42MPD2    C4  655   4.069   3.973  14.185  0.2972 -0.0207  0.6204
   42MPD2    C5  656   3.990   4.005  14.069  0.1501 -0.6602 -0.0298
   42MPD2     H  657   4.332   4.156  14.077  0.6379  0.6910 -0.9715
   42MPD2    H1  658   4.031   3.898  14.253  1.2307 -0.6388  0.4587
   42MPD2    H2  659   3.951   4.099  13.888  1.6365  1.6950 -1.4933
   42MPD2    H3  660   3.895   3.956  14.053 -0.3562 -0.1934  1.5821
   42MPD2     N  661   4.282   4.002  14.295 -0.3607 -0.0640  0.5663
   42MPD2    H5  662   4.234   3.961  14.374 -1.5052  1.4488  0.6563
   42MPD2    N1  663   4.203   4.233  13.882 -0.8371 -0.3557 -0.0614
   42MPD2    H7  664   4.299   4.262  13.900 -1.0651 -1.2116  2.5053
   43TMC2    C1  665   0.766   2.229   1.331 -0.2669 -0.4658 -0.1763
   43TMC2    C2  666   0.650   2.301   1.348  0.2502 -0.2773  0.6081
   43TMC2    C3  667   0.627   2.365   1.461 -0.1486 -0.1258  0.0032
   43TMC2    C4  668   0.860   2.225   1.430 -0.0537  0.3465 -0.1729
   43TMC2    C5  669   0.837   2.295   1.544 -0.2807  0.1834 -0.4591
   43TMC2    C6  670   0.716   2.369   1.566  0.7337 -0.0047  0.3414
   43TMC2     C  671   0.802   2.186   1.195 -0.2607  0.7357 -0.0659
   43TMC2     O  672   0.909   2.128   1.190  0.8447  0.3436 -0.3233
   43TMC2     H  673   0.567   2.281   1.280  0.2235 -1.5704  1.0193
   43TMC2    H1  674   0.954   2.175   1.408  0.4661  1.1474  0.2322
   43TMC2    H2  675   0.689   2.399   1.666  1.0128  0.8199  0.1783
   43TMC2    C7  676   0.938   2.295   1.643  0.2494  0.0829  0.4644
   43TMC2    C8  677   0.496   2.423   1.475  0.2987 -0.7018 -0.5784
   43TMC2    O1  678   1.022   2.210   1.619  0.0949 -0.0247  0.5440
   43TMC2    O2  679   0.414   2.390   1.391 -0.0274 -0.0921  0.1430
   43TMC2    O5  680   0.495   2.540   1.542  0.0919  0.9749  0.0990
   43TMC2    H5  681   0.583   2.556   1.582  0.3661 -0.1667 -0.0307
   44MPD2     C  682   0.812   2.284   0.699 -0.1695 -0.0864  1.1477
   44MPD2    C1  683   0.876   2.187   0.767  0.1726 -0.0980  0.2964
   44MPD2    C2  684   0.856   2.173   0.905  0.1685 -1.0847  0.0279
   44MPD2    C3  685   0.769   2.265   0.965 -0.5415 -0.1546  0.7756
   44MPD2    C4  686   0.697   2.358   0.885 -0.4586  0.3544  0.3570
   44MPD2    C5  687   0.723   2.369   0.753  0.2763 -0.2277  0.5600
   44MPD2     H  688   0.901   2.090   0.960 -0.0296 -1.7838 -0.8586
   44MPD2    H1  689   0.622   2.425   0.926 -0.4199  0.0623  0.9150
   44MPD2    H2  690   0.835   2.303   0.594  0.5423 -2.5068  0.8522
   44MPD2    H3  691   0.668   2.428   0.680 -0.8116 -1.2700  0.5454
   44MPD2     N  692   0.738   2.259   1.098  0.8475 -0.1259  0.7821
   44MPD2    H5  693   0.659   2.321   1.116  0.0261 -0.9988  0.2008
   44MPD2    N1  694   0.965   2.094   0.708 -0.2090  0.0913 -0.0360
   44MPD2    H7  695   1.012   2.037   0.777 -0.5619 -1.6982 -1.2686
   45TMC2    C1  696   0.698   0.869  10.001 -0.4337  0.0693 -0.4752
   45TMC2    C2  697   0.573   0.868   9.950  0.0369 -0.2568  0.5868
   45TMC2    C3  698   0.537   0.975   9.871  0.5933 -0.1063 -0.6219
   45TMC2    C4  699   0.784   0.972   9.984 -1.2070  0.1179 -0.4094
   45TMC2    C5  700   0.743   1.077   9.908  0.5337  0.3199  0.1433
   45TMC2    C6  701   0.621   1.080   9.846  0.2763  0.2724 -0.2695
   45TMC2     C  702   0.745   0.750  10.069 -0.0253 -0.4493  0.4547
   45TMC2     O  703   0.820   0.764  10.167  0.7291  0.2028  0.3793
   45TMC2     H  704   0.504   0.785   9.962 -0.7616  0.5259  1.4222
   45TMC2    H1  705   0.883   0.953  10.023 -1.7702  0.9470  1.4277
   45TMC2    H2  706   0.606   1.147   9.762 -1.2071 -0.5423 -0.6562
   45TMC2    C7  707   0.842   1.168   9.868 -0.2855  0.4003 -0.1180
   45TMC2    C8  708   0.448   0.949   9.761 -0.1333  0.0034 -0.8033
   45TMC2    O1  709   0.831   1.227   9.764  0.4000  0.3834 -0.1099
   45TMC2    O2  710   0.355   1.026   9.747  0.4144  0.1104 -0.2534
   45TMC2    O5  711   0.533   0.904   9.665  0.4065 -0.0712 -0.7555
   45TMC2    H5  712   0.601   0.843   9.701 -0.2486  0.4727  1.4455
   46MPD2     C  713   0.769   0.475  10.159 -0.7412  0.5610 -0.3698
   46MPD2    C1  714   0.700   0.510  10.048  0.8289 -0.0476 -0.2899
   46MPD2    C2  715   0.638   0.408   9.976 -0.3250 -0.3106 -0.0140
   46MPD2    C3  716   0.671   0.274   9.994 -0.3308  0.2436  0.6451
   46MPD2    C4  717   0.756   0.251  10.100  0.2080 -0.0249  0.8783
   46MPD2    C5  718   0.800   0.345  10.189 -0.1722  0.0051  0.0849
   46MPD2     H  719   0.582   0.443   9.890 -0.3795 -1.4920 -0.4557
   46MPD2    H1  720   0.791   0.149  10.111  1.5186 -0.0187 -3.3863
   46MPD2    H2  721   0.809   0.550  10.226 -0.3658  0.5598 -0.5925
   46MPD2    H3  722   0.876   0.323  10.264  0.2906 -0.8348 -0.6352
   46MPD2     N  723   0.626   0.175   9.903  0.1690 -0.5743  0.1385
   46MPD2    H5  724   0.548   0.218   9.855  0.1927 -0.6458  0.0353
   46MPD2    N1  725   0.686   0.641  10.016  0.0742  0.3279  0.4329
   46MPD2    H7  726   0.621   0.662   9.941 -2.0363 -0.7712  1.9503
   47TMC2    C1  727   3.390   1.280   9.433  0.5492  0.5684 -0.3009
   47TMC2    C2  728   3.418   1.230   9.312  0.4002 -0.1111 -0.0020
   47TMC2    C3  729   3.355   1.272   9.197 -0.2810 -0.3985 -0.0552
   47TMC2    C4  730   3.292   1.373   9.446 -0.5485 -0.6644  0.6722
   47TMC2    C5  731   3.222   1.413   9.334  0.0003  0.3100 -0.3486
   47TMC2    C6  732   3.254   1.367   9.209 -0.3829 -0.0020 -0.2347
   47TMC2     C  733   3.451   1.228   9.553  0.5196  0.1521 -0.0154
   47TMC2     O  734   3.450   1.302   9.650 -0.3242  0.4704  0.2476
   47TMC2     H  735   3.494   1.155   9.291 -1.0936 -1.5975 -0.1694
   47TMC2    H1  736   3.275   1.405   9.548  0.0190 -0.0146  0.5594
   47TMC2    H2  737   3.221   1.412   9.116  1.0337 -3.2749 -2.3208
   47TMC2    C7  738   3.088   1.462   9.361  0.2578  0.1422 -0.1439
   47TMC2    C8  739   3.415   1.228   9.071 -0.0700  0.5078 -0.1271
   47TMC2    O1  740   3.053   1.442   9.476 -0.0556  0.0162  0.3845
   47TMC2    O2  741   3.521   1.169   9.062 -0.0823 -0.4414  0.4083
   47TMC2    O5  742   3.309   1.203   8.990 -0.0551  0.1526  0.0965
   47TMC2    H5  743   3.218   1.217   9.026 -0.2384 -0.7431 -0.0302
   48MPD2     C  744   3.653   1.116   9.744  0.0527  0.8213 -0.4073
   48MPD2    C1  745   3.610   1.046   9.632  0.3138  0.4532  0.2837
   48MPD2    C2  746   3.646   0.911   9.610 -0.3788 -1.0184 -0.3524
   48MPD2    C3  747   3.729   0.847   9.695  0.3973  0.2214 -0.1561
   48MPD2    C4  748   3.778   0.915   9.807  0.6966  1.0684  0.8231
   48MPD2    C5  749   3.738   1.049   9.833  0.2217 -0.0147 -0.4747
   48MPD2     H  750   3.613   0.862   9.519  0.8549  2.3054 -2.5928
   48MPD2    H1  751   3.861   0.882   9.868  1.4860 -0.0022 -0.8132
   48MPD2    H2  752   3.627   1.220   9.761 -0.2267  0.5516  0.8125
   48MPD2    H3  753   3.786   1.099   9.917 -2.4926 -1.7670  2.1303
   48MPD2     N  754   3.766   0.712   9.665  0.1349  0.0830 -0.0183
   48MPD2    H5  755   3.723   0.686   9.577  1.9673 -0.6847 -0.6882
   48MPD2    N1  756   3.519   1.108   9.540 -1.1429 -0.8482  0.2657
   48MPD2    H7  757   3.492   1.056   9.458 -0.5722 -1.8621  0.7167
   49TMC2    C1  758   1.827   2.745   9.959 -0.1249 -0.2924  0.0114
   49TMC2    C2  759   1.933   2.831   9.932  0.3719  0.7161 -0.4996
   49TMC2    C3  760   2.013   2.797   9.829  0.0200  0.2116  0.2325
   49TMC2    C4  761   1.802   2.634   9.885  0.0438 -0.3458  0.5854
   49TMC2    C5  762   1.901   2.597   9.799 -0.1314 -0.6358  0.4112
   49TMC2    C6  763   1.998   2.683   9.756  0.3146 -0.2201 -0.0142
   49TMC2     C  764   1.725   2.790  10.054 -0.2850 -0.1716 -0.0387
   49TMC2     O  765   1.612   2.739  10.052 -0.2203  0.6471 -0.2986
   49TMC2     H  766   1.938   2.929   9.978  0.3743  0.6204 -0.2954
   49TMC2    H1  767   1.732   2.567   9.933 -1.3511  1.3409  0.9111
   49TMC2    H2  768   2.085   2.652   9.699 -0.9421 -0.5978 -1.7116
   49TMC2    C7  769   1.900   2.457   9.753 -0.5981 -0.1800 -0.1698
   49TMC2    C8  770   2.128   2.879   9.811  0.5696 -0.2027 -0.2814
   49TMC2    O1  771   2.002   2.426   9.694  0.5326 -0.3896  0.5130
   49TMC2    O2  772   2.169   2.967   9.885 -0.2302  0.5395  0.2919
   49TMC2    O5  773   2.173   2.858   9.686 -0.1191  0.0406  0.2725
   49TMC2    H5  774   2.106   2.811   9.631  1.5158  1.3725 -2.8809
   50MPD2     C  775   1.550   2.981  10.208 -0.4356  0.2546 -0.1928
   50MPD2    C1  776   1.686   2.972  10.221  0.1196  0.6547 -0.0240
   50MPD2    C2  777   1.746   3.066  10.307  0.1216  0.0091 -0.1046
   50MPD2    C3  778   1.663   3.166  10.376  0.0475  0.2151  0.2627
   50MPD2    C4  779   1.525   3.160  10.368  0.1623 -0.6627 -0.6223
   50MPD2    C5  780   1.475   3.071  10.270 -0.2912 -0.3091 -0.3586
   50MPD2     H  781   1.852   3.062  10.329  0.3166  0.6008 -0.9472
   50MPD2    H1  782   1.455   3.218  10.428 -0.3898 -0.1672 -1.7432
   50MPD2    H2  783   1.506   2.914  10.134 -0.1009  0.1111 -0.2581
   50MPD2    H3  784   1.368   3.079  10.255 -0.2102  2.0699  0.4031
   50MPD2     N  785   1.720   3.261  10.457 -0.1728 -0.1953 -0.5006
   50MPD2    H5  786   1.661   3.328  10.505 -0.1578 -0.0276 -0.7171
   50MPD2    N1  787   1.771   2.883  10.148  0.0464 -0.5625 -0.6863
   50MPD2    H7  788   1.872   2.889  10.155 -0.2161  2.9926  0.1844
   51TMC2    C1  789   1.904   2.517   1.754 -0.0179 -0.1171  0.7419
   51TMC2    C2  790   1.803   2.595   1.707 -0.0696 -0.2198  1.1766
   51TMC2    C3  791   1.836   2.708   1.641 -0.1876  0.4885 -0.7201
   51TMC2    C4  792   2.033   2.550   1.737  0.0798  0.2176 -0.1365
   51TMC2    C5  793   2.061   2.673   1.677  0.1321 -0.2336 -0.3596
   51TMC2    C6  794   1.965   2.754   1.630 -0.5780 -0.3690 -0.6619
   51TMC2     C  795   1.877   2.378   1.778 -0.3937  0.0092 -0.1377
   51TMC2     O  796   1.794   2.317   1.716 -0.2933 -0.3429  0.5473
   51TMC2     H  797   1.705   2.551   1.722 -0.6627  0.2302 -1.5318
   51TMC2    H1  798   2.118   2.487   1.761  0.2271  1.3077  2.1975
   51TMC2    H2  799   1.984   2.844   1.573  1.5302 -0.8472 -0.7170
   51TMC2    C7  800   2.198   2.683   1.631  0.2770  0.1155  0.4377
   51TMC2    C8  801   1.736   2.782   1.566  0.2868 -0.3111 -0.5740
   51TMC2    O1  802   2.251   2.573   1.618 -0.4807 -0.2958 -0.3463
   51TMC2    O2  803   1.762   2.829   1.459 -0.3637  0.0696  0.3842
   51TMC2    O5  804   1.619   2.778   1.622  0.0388  0.1066  0.2398
   51TMC2    H5  805   1.636   2.749   1.714 -0.2937  1.3872  0.7155
   52MPD2     C  806   2.085   1.965   2.001  0.9980 -0.4410  0.3880
   52MPD2    C1  807   1.988   1.972   1.903  0.2558  0.0425 -0.5506
   52MPD2    C2  808   1.924   2.093   1.878  0.3693  0.3827  0.0126
   52MPD2    C3  809   1.979   2.208   1.929 -0.1143  0.6960  0.2616
   52MPD2    C4  810   2.076   2.197   2.024  0.3213  0.4042 -0.0973
   52MPD2    C5  811   2.111   2.078   2.074 -0.1292  0.3429  0.6853
   52MPD2     H  812   1.848   2.092   1.802  1.4383 -0.6928 -1.0498
   52MPD2    H1  813   2.113   2.279   2.084  2.6747 -0.9714  0.3519
   52MPD2    H2  814   2.128   1.871   2.033  1.6917  0.0543  0.9270
   52MPD2    H3  815   2.169   2.067   2.165  1.9685  3.2590 -0.3396
   52MPD2     N  816   1.941   2.340   1.890  0.3993  0.4598 -0.4653
   52MPD2    H5  817   1.991   2.411   1.943  1.7419 -1.4693  0.8623
   52MPD2    N1  818   1.942   1.860   1.833 -0.1460  0.5023 -0.1388
   52MPD2    H7  819   1.850   1.872   1.792 -0.6740 -0.6975  0.6900
   53TMC2    C1  820   2.831   0.159  11.911 -0.0234  0.3341 -0.1566
   53TMC2    C2  821   2.938   0.073  11.907  0.0092 -0.0586 -0.3678
   53TMC2    C3  822   2.999   0.042  12.029 -0.3862  0.1391  0.1130
   53TMC2    C4  823   2.792   0.213  12.030  0.2202  0.0410 -0.1378
   53TMC2    C5  824   2.853   0.186  12.150  0.3295  0.8335 -0.2041
   53TMC2    C6  825   2.953   0.088  12.150 -0.1349 -0.0691 -0.0345
   53TMC2     C  826   2.740   0.149  11.801 -1.0454  0.5251 -0.3768
   53TMC2     O  827   2.781   0.097  11.700  0.0006 -0.2902  0.1269
   53TMC2     H  828   2.964   0.019  11.816 -4.6460 -0.0335 -1.6718
   53TMC2    H1  829   2.715   0.290  12.036 -0.4684 -0.6122 -0.5108
   53TMC2    H2  830   3.001   0.052  12.240 -0.4325  0.3298  0.2869
   53TMC2    C7  831   2.773   0.220  12.270  0.0310  0.5455  0.7474
   53TMC2    C8  832   3.106   4.695  12.046  0.8944 -0.1843  0.8431
   53TMC2    O1  833   2.668   0.279  12.251  0.3268 -0.3401  0.0826
   53TMC2    O2  834   3.135   4.635  12.150  0.6248  0.6480  0.3049
   53TMC2    O5  835   3.195   4.729  11.949  0.4911  0.1823  0.0249
   53TMC2    H5  836   3.164   0.042  11.873  0.9443 -1.4512 -1.3066
   54MPD2     C  837   2.533   0.206  11.605  0.0564 -0.0353  0.0904
   54MPD2    C1  838   2.502   0.193  11.738 -0.1604 -0.2848 -0.1121
   54MPD2    C2  839   2.370   0.186  11.774  0.2048  0.3147 -0.0291
   54MPD2    C3  840   2.264   0.191  11.685 -0.2919  0.4559 -0.2686
   54MPD2    C4  841   2.300   0.208  11.550 -0.1954  0.0904  0.1743
   54MPD2    C5  842   2.430   0.215  11.515 -0.8607  0.4064 -0.8331
   54MPD2     H  843   2.349   0.167  11.878  2.0748 -0.5941  0.1813
   54MPD2    H1  844   2.226   0.245  11.480 -1.6551 -0.6271  1.3260
   54MPD2    H2  845   2.636   0.214  11.574 -0.2115  1.0030 -0.5379
   54MPD2    H3  846   2.455   0.227  11.410 -2.2938  3.3911 -0.8068
   54MPD2     N  847   2.131   0.189  11.720  0.3156  0.5229  0.1983
   54MPD2    H5  848   2.064   0.177  11.645  0.9488 -2.2982  0.0966
   54MPD2    N1  849   2.605   0.169  11.836  0.1345 -0.1823 -0.4721
   54MPD2    H7  850   2.590   0.156  11.936 -0.5475  0.4886 -0.4857
   55TMC2    C1  851   3.821   1.640  17.698  0.1176  0.2164 -0.0868
   55TMC2    C2  852   3.921   1.580  17.624 -0.6986 -0.0256 -0.2511
   55TMC2    C3  853   3.937   1.444  17.641  0.0287 -0.3205 -0.0749
   55TMC2    C4  854   3.743   1.566   0.027 -0.0119 -0.5509 -0.0232
   55TMC2    C5  855   3.758   1.433   0.030  0.0476  0.3148  0.4003
   55TMC2    C6  856   3.857   1.368  17.719  0.2311  0.5559 -0.4835
   55TMC2     C  857   3.820   1.786  17.699 -0.0014 -0.2206  0.5372
   55TMC2     O  858   3.754   1.837   0.037  0.1137 -0.4025 -0.3372
   55TMC2     H  859   3.986   1.633  17.556 -3.1942  1.8706 -1.1537
   55TMC2    H1  860   3.662   1.613   0.082 -0.0311  0.9281 -1.3101
   55TMC2    H2  861   3.873   1.261  17.727  3.5242  0.7719 -4.0064
   55TMC2    C7  862   3.699   1.353   0.134 -0.1320 -0.0563  0.1488
   55TMC2    C8  863   4.024   1.369  17.556  0.1038  0.9061 -0.0434
   55TMC2    O1  864   3.689   1.231   0.113 -0.3264 -0.3913  0.2425
   55TMC2    O2  865   4.011   1.247  17.527 -0.6073 -0.2033  0.2774
   55TMC2    O5  866   4.137   1.436  17.523 -0.0043 -0.4488  0.1502
   55TMC2    H5  867   4.148   1.524  17.564 -0.7161  0.7612 -2.2247
   56MPD2     C  868   3.953   2.033  17.460  0.4269  0.4484  0.3711
   56MPD2    C1  869   3.898   1.990  17.578  0.1109  0.3321 -0.1886
   56MPD2    C2  870   3.883   2.083  17.676  0.1830  0.3451  0.0478
   56MPD2    C3  871   3.918   2.213  17.655 -0.0778  0.7946 -0.2287
   56MPD2    C4  872   3.959   2.254  17.529  0.7746  0.3315  0.2365
   56MPD2    C5  873   3.970   2.160  17.429 -0.7927 -0.8012  0.1648
   56MPD2     H  874   3.823   2.051   0.003 -2.5365 -1.2460 -2.4469
   56MPD2    H1  875   3.974   2.357  17.500  1.0041  0.1936 -0.1361
   56MPD2    H2  876   3.962   1.957  17.384 -0.7386  1.4911 -0.8062
   56MPD2    H3  877   4.009   2.188  17.332  0.3152  0.1879  0.8854
   56MPD2     N  878   3.897   2.300   0.005 -0.7473 -0.0736  0.3350
   56MPD2    H5  879   3.851   2.258   0.085  0.1791 -2.6293 -0.4496
   56MPD2    N1  880   3.888   1.849  17.592 -0.3496  0.6395 -0.4507
   56MPD2    H7  881   3.918   1.787  17.518  1.4264  1.7927 -0.6866
   57TMC2    C1  882   2.891   3.915  13.717 -0.6246  0.3920  0.0082
   57TMC2    C2  883   2.940   4.007  13.623  0.2351 -0.3017  0.0081
   57TMC2    C3  884   3.039   3.967  13.545  0.1699  0.4459 -0.2141
   57TMC2    C4  885   2.931   3.784  13.721  0.3111  0.3899 -0.5994
   57TMC2    C5  886   3.011   3.743  13.619 -0.1234 -0.1261 -0.0364
   57TMC2    C6  887   3.078   3.833  13.537  0.0961 -0.2078  0.3897
   57TMC2     C  888   2.766   3.952  13.783  0.4020  0.2751 -0.5177
   57TMC2     O  889   2.695   4.042  13.738  0.1477 -0.3507 -0.6441
   57TMC2     H  890   2.907   4.109  13.635 -0.0342 -0.4818  0.8298
   57TMC2    H1  891   2.887   3.710  13.788 -1.3007  1.4976 -0.4325
   57TMC2    H2  892   3.157   3.801  13.470  1.0589  1.6504  0.6264
   57TMC2    C7  893   3.063   3.613  13.631  0.1257 -0.2566  0.1753
   57TMC2    C8  894   3.085   4.055  13.440  0.4021 -0.4658 -0.2725
   57TMC2    O1  895   3.110   3.586  13.738 -0.0770 -0.3457 -0.3184
   57TMC2    O2  896   3.012   4.131  13.379 -0.0303 -0.4452 -0.2320
   57TMC2    O5  897   3.204   4.101  13.484  0.0895  0.2929  0.3080
   57TMC2    H5  898   3.243   4.043  13.553 -0.8437 -1.6167 -0.7820
   58MPD2     C  899   2.490   4.000  14.197 -0.6268  0.9550 -0.5157
   58MPD2    C1  900   2.464   4.025  14.069  0.1906  0.2420 -0.1235
   58MPD2    C2  901   2.547   3.983  13.971 -0.2407  0.5109  0.6153
   58MPD2    C3  902   2.667   3.927  14.006  0.1416  0.1119 -0.2819
   58MPD2    C4  903   2.698   3.904  14.141 -0.1181  0.7922 -0.4651
   58MPD2    C5  904   2.605   3.939  14.231 -0.8652  0.3802 -0.3020
   58MPD2     H  905   2.523   3.986  13.865  1.6904  0.9095  0.1883
   58MPD2    H1  906   2.793   3.857  14.164 -0.5897 -0.2547 -0.6429
   58MPD2    H2  907   2.416   4.020  14.274 -1.1369  1.3833 -1.1222
   58MPD2    H3  908   2.625   3.913  14.334  0.7666  1.7231 -0.2633
   58MPD2     N  909   2.761   3.886  13.908 -0.2843 -0.0942  0.2444
   58MPD2    H5  910   2.836   3.822  13.933 -1.6048 -1.7206  0.0844
   58MPD2    N1  911   2.351   4.096  14.030  0.1862 -0.8074 -0.4002
   58MPD2    H7  912   2.339   4.115  13.931  1.3824  1.1837 -0.1466
   59TMC2    C1  913   0.467   3.473  12.849  0.5928  0.5130  0.1432
   59TMC2    C2  914   0.575   3.512  12.780 -0.2596  0.0213 -0.2439
   59TMC2    C3  915   0.562   3.520  12.642  0.1945 -0.1502  0.3128
   59TMC2    C4  916   0.353   3.449  12.786 -0.3717 -0.5930 -0.1047
   59TMC2    C5  917   0.341   3.469  12.650  0.3542  1.0537  0.6264
   59TMC2    C6  918   0.444   3.510  12.577 -0.1733  0.3121 -0.4010
   59TMC2     C  919   0.472   3.448  12.995  0.2996  0.3031  0.1436
   59TMC2     O  920   0.409   3.352  13.032 -0.4196 -0.2647 -0.3521
   59TMC2     H  921   0.674   3.517  12.825 -0.1596 -1.4368 -0.2969
   59TMC2    H1  922   0.268   3.405  12.837 -0.4599 -0.6668 -0.3158
   59TMC2    H2  923   0.441   3.525  12.470  0.5685 -0.4672 -0.5344
   59TMC2    C7  924   0.232   3.415  12.584  0.1874  0.3357 -0.4207
   59TMC2    C8  925   0.666   3.584  12.574 -0.2644 -0.0562  0.1011
   59TMC2    O1  926   0.160   3.337  12.645  0.5156  0.3461  0.2031
   59TMC2    O2  927   0.739   3.666  12.627 -0.8133 -0.5367 -0.1193
   59TMC2    O5  928   0.713   3.492  12.490  0.2407  0.3832 -0.8647
   59TMC2    H5  929   0.649   3.428  12.450  1.8376 -1.9160  0.2441
   60MPD2     C  930   0.486   3.453  13.285  1.5600  0.7863  0.7688
   60MPD2    C1  931   0.581   3.504  13.201 -0.0343 -0.0996 -0.1300
   60MPD2    C2  932   0.692   3.572  13.255  0.0921  0.5578 -0.3656
   60MPD2    C3  933   0.714   3.583  13.390  0.1091  0.2817 -0.3272
   60MPD2    C4  934   0.623   3.514  13.468  0.2940  0.0467  0.8571
   60MPD2    C5  935   0.513   3.453  13.421  0.1261  0.0929  0.1773
   60MPD2     H  936   0.771   3.598  13.186  0.6297 -0.8577 -0.2940
   60MPD2    H1  937   0.639   3.504  13.575  0.3851 -1.2537  0.7289
   60MPD2    H2  938   0.399   3.400  13.248  1.2060  2.3255 -0.5870
   60MPD2    H3  939   0.439   3.419  13.492  0.6095 -3.0767 -0.8010
   60MPD2     N  940   0.816   3.660  13.445  0.0524  0.7101  0.7422
   60MPD2    H5  941   0.865   3.722  13.380 -1.3867  0.9074 -0.1458
   60MPD2    N1  942   0.565   3.521  13.063 -0.3151 -0.4866 -0.1785
   60MPD2    H7  943   0.630   3.575  13.006 -0.6194  0.6648  0.5700
   61TMC2    C1  944   4.390   0.085  15.762 -0.5162  0.1713 -0.2640
   61TMC2    C2  945   4.427   0.069  15.892  0.5690 -0.4181 -0.4805
   61TMC2    C3  946   4.441   0.178  15.968  0.4658  0.4051 -0.0250
   61TMC2    C4  947   4.377   0.211  15.705 -0.1710 -1.0332  0.0454
   61TMC2    C5  948   4.393   0.320  15.789  0.3787  0.3752 -0.2963
   61TMC2    C6  949   4.431   0.308  15.920 -0.1413 -1.2229 -0.1037
   61TMC2     C  950   4.443   4.723  15.677  0.1740 -0.0251 -0.3777
   61TMC2     O  951   4.390   4.610  15.675 -0.5003 -0.1829 -0.6072
   61TMC2     H  952   4.446   4.710  15.930 -1.1595 -0.1314  1.1188
   61TMC2    H1  953   4.361   0.228  15.599 -3.1230  3.6120  1.2594
   61TMC2    H2  954   4.445   0.402  15.973 -0.5967 -0.1709 -1.8621
   61TMC2    C7  955   4.393   0.451  15.727 -0.0294 -0.0230  0.6975
   61TMC2    C8  956   4.492   0.149  16.101 -0.6818  0.4717  0.2361
   61TMC2    O1  957   4.475   0.529  15.770 -1.0105 -0.0616  0.6092
   61TMC2    O2  958   4.550   0.045  16.124  0.1820 -0.0274  0.2636
   61TMC2    O5  959   4.500   0.261  16.176 -0.3909 -0.1731  0.0064
   61TMC2    H5  960   4.443   0.336  16.148  2.1091  1.6308 -0.2518
   62MPD2     C  961   4.492   4.628  15.403 -0.7813 -0.3879 -0.3706
   62MPD2    C1  962   4.540   0.006  15.449 -0.5034  0.9235  0.3454
   62MPD2    C2  963   4.601   0.089  15.357 -0.3016 -0.0313  0.1208
   62MPD2    C3  964   4.612   0.064  15.217  0.4741  0.1554 -0.2047
   62MPD2    C4  965   4.553   4.685  15.177  0.5491  0.6472 -0.1600
   62MPD2    C5  966   4.508   4.596  15.267 -0.0277 -0.0519  0.8306
   62MPD2     H  967   4.640   0.184  15.390  3.7567 -1.6938  0.2386
   62MPD2    H1  968   4.567   4.656  15.074  0.1793 -1.1136  0.2782
   62MPD2    H2  969   4.435   4.557  15.461  0.9703  0.8892  2.9424
   62MPD2    H3  970   4.474   4.499  15.232  0.6022 -0.2977  0.8959
   62MPD2     N  971   4.685   0.143  15.124 -0.6420 -0.3841 -0.1787
   62MPD2    H5  972   4.671   0.112  15.028 -0.8754  0.1343 -0.3140
   62MPD2    N1  973   4.521   0.046  15.582 -0.2528 -0.4196 -0.9361
   62MPD2    H7  974   4.562   0.136  15.603 -0.4482 -0.9598  1.8639
   63TMC2    C1  975   3.967   0.512  10.800  0.9480  0.2861 -0.0623
   63TMC2    C2  976   4.100   0.521  10.819  0.4036 -0.2713 -0.0244
   63TMC2    C3  977   4.175   0.624  10.774 -0.8272 -0.8127  0.2233
   63TMC2    C4  978   3.913   0.601  10.715 -0.1462 -0.5329  0.3808
   63TMC2    C5  979   3.985   0.703  10.660  0.7392 -0.3924 -0.1915
   63TMC2    C6  980   4.121   0.718  10.685 -0.1758  0.5911  0.6220
   63TMC2     C  981   3.894   0.405  10.870 -0.2020 -0.4882  0.8574
   63TMC2     O  982   3.943   0.368  10.974 -0.1996  0.0789  0.0192
   63TMC2     H  983   4.153   0.453  10.885 -1.2462 -0.5485  1.0155
   63TMC2    H1  984   3.806   0.616  10.713 -0.0847 -0.3142 -2.5256
   63TMC2    H2  985   4.180   0.787  10.626 -1.6970  1.3992  0.0393
   63TMC2    C7  986   3.910   0.801  10.579  0.0110 -0.3487  0.7037
   63TMC2    C8  987   4.316   0.631  10.797 -0.9746  0.3659 -0.2130
   63TMC2    O1  988   3.808   0.760  10.523  0.0283  0.5589  0.3280
   63TMC2    O2  989   4.388   0.530  10.815 -0.1313  0.0340  0.1088
   63TMC2    O5  990   4.337   0.758  10.849 -0.4352  0.2303  0.3276
   63TMC2    H5  991   4.262   0.815  10.824 -0.8334 -0.8630 -0.9544
   64MPD2     C  992   3.488   0.087  10.845 -0.5273  0.0709  0.2061
   64MPD2    C1  993   3.519   0.130  10.716 -0.7502 -0.4426 -0.3589
   64MPD2    C2  994   3.614   0.232  10.703  0.9482  0.0448  0.6381
   64MPD2    C3  995   3.691   0.266  10.811  0.1534  0.5960 -0.3284
   64MPD2    C4  996   3.667   0.218  10.937 -0.4989 -0.0345 -0.5056
   64MPD2    C5  997   3.571   0.123  10.950  0.4561 -0.1246 -0.1590
   64MPD2     H  998   3.633   0.269  10.604  0.6853  0.1059  0.6106
   64MPD2    H1  999   3.719   0.248  11.027  0.4197  2.6312 -1.8979
   64MPD2    H2 1000   3.410   0.013  10.863 -0.9384  1.0512  2.4803
   64MPD2    H3 1001   3.540   0.082  11.046  3.3287 -1.0913  0.3585
   64MPD2     N 1002   3.791   0.360  10.789  0.3232 -0.2763  0.6032
   64MPD2    H5 1003   3.790   0.397  10.694  1.5423  0.7253  0.9895
   64MPD2    N1 1004   3.469   0.068  10.602 -0.0319 -0.2281 -0.0789
   64MPD2    H7 1005   3.494   0.091  10.507  1.3794 -1.8264 -0.1050
   65TMC2    C1 1006   0.365   3.932  15.827 -0.2156 -0.0754 -0.0813
   65TMC2    C2 1007   0.407   3.858  15.720 -0.0942 -0.0826  0.0160
   65TMC2    C3 1008   0.482   3.917  15.620 -0.1380  0.4714  1.4450
   65TMC2    C4 1009   0.383   4.070  15.821 -0.6120 -0.0247 -0.8203
   65TMC2    C5 1010   0.446   4.122  15.711 -0.2592  0.0975 -0.5312
   65TMC2    C6 1011   0.507   4.047  15.614 -0.0582 -0.2136 -0.0495
   65TMC2     C 1012   0.289   3.877  15.941 -0.5526 -0.1361 -0.6060
   65TMC2     O 1013   0.305   3.925  16.052 -0.4323  0.9724  0.4216
   65TMC2     H 1014   0.402   3.750  15.721  1.7323 -0.1844 -1.6725
   65TMC2    H1 1015   0.328   4.132  15.892  0.0812  1.2894 -1.4326
   65TMC2    H2 1016   0.561   4.097  15.535  1.8396 -0.8283  0.8822
   65TMC2    C7 1017   0.393   4.245  15.657  0.2420  0.6621  0.1214
   65TMC2    C8 1018   0.516   3.834  15.511 -0.1615 -0.0898 -0.3188
   65TMC2    O1 1019   0.381   4.246  15.534  0.0907 -0.4108 -0.5140
   65TMC2    O2 1020   0.611   3.871  15.442 -0.2295  0.3292 -0.2653
   65TMC2    O5 1021   0.400   3.774  15.468  0.4053 -0.8988 -0.0998
   65TMC2    H5 1022   0.323   3.784  15.527 -0.0156  2.4031 -1.1848
   66MPD2     C 1023   0.118   3.707  16.117  0.2987  0.2882 -0.0172
   66MPD2    C1 1024   0.127   3.696  15.984 -0.0117  0.1448  0.9536
   66MPD2    C2 1025   0.046   3.599  15.923 -0.7630  0.2814 -0.1104
   66MPD2    C3 1026   4.687   3.536  15.998 -0.1469 -0.3104 -0.7352
   66MPD2    C4 1027   4.676   3.560  16.128  0.7289  0.3062 -0.5247
   66MPD2    C5 1028   0.022   3.644  16.192  0.1142  0.2575  0.1749
   66MPD2     H 1029   0.052   3.578  15.817 -1.6049  1.0861 -0.3203
   66MPD2    H1 1030   4.605   3.510  16.192 -0.4856  1.3606 -1.0346
   66MPD2    H2 1031   0.183   3.773  16.175 -1.3451  3.4989 -1.8275
   66MPD2    H3 1032   0.009   3.668  16.297 -3.2377 -0.7290  0.0017
   66MPD2     N 1033   4.587   3.449  15.948  0.1071  0.8470  0.0789
   66MPD2    H5 1034   4.517   3.422  16.017 -0.2095 -0.8522 -0.9174
   66MPD2    N1 1035   0.219   3.767  15.899 -0.0283 -0.0543 -0.6665
   66MPD2    H7 1036   0.218   3.745  15.800  1.2182 -1.2352 -0.4295
   67TMC2    C1 1037   0.829   3.877  14.375  0.1520 -0.0798  0.0042
   67TMC2    C2 1038   0.810   4.011  14.343  0.6197 -0.1952  0.4458
   67TMC2    C3 1039   0.870   4.104  14.428 -0.3989  0.1671 -0.8354
   67TMC2    C4 1040   0.911   3.825  14.477  0.1546 -0.2027  0.6488
   67TMC2    C5 1041   0.951   3.922  14.558  0.3068  0.2977  0.4261
   67TMC2    C6 1042   0.929   4.057  14.541 -0.3538 -0.4517 -0.0658
   67TMC2     C 1043   0.764   3.777  14.298 -0.5047  0.0463 -0.8801
   67TMC2     O 1044   0.807   3.664  14.303  0.1222  0.3109 -0.5533
   67TMC2     H 1045   0.757   4.049  14.257 -0.7068 -1.3707  0.7528
   67TMC2    H1 1046   0.922   3.719  14.497 -0.0454 -0.1454  1.0625
   67TMC2    H2 1047   0.975   4.123  14.614 -1.1513  0.8611 -0.7533
   67TMC2    C7 1048   1.051   3.881  14.663  1.0588  0.1410 -0.6970
   67TMC2    C8 1049   0.877   4.237  14.383  0.6024 -0.0872 -0.4257
   67TMC2    O1 1050   1.143   3.808  14.630  0.0829 -0.2125 -0.4367
   67TMC2    O2 1051   0.824   4.278  14.282  0.3137  0.1471  0.4424
   67TMC2    O5 1052   0.958   4.304  14.466 -0.1316  0.5199 -0.9591
   67TMC2    H5 1053   0.956   4.402  14.459  1.0211  0.3722 -3.2810
   68MPD2     C 1054   0.626   3.628  14.089  0.6926  0.2606 -0.4681
   68MPD2    C1 1055   0.573   3.742  14.146 -0.0357 -0.6478 -0.1229
   68MPD2    C2 1056   0.432   3.761  14.145  0.3328 -0.1722  0.5144
   68MPD2    C3 1057   0.351   3.654  14.090 -0.1956 -0.5110  0.0185
   68MPD2    C4 1058   0.413   3.555  14.021  0.1908  0.3913 -0.6988
   68MPD2    C5 1059   0.547   3.543  14.013 -0.0540 -0.5656  0.0298
   68MPD2     H 1060   0.390   3.844  14.200 -2.9510 -0.9354 -0.8635
   68MPD2    H1 1061   0.356   3.472  13.981  2.4021 -0.0553 -2.8728
   68MPD2    H2 1062   0.734   3.619  14.081  0.5724 -0.7198 -0.9974
   68MPD2    H3 1063   0.599   3.469  13.953 -1.4331 -0.6676 -1.0406
   68MPD2     N 1064   0.212   3.658  14.085 -0.0078 -0.0819  0.1005
   68MPD2    H5 1065   0.175   3.571  14.048 -0.9303 -0.3887  1.7810
   68MPD2    N1 1066   0.649   3.826  14.235  0.6208  0.5136  0.5597
   68MPD2    H7 1067   0.614   3.919  14.255  2.2294  1.1617  0.3352
   69TMC2    C1 1068   2.671   0.585  12.888  0.6308 -0.6711 -0.3699
   69TMC2    C2 1069   2.562   0.585  12.808  0.1448 -0.1683  0.1802
   69TMC2    C3 1070   2.579   0.615  12.675  0.3883 -0.8195  0.5274
   69TMC2    C4 1071   2.792   0.617  12.838 -0.2168 -0.1409  0.1684
   69TMC2    C5 1072   2.802   0.645  12.706  0.1041  0.6453  0.0783
   69TMC2    C6 1073   2.696   0.657  12.618  0.0191 -0.0036  0.3942
   69TMC2     C 1074   2.648   0.564  13.029  0.4793 -0.3828  0.0082
   69TMC2     O 1075   2.732   0.611  13.100 -0.3434 -0.1861  0.2765
   69TMC2     H 1076   2.465   0.559  12.847  0.0769 -2.9241 -1.8147
   69TMC2    H1 1077   2.877   0.605  12.904 -2.1902  1.1835  2.9888
   69TMC2    H2 1078   2.708   0.692  12.516  1.8016 -1.7704  0.0046
   69TMC2    C7 1079   2.934   0.679  12.645  0.1756 -0.2013  1.0866
   69TMC2    C8 1080   2.459   0.636  12.600 -0.0708 -0.6814 -0.3001
   69TMC2    O1 1081   3.021   0.708  12.724 -0.7294 -0.6808  0.0129
   69TMC2    O2 1082   2.351   0.647  12.654 -0.4609  0.2427 -0.3390
   69TMC2    O5 1083   2.477   0.585  12.472  0.4866 -0.6028 -0.3976
   69TMC2    H5 1084   2.573   0.566  12.465  0.8732  0.8320  1.0574
   70MPD2     C 1085   2.574   0.461  13.297 -0.2054  0.0704  0.5832
   70MPD2    C1 1086   2.524   0.412  13.178 -0.4964 -0.3635  0.1988
   70MPD2    C2 1087   2.428   0.309  13.194  0.3465 -0.8871  0.1597
   70MPD2    C3 1088   2.390   0.261  13.321  1.0828  0.7759 -0.5710
   70MPD2    C4 1089   2.444   0.308  13.425 -0.0245  0.4506  0.0644
   70MPD2    C5 1090   2.526   0.414  13.416  0.0143 -0.8085 -0.3683
   70MPD2     H 1091   2.384   0.253  13.112  2.6508 -0.1361 -1.5929
   70MPD2    H1 1092   2.410   0.275  13.522 -1.6482  0.3563 -0.5221
   70MPD2    H2 1093   2.657   0.531  13.303 -1.5283  1.5979  1.0935
   70MPD2    H3 1094   2.567   0.465  13.502  0.0668  1.0065 -1.4842
   70MPD2     N 1095   2.311   0.147  13.341 -0.0222  0.3577 -0.4472
   70MPD2    H5 1096   2.316   0.112  13.436 -1.4530  0.6899 -0.2450
   70MPD2    N1 1097   2.553   0.468  13.050  0.2141  0.3437  0.0112
   70MPD2    H7 1098   2.504   0.417  12.976  1.7294 -0.2549 -0.5702
   71TMC2    C1 1099   0.076   0.284   1.150  0.1854  0.0993 -0.0530
   71TMC2    C2 1100   0.206   0.320   1.169  0.0777  0.1151  0.1212
   71TMC2    C3 1101   0.244   0.377   1.293  0.2301  0.0842  0.4683
   71TMC2    C4 1102   4.724   0.306   1.254 -0.7526 -0.0192 -0.2063
   71TMC2    C5 1103   0.032   0.374   1.368  0.2993  0.1640 -0.3480
   71TMC2    C6 1104   0.161   0.400   1.392  0.3950  0.2691  0.6283
   71TMC2     C 1105   0.036   0.273   1.003  0.2609 -0.4100 -0.6564
   71TMC2     O 1106   0.132   0.258   0.930 -0.0767 -0.0978  0.1681
   71TMC2     H 1107   0.279   0.297   1.092  0.6603 -0.6081  0.9035
   71TMC2    H1 1108   4.619   0.289   1.232 -0.6560  1.1991 -1.6240
   71TMC2    H2 1109   0.198   0.466   1.470  2.5361 -2.4738  1.9339
   71TMC2    C7 1110   4.668   0.445   1.447  0.3825 -0.4728  0.3239
   71TMC2    C8 1111   0.381   0.355   1.328 -0.2195 -0.3914 -0.2996
   71TMC2    O1 1112   4.687   0.498   1.555  0.1535 -0.2625  0.2990
   71TMC2    O2 1113   0.470   0.350   1.243 -0.0480  0.3509 -0.4909
   71TMC2    O5 1114   0.378   0.287   1.447  0.1098  0.0110 -0.1255
   71TMC2    H5 1115   0.290   0.270   1.487 -1.6659  0.0134 -4.1208
   72MPD2     C 1116   4.437   0.364   0.631 -0.1113 -0.0378  0.1619
   72MPD2    C1 1117   4.574   0.358   0.627 -0.1749  0.3397  0.4886
   72MPD2    C2 1118   4.642   0.315   0.741 -0.0922 -0.2105 -0.5614
   72MPD2    C3 1119   4.576   0.287   0.862  0.4239 -0.0439 -0.3104
   72MPD2    C4 1120   4.437   0.295   0.865 -0.7531 -0.7596 -0.3991
   72MPD2    C5 1121   4.375   0.348   0.754 -0.5223 -0.0673 -0.1316
   72MPD2     H 1122   0.008   0.293   0.736 -0.4868 -1.6797 -2.2097
   72MPD2    H1 1123   4.375   0.280   0.952 -0.0793  0.2127  0.2340
   72MPD2    H2 1124   4.372   0.367   0.544  1.2439 -0.8750 -0.8753
   72MPD2    H3 1125   4.269   0.370   0.745 -0.3047  0.7448 -0.6806
   72MPD2     N 1126   4.642   0.269   0.983  0.2300  0.3308  0.7176
   72MPD2    H5 1127   4.580   0.254   1.062 -1.2879  1.8202 -0.1922
   72MPD2    N1 1128   4.650   0.391   0.511 -0.2096  0.1197 -0.1809
   72MPD2    H7 1129   0.010   0.373   0.506 -0.5807 -2.2253  0.9193
   73TMC2    C1 1130   4.083   2.074  13.812 -0.0466 -0.1651  0.4821
   73TMC2    C2 1131   3.957   2.086  13.863 -0.2203 -0.0841 -0.3142
   73TMC2    C3 1132   3.933   2.057  13.997  0.5630  0.2250  0.1745
   73TMC2    C4 1133   4.181   2.016  13.893 -0.3378 -0.1175 -0.1351
   73TMC2    C5 1134   4.158   1.995  14.026 -0.7617  0.1836 -0.0394
   73TMC2    C6 1135   4.034   2.017  14.082  0.5100 -0.7021 -0.1580
   73TMC2     C 1136   4.138   2.173  13.723 -0.0387  0.2388  0.8501
   73TMC2     O 1137   4.260   2.186  13.726  0.0964 -0.1102  0.0723
   73TMC2     H 1138   3.886   2.127  13.793  0.4612 -1.3874 -1.7485
   73TMC2    H1 1139   4.267   1.984  13.836 -1.1069 -0.0911 -1.3183
   73TMC2    H2 1140   4.017   2.006  14.189 -0.7119  0.0986 -0.2730
   73TMC2    C7 1141   4.262   2.053  14.095 -0.3901 -0.4183 -0.2022
   73TMC2    C8 1142   3.798   2.015  14.027  0.0204 -0.2634 -0.0247
   73TMC2    O1 1143   4.238   2.066  14.214 -0.1579 -0.3060 -0.6831
   73TMC2    O2 1144   3.737   1.956  13.935 -0.6601  0.3118  0.2029
   73TMC2    O5 1145   3.776   2.004  14.159 -0.1242 -0.0596 -0.1593
   73TMC2    H5 1146   3.840   2.061  14.207  1.1566 -2.6367  1.2645
   74MPD2     C 1147   4.127   2.604  13.455 -0.2857  0.5319 -0.3428
   74MPD2    C1 1148   4.222   2.559  13.545 -0.1298  0.0361 -0.0210
   74MPD2    C2 1149   4.203   2.435  13.601 -0.6725  0.3377 -0.6662
   74MPD2    C3 1150   4.085   2.366  13.580 -0.7093  0.3214  0.0589
   74MPD2    C4 1151   3.982   2.426  13.506 -0.1486 -0.1455 -0.3728
   74MPD2    C5 1152   4.016   2.535  13.428  0.2432  0.2412 -0.1665
   74MPD2     H 1153   4.262   2.405  13.687  0.1173 -2.6377 -2.2366
   74MPD2    H1 1154   3.885   2.382  13.486  0.2227 -0.6902 -0.9719
   74MPD2    H2 1155   4.144   2.697  13.403  0.1830 -0.0636 -1.2362
   74MPD2    H3 1156   3.946   2.581  13.358 -1.3510  0.2871  1.4498
   74MPD2     N 1157   4.054   2.248  13.647  0.3108 -0.2096 -0.2152
   74MPD2    H5 1158   3.958   2.217  13.635  0.3076 -0.5445  0.7298
   74MPD2    N1 1159   4.328   2.645  13.568 -0.3576  0.3632 -0.5090
   74MPD2    H7 1160   4.324   2.743  13.542  0.3000  0.4627 -0.2441
   75TMC2    C1 1161   4.726   3.696  14.142  0.6131  0.4435  0.0511
   75TMC2    C2 1162   4.701   3.560  14.158  0.3665 -0.6848  0.0901
   75TMC2    C3 1163   4.577   3.515  14.122 -0.0890  0.1105 -0.3002
   75TMC2    C4 1164   4.641   3.777  14.077 -0.2703 -0.0648  0.6782
   75TMC2    C5 1165   4.526   3.722  14.029 -0.5448  0.5680 -0.3834
   75TMC2    C6 1166   4.490   3.589  14.049  0.0750  0.3024 -0.4119
   75TMC2     C 1167   0.130   3.750  14.143  0.6435 -0.5212  0.2798
   75TMC2     O 1168   0.156   3.868  14.174  0.3090  0.3862  0.3114
   75TMC2     H 1169   0.023   3.490  14.214 -1.9762 -1.0754  2.2242
   75TMC2    H1 1170   4.669   3.880  14.059 -0.0456 -0.0346  1.2218
   75TMC2    H2 1171   4.398   3.549  14.008  0.3160 -0.9119  0.2486
   75TMC2    C7 1172   4.473   3.789  13.920  0.2558  0.1500  0.6742
   75TMC2    C8 1173   4.541   3.370  14.144 -0.0780  0.6842  0.0676
   75TMC2    O1 1174   4.399   3.719  13.846 -0.2785 -0.0538  0.2197
   75TMC2    O2 1175   4.425   3.337  14.109 -0.3178  0.3859 -0.2753
   75TMC2    O5 1176   4.651   3.298  14.107  0.1447  0.0084 -0.3761
   75TMC2    H5 1177   4.737   3.341  14.088  0.9870 -0.1935  2.9497
   76TMC2    C1 1178   3.272   4.117  12.091 -0.4956 -0.9789 -0.2621
   76TMC2    C2 1179   3.157   4.067  12.038  0.0872 -0.3189  0.2496
   76TMC2    C3 1180   3.085   3.975  12.112  0.9146 -0.4997  0.3838
   76TMC2    C4 1181   3.335   4.060  12.199 -0.0137  1.2767 -0.0377
   76TMC2    C5 1182   3.267   3.963  12.272 -0.0559  0.2538 -0.2068
   76TMC2    C6 1183   3.139   3.923  12.231 -0.1224  0.5037  0.5039
   76TMC2     C 1184   3.326   4.248  12.051  0.1531 -0.5321  0.4108
   76TMC2     O 1185   3.271   4.314  11.965 -0.4838 -0.1290 -0.1680
   76TMC2     H 1186   3.123   4.116  11.947  1.6071  1.0852  0.4525
   76TMC2    H1 1187   3.423   4.104  12.245  1.1452  0.8383 -1.8367
   76TMC2    H2 1188   3.083   3.852  12.291  0.2799 -0.6519 -0.4868
   76TMC2    C7 1189   3.298   3.938  12.405  0.2304  0.5226  0.3922
   76TMC2    C8 1190   2.953   3.915  12.077 -0.4855  0.6716  0.3646
   76TMC2    O1 1191   3.210   3.913  12.483  0.6941 -0.0309 -0.1163
   76TMC2    O2 1192   2.917   3.805  12.119  0.4543  0.5386 -0.2770
   76TMC2    O5 1193   2.911   3.967  11.967 -0.4709 -0.2012  0.4796
   76TMC2    H5 1194   2.922   4.064  11.959  0.1435 -0.4073 -1.2079
   77MPD2     C 1195   3.688   4.625  12.081  0.4142 -0.4691 -0.3039
   77MPD2    C1 1196   3.552   4.632  12.059 -0.2142  0.4747 -0.3296
   77MPD2    C2 1197   3.473   4.518  12.046  0.1271 -0.2633 -0.0363
   77MPD2    C3 1198   3.529   4.393  12.077  0.1865  0.3248 -0.2406
   77MPD2    C4 1199   3.661   4.381  12.088 -0.2721  0.0294 -0.3248
   77MPD2    C5 1200   3.736   4.496  12.094 -0.0007  0.2584  0.4593
   77MPD2     H 1201   3.366   4.533  12.035  0.1507 -0.0371  0.0400
   77MPD2    H1 1202   3.710   4.285  12.094 -1.1766 -0.4434 -0.5242
   77MPD2    H2 1203   3.751   4.709  12.108  0.6922 -0.9803  0.5989
   77MPD2    H3 1204   3.835   4.484  12.135  0.0806 -1.7312 -0.3165
   77MPD2     N 1205   3.461   4.273  12.084  0.0805 -0.0547  0.2598
   77MPD2    H5 1206   3.523   4.199  12.117  1.2167  0.3130 -1.0902
   77MPD2    N1 1207   3.493   0.015  12.028 -0.0749  0.3194  0.2609
   77MPD2    H7 1208   3.392   0.016  12.012 -0.5711  3.7370  3.7036
   78TMC2    C1 1209   4.564   0.875   1.585 -0.6093 -0.0962 -0.1672
   78TMC2    C2 1210   4.451   0.935   1.536 -0.4832  0.2675 -0.0807
   78TMC2    C3 1211   4.435   0.939   1.399  0.0373  0.0323 -0.3053
   78TMC2    C4 1212   4.656   0.823   1.500  0.6951 -0.2954  0.7867
   78TMC2    C5 1213   4.639   0.836   1.364  0.0233  0.2107 -0.3896
   78TMC2    C6 1214   4.526   0.888   1.309  0.3451 -0.2882  0.9417
   78TMC2     C 1215   4.574   0.859   1.730 -0.2490  0.4077  0.3134
   78TMC2     O 1216   4.466   0.870   1.791  0.4254 -0.5524  0.8689
   78TMC2     H 1217   4.378   0.991   1.594  0.9124  3.7342 -1.7029
   78TMC2    H1 1218   0.006   0.773   1.537  0.6047 -1.9151 -1.2030
   78TMC2    H2 1219   4.521   0.916   1.205  0.7188  0.8519  1.2276
   78TMC2    C7 1220   4.736   0.763   1.281  0.8366  0.7289 -0.5152
   78TMC2    C8 1221   4.309   0.982   1.344 -0.0044  0.1211 -0.0153
   78TMC2    O1 1222   0.109   0.744   1.327 -0.5343  0.3169 -0.1200
   78TMC2    O2 1223   4.224   1.053   1.399  0.6183  0.3166 -1.2534
   78TMC2    O5 1224   4.274   0.891   1.244  0.2564  0.0526 -0.3003
   78TMC2    H5 1225   4.343   0.822   1.237 -0.0320 -0.2240 -0.4365
   79MPD1     C 1226   0.095   0.925   2.165 -0.1510 -0.2970 -0.2748
   79MPD1    C1 1227   4.706   0.870   2.143 -0.2871  0.5748  0.4252
   79MPD1    C2 1228   4.662   0.846   2.013 -0.5474  0.4601 -0.1931
   79MPD1    C3 1229   0.003   0.884   1.902 -0.5082  0.7239 -0.0141
   79MPD1    C4 1230   0.135   0.927   1.926 -0.5321 -0.1088  0.3062
   79MPD1    C5 1231   0.170   0.951   2.057 -0.5032  0.2692  0.1285
   79MPD1     H 1232   4.564   0.802   1.996  0.3422 -2.0049  1.0610
   79MPD1    H1 1233   0.203   0.957   1.847 -2.1519  0.7539 -0.7728
   79MPD1    H2 1234   0.126   0.949   2.266 -2.2828 -2.3211  0.8598
   79MPD1    H3 1235   0.268   0.990   2.081  0.2613  0.2121 -2.9263
   79MPD1     N 1236   4.701   0.879   1.764 -0.1615  0.7661 -0.2866
   79MPD1    H5 1237   0.035   0.896   1.698 -0.1709 -0.8162 -0.7009
   79MPD1    N1 1238   4.625   0.836   2.254  0.4899 -0.3580 -1.1643
   79MPD1    H6 1239   4.654   0.887   2.338 -0.4864  0.9222 -1.6185
   79MPD1    H7 1240   4.524   0.824   2.247  0.2955 -0.7403  2.1289
   80TMC2    C1 1241   2.601   4.464  12.326  0.7144 -0.2789  0.2412
   80TMC2    C2 1242   2.662   4.526  12.213  0.1586  0.5480  0.7129
   80TMC2    C3 1243   2.603   4.504  12.092 -0.4012  0.6347  0.1297
   80TMC2    C4 1244   2.490   4.385  12.318 -0.7223  0.0059  0.2583
   80TMC2    C5 1245   2.437   4.361  12.199  0.1137  0.3456 -0.7984
   80TMC2    C6 1246   2.489   4.422  12.082 -0.1472 -0.3956 -0.4835
   80TMC2     C 1247   2.648   4.520  12.451 -0.4844 -0.2996  0.4256
   80TMC2     O 1248   2.770   4.553  12.465  0.2049  0.0774  0.3073
   80TMC2     H 1249   2.754   4.581  12.227  0.0244  1.4513 -1.9763
   80TMC2    H1 1250   2.435   4.346  12.403  2.3973 -1.3910  1.6048
   80TMC2    H2 1251   2.448   4.395  11.985 -0.4812 -1.5521 -0.0200
   80TMC2    C7 1252   2.313   4.306  12.192 -0.4265 -0.0850 -0.5964
   80TMC2    C8 1253   2.676   4.534  11.977 -0.2694 -0.3359  0.5516
   80TMC2    O1 1254   2.242   4.332  12.095 -0.4435 -0.8878 -0.5622
   80TMC2    O2 1255   2.798   4.545  11.975 -0.5277  0.0416 -0.2315
   80TMC2    O5 1256   2.596   4.567  11.876 -0.2283  0.5630  0.5409
   80TMC2    H5 1257   2.504   4.581  11.905 -0.6064  2.2411 -1.4703
   81MPD2     C 1258   2.640   4.635  12.737 -0.0940 -0.1278 -0.1995
   81MPD2    C1 1259   2.536   4.597  12.666 -0.6832  0.7495 -0.4417
   81MPD2    C2 1260   2.410   4.605  12.717 -0.2171  0.9072  0.3384
   81MPD2    C3 1261   2.384   4.670  12.842  0.1489 -0.3977  0.4976
   81MPD2    C4 1262   2.500   4.709  12.916 -0.4951  0.3140  0.5295
   81MPD2    C5 1263   2.626   4.694  12.858 -0.5093  0.1448 -0.0006
   81MPD2     H 1264   2.334   4.556  12.657  1.0038 -1.8122  1.0175
   81MPD2    H1 1265   2.491   0.012  13.015 -0.3621  1.6078 -0.0192
   81MPD2    H2 1266   2.740   4.617  12.702 -0.1246  0.4050 -0.5531
   81MPD2    H3 1267   2.710   4.720  12.922 -1.7910  0.4629  1.5724
   81MPD2     N 1268   2.253   4.710  12.891  0.2408  0.2582 -0.1019
   81MPD2    H5 1269   2.250   0.008  12.985  0.6437 -1.5991  0.6722
   81MPD2    N1 1270   2.545   4.538  12.538 -0.1429  0.0254  0.2267
   81MPD2    H7 1271   2.449   4.527  12.508  0.0348  0.3261 -0.4453
   82TMC2    C1 1272   0.354   3.677  11.864  0.5073 -0.5009  1.4598
   82TMC2    C2 1273   0.373   3.695  11.998  0.1736 -0.7291  0.0885
   82TMC2    C3 1274   0.496   3.653  12.042  0.3257 -0.7345 -0.2457
   82TMC2    C4 1275   0.439   3.604  11.784  0.5328 -0.2905  0.5216
   82TMC2    C5 1276   0.560   3.556  11.837  0.6299  0.2586 -0.4904
   82TMC2    C6 1277   0.586   3.579  11.969 -0.1647 -0.2113 -1.2483
   82TMC2     C 1278   0.217   3.684  11.813 -0.8915  0.1343  0.2096
   82TMC2     O 1279   0.198   3.727  11.705  0.0450  0.2683  0.9414
   82TMC2     H 1280   0.300   3.749  12.058  1.0820 -0.5980  1.0777
   82TMC2    H1 1281   0.411   3.587  11.680  1.7447 -0.4175  0.2183
   82TMC2    H2 1282   0.683   3.554  12.011 -0.9262  0.0921  0.7125
   82TMC2    C7 1283   0.593   3.418  11.814 -0.0728  0.0612  0.4397
   82TMC2    C8 1284   0.524   3.632  12.185 -0.1371 -0.1266 -0.8856
   82TMC2    O1 1285   0.633   3.340  11.903 -0.7586  0.7488 -0.0533
   82TMC2    O2 1286   0.440   3.604  12.269  0.1640  0.0781 -0.6274
   82TMC2    O5 1287   0.637   3.707  12.206  0.1001  0.3808  0.4378
   82TMC2    H5 1288   0.690   3.733  12.128 -1.4306 -0.3016 -0.8270
   83MPD2     C 1289   4.468   3.527  11.847 -0.1915 -0.6677  0.3502
   83MPD2    C1 1290   4.526   3.626  11.768  0.2244  0.5607  1.3222
   83MPD2    C2 1291   4.663   3.644  11.777  0.3735  0.2026  0.0011
   83MPD2    C3 1292   4.737   3.587  11.879 -0.4460  0.3201 -0.7584
   83MPD2    C4 1293   4.672   3.505  11.968 -0.3486 -0.7281  0.0234
   83MPD2    C5 1294   4.541   3.463  11.941  0.6751  0.0220 -0.2669
   83MPD2     H 1295   4.704   3.712  11.704 -0.9877 -1.2404 -2.1203
   83MPD2    H1 1296   4.724   3.457  12.050  0.7863 -1.6976 -1.2627
   83MPD2    H2 1297   4.367   3.500  11.820 -1.0793  1.4987  1.5299
   83MPD2    H3 1298   4.495   3.392  12.008  0.9448  1.6794  1.6867
   83MPD2     N 1299   0.138   3.610  11.899  0.1197 -0.5557 -0.2471
   83MPD2    H5 1300   0.179   3.595  11.990  0.6382  0.3598 -0.3297
   83MPD2    N1 1301   4.445   3.692  11.673 -0.2178 -0.9465 -0.1566
   83MPD2    H7 1302   4.351   3.655  11.679 -0.8241  0.5988 -0.3042
   84TMC2    C1 1303   1.825   3.485  10.789 -0.4110 -0.3143  0.3680
   84TMC2    C2 1304   1.934   3.568  10.774 -0.5115 -0.5543  0.4505
   84TMC2    C3 1305   2.008   3.559  10.661  0.0323 -0.4189 -0.4765
   84TMC2    C4 1306   1.791   3.406  10.684  0.2953  0.3848  0.2625
   84TMC2    C5 1307   1.877   3.395  10.575 -0.8392  0.0935 -0.1076
   84TMC2    C6 1308   1.988   3.468  10.566 -0.3437 -0.1660 -0.0367
   84TMC2     C 1309   1.744   3.500  10.909  0.6173  0.3225 -0.2073
   84TMC2     O 1310   1.789   3.551  11.010  0.2264  0.2089  0.3239
   84TMC2     H 1311   1.967   3.634  10.854  1.3868  1.6472 -2.1883
   84TMC2    H1 1312   1.708   3.338  10.690  0.2344  0.5307  1.0064
   84TMC2    H2 1313   2.049   3.474  10.476  0.4228 -1.1631  0.4233
   84TMC2    C7 1314   1.855   3.286  10.479 -0.8574  0.4165 -0.5831
   84TMC2    C8 1315   2.155   3.584  10.664  0.6634 -0.0100  0.7252
   84TMC2    O1 1316   1.955   3.269  10.404  0.7532  0.6848 -0.4115
   84TMC2    O2 1317   2.247   3.517  10.617  0.0522 -0.0857 -0.2177
   84TMC2    O5 1318   2.168   3.716  10.697  0.1085 -0.6560 -0.4976
   84TMC2    H5 1319   2.079   3.756  10.687  0.0560 -1.2542 -2.2936
   85TMC2    C1 1320   2.831   0.822  16.257 -0.1350 -0.1391  0.3875
   85TMC2    C2 1321   2.768   0.768  16.149  0.1096 -0.0712 -0.7361
   85TMC2    C3 1322   2.721   0.854  16.047 -0.3945  0.5126 -0.3806
   85TMC2    C4 1323   2.848   0.957  16.252 -0.5277 -0.1468  0.2596
   85TMC2    C5 1324   2.802   1.041  16.157 -0.1881 -0.6327  0.7596
   85TMC2    C6 1325   2.748   0.987  16.044  0.5676  0.2871 -0.3555
   85TMC2     C 1326   2.858   0.752  16.384 -0.0767  0.2271  0.5175
   85TMC2     O 1327   2.885   0.826  16.474  0.4934  0.1797 -0.1439
   85TMC2     H 1328   2.768   0.661  16.135 -1.2346 -0.2142  0.4429
   85TMC2    H1 1329   2.880   1.005  16.344  1.6843 -1.3819  0.1318
   85TMC2    H2 1330   2.730   1.053  15.960 -0.2138  1.5535  0.8179
   85TMC2    C7 1331   2.899   1.149  16.127  0.4007 -0.1835 -0.6056
   85TMC2    C8 1332   2.701   0.803  15.916 -0.0675  0.0546  0.0635
   85TMC2    O1 1333   3.003   1.110  16.071 -0.4517  0.7080  0.0033
   85TMC2    O2 1334   2.720   0.856  15.806  0.4744 -0.2826  0.2359
   85TMC2    O5 1335   2.619   0.705  15.938 -0.3639  0.6119 -0.3122
   85TMC2    H5 1336   2.597   0.692  16.033 -0.0149  2.2521 -0.0129
   86MPD2     C 1337   2.700   0.372  16.693 -1.5933  0.0533 -0.7746
   86MPD2    C1 1338   2.662   0.339  16.567  0.7039 -0.5189 -0.1844
   86MPD2    C2 1339   2.705   0.431  16.472  0.0302  0.6558  0.7468
   86MPD2    C3 1340   2.772   0.547  16.494  0.5682 -0.2116  0.5351
   86MPD2    C4 1341   2.800   0.582  16.629  0.1218  0.4853 -0.2324
   86MPD2    C5 1342   2.762   0.486  16.723  0.1098  0.3007  0.4812
   86MPD2     H 1343   2.676   0.412  16.369 -0.3082  0.9577  0.7857
   86MPD2    H1 1344   2.854   0.673  16.651 -0.4496  0.8088 -0.1881
   86MPD2    H2 1345   2.687   0.307  16.779 -2.7657 -0.1815 -1.1252
   86MPD2    H3 1346   2.796   0.507  16.824  0.3616 -1.0842  0.6770
   86MPD2     N 1347   2.811   0.625  16.384  0.0560  0.2910 -0.2388
   86MPD2    H5 1348   2.792   0.581  16.295 -1.2924  0.9763 -0.2964
   86MPD2    N1 1349   2.607   0.220  16.526 -0.8154 -0.2290  0.2743
   86MPD2    H7 1350   2.579   0.211  16.429 -1.5315  1.4790  0.3254
   87TMC2    C1 1351   0.667   3.467   1.402  0.1048 -0.8121  0.5228
   87TMC2    C2 1352   0.728   3.552   1.490  0.3246 -0.0900 -0.0882
   87TMC2    C3 1353   0.648   3.660   1.528 -0.6324  0.1849  0.2402
   87TMC2    C4 1354   0.537   3.486   1.356  0.2888  0.6074  0.2459
   87TMC2    C5 1355   0.465   3.600   1.393 -0.5320  0.2752 -0.5486
   87TMC2    C6 1356   0.517   3.684   1.485 -0.3163 -0.0963  0.1793
   87TMC2     C 1357   0.746   3.374   1.319  1.4060  0.5563 -0.4756
   87TMC2     O 1358   0.709   3.362   1.208  0.0344  0.2423 -1.3364
   87TMC2     H 1359   0.833   3.550   1.516  0.4788  1.3548 -0.6501
   87TMC2    H1 1360   0.497   3.405   1.296  2.8306  0.4928 -1.2940
   87TMC2    H2 1361   0.460   3.770   1.519 -0.3229 -0.1877  0.3978
   87TMC2    C7 1362   0.344   3.637   1.328 -0.1990  0.2190 -0.4590
   87TMC2    C8 1363   0.708   3.745   1.634 -0.1829  0.0404  0.8675
   87TMC2    O1 1364   0.302   3.750   1.330 -0.2866  0.3391 -0.0337
   87TMC2    O2 1365   0.812   3.720   1.691 -0.8215  0.3913 -0.3986
   87TMC2    O5 1366   0.634   3.860   1.650 -0.7277  0.4583 -0.2289
   87TMC2    H5 1367   0.590   3.879   1.565 -0.1560  2.6292 -0.0531
   88MPD2     C 1368   0.113   3.402   1.163  0.5821  0.1858  0.1210
   88MPD2    C1 1369   0.180   3.522   1.186  0.1164 -0.3048 -0.6112
   88MPD2    C2 1370   0.161   3.631   1.103  0.3266  0.8350  0.6404
   88MPD2    C3 1371   0.073   3.620   0.992  0.1815  0.2591 -0.5942
   88MPD2    C4 1372   0.005   3.501   0.983  0.3829  0.3939 -0.9263
   88MPD2    C5 1373   0.016   3.396   1.071  0.3285 -0.4057 -0.1276
   88MPD2     H 1374   0.217   3.723   1.119  2.5488 -0.2776 -0.8190
   88MPD2    H1 1375   4.677   3.497   0.899 -1.5073 -1.3694  0.6825
   88MPD2    H2 1376   0.129   3.311   1.220  0.2054  0.3444  0.4818
   88MPD2    H3 1377   4.699   3.305   1.062  0.2182 -0.5566  2.1375
   88MPD2     N 1378   0.061   3.718   0.891  0.0108 -1.5205 -0.1631
   88MPD2    H5 1379   4.734   3.694   0.818  0.9414 -1.1947 -1.1228
   88MPD2    N1 1380   0.283   3.524   1.283  0.4140  0.0137 -0.7559
   88MPD2    H7 1381   0.297   3.435   1.328  1.6154  0.5360 -0.0977
   89TMC2    C1 1382   1.016   1.719   1.848  0.0367  0.6015 -0.8654
   89TMC2    C2 1383   1.121   1.783   1.907 -0.5783  0.7597 -0.0742
   89TMC2    C3 1384   1.252   1.753   1.872  0.5387 -0.1666  0.1210
   89TMC2    C4 1385   1.034   1.633   1.745 -0.5230  0.3196  0.0981
   89TMC2    C5 1386   1.159   1.613   1.698 -1.1283  0.2241  0.4622
   89TMC2    C6 1387   1.264   1.677   1.758 -0.1271  0.0585 -0.6732
   89TMC2     C 1388   0.885   1.760   1.888 -0.3130  0.3141 -0.1960
   89TMC2     O 1389   0.877   1.856   1.964 -0.2559 -0.9820  0.2968
   89TMC2     H 1390   1.111   1.856   1.986  2.1906  0.6352  0.4127
   89TMC2    H1 1391   0.945   1.626   1.684 -1.5143  0.6641  1.5058
   89TMC2    H2 1392   1.360   1.668   1.709  0.6281 -2.9472  1.3132
   89TMC2    C7 1393   1.175   1.596   1.553 -0.7948 -0.0715 -0.0484
   89TMC2    C8 1394   1.349   1.859   1.898 -0.1047  0.5668 -0.1459
   89TMC2    O1 1395   1.189   1.484   1.510  0.3708 -0.1165 -0.3305
   89TMC2    O2 1396   1.309   1.978   1.911  0.3127 -0.0384 -0.8950
   89TMC2    O5 1397   1.468   1.826   1.856  0.1317  0.1845  0.7747
   89TMC2    H5 1398   1.489   1.731   1.845 -2.3947 -0.4253  1.3757
   90MPD2     C 1399   0.400   1.669   1.936 -0.2122 -0.0533  0.0205
   90MPD2    C1 1400   0.454   1.555   1.895 -0.8669 -0.0328 -0.0581
   90MPD2    C2 1401   0.591   1.548   1.878  0.2447  0.1153  0.1846
   90MPD2    C3 1402   0.664   1.661   1.888  0.0247 -0.7547 -0.2734
   90MPD2    C4 1403   0.603   1.776   1.924 -0.6052  0.0442 -0.0031
   90MPD2    C5 1404   0.471   1.780   1.952 -0.6526  0.2348 -0.2820
   90MPD2     H 1405   0.633   1.456   1.839  0.2665 -0.2317  1.0164
   90MPD2    H1 1406   0.665   1.865   1.920 -1.5553  0.7899  1.6684
   90MPD2    H2 1407   0.292   1.672   1.953 -0.0393 -1.0196  1.3282
   90MPD2    H3 1408   0.425   1.876   1.972  1.6540  0.8577  2.0005
   90MPD2     N 1409   0.796   1.658   1.857 -0.2035  0.6348 -0.0103
   90MPD2    H5 1410   0.833   1.564   1.846 -1.3660 -0.1783  2.8776
   90MPD2    N1 1411   0.363   1.451   1.885  0.1261  0.1481 -0.2430
   90MPD2    H7 1412   0.271   1.469   1.924  1.9859  3.0406  2.8070
   91TMC2    C1 1413   2.603   1.378  16.518  0.1309 -0.3042 -0.5880
   91TMC2    C2 1414   2.616   1.491  16.440 -0.0882 -0.6612 -0.4412
   91TMC2    C3 1415   2.504   1.543  16.385  0.3031  0.2102 -0.1912
   91TMC2    C4 1416   2.481   1.320  16.536 -0.7172 -0.0763  0.5855
   91TMC2    C5 1417   2.378   1.363  16.465  0.2375 -0.1548 -0.0914
   91TMC2    C6 1418   2.387   1.475  16.385  0.2980 -0.0623  0.5829
   91TMC2     C 1419   2.721   1.294  16.534  0.1495 -0.7458  0.2352
   91TMC2     O 1420   2.705   1.194  16.602  0.2757 -0.7868  0.2530
   91TMC2     H 1421   2.709   1.547  16.432  0.1901 -0.6965  2.3091
   91TMC2    H1 1422   2.473   1.234  16.602 -0.2490  1.2820  2.4101
   91TMC2    H2 1423   2.300   1.516  16.336 -0.0978  0.8643  2.0717
   91TMC2    C7 1424   2.256   1.281  16.453  0.3612  0.0741 -0.3706
   91TMC2    C8 1425   2.516   1.663  16.307  0.2998  0.5397 -0.2847
   91TMC2    O1 1426   2.241   1.210  16.548 -0.1713  0.2373 -0.1581
   91TMC2    O2 1427   2.625   1.699  16.268 -0.4499 -0.4506  0.2580
   91TMC2    O5 1428   2.406   1.737  16.326  0.1597 -0.3350 -0.1923
   91TMC2    H5 1429   2.363   1.707  16.409 -0.1334  1.1893  0.1889
   92MPD2     C 1430   2.991   1.159  16.517  0.0833 -0.8069  0.2225
   92MPD2    C1 1431   2.964   1.285  16.473 -0.9692  0.5655  0.7757
   92MPD2    C2 1432   3.070   1.360  16.414 -0.5934  0.3356 -0.4787
   92MPD2    C3 1433   3.196   1.307  16.401  0.4705  0.0133 -0.1427
   92MPD2    C4 1434   3.225   1.190  16.458  0.0997  0.4053  0.1510
   92MPD2    C5 1435   3.129   1.113  16.513 -0.2524  0.0128  0.6361
   92MPD2     H 1436   3.054   1.464  16.390 -0.4205  0.0515 -1.8323
   92MPD2    H1 1437   3.325   1.150  16.458  0.3141  0.9351 -0.6044
   92MPD2    H2 1438   2.918   1.094  16.564  0.8758 -1.3795  0.6761
   92MPD2    H3 1439   3.146   1.014  16.552 -1.3759 -0.0689  0.9068
   92MPD2     N 1440   3.313   1.383  16.365  0.3240 -0.1160  0.1539
   92MPD2    H5 1441   3.408   1.352  16.385  0.0058  0.1494  2.1288
   92MPD2    N1 1442   2.834   1.345  16.476 -0.2412  0.0201  0.6551
   92MPD2    H7 1443   2.825   1.434  16.429  0.3331 -0.7915 -1.0057
   93TMC2    C1 1444   4.541   1.809  14.179 -0.2284 -0.7587 -0.0228
   93TMC2    C2 1445   4.507   1.778  14.308 -0.3553 -0.3472  0.0508
   93TMC2    C3 1446   4.597   1.811  14.403  0.1711 -0.6491  0.3077
   93TMC2    C4 1447   4.652   1.882  14.144 -0.3439  0.1023 -0.5493
   93TMC2    C5 1448   4.737   1.916  14.248 -0.5753  0.3014 -0.2087
   93TMC2    C6 1449   4.713   1.879  14.374  0.1685  0.0812 -0.2511
   93TMC2     C 1450   4.449   1.772  14.069  0.9763 -0.1589 -0.4267
   93TMC2     O 1451   4.497   1.808  13.964  0.4793 -0.1638  0.1271
   93TMC2     H 1452   4.413   1.727  14.330  0.7721 -2.3983  0.1364
   93TMC2    H1 1453   4.676   1.902  14.040  0.2165  2.3570  0.0072
   93TMC2    H2 1454   0.039   1.903  14.456 -0.7427 -0.2654  0.5916
   93TMC2    C7 1455   0.117   1.992  14.224 -0.0203  0.6658 -0.2150
   93TMC2    C8 1456   4.545   1.813  14.542  0.4133  0.0115 -0.4350
   93TMC2    O1 1457   0.204   1.980  14.309 -0.1028  0.2626  0.5518
   93TMC2    O2 1458   4.449   1.742  14.570  0.2905 -0.1288  0.5619
   93TMC2    O5 1459   4.566   1.937  14.591 -0.1131 -0.1576 -0.1843
   93TMC2    H5 1460   4.632   1.990  14.541 -0.7138 -0.2097 -1.0228
   94MPD2     C 1461   4.251   1.683  13.877  0.1256  0.5031  0.0829
   94MPD2    C1 1462   4.232   1.678  14.013  0.6862 -0.1638  0.1266
   94MPD2    C2 1463   4.103   1.662  14.056 -0.6885 -0.2721  0.3191
   94MPD2    C3 1464   3.991   1.662  13.970  0.0932 -0.3161 -0.5416
   94MPD2    C4 1465   4.017   1.685  13.840 -0.3625  0.6402  0.3491
   94MPD2    C5 1466   4.145   1.668  13.793  0.2028  0.1101 -0.4606
   94MPD2     H 1467   4.076   1.659  14.161 -0.0293 -1.0329  0.4653
   94MPD2    H1 1468   3.940   1.687  13.764  1.6076  1.0272 -1.6172
   94MPD2    H2 1469   4.347   1.705  13.831 -0.0388 -0.7770 -0.8724
   94MPD2    H3 1470   4.167   1.679  13.687  2.3894 -0.9355 -0.1241
   94MPD2     N 1471   3.853   1.657  14.016  0.0816  0.3054 -0.2697
   94MPD2    H5 1472   3.783   1.677  13.945 -1.8247  2.8877  2.3410
   94MPD2    N1 1473   4.326   1.717  14.103  0.3429  0.5990  0.1813
   94MPD2    H7 1474   4.289   1.715  14.198  0.3349  1.9616  0.2103
   95TMC2    C1 1475   4.064   3.461  16.693 -0.2483 -0.3003 -0.1377
   95TMC2    C2 1476   4.189   3.489  16.730 -0.4532  0.3240 -0.4735
   95TMC2    C3 1477   4.216   3.514  16.864  0.1047  0.1767 -0.3213
   95TMC2    C4 1478   3.958   3.462  16.790 -0.0443  0.6862  0.3421
   95TMC2    C5 1479   3.994   3.483  16.924  0.2832 -0.0904 -0.8898
   95TMC2    C6 1480   4.123   3.508  16.960  0.0915  0.0412 -0.6344
   95TMC2     C 1481   4.041   3.437  16.554 -0.0506 -0.2418  0.2577
   95TMC2     O 1482   4.115   3.353  16.506 -0.0739 -0.5609  0.5740
   95TMC2     H 1483   4.271   3.461  16.664 -1.3616 -0.7423 -1.1540
   95TMC2    H1 1484   3.853   3.444  16.769  0.2639 -0.4603 -0.2174
   95TMC2    H2 1485   4.154   3.523  17.063  0.2004 -1.6417 -0.4256
   95TMC2    C7 1486   3.892   3.526  17.020  0.1272 -0.4697  0.5155
   95TMC2    C8 1487   4.345   3.478  16.910 -0.2066 -0.3286 -0.4002
   95TMC2    O1 1488   3.912   3.506  17.140 -0.4584  0.3054 -0.0818
   95TMC2    O2 1489   4.354   3.398  17.002  0.5398  0.1688 -0.7330
   95TMC2    O5 1490   4.441   3.539  16.835  0.2637  0.1749  0.4668
   95TMC2    H5 1491   4.420   3.588  16.753  1.9507  1.1758  0.6393
   96MPD2     C 1492   3.802   3.570  16.113 -0.5524 -0.4494  0.3535
   96MPD2    C1 1493   3.933   3.528  16.131  0.4273 -0.8378 -0.1803
   96MPD2    C2 1494   3.973   3.501  16.262 -0.1250  0.3722 -0.0878
   96MPD2    C3 1495   3.889   3.512  16.374 -0.3827 -0.1013 -0.0113
   96MPD2    C4 1496   3.766   3.571  16.353  0.0449  0.1332 -0.0971
   96MPD2    C5 1497   3.726   3.592  16.224 -0.2653 -0.5672  0.0746
   96MPD2     H 1498   4.074   3.467  16.282  0.0208  1.0649  0.3688
   96MPD2    H1 1499   3.698   3.592  16.435 -2.3522 -0.0510 -2.0485
   96MPD2    H2 1500   3.756   3.580  16.015 -0.6465 -1.3823  0.3014
   96MPD2    H3 1501   3.622   3.608  16.199 -0.3503  1.1661  1.5294
   96MPD2     N 1502   3.919   3.481  16.509  0.2701  0.1022  0.4796
   96MPD2    H5 1503   3.856   3.520  16.579  0.3945 -0.8001  1.1098
   96MPD2    N1 1504   4.015   3.514  16.014  0.1613 -0.5455 -0.5868
   96MPD2    H7 1505   3.984   3.565  15.932 -0.7673  1.6415  1.1100
   97TMC2    C1 1506   2.356   1.548   0.316 -0.4973  0.0660  0.1994
   97TMC2    C2 1507   2.276   1.513   0.211 -0.7997 -0.3659 -0.2061
   97TMC2    C3 1508   2.288   1.587   0.100 -0.3276  0.4889  0.4721
   97TMC2    C4 1509   2.439   1.653   0.311  0.0036 -0.3880 -0.7534
   97TMC2    C5 1510   2.446   1.726   0.195  0.0538  0.6338  0.0651
   97TMC2    C6 1511   2.370   1.694   0.084 -0.3703  0.3110  0.2881
   97TMC2     C 1512   2.334   1.477   0.443  0.9492  0.4525 -0.1973
   97TMC2     O 1513   2.262   1.380   0.435 -0.7630 -0.6196 -0.3182
   97TMC2     H 1514   2.221   1.420   0.223 -1.4401  0.1047  0.4980
   97TMC2    H1 1515   2.511   1.685   0.385  0.5848 -0.4100 -1.3045
   97TMC2    H2 1516   2.383   1.731  17.740 -0.5789  0.1209  0.1936
   97TMC2    C7 1517   2.543   1.834   0.200 -0.5421  0.4432 -0.3751
   97TMC2    C8 1518   2.235   1.525  17.741  1.1989  0.1075 -0.4825
   97TMC2    O1 1519   2.604   1.865   0.303 -0.0006  0.4166  0.0542
   97TMC2    O2 1520   2.277   1.563  17.633 -0.4396  0.5206 -0.6090
   97TMC2    O5 1521   2.101   1.516   0.006 -0.0887 -0.3508  0.8232
   97TMC2    H5 1522   2.068   1.516   0.098  2.6248 -2.2698  1.8302
   98MPD2     C 1523   2.289   1.510   0.951 -0.0996 -0.1151  0.0611
   98MPD2    C1 1524   2.259   1.402   0.873  0.7450  0.1654 -0.1563
   98MPD2    C2 1525   2.290   1.408   0.735  0.0500 -0.3162  0.1391
   98MPD2    C3 1526   2.352   1.519   0.686 -0.0474 -0.0684 -0.2108
   98MPD2    C4 1527   2.389   1.622   0.771  0.7217  0.4480  0.0112
   98MPD2    C5 1528   2.356   1.616   0.901 -0.4211 -0.5250  0.3797
   98MPD2     H 1529   2.267   1.322   0.673 -1.6509  0.0242  0.2862
   98MPD2    H1 1530   2.454   1.703   0.738  0.9161  0.5954  0.7569
   98MPD2    H2 1531   2.265   1.506   1.057 -1.0043 -0.4483 -0.1556
   98MPD2    H3 1532   2.395   1.694   0.965  0.2827 -0.5590  0.0067
   98MPD2     N 1533   2.380   1.546   0.552 -0.2424  0.2814  0.0071
   98MPD2    H5 1534   2.445   1.621   0.530 -0.7466  0.8194  0.3266
   98MPD2    N1 1535   2.183   1.290   0.925  0.3803 -0.5688 -0.0535
   98MPD2    H7 1536   2.163   1.301   1.024  0.2963  0.1140 -0.1486
   99TMC2    C1 1537   1.201   2.990   2.029 -0.4479 -0.1274  0.2667
   99TMC2    C2 1538   1.289   3.084   2.061  0.4304 -0.4492  0.1847
   99TMC2    C3 1539   1.244   3.201   2.115 -0.4216  0.4589 -0.5952
   99TMC2    C4 1540   1.064   3.010   2.047 -0.4251  0.4596 -0.1696
   99TMC2    C5 1541   1.025   3.133   2.100  0.0608  0.3075  0.2876
   99TMC2    C6 1542   1.113   3.229   2.139 -0.3259  0.0432 -0.3896
   99TMC2     C 1543   1.253   2.856   1.997 -0.7826 -0.1744 -0.2046
   99TMC2     O 1544   1.371   2.825   2.024 -0.0989  0.0219  0.5961
   99TMC2     H 1545   1.395   3.062   2.053  0.6310  0.2950  0.7816
   99TMC2    H1 1546   0.997   2.926   2.035  1.7399 -1.1501 -0.9828
   99TMC2    H2 1547   1.082   3.317   2.193 -0.4846 -0.4117  0.2597
   99TMC2    C7 1548   0.879   3.158   2.114 -0.0849  0.0653 -0.0526
   99TMC2    C8 1549   1.341   3.298   2.154  0.3167  0.2325  0.5498
   99TMC2    O1 1550   0.857   3.249   2.188 -0.0511  0.1389 -0.1694
   99TMC2    O2 1551   1.297   3.410   2.185 -0.1217  0.2327  0.7489
   99TMC2    O5 1552   1.431   3.232   2.232 -0.5630 -0.1080 -0.0319
   99TMC2    H5 1553   1.420   3.135   2.224 -1.8656  0.0226  0.1777
  100MPD2     C 1554   1.270   2.556   1.932  0.3670  0.0495  0.3070
  100MPD2    C1 1555   1.169   2.642   1.892 -0.2909  0.0195 -0.5379
  100MPD2    C2 1556   1.065   2.592   1.819  0.2862 -0.5164 -0.4975
  100MPD2    C3 1557   1.071   2.466   1.769 -0.7444  0.5427  0.6899
  100MPD2    C4 1558   1.174   2.379   1.809 -0.0503 -0.2993  0.8328
  100MPD2    C5 1559   1.273   2.425   1.887  0.1991  0.3351 -0.0498
  100MPD2     H 1560   0.974   2.651   1.821 -0.3021 -1.3594 -2.2780
  100MPD2    H1 1561   1.172   2.273   1.785  1.1207 -0.0197 -0.4533
  100MPD2    H2 1562   1.358   2.587   1.989  1.9101  1.2662 -2.7445
  100MPD2    H3 1563   1.357   2.360   1.908  1.0220  2.2236  2.6155
  100MPD2     N 1564   0.952   2.420   1.703 -0.2349  0.1064  0.5177
  100MPD2    H5 1565   0.886   2.495   1.682  1.7552  1.6556 -0.2715
  100MPD2    N1 1566   1.159   2.778   1.929  0.3021 -0.4821 -0.0373
  100MPD2    H7 1567   1.083   2.829   1.886  0.8759 -0.3590 -0.9246
  101TMC2    C1 1568   1.261   0.043  13.346  0.1482 -1.0633  0.4231
  101TMC2    C2 1569   1.175   0.137  13.405 -0.1107  0.1247  1.0493
  101TMC2    C3 1570   1.185   0.264  13.359 -0.4520  0.7694 -0.0490
  101TMC2    C4 1571   1.374   0.082  13.273 -0.6266  0.5746 -0.8475
  101TMC2    C5 1572   1.394   0.216  13.258 -0.2309  0.5620 -0.4510
  101TMC2    C6 1573   1.293   0.303  13.283  0.0040 -0.0658 -0.1148
  101TMC2     C 1574   1.220   4.645  13.356 -0.4341 -0.1233 -0.0335
  101TMC2     O 1575   1.165   4.607  13.461  0.2348  0.0450 -0.0119
  101TMC2     H 1576   1.087   0.110  13.463  0.7897 -2.8867  1.0235
  101TMC2    H1 1577   1.444   0.006  13.238 -1.6862 -0.9823  0.4523
  101TMC2    H2 1578   1.297   0.408  13.256 -0.0792 -0.3793 -1.3511
  101TMC2    C7 1579   1.485   0.256  13.154 -0.1341 -0.5848  0.0631
  101TMC2    C8 1580   1.074   0.354  13.376  0.7903  0.2834  0.5898
  101TMC2    O1 1581   1.598   0.223  13.175  0.3002  0.4280 -0.0699
  101TMC2    O2 1582   1.084   0.474  13.356  0.2543 -0.0540 -0.1881
  101TMC2    O5 1583   0.971   0.278  13.323 -0.4186 -0.0194 -0.5913
  101TMC2    H5 1584   0.996   0.183  13.320  0.6917  0.2502 -0.0324
  102MPD2     C 1585   1.287   4.370  13.106  0.0819  0.3939 -0.1747
  102MPD2    C1 1586   1.239   4.430  13.227 -0.2601  0.4504 -0.5894
  102MPD2    C2 1587   1.180   4.346  13.321 -0.1261  0.1907 -0.7267
  102MPD2    C3 1588   1.170   4.209  13.290 -0.6639 -0.3207 -0.3793
  102MPD2    C4 1589   1.225   4.160  13.174  0.3828  0.4785 -0.5204
  102MPD2    C5 1590   1.278   4.240  13.080 -0.1681 -0.3272  0.2300
  102MPD2     H 1591   1.146   4.382  13.417 -1.2699  0.6324 -1.3004
  102MPD2    H1 1592   1.210   4.057  13.145  0.3779  0.1401  0.6897
  102MPD2    H2 1593   1.328   4.441  13.035  1.8989 -1.0228 -0.5457
  102MPD2    H3 1594   1.299   4.190  12.986 -0.5837  0.4610 -0.2860
  102MPD2     N 1595   1.112   4.119  13.384  0.1802 -0.0083  0.1831
  102MPD2    H5 1596   1.087   4.166  13.470 -2.2836  0.4627 -0.7939
  102MPD2    N1 1597   1.253   4.572  13.243  0.2683  0.2287 -0.4638
  102MPD2    H7 1598   1.292   4.625  13.167 -1.4786  0.5249 -1.1588
  103TMC2    C1 1599   4.075   4.048  12.589  0.4661  0.4920  0.6017
  103TMC2    C2 1600   4.171   3.995  12.513 -0.7989 -0.2979 -0.0799
  103TMC2    C3 1601   4.299   4.031  12.546  0.1590 -0.2312 -0.7714
  103TMC2    C4 1602   4.095   4.111  12.709 -0.2204  0.1387 -0.1815
  103TMC2    C5 1603   4.223   4.144  12.741 -0.1744  0.1321 -0.2453
  103TMC2    C6 1604   4.325   4.105  12.665  0.0312 -0.5703  0.6840
  103TMC2     C 1605   3.945   3.996  12.558 -0.6231  0.1148 -0.3277
  103TMC2     O 1606   3.932   3.930  12.454  0.3882 -0.5485  0.4883
  103TMC2     H 1607   4.153   3.957  12.413  0.3669 -0.7439 -0.1244
  103TMC2    H1 1608   4.016   4.146  12.774  0.9035  0.1148  1.1935
  103TMC2    H2 1609   4.425   4.131  12.698  0.8111  0.6571 -2.5919
  103TMC2    C7 1610   4.239   4.222  12.862  0.6874  0.4945 -0.3730
  103TMC2    C8 1611   4.400   3.990  12.449  0.4733 -0.3825 -0.7269
  103TMC2    O1 1612   4.329   4.200  12.944 -0.0358 -0.7724  0.1505
  103TMC2    O2 1613   4.390   3.909  12.355 -0.0378  0.4893 -0.0984
  103TMC2    O5 1614   4.480   4.101  12.446  0.2516  0.3298  0.1874
  103TMC2    H5 1615   4.431   4.173  12.492  3.3301  1.6983  1.3417
  104MPD2     C 1616   3.646   3.989  12.781 -0.1511 -0.4627  0.2041
  104MPD2    C1 1617   3.712   3.981  12.658  0.3847  0.3495  0.8233
  104MPD2    C2 1618   3.641   3.967  12.543 -0.5688  0.4790 -0.6052
  104MPD2    C3 1619   3.502   3.951  12.546 -0.3962  0.4074  0.3033
  104MPD2    C4 1620   3.435   3.951  12.665  0.2861  0.4257  0.6076
  104MPD2    C5 1621   3.510   3.981  12.781  0.0469 -1.1844  0.5206
  104MPD2     H 1622   3.694   3.983  12.450  0.6137  0.9757  0.1615
  104MPD2    H1 1623   3.328   3.956  12.679  0.2961 -0.3929  0.9917
  104MPD2    H2 1624   3.703   4.016  12.869 -1.4420  0.3527  0.7941
  104MPD2    H3 1625   3.456   3.990  12.874 -0.3759 -0.5447  0.2172
  104MPD2     N 1626   3.433   3.945  12.422  0.0144  0.7792 -0.3755
  104MPD2    H5 1627   3.494   3.941  12.341  2.7151 -0.7750  1.7211
  104MPD2    N1 1628   3.852   4.012  12.657 -0.8470 -0.5289 -0.4836
  104MPD2    H7 1629   3.894   4.046  12.743 -2.7393 -0.1671  0.2931
  105TMC2    C1 1630   1.295   3.182   0.581  0.3058 -0.5282 -0.2987
  105TMC2    C2 1631   1.244   3.309   0.568 -0.6844  0.1814  0.0533
  105TMC2    C3 1632   1.138   3.347   0.645  0.2597  0.0995  0.0620
  105TMC2    C4 1633   1.247   3.102   0.679 -0.9720 -0.6041 -0.5005
  105TMC2    C5 1634   1.141   3.146   0.761 -0.4448 -0.3508  0.2017
  105TMC2    C6 1635   1.081   3.271   0.752  0.1934 -0.2239 -0.4986
  105TMC2     C 1636   1.422   3.145   0.518 -0.2156  0.1162  0.3594
  105TMC2     O 1637   1.485   3.050   0.564 -0.2249  0.3530 -0.3800
  105TMC2     H 1638   1.280   3.382   0.496 -1.1113  2.6527  2.3277
  105TMC2    H1 1639   1.287   3.004   0.705 -0.7264  0.1819  2.1075
  105TMC2    H2 1640   0.985   3.294   0.796  0.1099 -2.5481  0.5623
  105TMC2    C7 1641   1.135   3.081   0.895  0.1240  0.2711 -1.3872
  105TMC2    C8 1642   1.060   3.455   0.585  0.4416  0.6079  0.6034
  105TMC2    O1 1643   1.179   2.967   0.912 -0.0887  0.3250 -0.2319
  105TMC2    O2 1644   1.070   3.473   0.465 -0.0525 -0.1788  0.0755
  105TMC2    O5 1645   0.949   3.476   0.654  0.0046 -0.6415  0.6502
  105TMC2    H5 1646   0.968   3.474   0.751 -0.1936  0.0795  0.7088
  106MPD2     C 1647   1.717   3.120   0.092 -0.0842  0.5079  0.0095
  106MPD2    C1 1648   1.629   3.227   0.081 -0.7001 -0.3146 -0.4261
  106MPD2    C2 1649   1.549   3.266   0.194  0.1755 -0.5468  0.3275
  106MPD2    C3 1650   1.549   3.195   0.317  0.2958 -0.1236 -0.0527
  106MPD2    C4 1651   1.632   3.087   0.324  0.5701  0.4304 -0.5484
  106MPD2    C5 1652   1.724   3.060   0.220  0.4553  0.1195  0.1161
  106MPD2     H 1653   1.487   3.354   0.180  1.3483  0.4643  1.5262
  106MPD2    H1 1654   1.644   3.026   0.413  0.3519  3.2532  1.4052
  106MPD2    H2 1655   1.769   3.068   0.012 -1.8755 -1.2246 -0.0388
  106MPD2    H3 1656   1.770   2.962   0.222 -0.9516 -0.5102  1.9391
  106MPD2     N 1657   1.445   3.218   0.409  0.0302  0.1273  0.1298
  106MPD2    H5 1658   1.384   3.297   0.389 -1.0657 -0.7527 -0.0361
  106MPD2    N1 1659   1.597   3.284  17.716 -0.0536  0.2574 -0.1603
  106MPD2    H7 1660   1.532   3.361  17.718 -0.5625 -0.1382 -2.0254
  107TMC2    C1 1661   1.379   3.649  11.778  0.6751 -0.0440  0.4069
  107TMC2    C2 1662   1.387   3.782  11.752  1.0216 -0.2447 -0.9063
  107TMC2    C3 1663   1.406   3.820  11.622  0.6791  0.4344 -0.0104
  107TMC2    C4 1664   1.382   3.552  11.678  0.4482 -0.6179  0.7952
  107TMC2    C5 1665   1.414   3.590  11.554  0.3683  0.3223 -0.3749
  107TMC2    C6 1666   1.421   3.725  11.523  0.5812 -0.3802 -0.0102
  107TMC2     C 1667   1.341   3.605  11.913  1.2979 -0.6352 -0.5950
  107TMC2     O 1668   1.351   3.487  11.949 -0.2236  0.1992 -0.2785
  107TMC2     H 1669   1.410   3.858  11.825  0.9008 -2.6260  1.6026
  107TMC2    H1 1670   1.351   3.451  11.703 -1.9295 -0.2221 -0.5132
  107TMC2    H2 1671   1.435   3.758  11.421 -1.5563 -0.5289 -0.3514
  107TMC2    C7 1672   1.406   3.487  11.462 -0.4376  0.4984 -0.2906
  107TMC2    C8 1673   1.454   3.950  11.583  0.8140 -0.6605  0.9167
  107TMC2    O1 1674   1.334   3.392  11.485  0.2504  0.2783 -0.8132
  107TMC2    O2 1675   1.565   3.975  11.544 -0.0881  0.4089  0.2285
  107TMC2    O5 1676   1.371   4.042  11.638  0.1913 -0.7454  0.3907
  107TMC2    H5 1677   1.294   3.985  11.661 -1.1970 -0.0849 -2.5189
  108MPD2     C 1678   1.176   3.821  12.155 -0.9485 -0.1300  0.2404
  108MPD2    C1 1679   1.247   3.708  12.122 -0.6826 -0.4007  0.3254
  108MPD2    C2 1680   1.235   3.596  12.205  0.3214  0.0027 -0.5626
  108MPD2    C3 1681   1.160   3.602  12.324 -0.0652 -0.3916  0.2730
  108MPD2    C4 1682   1.089   3.718  12.348  0.4471  0.2468 -0.0918
  108MPD2    C5 1683   1.095   3.826  12.262 -0.1201  0.0175  0.4339
  108MPD2     H 1684   1.292   3.506  12.188 -1.5869 -1.3505  0.1561
  108MPD2    H1 1685   1.027   3.729  12.436  2.1848  2.0096  0.9281
  108MPD2    H2 1686   1.178   3.914  12.099 -0.3251  0.9789  2.1055
  108MPD2    H3 1687   1.041   3.919  12.273 -1.1022 -0.3450 -1.3875
  108MPD2     N 1688   1.139   3.497  12.415 -0.2567 -0.5452  0.4125
  108MPD2    H5 1689   1.087   3.511  12.502  2.3018  1.1929  1.6670
  108MPD2    N1 1690   1.299   3.711  11.989  0.1971  0.1266  0.1316
  108MPD2    H7 1691   1.278   3.798  11.941 -2.8650  0.6011  2.3752
  109TMC2    C1 1692   1.481   0.103   0.531  0.5069  0.8103 -0.1923
  109TMC2    C2 1693   1.559   0.040   0.447 -0.4901 -0.2421 -0.4064
  109TMC2    C3 1694   1.686   0.087   0.453  0.1504 -0.1840 -0.4115
  109TMC2    C4 1695   1.522   0.214   0.609 -0.2495  0.8706  1.0481
  109TMC2    C5 1696   1.651   0.242   0.614 -0.8828 -0.0051 -0.6968
  109TMC2    C6 1697   1.741   0.181   0.536  0.0304  0.1312 -0.1026
  109TMC2     C 1698   1.348   0.037   0.532 -0.2147 -0.2124 -0.4227
  109TMC2     O 1699   1.314   4.684   0.459 -0.3965  0.2628 -0.1558
  109TMC2     H 1700   1.530   4.684   0.405 -0.9882  0.0453 -0.7092
  109TMC2    H1 1701   1.451   0.277   0.662  0.9095  2.3784  0.8030
  109TMC2    H2 1702   1.847   0.198   0.542 -0.1410  1.7181 -1.6126
  109TMC2    C7 1703   1.700   0.332   0.710 -0.2342 -0.0760  0.0289
  109TMC2    C8 1704   1.770   0.022   0.364  0.0598 -0.4682  0.3334
  109TMC2    O1 1705   1.814   0.378   0.698  0.1736 -0.3038 -0.5189
  109TMC2    O2 1706   1.891   0.015   0.386  0.5129  0.4435 -0.3239
  109TMC2    O5 1707   1.721   0.065   0.246 -0.7005 -0.0236 -0.2043
  109TMC2    H5 1708   1.628   0.093   0.256 -1.0275 -1.3673  0.4866
  110MPD2     C 1709   0.855   0.074   0.675 -0.9730  0.4366  0.2551
  110MPD2    C1 1710   0.933   0.160   0.749 -0.9702 -0.2773  0.1811
  110MPD2    C2 1711   1.067   0.157   0.739 -0.3107  0.1724 -0.0026
  110MPD2    C3 1712   1.130   0.073   0.653  1.1350  0.1679  1.0628
  110MPD2    C4 1713   1.055   4.732   0.575 -0.2644 -0.2779 -0.0701
  110MPD2    C5 1714   0.920   4.734   0.589 -0.1016  0.2384 -0.5197
  110MPD2     H 1715   1.122   0.232   0.793 -2.4756  2.4358 -0.9100
  110MPD2    H1 1716   1.089   4.665   0.497 -0.0080  0.4826 -0.6028
  110MPD2    H2 1717   0.750   0.100   0.669 -0.5923  1.7160 -0.8018
  110MPD2    H3 1718   0.862   4.667   0.526 -0.4935 -0.5953  0.7344
  110MPD2     N 1719   1.269   0.098   0.630  0.6508  0.1460  0.0349
  110MPD2    H5 1720   1.319   0.166   0.686  1.1717 -0.3550  0.1877
  110MPD2    N1 1721   0.870   0.264   0.824  0.1972 -0.1390  0.1177
  110MPD2    H7 1722   0.930   0.337   0.861  1.5353 -0.8782 -0.5947
  111TMC2    C1 1723   1.141   0.519  12.048 -1.0263  0.5889 -0.4070
  111TMC2    C2 1724   1.065   0.476  12.152  0.5805  0.0883  0.3189
  111TMC2    C3 1725   1.127   0.468  12.273 -0.3504  0.6534 -0.4232
  111TMC2    C4 1726   1.278   0.537  12.056  0.7785  0.0691  0.0775
  111TMC2    C5 1727   1.334   0.522  12.178  0.7332  0.2806 -0.2550
  111TMC2    C6 1728   1.258   0.499  12.288  1.5931 -0.1986 -0.1434
  111TMC2     C 1729   1.088   0.545  11.916  0.1948 -0.1952  0.6616
  111TMC2     O 1730   1.140   0.633  11.848  0.7202  0.1371 -0.4289
  111TMC2     H 1731   0.961   0.446  12.148  0.8742 -1.2574  2.8499
  111TMC2    H1 1732   1.341   0.554  11.970  1.3804 -0.7832  0.3475
  111TMC2    H2 1733   1.300   0.478  12.386  2.0277  0.2315 -0.2391
  111TMC2    C7 1734   1.476   0.530  12.210 -0.0640  0.3603 -0.0651
  111TMC2    C8 1735   1.055   0.407  12.386 -0.0827 -0.6229  0.2856
  111TMC2    O1 1736   1.504   0.557  12.326 -0.2049 -0.1738 -0.5181
  111TMC2    O2 1737   0.967   0.326  12.367 -0.3060  0.1264 -0.0773
  111TMC2    O5 1738   1.105   0.453  12.506 -0.0214 -0.3019  0.3838
  111TMC2    H5 1739   1.116   0.550  12.503  1.2795 -0.4220  1.7989
  112MPD2     C 1740   0.774   0.427  11.529 -0.1050 -0.8828 -0.1482
  112MPD2    C1 1741   0.869   0.532  11.544  0.4963  0.7654  0.2930
  112MPD2    C2 1742   0.939   0.540  11.664 -0.0321  0.4732 -0.4965
  112MPD2    C3 1743   0.921   0.440  11.763 -0.8518  0.5119  0.1884
  112MPD2    C4 1744   0.833   0.336  11.741  0.2696 -0.3778  0.4457
  112MPD2    C5 1745   0.760   0.329  11.628  0.3720 -0.2362  0.2151
  112MPD2     H 1746   1.015   0.615  11.677  0.6510  0.1882 -2.7428
  112MPD2    H1 1747   0.824   0.254  11.811  1.0989 -1.5796 -0.8585
  112MPD2    H2 1748   0.695   0.419  11.455 -1.6073  2.8239  1.0406
  112MPD2    H3 1749   0.690   0.247  11.617  2.6084 -2.4280  2.1312
  112MPD2     N 1750   0.993   0.443  11.882 -0.6802 -0.8937 -0.3303
  112MPD2    H5 1751   0.988   0.365  11.947  0.1537  0.0771  0.9042
  112MPD2    N1 1752   0.895   0.625  11.441  0.3770  0.2945 -0.0778
  112MPD2    H7 1753   0.957   0.703  11.457 -0.1972  0.7807 -0.2006
  113TMC2    C1 1754   4.356   2.418   1.271  0.3310  0.2555  0.1380
  113TMC2    C2 1755   4.271   2.450   1.163  0.5158  0.7684 -0.7241
  113TMC2    C3 1756   4.169   2.364   1.137 -0.3973  0.2715  0.1413
  113TMC2    C4 1757   4.331   2.312   1.352  0.1770 -0.5002 -0.3938
  113TMC2    C5 1758   4.228   2.226   1.319  0.0711 -0.4306  0.0303
  113TMC2    C6 1759   4.140   2.254   1.214 -0.0451 -0.5849 -0.4091
  113TMC2     C 1760   4.436   2.526   1.324 -0.3923 -0.5936  0.6505
  113TMC2     O 1761   4.396   2.633   1.302 -0.1640 -0.2668  0.6515
  113TMC2     H 1762   4.288   2.536   1.099 -0.5283  0.7419 -1.0292
  113TMC2    H1 1763   4.397   2.296   1.437  0.8588 -0.5834 -0.9469
  113TMC2    H2 1764   4.052   2.195   1.191 -1.7178  0.3040  3.6380
  113TMC2    C7 1765   4.188   2.138   1.433  0.4880  0.2546  0.0129
  113TMC2    C8 1766   4.076   2.407   1.032 -0.2049 -0.3596  0.2525
  113TMC2    O1 1767   4.259   2.136   1.532 -0.6100  0.0972 -0.1380
  113TMC2    O2 1768   4.093   2.510   0.967  0.3514 -0.2732 -0.1343
  113TMC2    O5 1769   3.968   2.328   1.033 -0.2562  0.0481  0.0115
  113TMC2    H5 1770   3.951   2.258   1.100  2.4515 -2.1128 -1.5357
  114MPD2     C 1771   0.163   2.712   1.470 -0.0067 -0.0624 -0.2621
  114MPD2    C1 1772   0.043   2.776   1.445  0.6373 -0.4391 -0.2250
  114MPD2    C2 1773   4.672   2.697   1.406 -0.3221  1.3336  0.5919
  114MPD2    C3 1774   4.666   2.560   1.409 -0.7382  0.0392  0.5444
  114MPD2    C4 1775   0.039   2.496   1.442  0.0438 -0.2074 -0.1757
  114MPD2    C5 1776   0.150   2.575   1.461 -0.1863  0.6006 -0.6560
  114MPD2     H 1777   4.574   2.744   1.396 -1.4821 -1.1702  0.3320
  114MPD2    H1 1778   0.049   2.388   1.445  0.6619 -0.1199  0.9964
  114MPD2    H2 1779   0.254   2.769   1.482 -1.0853  1.6438 -0.2205
  114MPD2    H3 1780   0.242   2.522   1.484 -0.5302  1.1423  2.0318
  114MPD2     N 1781   4.555   2.481   1.370  0.8717 -0.1353  0.3485
  114MPD2    H5 1782   4.572   2.381   1.367 -0.8649 -0.4251  0.0799
  114MPD2    N1 1783   0.021   2.912   1.473  0.0608 -0.7572 -0.3333
  114MPD2    H7 1784   4.666   2.948   1.468  1.0185  1.9116  0.8841
  115TMC2    C1 1785   1.000   0.764   0.091  0.6840  0.4680  0.1383
  115TMC2    C2 1786   1.000   0.734   0.225 -0.4195  0.0245  0.1321
  115TMC2    C3 1787   1.050   0.832   0.309  0.1239  0.5290 -0.2438
  115TMC2    C4 1788   1.054   0.883   0.053  0.3436 -0.4529 -0.4517
  115TMC2    C5 1789   1.110   0.969   0.141 -0.8329 -1.0040  0.0568
  115TMC2    C6 1790   1.104   0.951   0.273  0.4271 -0.0566  0.5347
  115TMC2     C 1791   0.920   0.686  17.757 -0.4480 -0.2921 -0.2588
  115TMC2     O 1792   0.906   0.571   0.035 -0.7084 -0.3471 -0.4870
  115TMC2     H 1793   0.972   0.634   0.254 -0.4277  0.3166  1.1019
  115TMC2    H1 1794   1.060   0.910  17.705  0.6188 -1.4073 -0.6804
  115TMC2    H2 1795   1.125   1.032   0.341  1.6453  1.1056 -1.2400
  115TMC2    C7 1796   1.196   1.078   0.104 -0.0549  0.5113  0.5502
  115TMC2    C8 1797   1.065   0.796   0.446 -0.4002  0.4819  0.4056
  115TMC2    O1 1798   1.288   1.112   0.178 -0.4945  0.6803  0.4799
  115TMC2    O2 1799   1.044   0.681   0.479 -0.5121 -0.2411 -0.4357
  115TMC2    O5 1800   1.037   0.902   0.528 -0.1355  0.4980  0.4793
  115TMC2    H5 1801   1.016   0.990   0.491  0.4930 -0.6315 -2.6176
  116MPD2     C 1802   0.530   0.654  17.426  0.1860 -1.2013 -0.1011
  116MPD2    C1 1803   0.606   0.552  17.484  0.2745  0.0950  0.0346
  116MPD2    C2 1804   0.717   0.585  17.560 -0.1616  0.4469 -0.0250
  116MPD2    C3 1805   0.754   0.715  17.577 -0.2209  0.4934 -0.7058
  116MPD2    C4 1806   0.690   0.814  17.507  1.0494 -0.2996  0.3463
  116MPD2    C5 1807   0.575   0.781  17.441  0.2819  0.3416  0.1096
  116MPD2     H 1808   0.768   0.508  17.616 -0.3902 -0.5082 -1.1269
  116MPD2    H1 1809   0.724   0.917  17.508  0.5320 -0.1170 -0.9974
  116MPD2    H2 1810   0.447   0.646  17.356  0.3715  0.7015 -0.5483
  116MPD2    H3 1811   0.510   0.859  17.405  0.0670  0.0847 -0.0582
  116MPD2     N 1812   0.853   0.761  17.664 -0.5332 -0.1880  0.1591
  116MPD2    H5 1813   0.868   0.861  17.671  0.6658 -0.2609 -1.2102
  116MPD2    N1 1814   0.559   0.420  17.467  0.7145 -0.2823 -0.1384
  116MPD2    H7 1815   0.479   0.406  17.405  0.5789 -0.9048  0.1778
  117TMC2    C1 1816   3.621   2.661  14.280 -0.1079  0.4333  0.3635
  117TMC2    C2 1817   3.686   2.579  14.370  0.8706  0.1361 -0.0161
  117TMC2    C3 1818   3.809   2.627  14.415  0.9729  0.2281 -0.0572
  117TMC2    C4 1819   3.674   2.788  14.256 -0.4876 -0.5754  0.5487
  117TMC2    C5 1820   3.790   2.830  14.307 -0.5291 -0.8194 -0.0178
  117TMC2    C6 1821   3.864   2.749  14.385 -0.5646 -0.3837 -0.0012
  117TMC2     C 1822   3.503   2.609  14.217 -0.3117  0.0631 -0.0628
  117TMC2     O 1823   3.454   2.509  14.270  0.6108 -0.2617  0.5414
  117TMC2     H 1824   3.669   2.474  14.390  2.6840 -0.3336 -0.9217
  117TMC2    H1 1825   3.618   2.849  14.186 -1.4863 -2.3579 -0.1926
  117TMC2    H2 1826   3.966   2.774  14.413 -0.7743  1.5786 -0.9604
  117TMC2    C7 1827   3.868   2.918  14.225 -0.9145  0.0097  0.1940
  117TMC2    C8 1828   3.868   2.555  14.523 -0.0861  0.0105  0.2875
  117TMC2    O1 1829   3.987   2.908  14.223  0.6039  0.1387  0.3857
  117TMC2    O2 1830   3.833   2.581  14.637 -0.0510 -0.7706 -0.3334
  117TMC2    O5 1831   3.997   2.536  14.484  0.2005  0.3257 -0.0413
  117TMC2    H5 1832   3.995   2.529  14.386 -3.2055  3.0683 -0.1610
  118MPD2     C 1833   3.765   3.263  14.131  0.7371 -0.3218  0.4979
  118MPD2    C1 1834   3.840   3.146  14.130 -0.1868  0.3937 -0.3494
  118MPD2    C2 1835   3.961   3.146  14.062  0.2266  0.1845  0.7110
  118MPD2    C3 1836   4.002   3.264  13.999 -0.5166 -0.1468 -0.4519
  118MPD2    C4 1837   3.925   3.378  13.998  0.0927 -0.1318 -0.4565
  118MPD2    C5 1838   3.800   3.374  14.054  0.1566 -0.4844  0.0053
  118MPD2     H 1839   4.028   3.061  14.063 -0.3832 -0.2959  0.6886
  118MPD2    H1 1840   3.951   3.469  13.945 -1.5463 -0.3223 -1.6289
  118MPD2    H2 1841   3.667   3.261  14.178  1.3136  0.0701  1.7090
  118MPD2    H3 1842   3.736   3.461  14.051 -0.2042 -0.7221  1.1168
  118MPD2     N 1843   4.124   3.265  13.933 -0.0947  0.1386 -0.0063
  118MPD2    H5 1844   4.155   3.349  13.885  0.8064  0.6751  1.5100
  118MPD2    N1 1845   3.791   3.033  14.200  0.4457 -0.4291  0.9239
  118MPD2    H7 1846   3.702   3.052  14.244  0.8294  0.1556  1.4468
  119TMC2    C1 1847   2.330   3.594  13.422  0.4307  0.6733  0.3208
  119TMC2    C2 1848   2.456   3.540  13.408  0.0248  0.2231  0.0855
  119TMC2    C3 1849   2.468   3.408  13.392 -0.7175  0.0593 -0.5013
  119TMC2    C4 1850   2.211   3.527  13.392  0.2022  0.3466 -0.5087
  119TMC2    C5 1851   2.235   3.398  13.354  0.4838  0.2868 -0.6959
  119TMC2    C6 1852   2.359   3.338  13.350  0.1719  0.3715 -0.0469
  119TMC2     C 1853   2.314   3.733  13.464  0.3567 -0.6023 -0.2844
  119TMC2     O 1854   2.227   3.749  13.543 -0.3778  0.0903  0.2891
  119TMC2     H 1855   2.548   3.590  13.437  0.6129 -1.5517  1.3004
  119TMC2    H1 1856   2.114   3.574  13.406 -0.3590 -0.5700 -1.2964
  119TMC2    H2 1857   2.366   3.233  13.321 -1.0973 -0.2122  1.7477
  119TMC2    C7 1858   2.131   3.295  13.360  0.2733  0.7133 -0.3350
  119TMC2    C8 1859   2.592   3.348  13.441  0.6611  0.7962  0.1578
  119TMC2    O1 1860   2.131   3.188  13.294 -0.2846 -0.2516 -0.8090
  119TMC2    O2 1861   2.699   3.404  13.439 -0.4529 -0.4291 -0.6417
  119TMC2    O5 1862   2.570   3.211  13.437 -0.3672  0.8918 -0.8430
  119TMC2    H5 1863   2.480   3.192  13.470 -0.1263  0.1832 -0.6095
  120MPD2     C 1864   2.461   4.215  13.536 -0.0129 -0.0814  0.1159
  120MPD2    C1 1865   2.346   4.151  13.574 -0.8564  0.2794  0.5491
  120MPD2    C2 1866   2.328   4.021  13.546 -0.6190  0.2287  0.3368
  120MPD2    C3 1867   2.424   3.950  13.467  0.0435  0.9881 -0.1952
  120MPD2    C4 1868   2.529   4.022  13.426 -0.0710 -0.4492 -0.6418
  120MPD2    C5 1869   2.555   4.152  13.460  0.0579 -1.0370  0.0663
  120MPD2     H 1870   2.241   3.966  13.579 -0.2384  0.6339  2.0237
  120MPD2    H1 1871   2.607   3.979  13.365 -1.1868 -2.1157 -0.9086
  120MPD2    H2 1872   2.478   4.322  13.541  2.7392 -0.5661  1.4503
  120MPD2    H3 1873   2.632   4.212  13.413  1.2412 -0.0289  3.3441
  120MPD2     N 1874   2.417   3.813  13.425  0.0604 -0.0584 -0.6191
  120MPD2    H5 1875   2.492   3.773  13.370  0.4820  1.1223 -0.9182
  120MPD2    N1 1876   2.257   4.230  13.658  0.2131  0.1567 -0.3354
  120MPD2    H7 1877   2.286   4.319  13.699  1.0902 -0.1739 -0.2250
  121TMC2    C1 1878   3.590   0.526  14.350 -0.0923 -0.7868 -0.4404
  121TMC2    C2 1879   3.641   0.401  14.341 -0.1159 -0.2024  0.3454
  121TMC2    C3 1880   3.550   0.315  14.284  0.1863  0.2367 -0.1655
  121TMC2    C4 1881   3.469   0.564  14.294 -0.2989  0.3375 -0.1254
  121TMC2    C5 1882   3.389   0.478  14.232  0.2965  1.1458 -0.3040
  121TMC2    C6 1883   3.425   0.342  14.229 -0.1272  0.1782 -0.2813
  121TMC2     C 1884   3.689   0.627  14.384 -0.0977 -0.0530  0.9913
  121TMC2     O 1885   3.785   0.584  14.449  0.0447 -0.1587 -0.1890
  121TMC2     H 1886   3.741   0.373  14.370  0.2210  1.4639  0.7826
  121TMC2    H1 1887   3.441   0.668  14.290  0.2845  0.3905 -3.0667
  121TMC2    H2 1888   3.362   0.268  14.182 -2.2749  0.6794  1.7833
  121TMC2    C7 1889   3.258   0.525  14.208 -0.6841 -0.1758 -0.4181
  121TMC2    C8 1890   3.593   0.180  14.276 -0.2487 -0.2166  0.3528
  121TMC2    O1 1891   3.245   0.645  14.193  0.5469  0.0015  0.2357
  121TMC2    O2 1892   3.553   0.102  14.193 -0.0160  0.5277  0.5293
  121TMC2    O5 1893   3.612   0.147  14.407 -0.4936 -0.2501 -0.2076
  121TMC2    H5 1894   3.633   0.226  14.462  2.7269 -3.1137  2.6525
  122MPD2     C 1895   3.852   0.856  14.435  0.6895  0.2681  0.3855
  122MPD2    C1 1896   3.774   0.853  14.323 -0.0010 -0.1494  0.8985
  122MPD2    C2 1897   3.776   0.955  14.230 -0.1232  0.4608  0.5894
  122MPD2    C3 1898   3.872   1.059  14.245  1.1106  0.0933 -0.2710
  122MPD2    C4 1899   3.954   1.063  14.354  0.4694 -0.1861 -0.2413
  122MPD2    C5 1900   3.927   0.974  14.452  0.0375 -0.1406  0.2896
  122MPD2     H 1901   3.716   0.947  14.140  1.0628  0.7479 -0.2248
  122MPD2    H1 1902   4.019   1.148  14.374 -2.8832  1.3393  3.9932
  122MPD2    H2 1903   3.830   0.797  14.523  1.5023 -1.5830 -0.6485
  122MPD2    H3 1904   3.969   0.980  14.551 -0.1960  1.7001  0.2731
  122MPD2     N 1905   3.904   1.151  14.141 -0.4603 -0.0271  0.5875
  122MPD2    H5 1906   3.989   1.203  14.159 -0.4788  1.0081 -2.2433
  122MPD2    N1 1907   3.686   0.740  14.303  0.0251 -0.0679  0.1128
  122MPD2    H7 1908   3.625   0.746  14.221  0.2407 -1.6287 -0.1655
  123TMC2    C1 1909   1.558   3.961  10.670  0.3839 -0.6631  0.6802
  123TMC2    C2 1910   1.683   3.919  10.631 -0.6097  0.5705 -0.4585
  123TMC2    C3 1911   1.751   3.980  10.527  0.2251  0.5646 -0.0286
  123TMC2    C4 1912   1.505   4.067  10.608 -0.3128  0.3214  0.4729
  123TMC2    C5 1913   1.577   4.133  10.512  0.1063  0.0419 -0.3616
  123TMC2    C6 1914   1.702   4.095  10.476  0.6407 -0.7509  0.3278
  123TMC2     C 1915   1.471   3.845  10.695  0.9413  0.4492  0.0552
  123TMC2     O 1916   1.521   3.747  10.752  0.6244  0.2920 -0.0166
  123TMC2     H 1917   1.708   3.816  10.652 -0.6682  1.2539  2.9375
  123TMC2    H1 1918   1.400   4.089  10.621  0.2734  2.2605  1.9205
  123TMC2    H2 1919   1.759   4.158  10.409  0.8177 -1.0164  0.2277
  123TMC2    C7 1920   1.496   4.189  10.407  0.0185  0.0256  0.5183
  123TMC2    C8 1921   1.871   3.899  10.476 -0.7862  0.6898 -0.6755
  123TMC2    O1 1922   1.394   4.127  10.379 -0.0921 -0.2245  0.2945
  123TMC2    O2 1923   1.943   3.832  10.551 -0.0515 -0.2023 -0.1759
  123TMC2    O5 1924   1.907   3.938  10.349 -0.0571  0.0163  0.8822
  123TMC2    H5 1925   1.853   4.000  10.295  0.9558  0.0996 -0.0443
  124MPD2     C 1926   1.059   3.550  10.648  0.3079  0.0085  0.3193
  124MPD2    C1 1927   1.058   3.646  10.552  0.2667  0.1000 -0.5581
  124MPD2    C2 1928   1.148   3.751  10.560  0.1779 -0.5747  0.1881
  124MPD2    C3 1929   1.245   3.752  10.650 -0.1127 -0.6480 -0.0135
  124MPD2    C4 1930   1.250   3.649  10.742 -0.3856  0.8716 -0.2089
  124MPD2    C5 1931   1.160   3.549  10.740  0.0700  0.0019 -0.2153
  124MPD2     H 1932   1.151   3.839  10.497 -0.3981 -1.6540 -1.3484
  124MPD2    H1 1933   1.326   3.641  10.819  0.1168  3.2255 -0.4595
  124MPD2    H2 1934   0.984   3.472  10.639 -1.9080  1.9752  1.6753
  124MPD2    H3 1935   1.166   3.466  10.809  2.6435 -0.3210 -0.8500
  124MPD2     N 1936   1.343   3.856  10.654  0.5230 -0.2028  0.7645
  124MPD2    H5 1937   1.326   3.938  10.597  0.0127 -0.9705 -0.1750
  124MPD2    N1 1938   0.959   3.647  10.454 -0.2763  0.5558 -0.2325
  124MPD2    H7 1939   0.875   3.593  10.473  0.1753 -1.1736 -3.0963
  125TMC2    C1 1940   2.306   1.394   9.710  0.2806  0.4712  0.4939
  125TMC2    C2 1941   2.197   1.464   9.759 -0.0071 -0.0162 -0.0736
  125TMC2    C3 1942   2.191   1.597   9.717 -0.0004 -0.5132 -0.2480
  125TMC2    C4 1943   2.406   1.449   9.635  0.1395 -0.1507  0.0411
  125TMC2    C5 1944   2.390   1.578   9.597  0.0588  0.2589 -0.2205
  125TMC2    C6 1945   2.283   1.645   9.640  0.1086 -0.0288  0.1588
  125TMC2     C 1946   2.324   1.262   9.766  0.2362 -0.9834 -0.8872
  125TMC2     O 1947   2.227   1.198   9.803 -0.0724  0.2033  0.3613
  125TMC2     H 1948   2.124   1.409   9.817 -0.4587 -0.5240 -1.1145
  125TMC2    H1 1949   2.482   1.384   9.593  1.1377  0.3841  1.0007
  125TMC2    H2 1950   2.264   1.749   9.613  1.8835  0.5160  1.0301
  125TMC2    C7 1951   2.467   1.639   9.490 -0.2062 -0.0783 -0.4514
  125TMC2    C8 1952   2.076   1.680   9.738  0.2866 -0.2083  0.2615
  125TMC2    O1 1953   2.409   1.733   9.439  0.3016 -0.0087 -0.4159
  125TMC2    O2 1954   2.053   1.765   9.649  0.1026 -0.2096 -0.1555
  125TMC2    O5 1955   1.992   1.619   9.824 -0.1253 -0.0367  0.4583
  125TMC2    H5 1956   2.030   1.590   9.909  0.1874 -0.9223  0.0163
  126MPD1     C 1957   2.639   0.909   9.935  0.0258  0.0179 -1.2760
  126MPD1    C1 1958   2.720   1.019   9.922 -0.1167  0.7720 -0.1451
  126MPD1    C2 1959   2.652   1.133   9.872 -0.2097  0.3140  0.0309
  126MPD1    C3 1960   2.514   1.129   9.841 -1.0404  0.0959 -0.6064
  126MPD1    C4 1961   2.441   1.012   9.851  0.5320  0.6237 -0.7462
  126MPD1    C5 1962   2.510   0.902   9.895  0.3179 -0.0016 -0.3002
  126MPD1     H 1963   2.699   1.230   9.860  1.1122 -0.5641 -1.8792
  126MPD1    H1 1964   2.339   0.996   9.818 -0.1397  0.6625  1.3654
  126MPD1    H2 1965   2.684   0.814   9.963  0.3487  0.5268 -0.0517
  126MPD1    H3 1966   2.460   0.806   9.893 -0.0757  0.2487 -2.5099
  126MPD1     N 1967   2.459   1.248   9.792  0.3906  0.1604  0.3277
  126MPD1    H5 1968   2.510   1.336   9.792  1.3367 -0.3854  3.7024
  126MPD1    N1 1969   2.852   1.021   9.967  0.2703 -0.2128  0.1155
  126MPD1    H6 1970   2.915   1.065   9.899 -0.2356 -0.4993 -0.5409
  126MPD1    H7 1971   2.885   0.929   9.995  1.4396  0.3848  0.6987
  127TMC2    C1 1972   3.254   4.407  10.024 -0.6540 -0.9139 -0.0616
  127TMC2    C2 1973   3.353   4.357  10.104 -0.5459  0.4556 -0.2748
  127TMC2    C3 1974   3.316   4.238  10.155  0.0505  0.3945 -0.4207
  127TMC2    C4 1975   3.122   4.367  10.025  0.4220  0.1041  0.5737
  127TMC2    C5 1976   3.086   4.256  10.092 -0.6151 -0.3995  0.4342
  127TMC2    C6 1977   3.188   4.182  10.151 -0.3401  0.4546 -0.2837
  127TMC2     C 1978   3.309   4.510   9.940 -0.2578  0.1471 -0.4483
  127TMC2     O 1979   3.399   4.565   9.991 -0.0201 -1.0943 -0.1604
  127TMC2     H 1980   3.458   4.382  10.094  0.5439 -2.6861  2.8994
  127TMC2    H1 1981   3.051   4.414   9.958 -0.4604 -0.1430  1.3281
  127TMC2    H2 1982   3.174   4.083  10.194  3.3997 -0.1607 -0.5259
  127TMC2    C7 1983   2.937   4.227  10.107  0.5201 -0.4052 -0.8340
  127TMC2    C8 1984   3.420   4.140  10.141  0.3968 -0.0561  0.3569
  127TMC2    O1 1985   2.859   4.314  10.078 -0.5154  0.1754 -0.0557
  127TMC2    O2 1986   3.518   4.156  10.069 -0.5220  0.0395 -0.2632
  127TMC2    O5 1987   3.424   4.072  10.258 -0.1144  0.1294 -0.3564
  127TMC2    H5 1988   3.351   4.105  10.315  0.0571  1.1549 -0.7379
  128MPD2     C 1989   3.183   4.662   9.620 -0.2780 -0.2510 -0.0775
  128MPD2    C1 1990   3.266   4.641   9.732 -0.1890 -0.0061  0.2735
  128MPD2    C2 1991   3.381   4.715   9.738 -0.4311  0.1101 -0.2994
  128MPD2    C3 1992   3.417   0.075   9.647  0.0975 -0.1866  0.1886
  128MPD2    C4 1993   3.327   0.105   9.549  0.1732  0.2185 -0.9050
  128MPD2    C5 1994   3.217   0.029   9.534  0.1092  0.6614 -0.4733
  128MPD2     H 1995   3.460   4.672   9.798  0.2812  0.3502 -1.0638
  128MPD2    H1 1996   3.347   0.186   9.480 -0.9279  0.6819 -0.6905
  128MPD2    H2 1997   3.089   4.610   9.610 -0.1887 -0.2735 -0.7495
  128MPD2    H3 1998   3.156   0.051   9.447 -0.6796  0.5725  0.0486
  128MPD2     N 1999   3.538   0.149   9.668  0.0666  0.8797 -0.5380
  128MPD2    H5 2000   3.599   0.119   9.744 -0.6740 -0.3690 -0.4404
  128MPD2    N1 2001   3.232   4.536   9.826 -0.2278  0.6971  0.3244
  128MPD2    H7 2002   3.152   4.477   9.805  0.4363 -0.3223  0.6878
  129TMC2    C1 2003   1.267   0.807   1.634  0.7785  0.3017 -0.3867
  129TMC2    C2 2004   1.139   0.816   1.592 -0.2394  0.1548  0.2516
  129TMC2    C3 2005   1.064   0.701   1.606 -0.3242 -0.6942  0.6115
  129TMC2    C4 2006   1.327   0.690   1.675  0.2335  0.3078  0.0936
  129TMC2    C5 2007   1.250   0.580   1.674  0.0296  0.1917 -0.7246
  129TMC2    C6 2008   1.115   0.583   1.643  0.5515 -1.0360  0.1852
  129TMC2     C 2009   1.326   0.925   1.694  1.6114 -0.5753 -0.0155
  129TMC2     O 2010   1.447   0.930   1.698  0.4052 -0.4275  0.3629
  129TMC2     H 2011   1.093   0.906   1.552  0.7141  0.3899 -0.3046
  129TMC2    H1 2012   1.425   0.704   1.719  0.5343 -0.3602 -0.3626
  129TMC2    H2 2013   1.060   0.490   1.641 -1.2126 -0.0201  1.1866
  129TMC2    C7 2014   1.306   0.454   1.691 -0.5062  0.0973 -0.2749
  129TMC2    C8 2015   0.918   0.714   1.570 -0.0680  0.0646 -0.5520
  129TMC2    O1 2016   1.236   0.355   1.710 -0.0437  0.0127  0.1610
  129TMC2    O2 2017   0.876   0.794   1.487  0.5611  0.0750  0.3758
  129TMC2    O5 2018   0.855   0.602   1.615 -0.2431 -0.7847  0.8952
  129TMC2    H5 2019   0.896   0.547   1.685  1.5259 -0.0708  0.4198
  130MPD2     C 2020   1.192   1.219   1.839  0.5480 -0.2109  0.1121
  130MPD2    C1 2021   1.279   1.145   1.770  0.1701  0.2520 -0.1038
  130MPD2    C2 2022   1.405   1.196   1.746  0.3171  0.5276  0.4010
  130MPD2    C3 2023   1.434   1.317   1.797  0.1362 -0.3428  0.4820
  130MPD2    C4 2024   1.352   1.384   1.887  0.1046  0.1652 -1.0184
  130MPD2    C5 2025   1.228   1.334   1.907 -0.7466 -0.3093  0.4206
  130MPD2     H 2026   1.476   1.149   1.680  0.3237 -0.6713  1.2519
  130MPD2    H1 2027   1.386   1.473   1.939  0.3286 -0.7348  0.3836
  130MPD2    H2 2028   1.090   1.188   1.858 -0.5373  2.7998 -0.7840
  130MPD2    H3 2029   1.150   1.380   1.967 -1.7990 -0.4449 -0.8382
  130MPD2     N 2030   1.558   1.368   1.749  0.5717 -0.4872 -0.1010
  130MPD2    H5 2031   1.610   1.310   1.684  0.1645 -0.6854 -0.2473
  130MPD2    N1 2032   1.236   1.019   1.729 -0.2622  0.3332 -0.0255
  130MPD2    H7 2033   1.140   0.989   1.744 -0.5901  1.1688 -0.4840
  131TMC2    C1 2034   1.157   4.565  10.244  0.2280 -0.7291 -0.1645
  131TMC2    C2 2035   1.211   4.540  10.372 -0.0186  0.1576 -0.5766
  131TMC2    C3 2036   1.290   4.639  10.415  0.3878  0.8685 -0.5256
  131TMC2    C4 2037   1.172   4.681  10.172  0.3026 -0.8443 -0.2031
  131TMC2    C5 2038   1.251   0.041  10.227 -0.0873 -0.3143  0.1634
  131TMC2    C6 2039   1.305   0.023  10.354 -0.2029  0.5764 -0.0602
  131TMC2     C 2040   1.074   4.458  10.198 -0.3070  0.2362  0.6907
  131TMC2     O 2041   1.055   4.363  10.278  1.0129  0.6181 -0.2423
  131TMC2     H 2042   1.198   4.446  10.424 -2.3178  0.2929 -0.9420
  131TMC2    H1 2043   1.130   4.701  10.074  2.3588  2.3679 -0.4398
  131TMC2    H2 2044   1.377   0.093  10.397 -0.8234  0.4319  1.2110
  131TMC2    C7 2045   1.214   0.181  10.194 -0.3522 -0.0497  0.2883
  131TMC2    C8 2046   1.368   4.612  10.526  0.2590  0.3161 -0.7641
  131TMC2    O1 2047   1.107   0.198  10.138  0.7278  0.2687  0.1057
  131TMC2    O2 2048   1.492   4.603  10.521  0.9188 -0.1269 -0.0353
  131TMC2    O5 2049   1.299   4.660  10.628  0.6282 -0.1073 -0.1341
  131TMC2    H5 2050   1.216   4.692  10.587 -0.4800 -1.5630  0.9508
  132MPD2     C 2051   0.835   4.431   9.922  0.2497 -0.7441  0.0749
  132MPD2    C1 2052   0.911   4.384  10.026 -0.5479 -0.9867  0.1748
  132MPD2    C2 2053   0.887   4.254  10.080 -0.0845  0.5819 -0.5881
  132MPD2    C3 2054   0.790   4.175  10.032 -0.2111 -0.1593 -0.6404
  132MPD2    C4 2055   0.710   4.224   9.940  0.6265 -0.3298  0.5407
  132MPD2    C5 2056   0.726   4.349   9.889  0.6949 -0.2050 -0.6290
  132MPD2     H 2057   0.956   4.215  10.153 -1.3336 -2.0061 -0.8018
  132MPD2    H1 2058   0.619   4.175   9.907  1.4807 -2.2174  1.0044
  132MPD2    H2 2059   0.865   4.521   9.869  1.7470 -0.5725  1.2449
  132MPD2    H3 2060   0.655   4.374   9.810  1.2620 -1.4201 -1.5225
  132MPD2     N 2061   0.789   4.039  10.068  0.0616 -0.1868  0.0614
  132MPD2    H5 2062   0.854   4.008  10.141  0.5900 -3.0338 -1.6096
  132MPD2    N1 2063   1.011   4.471  10.079 -0.0687 -0.1967  0.0711
  132MPD2    H7 2064   1.043   4.548  10.021  0.5068 -0.9884 -0.6573
  133TMC2    C1 2065   0.077   0.776   9.903  0.1160  0.1082 -0.4592
  133TMC2    C2 2066   0.143   0.821  10.019 -0.7442 -0.6843 -1.0379
  133TMC2    C3 2067   0.159   0.956  10.031  0.2185  0.3042 -0.7205
  133TMC2    C4 2068   0.025   0.869   9.812  0.9272 -0.3153 -1.3729
  133TMC2    C5 2069   0.053   0.999   9.829 -0.2774 -0.2771  0.6046
  133TMC2    C6 2070   0.124   1.044   9.935  0.4598 -0.5960  0.2563
  133TMC2     C 2071   0.089   0.643   9.870  0.5221 -0.2836  0.5974
  133TMC2     O 2072   0.194   0.580   9.894  0.7739  0.2594  0.0913
  133TMC2     H 2073   0.193   0.749  10.084 -0.8731 -0.1553 -0.3512
  133TMC2    H1 2074   4.714   0.838   9.721  1.2409 -0.9769 -1.3215
  133TMC2    H2 2075   0.142   1.148   9.959 -0.5582 -0.4179  0.2401
  133TMC2    C7 2076   4.725   1.095   9.748  0.2030  0.3606  0.1517
  133TMC2    C8 2077   0.237   1.007  10.142 -0.5302 -0.1708  0.1807
  133TMC2    O1 2078   4.667   1.051   9.650  0.0761  0.2593  0.0317
  133TMC2    O2 2079   0.307   1.106  10.123  0.1356 -0.1957 -0.2201
  133TMC2    O5 2080   0.179   0.977  10.257 -0.5188 -0.2857 -0.0040
  133TMC2    H5 2081   0.130   0.892  10.249 -2.6156  1.1167 -1.9814
  134MPD2     C 2082   4.604   0.431   9.658 -0.2035 -0.1513 -0.6235
  134MPD2    C1 2083   4.722   0.467   9.728  0.1902  0.3502 -0.0681
  134MPD2    C2 2084   0.091   0.375   9.715 -0.0456 -0.0949 -0.0377
  134MPD2    C3 2085   0.074   0.257   9.642 -0.9838  0.2188 -0.7826
  134MPD2    C4 2086   4.701   0.228   9.570  0.0786  1.0422 -0.1537
  134MPD2    C5 2087   4.595   0.321   9.577  0.3969  1.0801  0.1807
  134MPD2     H 2088   0.183   0.407   9.762 -0.2353  0.4893 -0.0723
  134MPD2    H1 2089   4.691   0.140   9.506  0.3963 -0.2057  1.5024
  134MPD2    H2 2090   4.510   0.484   9.669 -0.0859 -0.7415  3.3642
  134MPD2    H3 2091   4.505   0.309   9.518  1.1247 -2.4465 -0.1974
  134MPD2     N 2092   0.182   0.161   9.631  0.2878 -0.2890  0.4460
  134MPD2    H5 2093   0.152   0.074   9.588 -1.9029 -0.7141  2.8629
  134MPD2    N1 2094   4.728   0.600   9.784  0.2978  0.4591 -0.0381
  134MPD2    H7 2095   4.652   0.663   9.759 -0.0422 -0.1161 -0.4620
  135TMC2    C1 2096   2.461   1.247  10.187  0.2669 -0.0665 -0.1158
  135TMC2    C2 2097   2.359   1.160  10.186  0.5551  0.1554 -0.2116
  135TMC2    C3 2098   2.385   1.031  10.227  0.2344 -0.1635 -0.6963
  135TMC2    C4 2099   2.579   1.205  10.234  0.5560 -0.0452 -0.7787
  135TMC2    C5 2100   2.603   1.078  10.276 -0.5702  0.7725  0.1168
  135TMC2    C6 2101   2.500   0.988  10.276 -0.0139  0.4012 -0.3313
  135TMC2     C 2102   2.438   1.385  10.137  0.4965 -0.0842 -0.0028
  135TMC2     O 2103   2.317   1.408  10.134  0.3669  0.3398  0.2947
  135TMC2     H 2104   2.264   1.179  10.138  1.4413  3.5829 -0.5742
  135TMC2    H1 2105   2.652   1.282  10.254 -1.5046  2.2833 -2.1721
  135TMC2    H2 2106   2.507   0.885  10.309 -3.0199 -0.3799 -2.1029
  135TMC2    C7 2107   2.730   1.027  10.296  0.0178 -0.2701  0.2107
  135TMC2    C8 2108   2.287   0.934  10.208  0.1054 -0.4488  0.0277
  135TMC2    O1 2109   2.820   1.107  10.307 -0.6811 -0.6244  0.1088
  135TMC2    O2 2110   2.317   0.817  10.190 -0.4579  0.0290 -0.2838
  135TMC2    O5 2111   2.178   0.971  10.286  0.2369  0.0694 -0.2653
  135TMC2    H5 2112   2.171   1.063  10.320 -0.5063 -0.6071  1.4160
  136MPD2     C 2113   2.436   1.657  10.033  0.2617 -1.0519  0.3767
  136MPD2    C1 2114   2.537   1.571  10.019 -0.2418 -0.2940 -0.5357
  136MPD2    C2 2115   2.642   1.604   9.933 -0.5738 -0.0896 -0.2801
  136MPD2    C3 2116   2.640   1.726   9.866  0.0701 -0.4022 -0.6125
  136MPD2    C4 2117   2.538   1.815   9.892  0.4881 -0.1117 -0.8807
  136MPD2    C5 2118   2.432   1.776   9.972 -0.4423 -0.0318 -0.2017
  136MPD2     H 2119   2.714   1.527   9.911 -1.1660 -1.0880  1.3000
  136MPD2    H1 2120   2.539   1.915   9.849 -1.7724  0.1482 -0.3634
  136MPD2    H2 2121   2.352   1.634  10.097 -0.6965 -2.9266 -1.5635
  136MPD2    H3 2122   2.345   1.833  10.006 -0.8124 -1.3355  1.0483
  136MPD2     N 2123   2.737   1.759   9.768  0.4198  0.4964  0.2324
  136MPD2    H5 2124   2.731   1.852   9.730  1.8950  0.8613  0.8704
  136MPD2    N1 2125   2.545   1.443  10.073  0.2108  0.4166 -0.6243
  136MPD2    H7 2126   2.635   1.396  10.067 -0.2861 -0.6276  0.2188
  137TMC2    C1 2127   1.807   1.365   9.641  0.1897 -0.5706 -0.3155
  137TMC2    C2 2128   1.782   1.475   9.553  0.1155  0.8831 -0.7723
  137TMC2    C3 2129   1.701   1.573   9.606 -0.3832  0.4644  0.1091
  137TMC2    C4 2130   1.768   1.359   9.774  0.4548  0.2516  0.1565
  137TMC2    C5 2131   1.687   1.462   9.819  0.0656 -0.0256 -0.0600
  137TMC2    C6 2132   1.652   1.568   9.734 -0.5279 -0.0773  0.1027
  137TMC2     C 2133   1.920   1.273   9.615 -0.0742 -0.5015 -0.2761
  137TMC2     O 2134   1.924   1.172   9.681  0.4399  0.7789 -0.3919
  137TMC2     H 2135   1.813   1.478   9.450  2.1809  0.4524 -0.1699
  137TMC2    H1 2136   1.804   1.286   9.845  1.8249  0.0818 -0.7084
  137TMC2    H2 2137   1.588   1.650   9.761 -0.7438 -0.7405  1.6200
  137TMC2    C7 2138   1.703   1.493   9.958  0.2414  0.4663  0.1147
  137TMC2    C8 2139   1.656   1.683   9.520 -0.5558 -0.8649  1.0489
  137TMC2    O1 2140   1.709   1.611   9.993  0.1694 -0.7045 -0.1484
  137TMC2    O2 2141   1.558   1.754   9.544 -0.2633 -0.1774  0.4640
  137TMC2    O5 2142   1.736   1.691   9.412  0.2610  0.8624  0.2722
  137TMC2    H5 2143   1.811   1.628   9.409 -1.4811 -1.1535 -1.0453
  138MPD2     C 2144   2.183   1.334   9.375 -0.1760  0.1661 -0.6245
  138MPD2    C1 2145   2.115   1.261   9.463  0.8532  0.0102 -0.0213
  138MPD2    C2 2146   2.167   1.135   9.502  0.4512  0.4543 -0.7180
  138MPD2    C3 2147   2.294   1.102   9.446  0.2697  0.6334  0.8327
  138MPD2    C4 2148   2.361   1.183   9.364  0.1046 -0.8421  0.8753
  138MPD2    C5 2149   2.304   1.297   9.323  0.2987  0.4051  0.2511
  138MPD2     H 2150   2.119   1.069   9.573 -0.9305  0.7141 -1.3975
  138MPD2    H1 2151   2.460   1.163   9.325 -0.2352  0.3336 -0.5750
  138MPD2    H2 2152   2.151   1.436   9.354 -0.9892 -0.8519 -4.2905
  138MPD2    H3 2153   2.346   1.355   9.242 -1.2728  2.1629  0.6920
  138MPD2     N 2154   2.348   0.978   9.487  1.1051 -0.1226  0.1357
  138MPD2    H5 2155   2.286   0.924   9.547  1.4624 -1.8904 -1.0744
  138MPD2    N1 2156   2.000   1.323   9.520 -0.4152  0.5576  0.2753
  138MPD2    H7 2157   1.985   1.418   9.487 -1.7424  0.6239  1.0799
  139TMC2    C1 2158   3.591   3.620  13.686 -0.4909 -0.1700  0.4155
  139TMC2    C2 2159   3.695   3.680  13.618 -0.0772  0.2889  0.1722
  139TMC2    C3 2160   3.688   3.816  13.598 -0.0780 -0.7341  0.3117
  139TMC2    C4 2161   3.475   3.680  13.726 -0.4209 -0.8893  0.2898
  139TMC2    C5 2162   3.477   3.813  13.708  0.1187 -0.3069 -0.5459
  139TMC2    C6 2163   3.585   3.889  13.662 -0.4324  0.0653  0.1401
  139TMC2     C 2164   3.606   3.476  13.708  0.3500 -0.7488  0.3410
  139TMC2     O 2165   3.686   3.420  13.634 -0.3006 -0.1939 -0.3306
  139TMC2     H 2166   3.777   3.627  13.570 -0.7325 -0.1728 -0.4201
  139TMC2    H1 2167   3.390   3.623  13.762  0.1888 -1.1595  1.2892
  139TMC2    H2 2168   3.577   3.995  13.643 -1.2339 -0.2128 -1.0897
  139TMC2    C7 2169   3.353   3.879  13.760 -0.7652  0.0336 -0.0717
  139TMC2    C8 2170   3.818   3.874  13.597  0.2434 -0.4143  0.0985
  139TMC2    O1 2171   3.309   3.969  13.685  0.0830 -0.4808  0.5514
  139TMC2    O2 2172   3.841   3.976  13.660 -0.2602  0.7005  0.6140
  139TMC2    O5 2173   3.861   3.854  13.465  0.1465  0.3289 -0.6725
  139TMC2    H5 2174   3.824   3.776  13.418  0.8638 -0.8671  0.7534
  140MPD2     C 2175   3.468   3.282  13.977 -0.5749  0.2546 -0.0122
  140MPD2    C1 2176   3.533   3.298  13.860  0.1281  0.4689  0.0312
  140MPD2    C2 2177   3.595   3.194  13.799 -0.0699  0.1177 -0.0054
  140MPD2    C3 2178   3.599   3.070  13.865 -0.7722 -0.9210  0.4794
  140MPD2    C4 2179   3.532   3.057  13.984  0.2290  0.1661  0.3316
  140MPD2    C5 2180   3.467   3.159  14.032  0.0979 -0.1589  0.3804
  140MPD2     H 2181   3.645   3.206  13.703 -0.0708  0.9252  0.1033
  140MPD2    H1 2182   3.525   2.962  14.036 -0.2732 -0.1766 -0.3434
  140MPD2    H2 2183   3.418   3.362  14.031 -1.9704 -1.2663  0.9784
  140MPD2    H3 2184   3.424   3.168  14.131 -0.7534 -1.0166  0.0893
  140MPD2     N 2185   3.670   2.961  13.801  0.2669  0.0366 -0.6232
  140MPD2    H5 2186   3.713   2.988  13.713 -1.0751  0.5119 -1.1423
  140MPD2    N1 2187   3.537   3.434  13.816  0.2252  0.8450 -0.3707
  140MPD2    H7 2188   3.483   3.500  13.871  0.4256 -0.0522  0.8963
  141TMC2    C1 2189   4.483   4.033  14.424 -0.3331 -0.2331 -0.0029
  141TMC2    C2 2190   4.396   4.055  14.532 -0.1790  0.3964  0.4649
  141TMC2    C3 2191   4.441   4.115  14.641  0.1364  0.3011  0.5981
  141TMC2    C4 2192   4.613   4.069  14.421  0.6924  0.1204 -0.9486
  141TMC2    C5 2193   4.651   4.141  14.529  0.0311 -0.6389 -0.2438
  141TMC2    C6 2194   4.570   4.161  14.638 -0.1309  0.4584 -0.2811
  141TMC2     C 2195   4.418   4.035  14.288 -1.1190  0.4057 -0.0667
  141TMC2     O 2196   4.490   4.043  14.193  0.6131  0.0551  0.3186
  141TMC2     H 2197   4.300   4.005  14.542 -0.1140 -0.1162 -1.4805
  141TMC2    H1 2198   4.671   4.080  14.330  0.6929 -0.9298 -1.0838
  141TMC2    H2 2199   4.615   4.189  14.732  0.3642  1.0299 -0.6873
  141TMC2    C7 2200   0.040   4.215  14.525  0.4482  0.2592  0.8244
  141TMC2    C8 2201   4.375   4.085  14.769  0.0915  0.7028 -0.2938
  141TMC2    O1 2202   0.123   4.171  14.448  0.1166 -0.5716 -0.3835
  141TMC2    O2 2203   4.409   3.997  14.846 -0.0592  0.2312  0.3795
  141TMC2    O5 2204   4.326   4.209  14.801 -0.1290 -0.1598 -0.3920
  141TMC2    H5 2205   4.317   4.268  14.723  0.4557 -0.1664 -0.4647
  142TMC2    C1 2206   0.987   4.018   9.753  0.2368  0.3004  0.4525
  142TMC2    C2 2207   0.952   4.100   9.652 -0.4300  0.1114  0.2758
  142TMC2    C3 2208   1.013   4.226   9.650 -1.1030  0.9040  0.2730
  142TMC2    C4 2209   1.061   4.056   9.865  0.1506 -0.8355  0.6032
  142TMC2    C5 2210   1.127   4.178   9.853  0.5392  0.2369 -0.2993
  142TMC2    C6 2211   1.104   4.267   9.751  0.1594 -0.7214  0.2229
  142TMC2     C 2212   0.935   3.880   9.766  0.1461  0.0110  0.0565
  142TMC2     O 2213   0.975   3.811   9.863  0.4917 -0.3678  0.1348
  142TMC2     H 2214   0.883   4.070   9.574  3.3699 -0.0374 -3.0447
  142TMC2    H1 2215   1.093   3.984   9.940  1.9486 -1.0761 -0.4123
  142TMC2    H2 2216   1.124   4.374   9.753 -0.4528 -0.6337  1.9014
  142TMC2    C7 2217   1.210   4.218   9.969 -0.0439  0.2497  0.6034
  142TMC2    C8 2218   0.966   4.321   9.549  0.3371  0.0207  0.4790
  142TMC2    O1 2219   1.234   4.128  10.052  0.4920 -0.3071 -0.0561
  142TMC2    O2 2220   0.928   4.432   9.574 -0.1901  0.2057  0.2791
  142TMC2    O5 2221   0.994   4.275   9.425  0.0691  0.0673 -0.5334
  142TMC2    H5 2222   1.059   4.201   9.427 -0.7179 -0.5474  2.7405
  143MPD2     C 2223   0.602   3.504   9.660  0.1397 -0.8284  0.2358
  143MPD2    C1 2224   0.672   3.536   9.772 -0.8835 -0.1804 -0.2983
  143MPD2    C2 2225   0.761   3.643   9.775  0.4283 -1.0431  0.3515
  143MPD2    C3 2226   0.751   3.729   9.672 -0.4754  0.0006  0.2781
  143MPD2    C4 2227   0.675   3.707   9.565 -0.6671 -0.1013 -0.0668
  143MPD2    C5 2228   0.601   3.592   9.552  0.2255  0.0061 -0.4031
  143MPD2     H 2229   0.817   3.658   9.867  0.7373 -0.7307  0.1072
  143MPD2    H1 2230   0.677   3.773   9.479 -0.9941 -1.3890 -1.0596
  143MPD2    H2 2231   0.549   3.411   9.650 -1.2871 -0.1633  1.6566
  143MPD2    H3 2232   0.553   3.570   9.458 -0.8518  1.9734 -0.3109
  143MPD2     N 2233   0.831   3.853   9.681 -0.2278  0.2899 -0.5294
  143MPD2    H5 2234   0.782   3.915   9.616  0.0592  1.2726  0.1965
  143MPD2    N1 2235   0.673   3.440   9.875 -0.0067  0.1018  0.1901
  143MPD2    H7 2236   0.608   3.365   9.855 -1.6467  0.9312  2.5070
  144TMC2    C1 2237   0.456   1.745   1.211 -1.3201 -0.7301 -1.7935
  144TMC2    C2 2238   0.551   1.675   1.137  0.0852 -0.1732 -0.3894
  144TMC2    C3 2239   0.668   1.651   1.202  0.9111 -0.5331 -0.6417
  144TMC2    C4 2240   0.487   1.820   1.323 -0.4217 -0.0630  0.2154
  144TMC2    C5 2241   0.612   1.804   1.373 -0.1006  0.0314  0.1629
  144TMC2    C6 2242   0.706   1.724   1.315 -0.0156 -0.0922 -0.1760
  144TMC2     C 2243   0.323   1.771   1.156 -0.7085  0.0513 -0.2684
  144TMC2     O 2244   0.307   1.733   1.036  0.2253 -0.2515  0.0850
  144TMC2     H 2245   0.525   1.628   1.043 -0.8766  0.6966 -0.5643
  144TMC2    H1 2246   0.417   1.888   1.371  0.4152  1.5087 -0.8457
  144TMC2    H2 2247   0.799   1.702   1.365 -0.3911  1.5398  1.2297
  144TMC2    C7 2248   0.655   1.885   1.491 -0.8084  0.3984  0.0356
  144TMC2    C8 2249   0.755   1.562   1.141 -0.1234 -0.0186  0.1692
  144TMC2    O1 2250   0.775   1.871   1.522  0.7331 -0.3286  0.0420
  144TMC2    O2 2251   0.726   1.458   1.085 -0.2276 -0.2533 -0.4080
  144TMC2    O5 2252   0.881   1.613   1.147  0.3615  0.3681  0.3153
  144TMC2    H5 2253   0.880   1.710   1.158  0.3107  0.6315 -2.0952
  145MPD2     C 2254   4.572   1.897   1.184  0.0595  0.0174 -0.3461
  145MPD2    C1 2255   4.645   1.863   1.070  0.7029 -0.1550 -0.6090
  145MPD2    C2 2256   0.031   1.826   1.098  0.0386  0.3520 -0.3300
  145MPD2    C3 2257   0.095   1.852   1.218  0.0990 -0.2125  0.0620
  145MPD2    C4 2258   0.017   1.881   1.328 -0.3614 -0.0264 -0.5553
  145MPD2    C5 2259   4.619   1.892   1.311 -0.5102 -0.0398 -0.0079
  145MPD2     H 2260   0.087   1.820   1.006  1.4195  1.0279  0.4657
  145MPD2    H1 2261   0.065   1.896   1.423 -0.6395 -1.7376 -0.1378
  145MPD2    H2 2262   4.472   1.937   1.171 -0.7617 -2.4397 -1.6573
  145MPD2    H3 2263   4.558   1.912   1.398 -1.4868  1.3843 -1.0096
  145MPD2     N 2264   0.230   1.828   1.241 -0.1012  0.6811 -0.2518
  145MPD2    H5 2265   0.260   1.841   1.337  2.5867 -2.0151 -0.7367
  145MPD2    N1 2266   4.581   1.858   0.939  0.0556  0.6442 -0.1618
  145MPD2    H7 2267   4.646   1.840   0.863  0.0768  0.4187 -0.0899
  146TMC2    C1 2268   0.773   1.004  13.138 -0.4026  0.2017 -0.2322
  146TMC2    C2 2269   0.660   1.001  13.073 -0.2150 -0.2204  0.5948
  146TMC2    C3 2270   0.661   0.937  12.954 -0.8350  0.2326 -0.0417
  146TMC2    C4 2271   0.883   0.949  13.082  0.3942 -0.2250 -0.0757
  146TMC2    C5 2272   0.883   0.877  12.965  0.1868 -0.3059  0.2280
  146TMC2    C6 2273   0.770   0.871  12.895 -0.0359 -0.2261 -0.0611
  146TMC2     C 2274   0.776   1.064  13.270 -0.3557 -1.0554  1.3282
  146TMC2     O 2275   0.694   1.155  13.301  0.3522 -0.0612 -0.2440
  146TMC2     H 2276   0.566   1.041  13.108 -0.2480 -0.1232  0.3932
  146TMC2    H1 2277   0.982   0.967  13.123 -0.1195  2.0770  0.1238
  146TMC2    H2 2278   0.765   0.828  12.795 -0.7861 -0.9689  0.2993
  146TMC2    C7 2279   1.009   0.852  12.905  0.3784  0.3344  0.1161
  146TMC2    C8 2280   0.555   0.979  12.868  0.1254 -0.1097 -0.2424
  146TMC2    O1 2281   1.023   0.881  12.787  0.5608  0.6188 -0.3365
  146TMC2    O2 2282   0.512   1.091  12.886  0.2963  0.9239  0.8873
  146TMC2    O5 2283   0.512   0.874  12.793 -0.6818 -0.0263 -0.2541
  146TMC2    H5 2284   0.572   0.796  12.791 -0.7334 -0.0589 -0.6860
  147MPD2     C 2285   1.519   0.739  12.915  0.2628  0.1403  0.0692
  147MPD2    C1 2286   1.466   0.698  13.030 -0.3176  0.6080  0.0806
  147MPD2    C2 2287   1.330   0.716  13.062 -0.3234  1.1775  0.0734
  147MPD2    C3 2288   1.245   0.786  12.969  0.4064  0.1386  0.0961
  147MPD2    C4 2289   1.300   0.809  12.843  0.0716 -0.0247  0.7667
  147MPD2    C5 2290   1.435   0.784  12.816  0.7756 -0.0105 -0.2006
  147MPD2     H 2291   1.288   0.675  13.153  3.7689  1.9035  2.3019
  147MPD2    H1 2292   1.237   0.847  12.764  0.5340  1.5577  1.1530
  147MPD2    H2 2293   1.623   0.730  12.889  0.7724 -0.6883  2.3254
  147MPD2    H3 2294   1.473   0.807  12.717 -1.9855 -2.0396 -1.7073
  147MPD2     N 2295   1.106   0.811  13.002 -0.0012  0.2239  0.1916
  147MPD2    H5 2296   1.079   0.789  13.097  1.4981 -0.5321  0.4499
  147MPD2    N1 2297   1.561   0.642  13.123  0.4082  0.4215 -0.2185
  147MPD2    H7 2298   1.659   0.643  13.096  0.0893  0.7566 -1.3999
  148TMC2    C1 2299   0.733   0.006  10.937  0.3985  0.5467  0.1570
  148TMC2    C2 2300   0.808   0.121  10.939 -0.2691 -0.5686  0.2486
  148TMC2    C3 2301   0.931   0.104  10.995  0.2444  0.9148  0.0482
  148TMC2    C4 2302   0.770   4.629  10.991 -0.2681 -0.2451 -0.2574
  148TMC2    C5 2303   0.884   4.630  11.065  0.1376  0.1217 -0.1664
  148TMC2    C6 2304   0.960   4.738  11.075 -0.9359  0.6807 -0.0711
  148TMC2     C 2305   0.656   4.735  10.812 -0.4329 -0.2350  0.2680
  148TMC2     O 2306   0.647   0.093  10.740 -0.5236 -0.0047 -0.1486
  148TMC2     H 2307   0.772   0.216  10.902  0.9493 -0.3731 -0.4540
  148TMC2    H1 2308   0.705   4.543  11.007 -1.4444  0.7355  0.2107
  148TMC2    H2 2309   1.057   4.729  11.124 -0.1415 -0.1806 -1.7824
  148TMC2    C7 2310   0.928   4.505  11.129 -0.1362  0.3931 -0.1009
  148TMC2    C8 2311   0.999   0.227  11.040  0.0680  0.6511  0.5801
  148TMC2    O1 2312   0.889   4.398  11.078  0.2008 -0.2570  0.6843
  148TMC2    O2 2313   0.929   0.323  11.075 -0.3027 -0.0648  0.2142
  148TMC2    O5 2314   1.113   0.248  10.967 -0.2227 -0.2062 -0.0534
  148TMC2    H5 2315   1.166   0.166  10.954  0.5769  0.3342 -0.2093
  149MPD2     C 2316   0.446   4.665  10.608  0.2404 -0.3094  0.1228
  149MPD2    C1 2317   0.517   4.578  10.687 -0.3726  0.0300 -0.1676
  149MPD2    C2 2318   0.504   4.442  10.665  0.5022  0.4318  0.2840
  149MPD2    C3 2319   0.407   4.393  10.573 -0.1264  0.2043  0.3985
  149MPD2    C4 2320   0.350   4.483  10.489  0.1731  0.0463  0.0051
  149MPD2    C5 2321   0.367   4.616  10.507  0.6517  0.3569  0.9476
  149MPD2     H 2322   0.569   4.371  10.714 -1.1813  0.9784  3.2962
  149MPD2    H1 2323   0.276   4.450  10.417 -0.9384  0.6464  0.8659
  149MPD2    H2 2324   0.459   0.033  10.607  0.5582 -0.3503 -1.2254
  149MPD2    H3 2325   0.307   4.687  10.451  0.3816 -0.0375  0.7389
  149MPD2     N 2326   0.367   4.263  10.556 -0.4488 -0.3161 -0.4414
  149MPD2    H5 2327   0.296   4.236  10.488 -1.5208 -0.1491  0.6036
  149MPD2    N1 2328   0.605   4.609  10.786  0.3456 -0.1885  0.5567
  149MPD2    H7 2329   0.638   4.526  10.836  0.1762  0.1381  1.2030
  150TMC2    C1 2330   2.879   3.565  12.512  0.1859  0.2749  0.0625
  150TMC2    C2 2331   2.893   3.555  12.375  0.2884 -0.1008  0.7140
  150TMC2    C3 2332   3.025   3.568  12.320  0.1760  0.8581  0.3402
  150TMC2    C4 2333   2.988   3.591  12.584 -0.6308 -0.7393 -0.2426
  150TMC2    C5 2334   3.119   3.599  12.525 -0.3130 -0.7680  0.0702
  150TMC2    C6 2335   3.137   3.591  12.393 -0.8736  0.5209  0.1129
  150TMC2     C 2336   2.756   3.520  12.580 -0.3641 -0.2532  0.1932
  150TMC2     O 2337   2.769   3.492  12.698  0.4353  0.2300  0.4278
  150TMC2     H 2338   2.812   3.520  12.314  0.2248  1.6491 -0.2174
  150TMC2    H1 2339   2.987   3.595  12.692 -0.4707  0.3248 -0.2766
  150TMC2    H2 2340   3.231   3.621  12.349 -1.5822  2.3021 -0.1849
  150TMC2    C7 2341   3.235   3.622  12.611  0.0634  0.6903 -0.0868
  150TMC2    C8 2342   3.064   3.535  12.186  0.6297  0.4747 -0.2194
  150TMC2    O1 2343   3.208   3.671  12.720 -0.0503 -0.4822  0.2631
  150TMC2    O2 2344   3.167   3.566  12.129 -0.1883  0.5927 -0.6763
  150TMC2    O5 2345   3.017   3.412  12.166  0.0977 -0.6878 -0.6806
  150TMC2    H5 2346   2.963   3.390  12.245 -1.0475 -0.8048 -1.4995
  151MPD2     C 2347   2.264   3.401  12.593 -0.1580 -0.4162  0.1558
  151MPD2    C1 2348   2.283   3.470  12.485  0.2011  0.2241 -0.2911
  151MPD2    C2 2349   2.415   3.520  12.456  0.1444  0.2135 -0.3072
  151MPD2    C3 2350   2.523   3.482  12.532 -0.0704 -0.2416 -0.9108
  151MPD2    C4 2351   2.498   3.399  12.637  0.6506  0.0449  0.0488
  151MPD2    C5 2352   2.375   3.356  12.661  0.6591  0.2807  0.1310
  151MPD2     H 2353   2.446   3.591  12.380 -0.0318  1.9434  1.2519
  151MPD2    H1 2354   2.576   3.368  12.705 -0.9468 -1.9310  0.9706
  151MPD2    H2 2355   2.166   3.367  12.623 -0.9699  0.6798 -1.2722
  151MPD2    H3 2356   2.358   3.286  12.742  0.1231  0.7097  0.3877
  151MPD2     N 2357   2.650   3.521  12.491 -0.7634 -0.2194 -0.1350
  151MPD2    H5 2358   2.675   3.562  12.402  0.7901  0.8111  0.7550
  151MPD2    N1 2359   2.170   3.509  12.410  0.1749 -0.1610  0.6336
  151MPD2    H7 2360   2.079   3.472  12.437 -0.3725  0.2633 -0.6235
  152TMC2    C1 2361   2.981   3.592  12.997 -0.5104  0.3282  0.3674
  152TMC2    C2 2362   3.045   3.487  12.947 -0.4559 -0.7377 -0.3200
  152TMC2    C3 2363   3.179   3.484  12.950 -0.4530 -0.6373  0.3735
  152TMC2    C4 2364   3.042   3.690  13.069 -0.1251 -0.0940  0.1336
  152TMC2    C5 2365   3.178   3.687  13.068  0.3475 -0.4292  0.5668
  152TMC2    C6 2366   3.250   3.583  13.017 -0.0364  0.4881  1.1011
  152TMC2     C 2367   2.842   3.575  13.012 -0.1315  0.0889  0.5899
  152TMC2     O 2368   2.768   3.667  13.044  0.0949  0.1474 -0.4063
  152TMC2     H 2369   2.991   3.430  12.872 -0.9376 -1.0258  0.2408
  152TMC2    H1 2370   2.978   3.763  13.115 -0.2546 -0.5070  0.6036
  152TMC2    H2 2371   3.357   3.593  13.004 -0.2295  0.3477 -0.5176
  152TMC2    C7 2372   3.245   3.785  13.162 -0.4929 -0.3127 -0.1957
  152TMC2    C8 2373   3.242   3.367  12.889  0.2326 -0.3607 -0.2922
  152TMC2    O1 2374   3.172   3.855  13.234 -0.5751 -0.0076 -0.3243
  152TMC2    O2 2375   3.172   3.280  12.841 -0.0700 -0.3113  0.2178
  152TMC2    O5 2376   3.353   3.333  12.962  0.5791  0.1890 -0.5208
  152TMC2    H5 2377   3.375   3.396  13.034 -2.1035 -1.0815  1.4187
  153MPD2     C 2378   2.649   3.262  13.055  0.4341  0.3784  0.7058
  153MPD2    C1 2379   2.672   3.395  13.022  0.4293 -0.1512  0.1168
  153MPD2    C2 2380   2.567   3.474  12.991  0.1547  0.5700 -0.1598
  153MPD2    C3 2381   2.439   3.426  13.004  0.1333  0.6910 -0.7652
  153MPD2    C4 2382   2.418   3.293  13.029  0.4794  0.6813  0.1161
  153MPD2    C5 2383   2.528   3.208  13.049  0.2078  0.6013  0.3293
  153MPD2     H 2384   2.582   3.571  12.943 -1.4602  0.7284 -0.3192
  153MPD2    H1 2385   2.323   3.242  13.028  0.4740  0.6547  1.7354
  153MPD2    H2 2386   2.731   3.196  13.081 -0.4214 -1.6867 -1.7736
  153MPD2    H3 2387   2.505   3.103  13.062  0.6918  0.3524 -0.8393
  153MPD2     N 2388   2.339   3.513  12.954 -0.1533  0.4021  0.0268
  153MPD2    H5 2389   2.366   3.599  12.909  1.2870  0.4921  1.0484
  153MPD2    N1 2390   2.809   3.441  13.006  0.0881 -0.1464 -0.5590
  153MPD2    H7 2391   2.881   3.369  13.010 -0.6723 -0.8492  0.3737
  154TMC2    C1 2392   0.361   2.887   1.231  0.4448  0.8798  0.1160
  154TMC2    C2 2393   0.331   3.005   1.287  0.3530  0.6101 -0.4566
  154TMC2    C3 2394   0.433   3.059   1.358 -0.9102 -0.1270 -0.0413
  154TMC2    C4 2395   0.490   2.827   1.241 -0.6662 -0.1935 -0.5617
  154TMC2    C5 2396   0.582   2.887   1.319  0.3143 -0.0699  0.1628
  154TMC2    C6 2397   0.552   3.005   1.378 -0.0577 -0.7086  0.0120
  154TMC2     C 2398   0.293   2.872   1.102  0.1388  0.1677  0.3992
  154TMC2     O 2399   0.196   2.938   1.082  0.2532 -0.4178  0.3057
  154TMC2     H 2400   0.237   3.055   1.271 -0.9694 -0.8489  2.8252
  154TMC2    H1 2401   0.507   2.731   1.192 -2.5584 -0.0890 -1.4286
  154TMC2    H2 2402   0.619   3.067   1.435  0.8862 -2.7176  1.1178
  154TMC2    C7 2403   0.693   2.814   1.372  0.5312 -0.3778 -0.1531
  154TMC2    C8 2404   0.401   3.186   1.426  0.3841  0.0315 -0.6746
  154TMC2    O1 2405   0.747   2.856   1.472  0.0190 -0.4227  0.4666
  154TMC2    O2 2406   0.320   3.269   1.384  0.3124  0.0929 -0.1502
  154TMC2    O5 2407   0.457   3.194   1.553  0.2062 -0.2871  0.0093
  154TMC2    H5 2408   0.529   3.134   1.582  0.5421 -0.9526 -2.2266
  155MPD2     C 2409   0.341   2.606   0.845  0.7795 -0.2061 -0.0170
  155MPD2    C1 2410   0.285   2.722   0.906  0.1706  0.1469 -0.1494
  155MPD2    C2 2411   0.174   2.775   0.851  0.2155 -0.1887 -0.1192
  155MPD2    C3 2412   0.128   2.735   0.726  0.6679 -0.1338  0.2317
  155MPD2    C4 2413   0.192   2.635   0.655  0.2846 -0.1413  0.5012
  155MPD2    C5 2414   0.298   2.565   0.716 -0.8380 -0.3873 -1.1462
  155MPD2     H 2415   0.120   2.849   0.908  2.5191  0.2796  1.4595
  155MPD2    H1 2416   0.156   2.594   0.562  0.9751  1.9065 -0.6629
  155MPD2    H2 2417   0.411   2.539   0.894 -0.2674 -2.1492 -1.2221
  155MPD2    H3 2418   0.339   2.473   0.677  1.4641  1.0544 -2.1707
  155MPD2     N 2419   0.020   2.796   0.673  1.1450 -0.3975 -0.0479
  155MPD2    H5 2420   4.720   2.861   0.740 -2.5875 -0.0942 -2.5414
  155MPD2    N1 2421   0.338   2.766   1.024  0.2340  0.7720  0.6005
  155MPD2    H7 2422   0.418   2.709   1.049 -0.4573 -1.5268 -2.4057
  156TMC2    C1 2423   3.683   1.227  11.698  0.5307 -0.2466  0.2323
  156TMC2    C2 2424   3.745   1.111  11.657  0.1667  0.3810  0.0606
  156TMC2    C3 2425   3.752   1.087  11.526 -0.7161 -0.7326  0.8801
  156TMC2    C4 2426   3.639   1.323  11.613 -0.9058 -0.0248 -0.8145
  156TMC2    C5 2427   3.619   1.282  11.480 -0.7477 -0.4505 -0.0090
  156TMC2    C6 2428   3.690   1.173  11.439  0.8433 -0.1247  0.4150
  156TMC2     C 2429   3.664   1.241  11.844  0.1203  0.6639 -0.2550
  156TMC2     O 2430   3.667   1.355  11.889  0.1882  0.0978 -0.0176
  156TMC2     H 2431   3.781   1.028  11.716  0.3212 -0.8945 -1.8052
  156TMC2    H1 2432   3.597   1.413  11.658  1.2912  1.5699 -1.9398
  156TMC2    H2 2433   3.660   1.135  11.342  1.5072  0.2315  0.0755
  156TMC2    C7 2434   3.475   1.264  11.453 -0.1565 -0.0309 -0.1947
  156TMC2    C8 2435   3.780   0.946  11.482 -0.3722  0.2998  0.2239
  156TMC2    O1 2436   3.443   1.166  11.386  0.0757  0.0697  0.4955
  156TMC2    O2 2437   3.779   0.842  11.549  0.6143 -0.7062  0.2088
  156TMC2    O5 2438   3.815   0.948  11.350 -0.0856  0.0686 -0.1477
  156TMC2    H5 2439   3.789   1.023  11.293  0.2028 -0.0076 -0.3780
  157MPD2     C 2440   3.642   0.973  12.108 -0.4482 -0.0562  0.2790
  157MPD2    C1 2441   3.637   1.102  12.054  0.0187  0.2612 -0.2347
  157MPD2    C2 2442   3.603   1.203  12.139  0.2423  0.8525  0.4471
  157MPD2    C3 2443   3.551   1.173  12.267 -0.0017 -0.3993  0.2543
  157MPD2    C4 2444   3.556   1.045  12.318 -0.3145  0.0912 -0.5176
  157MPD2    C5 2445   3.594   0.948  12.236 -0.0948 -0.3636  0.0281
  157MPD2     H 2446   3.589   1.300  12.093  1.4995  1.0265  0.4300
  157MPD2    H1 2447   3.533   1.020  12.421 -2.1965 -4.2647 -1.9979
  157MPD2    H2 2448   3.654   0.895  12.034  0.8795  1.2579 -0.8923
  157MPD2    H3 2449   3.593   0.846  12.271  1.4617  0.0204  1.1976
  157MPD2     N 2450   3.498   1.279  12.341  0.4041  0.4220 -0.3673
  157MPD2    H5 2451   3.510   1.375  12.309  1.5876  0.5175  0.3411
  157MPD2    N1 2452   3.663   1.118  11.918  0.4425  0.2671  0.1302
  157MPD2    H7 2453   3.654   1.036  11.860  0.0202 -0.0511  0.6484
  158TMC2    C1 2454   3.615   0.098  13.209 -0.2099  0.0555 -0.1181
  158TMC2    C2 2455   3.670   0.134  13.082  0.2347 -0.3768 -0.5195
  158TMC2    C3 2456   3.581   0.173  12.989  0.3475  0.0737  0.1762
  158TMC2    C4 2457   3.488   0.100  13.231 -1.0991  0.7204 -0.0313
  158TMC2    C5 2458   3.394   0.142  13.133  0.8388 -0.9449  0.2495
  158TMC2    C6 2459   3.442   0.181  13.004 -0.1597  0.2513 -0.0913
  158TMC2     C 2460   3.710   0.067  13.310 -0.2056  0.6021 -0.2629
  158TMC2     O 2461   3.832   0.064  13.279  0.3182  0.5941 -0.7897
  158TMC2     H 2462   3.772   0.120  13.049  0.4272  0.4110 -0.2613
  158TMC2    H1 2463   3.442   0.066  13.323 -1.3152  0.0289 -0.3956
  158TMC2    H2 2464   3.384   0.233  12.929  1.9097  1.0415 -1.1171
  158TMC2    C7 2465   3.254   0.165  13.151 -0.2743 -0.4067 -0.0483
  158TMC2    C8 2466   3.646   0.219  12.864  0.3687  0.1954  0.1265
  158TMC2    O1 2467   3.189   0.213  13.059 -0.3608  0.2119 -0.1172
  158TMC2    O2 2468   3.761   0.249  12.857 -0.0951 -0.9023  0.2771
  158TMC2    O5 2469   3.602   0.124  12.788 -0.8087 -1.2365 -0.4374
  158TMC2    H5 2470   3.529   0.069  12.822 -0.4515 -0.2249  2.0283
  159MPD2     C 2471   3.855   4.658  13.776  0.5209  0.4511 -0.2769
  159MPD2    C1 2472   3.719   4.649  13.769  0.1119  0.2997 -0.7368
  159MPD2    C2 2473   3.653   4.680  13.649 -1.0956 -0.3029 -0.4495
  159MPD2    C3 2474   3.724   4.735  13.540  0.3012 -0.1226  0.0784
  159MPD2    C4 2475   3.864   4.737  13.555 -0.2927 -0.8202 -0.3677
  159MPD2    C5 2476   3.925   4.699  13.671  0.1856 -0.8885  0.5560
  159MPD2     H 2477   3.546   4.663  13.649 -0.8515 -1.8703  0.3502
  159MPD2    H1 2478   3.925   0.027  13.471  0.7686 -1.0914  0.2953
  159MPD2    H2 2479   3.904   4.631  13.870  1.7415 -2.0497 -1.6194
  159MPD2    H3 2480   4.033   4.694  13.678  0.3047  0.8391 -0.0539
  159MPD2     N 2481   3.656   0.024  13.426  0.0517  0.1487  0.3338
  159MPD2    H5 2482   3.556   0.013  13.432  0.0834 -0.6363 -0.5850
  159MPD2    N1 2483   3.653   4.595  13.883 -0.2408  0.0995  0.2322
  159MPD2    H7 2484   3.707   4.555  13.959 -0.7267  0.8728  0.9642
  160TMC2    C1 2485   2.979   2.522   1.510  0.2041  0.4744  0.2759
  160TMC2    C2 2486   2.878   2.467   1.584  0.0164 -0.0367 -0.1345
  160TMC2    C3 2487   2.894   2.334   1.619  0.5112 -0.0355 -0.2299
  160TMC2    C4 2488   3.094   2.452   1.484 -0.5705  1.0695  0.1641
  160TMC2    C5 2489   3.106   2.326   1.536 -0.0564 -0.0835 -0.2755
  160TMC2    C6 2490   3.010   2.267   1.609  0.0065  0.2214  0.8582
  160TMC2     C 2491   2.972   2.663   1.469 -0.4864  0.1105 -0.2542
  160TMC2     O 2492   3.037   2.701   1.375 -0.1715  0.1394  0.2699
  160TMC2     H 2493   2.784   2.515   1.611 -0.2431  0.2506 -1.5892
  160TMC2    H1 2494   3.171   2.498   1.422 -1.3601  0.4047 -1.3278
  160TMC2    H2 2495   3.024   2.177   1.669 -1.4355  1.1536  2.5711
  160TMC2    C7 2496   3.228   2.253   1.524  0.1632 -0.7936 -0.2280
  160TMC2    C8 2497   2.812   2.277   1.720  0.5095 -0.6278 -0.4284
  160TMC2    O1 2498   3.235   2.148   1.585  0.2034 -0.4844 -0.0316
  160TMC2    O2 2499   2.790   2.158   1.734  0.1657 -0.5410 -0.0222
  160TMC2    O5 2500   2.807   2.371   1.816  0.4982  0.4158  0.5573
  160TMC2    H5 2501   2.852   2.455   1.797 -0.7309  1.4811  2.2940
  161MPD2     C 2502   2.916   2.958   1.444  0.4375 -0.4307  0.7925
  161MPD2    C1 2503   2.883   2.885   1.557 -0.4616 -0.4639  0.2465
  161MPD2    C2 2504   2.821   2.944   1.664 -0.3128 -0.0210  0.4624
  161MPD2    C3 2505   2.801   3.079   1.662  0.7608 -0.1467 -0.2636
  161MPD2    C4 2506   2.852   3.158   1.566  0.6502  0.0595  0.5848
  161MPD2    C5 2507   2.898   3.096   1.451 -0.2723 -0.3494  0.8549
  161MPD2     H 2508   2.812   2.875   1.747  0.6342  1.0921  1.4696
  161MPD2    H1 2509   2.839   3.266   1.565 -0.1764 -0.0490 -1.8577
  161MPD2    H2 2510   2.938   2.913   1.348 -1.3581 -0.3798  0.3567
  161MPD2    H3 2511   2.936   3.163   1.374  1.0635 -3.4964 -1.2536
  161MPD2     N 2512   2.726   3.147   1.760  0.0821  0.6066  0.3767
  161MPD2    H5 2513   2.710   3.247   1.753  1.7164  0.9682  2.0817
  161MPD2    N1 2514   2.902   2.742   1.559 -1.0787 -0.1653 -0.3511
  161MPD2    H7 2515   2.886   2.695   1.647  1.0458 -0.2754 -0.0388
  162TMC2    C1 2516   0.680   4.381   0.939  0.2981  0.4458  0.0032
  162TMC2    C2 2517   0.723   4.510   0.943 -0.3979 -0.0494  0.2224
  162TMC2    C3 2518   0.754   4.575   1.059  0.8131 -0.0418 -0.8970
  162TMC2    C4 2519   0.665   4.306   1.054 -1.4844  0.0068 -0.5952
  162TMC2    C5 2520   0.689   4.380   1.167 -0.2709  0.8585  0.4264
  162TMC2    C6 2521   0.726   4.505   1.179 -0.5613  1.2123 -0.2972
  162TMC2     C 2522   0.675   4.311   0.815  0.2321 -0.0872  0.5578
  162TMC2     O 2523   0.732   4.371   0.719 -0.9197 -0.8751  0.2809
  162TMC2     H 2524   0.755   4.558   0.852  0.2046  1.8648  1.4510
  162TMC2    H1 2525   0.658   4.198   1.065  1.0710 -0.2007 -1.0259
  162TMC2    H2 2526   0.769   4.539   1.273 -2.6339  1.7088  0.4642
  162TMC2    C7 2527   0.695   4.299   1.288  0.4710  0.0592  1.1285
  162TMC2    C8 2528   0.856   4.671   1.062 -0.4772 -0.4081 -0.1722
  162TMC2    O1 2529   0.632   4.194   1.285  0.4061 -0.1480  0.7010
  162TMC2    O2 2530   0.952   4.675   0.983 -0.5117 -0.1110  0.4409
  162TMC2    O5 2531   0.842   0.003   1.173 -0.0520 -0.2690 -0.0916
  162TMC2    H5 2532   0.750   4.732   1.207  0.4395 -2.5420  0.4890
  163MPD2     C 2533   0.677   3.895   0.531  0.7970  0.2464 -0.2985
  163MPD2    C1 2534   0.773   3.989   0.552  0.0199 -0.3852  0.0360
  163MPD2    C2 2535   0.745   4.088   0.643  0.3151 -0.3427  0.2688
  163MPD2    C3 2536   0.625   4.090   0.716 -0.6459  0.1451  0.0808
  163MPD2    C4 2537   0.547   3.977   0.716  0.6106  0.1693  1.1753
  163MPD2    C5 2538   0.569   3.888   0.622  0.0309  0.2598 -1.0208
  163MPD2     H 2539   0.826   4.157   0.664 -0.6632  0.5504  1.0838
  163MPD2    H1 2540   0.458   3.977   0.779 -0.6710 -2.2215 -0.6415
  163MPD2    H2 2541   0.694   3.827   0.448 -1.6581 -2.0614  1.1255
  163MPD2    H3 2542   0.497   3.807   0.622 -0.4703  0.7104 -0.3607
  163MPD2     N 2543   0.608   4.191   0.816 -0.1573  0.2646 -0.4777
  163MPD2    H5 2544   0.532   4.184   0.882 -0.1834 -0.1369 -0.5476
  163MPD2    N1 2545   0.895   3.971   0.494 -0.3642  0.2241 -0.1290
  163MPD2    H7 2546   0.913   3.879   0.455  2.2977  0.8335 -0.3614
  164TMC2    C1 2547   1.543   4.377  11.412  1.0108 -0.1547  0.1102
  164TMC2    C2 2548   1.556   4.319  11.537  0.0749 -0.0333  0.1734
  164TMC2    C3 2549   1.506   4.386  11.645 -1.0473 -0.2108 -0.1253
  164TMC2    C4 2550   1.490   4.500  11.398  0.7752  0.2278 -0.6045
  164TMC2    C5 2551   1.427   4.560  11.509 -0.0837  0.3277  0.6434
  164TMC2    C6 2552   1.442   4.508  11.637  0.2104 -0.1044  0.9005
  164TMC2     C 2553   1.598   4.310  11.295 -0.1815  0.6056 -0.0988
  164TMC2     O 2554   1.611   4.385  11.202  0.0171  0.2189  0.0279
  164TMC2     H 2555   1.600   4.222  11.559  1.7144 -0.0279 -3.0455
  164TMC2    H1 2556   1.487   4.548  11.301  1.4339  0.3573 -0.5622
  164TMC2    H2 2557   1.384   4.547  11.719 -1.3806  0.3138 -0.4222
  164TMC2    C7 2558   1.327   4.666  11.501  0.8174  0.4594  0.6412
  164TMC2    C8 2559   1.519   4.333  11.778 -0.3622  0.0650  0.1455
  164TMC2    O1 2560   1.234   4.662  11.584  0.5337 -0.4013 -0.4332
  164TMC2    O2 2561   1.455   4.377  11.875 -0.0368  0.0044  0.2330
  164TMC2    O5 2562   1.650   4.285  11.789 -0.2827 -0.1685 -0.3315
  164TMC2    H5 2563   1.689   4.284  11.699  2.7096  0.4851  0.9340
  165TMC2    C1 2564   2.714   2.513   1.239  0.0358 -0.1874 -0.1306
  165TMC2    C2 2565   2.753   2.584   1.128  0.0478 -0.8616  0.3130
  165TMC2    C3 2566   2.851   2.532   1.050 -0.0664  0.1950  0.4087
  165TMC2    C4 2567   2.765   2.385   1.273  0.1889  0.7184  0.7568
  165TMC2    C5 2568   2.873   2.343   1.198 -1.0535  0.6503  0.2706
  165TMC2    C6 2569   2.921   2.413   1.083  0.0569 -0.1119  0.7706
  165TMC2     C 2570   2.632   2.579   1.335  0.1234  0.1995  0.4481
  165TMC2     O 2571   2.561   2.510   1.403 -0.1755  0.2428  0.4800
  165TMC2     H 2572   2.685   2.653   1.080  0.3577 -1.0228 -0.3509
  165TMC2    H1 2573   2.734   2.339   1.366  1.3014 -1.6686 -0.0795
  165TMC2    H2 2574   3.007   2.392   1.020 -1.8237  0.5406 -2.0148
  165TMC2    C7 2575   2.932   2.210   1.226  0.7565 -0.3559  0.4315
  165TMC2    C8 2576   2.886   2.592   0.925  0.5172 -0.0043 -0.6563
  165TMC2    O1 2577   3.034   2.189   1.166  0.6340 -0.4608  0.0190
  165TMC2    O2 2578   2.913   2.524   0.824 -0.2197  0.5951  0.0313
  165TMC2    O5 2579   2.840   2.720   0.922 -0.5325 -0.1688 -1.0689
  165TMC2    H5 2580   2.809   2.740   1.013  2.7528  0.4565 -0.1052
  166MPD2     C 2581   2.383   2.979   1.524 -0.3987  0.4972  0.0681
  166MPD2    C1 2582   2.349   2.846   1.532 -0.0893 -0.7362 -0.0234
  166MPD2    C2 2583   2.435   2.759   1.457  0.4298 -0.5120  0.2581
  166MPD2    C3 2584   2.547   2.806   1.391  0.2416  0.1176 -0.1613
  166MPD2    C4 2585   2.575   2.942   1.388 -0.3246  0.4378  0.0110
  166MPD2    C5 2586   2.495   3.026   1.454  1.2379 -0.1013 -0.2057
  166MPD2     H 2587   2.407   2.655   1.462 -0.8319 -0.1745  0.2312
  166MPD2    H1 2588   2.651   2.984   1.323 -0.5268  1.0022  0.1411
  166MPD2    H2 2589   2.327   3.048   1.587 -0.8489 -0.8861  1.1808
  166MPD2    H3 2590   2.518   3.131   1.468  0.6185 -0.0583  0.4977
  166MPD2     N 2591   2.632   2.723   1.322 -0.7774 -0.0408 -0.0125
  166MPD2    H5 2592   2.698   2.761   1.255 -2.0253  2.1965  0.0300
  166MPD2    N1 2593   2.236   2.812   1.607  0.5595 -0.2261  0.0869
  166MPD2    H7 2594   2.174   2.881   1.646  1.7009  0.3215  0.9070
  167TMC2    C1 2595   0.887   4.527  13.259  0.6968 -0.5674  0.2794
  167TMC2    C2 2596   0.891   4.530  13.397 -0.4896 -0.0975 -0.3276
  167TMC2    C3 2597   0.857   4.418  13.465  0.7403 -0.8043 -0.8057
  167TMC2    C4 2598   0.850   4.412  13.194  0.6906 -0.0586 -0.3347
  167TMC2    C5 2599   0.823   4.300  13.268  0.2584 -0.0370  0.2237
  167TMC2    C6 2600   0.812   4.305  13.404  0.2711  0.1094 -0.1625
  167TMC2     C 2601   0.920   4.645  13.182 -0.2404 -0.9897 -1.0650
  167TMC2     O 2602   0.922   0.008  13.251  0.2229  0.2773  0.2724
  167TMC2     H 2603   0.932   4.618  13.444 -0.0001  0.9464 -2.6987
  167TMC2    H1 2604   0.850   4.410  13.085 -1.9684  2.0716 -0.4037
  167TMC2    H2 2605   0.795   4.222  13.472 -1.0770  0.9480  0.5333
  167TMC2    C7 2606   0.831   4.167  13.210  1.0088  0.5289  0.1072
  167TMC2    C8 2607   0.945   4.378  13.573 -0.8842 -0.6341  0.4813
  167TMC2    O1 2608   0.780   4.081  13.283 -0.7572  0.5907 -0.1009
  167TMC2    O2 2609   0.994   4.272  13.586 -0.3809  0.0968  0.0589
  167TMC2    O5 2610   0.923   4.468  13.669  0.1348 -0.1354  0.3982
  167TMC2    H5 2611   0.864   4.539  13.636 -0.9762 -1.3651 -0.2482
  168MPD2     C 2612   0.966   0.124  12.983 -0.4315  0.0566 -0.2842
  168MPD2    C1 2613   0.980   4.727  12.953 -0.7230 -0.7247  0.4254
  168MPD2    C2 2614   1.022   4.697  12.824 -0.3226 -0.9328  0.0254
  168MPD2    C3 2615   1.034   0.054  12.724 -0.2173  0.0221  0.2071
  168MPD2    C4 2616   1.028   0.190  12.763 -0.3325  0.4450  0.1938
  168MPD2    C5 2617   0.991   0.218  12.890  0.4572 -0.0477 -0.0803
  168MPD2     H 2618   1.053   4.595  12.805  1.7666 -0.1857 -0.6166
  168MPD2    H1 2619   1.035   0.264  12.684  0.7461 -0.7551 -0.8407
  168MPD2    H2 2620   0.929   0.165  13.076  1.9697  1.5633  0.0192
  168MPD2    H3 2621   0.977   0.321  12.922  0.2563 -0.8598  2.4868
  168MPD2     N 2622   1.060   0.034  12.586 -0.4630  0.9442 -0.1934
  168MPD2    H5 2623   1.040   0.115  12.529  1.2572  0.5670 -1.3624
  168MPD2    N1 2624   0.950   4.628  13.052 -0.1778 -0.4448  0.5695
  168MPD2    H7 2625   0.974   4.534  13.023  0.6706  0.2761 -1.0378
  169MPD1     C 2626   3.978   0.270   9.349 -0.4290 -0.2118 -0.2700
  169MPD1    C1 2627   4.060   0.190   9.428 -0.2154 -0.1838  0.3326
  169MPD1    C2 2628   4.003   0.088   9.496  0.6031 -0.7701 -0.0274
  169MPD1    C3 2629   3.876   0.049   9.465 -0.1033 -0.5427 -0.8664
  169MPD1    C4 2630   3.806   0.122   9.376  0.2985 -0.2927 -0.4228
  169MPD1    C5 2631   3.846   0.240   9.324 -0.1352 -0.3671  0.1284
  169MPD1     H 2632   4.060   0.024   9.562  0.7786 -0.2812  0.2943
  169MPD1    H1 2633   3.698   0.115   9.369  0.2307  0.1452  0.1880
  169MPD1    H2 2634   4.013   0.363   9.304  1.9677 -1.8417 -1.8008
  169MPD1    H3 2635   3.791   0.300   9.252  1.3151 -1.5410 -1.9609
  169MPD1     N 2636   3.819   4.679   9.539  0.5404  0.7064 -0.1563
  169MPD1    H5 2637   3.869   4.625   9.609 -0.9394 -0.0965  0.2849
  169MPD1    N1 2638   4.189   0.222   9.468  0.2192 -0.1389 -0.3988
  169MPD1    H6 2639   4.243   0.270   9.397  1.5188 -2.3083 -0.8732
  169MPD1    H7 2640   4.234   0.135   9.493  0.4712 -0.4667 -1.9902
  170MPD1     C 2641   1.858   1.450  13.492  0.2154 -0.3270 -0.0260
  170MPD1    C1 2642   1.966   1.495  13.570 -0.9512 -0.2479  0.5597
  170MPD1    C2 2643   1.946   1.600  13.659 -0.0406 -0.2077  0.1402
  170MPD1    C3 2644   1.839   1.688  13.635  0.1122 -0.1057 -0.2751
  170MPD1    C4 2645   1.743   1.660  13.538 -0.1691  0.6426  0.6412
  170MPD1    C5 2646   1.753   1.540  13.476  0.0010  0.2063 -0.1106
  170MPD1     H 2647   2.018   1.618  13.738  0.7405  2.4660 -1.1839
  170MPD1    H1 2648   1.665   1.727  13.506  1.0849  1.2535 -1.1284
  170MPD1    H2 2649   1.865   1.364  13.427  0.3204 -1.0076  0.8920
  170MPD1    H3 2650   1.680   1.518  13.399  0.7786 -1.1078 -0.4795
  170MPD1     N 2651   1.834   1.804  13.723  0.3436  0.4554  0.0872
  170MPD1    H5 2652   1.910   1.810  13.789 -0.0192 -2.9462  0.8268
  170MPD1    N1 2653   2.067   1.398  13.591 -0.1695 -0.2023 -0.2168
  170MPD1    H6 2654   2.151   1.439  13.629 -0.9614  1.1533  0.0695
  170MPD1    H7 2655   2.085   1.348  13.504  1.8213 -0.5145  0.3693
  171MPD1     C 2656   0.265   2.754  16.101 -0.2757  0.2460  0.7922
  171MPD1    C1 2657   0.199   2.643  16.149  0.1441  0.4640  0.2553
  171MPD1    C2 2658   0.270   2.529  16.168  0.0632 -0.0601  0.2775
  171MPD1    C3 2659   0.406   2.523  16.156 -0.3001 -0.2302 -0.2396
  171MPD1    C4 2660   0.468   2.634  16.110  0.1359  0.9137 -0.0061
  171MPD1    C5 2661   0.399   2.747  16.089  0.2076 -0.0456  0.1396
  171MPD1     H 2662   0.216   2.437  16.192 -0.7809  0.6896  1.2709
  171MPD1    H1 2663   0.574   2.636  16.090 -0.0087  0.1438 -0.8338
  171MPD1    H2 2664   0.215   2.848  16.080  0.0924  0.3373  0.3152
  171MPD1    H3 2665   0.448   2.838  16.055  0.5277 -0.0579  0.5737
  171MPD1     N 2666   0.479   2.398  16.166 -1.0738 -0.1948  0.0560
  171MPD1    H5 2667   0.578   2.405  16.145 -2.0202 -1.3397 -4.7262
  171MPD1    N1 2668   0.060   2.648  16.180 -0.1417 -0.1888 -0.3625
  171MPD1    H6 2669   0.028   2.732  16.227  0.4742  0.2271 -0.6766
  171MPD1    H7 2670   0.017   2.561  16.209 -0.7050  0.0482 -0.4971
  172MPD1     C 2671   4.735   1.445   0.424 -0.3759  0.1130 -0.4662
  172MPD1    C1 2672   4.673   1.521   0.517 -0.4827  0.5347 -0.4010
  172MPD1    C2 2673   0.003   1.629   0.570  0.1094 -0.0606 -0.0593
  172MPD1    C3 2674   0.143   1.650   0.548 -0.7312  0.1965 -0.8691
  172MPD1    C4 2675   0.203   1.556   0.469  0.2024 -0.3762  1.0609
  172MPD1    C5 2676   0.130   1.456   0.405  0.1776  0.1142 -0.6654
  172MPD1     H 2677   4.689   1.702   0.629  3.7980  0.9806  2.0204
  172MPD1    H1 2678   0.309   1.560   0.448  0.4335 -4.0911  1.3687
  172MPD1    H2 2679   4.687   1.372   0.361  1.0016 -1.7443  0.6162
  172MPD1    H3 2680   0.173   1.383   0.337  0.8907  1.1721 -1.3327
  172MPD1     N 2681   0.218   1.764   0.598  0.9275 -0.3090 -0.4950
  172MPD1    H5 2682   0.311   1.776   0.558  1.9737 -1.7510  1.4848
  172MPD1    N1 2683   4.535   1.504   0.533 -0.0757 -0.1507 -0.0004
  172MPD1    H6 2684   4.501   1.523   0.628 -2.0584  1.8887 -1.1006
  172MPD1    H7 2685   4.514   1.406   0.516 -1.2336  0.3803 -1.5997
  173MPD1     C 2686   2.002   2.480  14.462  0.8046  0.2629  0.5829
  173MPD1    C1 2687   1.921   2.467  14.574 -0.2676  0.4103  0.9487
  173MPD1    C2 2688   1.809   2.387  14.569 -0.3309  0.3455 -0.2115
  173MPD1    C3 2689   1.801   2.303  14.457  0.1559 -0.5851  0.6686
  173MPD1    C4 2690   1.894   2.305  14.351  0.2949 -0.3713  0.0800
  173MPD1    C5 2691   1.992   2.398  14.359 -0.3118 -0.8689 -0.0405
  173MPD1     H 2692   1.732   2.384  14.645 -1.2717  1.1518 -1.1362
  173MPD1    H1 2693   1.890   2.236  14.268  1.2239  0.4401 -0.6292
  173MPD1    H2 2694   2.092   2.539  14.474  0.0079  1.3779  1.1159
  173MPD1    H3 2695   2.076   2.400  14.290  0.7312  0.2413  1.2584
  173MPD1     N 2696   1.699   2.207  14.462 -0.0222 -0.1694 -0.3583
  173MPD1    H5 2697   1.656   2.195  14.553  0.8610 -0.3531  0.0422
  173MPD1    N1 2698   1.943   2.566  14.677 -0.4406 -0.1029 -0.4362
  173MPD1    H6 2699   1.896   2.540  14.763 -0.2806  1.0589  0.0022
  173MPD1    H7 2700   2.043   2.572  14.697 -0.8047  3.5978  0.2787
  174MPD1     C 2701   1.524   1.434  13.827  0.4924  0.3102  0.2310
  174MPD1    C1 2702   1.463   1.394  13.946  0.3799  0.1278 -0.0949
  174MPD1    C2 2703   1.460   1.494  14.047  0.2227 -0.4018 -0.7583
  174MPD1    C3 2704   1.492   1.627  14.026 -0.3265  0.3579 -0.2743
  174MPD1    C4 2705   1.523   1.667  13.895 -0.2127 -0.1545 -0.2892
  174MPD1    C5 2706   1.544   1.568  13.799  0.0035 -0.4915 -0.0221
  174MPD1     H 2707   1.416   1.459  14.140 -0.5150 -0.3286 -1.0829
  174MPD1    H1 2708   1.557   1.767  13.870  1.9713 -0.8753 -0.1819
  174MPD1    H2 2709   1.546   1.367  13.745 -0.8737  0.1392  0.0029
  174MPD1    H3 2710   1.579   1.591  13.699  0.3586 -1.8659 -0.2129
  174MPD1     N 2711   1.485   1.724  14.134  0.3980 -0.2532 -0.0144
  174MPD1    H5 2712   1.507   1.817  14.099 -0.7998 -0.3480 -1.0071
  174MPD1    N1 2713   1.431   1.260  13.979 -0.3237  0.1242 -0.3750
  174MPD1    H6 2714   1.390   1.224  13.893  0.5238 -2.6085  0.3499
  174MPD1    H7 2715   1.346   1.280  14.032  0.0343  2.0830 -0.5569
  175MPD1     C 2716   4.644   2.997  15.751  0.2717 -0.0648 -0.0469
  175MPD1    C1 2717   4.515   3.015  15.802 -0.2201  0.6618  0.2794
  175MPD1    C2 2718   4.476   2.960  15.918 -0.0548  0.0549  0.0337
  175MPD1    C3 2719   4.548   2.847  15.964 -0.0513  0.8635  1.1924
  175MPD1    C4 2720   4.669   2.826  15.912 -0.6963 -0.6659  0.2467
  175MPD1    C5 2721   4.721   2.900  15.817 -1.0114  0.1582  0.2193
  175MPD1     H 2722   4.394   3.007  15.971 -0.0395  3.1283 -2.6609
  175MPD1    H1 2723   4.737   2.747  15.943 -0.5693 -0.0274  1.5836
  175MPD1    H2 2724   4.693   3.057  15.675 -0.1958 -0.0277 -0.3141
  175MPD1    H3 2725   0.085   2.891  15.787 -0.6893  0.6119  1.2104
  175MPD1     N 2726   4.518   2.776  16.086  0.0224 -0.2855 -0.1851
  175MPD1    H5 2727   4.579   2.698  16.106  1.4658  1.2573  1.5168
  175MPD1    N1 2728   4.438   3.116  15.742  0.1954 -0.0078  1.0345
  175MPD1    H6 2729   4.339   3.092  15.739  0.4857 -0.9767 -0.9784
  175MPD1    H7 2730   4.463   3.131  15.645  0.8497  1.6320  1.4653
  176MPD1     C 2731   1.392   4.574  17.072  0.3328  0.4229  0.0729
  176MPD1    C1 2732   1.361   4.705  17.051  0.0824 -0.0862 -0.5594
  176MPD1    C2 2733   1.413   0.062  17.127  0.6919 -0.8590 -0.2090
  176MPD1    C3 2734   1.485   0.028  17.241 -1.3059 -0.1819 -0.7712
  176MPD1    C4 2735   1.512   4.635  17.262 -0.2387 -0.3844 -0.6067
  176MPD1    C5 2736   1.474   4.538  17.172  0.0715  0.5905 -0.2767
  176MPD1     H 2737   1.379   0.162  17.101  0.8765 -0.8384 -0.3716
  176MPD1    H1 2738   1.574   4.608  17.347 -0.5288  0.2778 -0.1777
  176MPD1    H2 2739   1.351   4.495  17.010  0.0680  1.3966 -0.9818
  176MPD1    H3 2740   1.503   4.437  17.196  1.0947  0.0806 -3.7124
  176MPD1     N 2741   1.523   0.132  17.336  0.2085 -0.4638 -0.3978
  176MPD1    H5 2742   1.488   0.226  17.319  0.0786 -0.0334  2.1114
  176MPD1    N1 2743   1.304   0.010  16.930  0.8831  0.5781 -0.8095
  176MPD1    H6 2744   1.237   0.085  16.945 -0.0747  0.1650 -2.9359
  176MPD1    H7 2745   1.248   4.683  16.876  1.9959  0.4245 -1.7730
  177MPD1     C 2746   4.320   0.063  10.222 -0.6637  0.1497  0.7267
  177MPD1    C1 2747   4.300   0.193  10.227  0.2880  0.9044  0.7386
  177MPD1    C2 2748   4.223   0.249  10.128  0.4273  0.4148 -0.0291
  177MPD1    C3 2749   4.143   0.171  10.048 -0.4640  0.0027  0.4783
  177MPD1    C4 2750   4.152   0.035  10.060 -0.2536  0.9953  1.1706
  177MPD1    C5 2751   4.236   4.725  10.154 -0.4598 -0.5704  0.9954
  177MPD1     H 2752   4.220   0.354  10.099  0.5936  0.3510 -0.2763
  177MPD1    H1 2753   4.102   4.719   9.983  1.2958  0.8596  0.2654
  177MPD1    H2 2754   4.390   0.000  10.275 -0.5315 -0.5528 -0.2769
  177MPD1    H3 2755   4.242   4.617  10.166  0.5195 -0.4961  1.1119
  177MPD1     N 2756   4.054   0.245   9.965  0.4897  0.0098  0.0149
  177MPD1    H5 2757   4.060   0.347   9.967  0.3642 -0.0452  2.4301
  177MPD1    N1 2758   4.397   0.262  10.310  0.1102 -0.3494  0.1935
  177MPD1    H6 2759   4.364   0.352  10.342 -1.7631 -0.9177 -0.1691
  177MPD1    H7 2760   4.414   0.206  10.393  2.3269  1.6713  1.0852
  178MPD1     C 2761   1.965   0.485   0.335  0.7128  0.4508  0.3812
  178MPD1    C1 2762   2.070   0.565   0.309  0.2157 -0.3550  0.4887
  178MPD1    C2 2763   2.121   0.559   0.179 -0.3194  0.9945 -0.0378
  178MPD1    C3 2764   2.047   0.502   0.074  0.4900  0.7687  0.1258
  178MPD1    C4 2765   1.939   0.425   0.109 -0.3172  0.1536  0.2056
  178MPD1    C5 2766   1.906   0.412   0.240  0.4075  0.2383  0.1862
  178MPD1     H 2767   2.217   0.605   0.155 -0.1321  1.1226  0.9918
  178MPD1    H1 2768   1.892   0.362   0.035 -0.0515  0.8895 -0.5861
  178MPD1    H2 2769   1.930   0.477   0.437  0.1132  0.0852  0.1467
  178MPD1    H3 2770   1.823   0.344   0.260  0.8651 -0.1083  0.8897
  178MPD1     N 2771   2.102   0.523  17.706  0.2163  0.2449  0.5166
  178MPD1    H5 2772   2.195   0.563  17.697  1.3467 -2.5162  0.0049
  178MPD1    N1 2773   2.134   0.625   0.415  0.5989  0.1162  0.6357
  178MPD1    H6 2774   2.073   0.655   0.491  0.8310 -2.8104  1.9839
  178MPD1    H7 2775   2.184   0.709   0.387 -1.9900  0.1334 -3.8790
  179MPD1     C 2776   2.032   4.066  15.759  0.3571  0.5995 -0.3085
  179MPD1    C1 2777   1.986   3.979  15.659 -0.2203  0.1914  1.0104
  179MPD1    C2 2778   1.908   3.875  15.704  0.6142 -0.3091 -0.1410
  179MPD1    C3 2779   1.858   3.862  15.833  0.5488 -0.5975  0.5128
  179MPD1    C4 2780   1.903   3.952  15.927  0.4554  0.2593 -0.2876
  179MPD1    C5 2781   1.986   4.049  15.886  0.3438 -0.5373 -0.1433
  179MPD1     H 2782   1.898   3.781  15.650  0.2409 -0.7586  0.7170
  179MPD1    H1 2783   1.875   3.943  16.032  2.2093 -0.8403  0.0864
  179MPD1    H2 2784   2.108   4.142  15.740  1.2916 -0.8564 -2.4147
  179MPD1    H3 2785   2.028   4.116  15.960 -1.4705 -3.9925  3.9616
  179MPD1     N 2786   1.764   3.765  15.869 -0.3118  0.6646 -0.7778
  179MPD1    H5 2787   1.740   3.762  15.968  0.2435 -0.3256 -0.6715
  179MPD1    N1 2788   2.053   3.988  15.534 -0.4430 -0.5627  0.1236
  179MPD1    H6 2789   2.004   3.931  15.465 -2.8816  1.9698 -0.2427
  179MPD1    H7 2790   2.070   4.084  15.504 -2.6568 -0.6102 -1.3019
  180MPD1     C 2791   1.128   4.576  16.078 -0.3895  0.2199  0.9693
  180MPD1    C1 2792   1.050   4.526  15.970 -0.3525  0.1680  0.9107
  180MPD1    C2 2793   1.050   4.593  15.849  0.5045  0.3368  0.2475
  180MPD1    C3 2794   1.140   4.701  15.826 -0.2936  0.4138 -0.2146
  180MPD1    C4 2795   1.220   0.007  15.931 -0.4811 -0.5859 -0.0148
  180MPD1    C5 2796   1.208   4.689  16.058  0.1463 -0.9642  0.2349
  180MPD1     H 2797   0.988   4.567  15.764  0.9188 -0.1367  0.0896
  180MPD1    H1 2798   1.292   0.088  15.923 -0.9670 -0.2088 -0.5036
  180MPD1    H2 2799   1.131   4.533  16.177 -0.6717 -3.6840 -0.7533
  180MPD1    H3 2800   1.263   4.737  16.138 -1.5195  1.8958 -0.3306
  180MPD1     N 2801   1.137   0.021  15.698 -0.2528 -0.7248  0.2413
  180MPD1    H5 2802   1.074   4.717  15.631 -0.3390 -1.5908  0.8927
  180MPD1    N1 2803   0.955   4.423  15.995  0.7404  0.3989  0.0554
  180MPD1    H6 2804   0.923   4.374  15.912  1.7802  0.4167 -0.3564
  180MPD1    H7 2805   0.974   4.350  16.064 -2.2386  1.7980  2.3241
  181MPD1     C 2806   3.478   3.510   9.860  0.1575 -0.3089 -0.0486
  181MPD1    C1 2807   3.451   3.379   9.825  0.1220 -0.1458  0.3870
  181MPD1    C2 2808   3.475   3.285   9.923 -0.5912  0.4063 -0.4624
  181MPD1    C3 2809   3.530   3.332  10.044 -0.0511 -0.2215  0.3235
  181MPD1    C4 2810   3.564   3.464  10.064  0.2374 -0.0884  0.2116
  181MPD1    C5 2811   3.544   3.553   9.967  0.2577 -0.4295  0.1380
  181MPD1     H 2812   3.445   3.184   9.894 -1.2947  0.4930 -0.0436
  181MPD1    H1 2813   3.607   3.494  10.159 -2.0634 -0.1488  1.2736
  181MPD1    H2 2814   3.464   3.585   9.783 -0.3214 -1.3208 -0.9432
  181MPD1    H3 2815   3.573   3.656   9.985  0.5527 -0.5529  0.3784
  181MPD1     N 2816   3.568   3.244  10.144  0.3796  0.1217 -0.5542
  181MPD1    H5 2817   3.621   3.281  10.222  0.1356 -1.1479  0.2079
  181MPD1    N1 2818   3.427   3.341   9.690 -0.0017  0.3085 -0.0091
  181MPD1    H6 2819   3.399   3.243   9.684 -1.4547  0.7515 -0.4337
  181MPD1    H7 2820   3.366   3.405   9.638  1.2224  1.2364 -0.3056
  182MPD1     C 2821   3.048   0.220   0.734 -0.0399  0.5650 -0.6116
  182MPD1    C1 2822   2.956   0.305   0.680 -0.3420  0.4032  0.4617
  182MPD1    C2 2823   2.993   0.403   0.594  0.0280  0.5310  0.0234
  182MPD1    C3 2824   3.126   0.425   0.575  0.0616 -0.7159  0.3517
  182MPD1    C4 2825   3.224   0.344   0.631 -0.0543  0.1595 -0.5038
  182MPD1    C5 2826   3.182   0.238   0.712 -0.4871 -0.4013 -0.0551
  182MPD1     H 2827   2.921   0.456   0.532  2.4352  1.1805 -2.1873
  182MPD1    H1 2828   3.331   0.364   0.626  0.0602 -0.2682  0.2880
  182MPD1    H2 2829   3.012   0.147   0.806 -0.8567  1.8958  0.3270
  182MPD1    H3 2830   3.259   0.174   0.754  1.0042  0.5710 -1.2948
  182MPD1     N 2831   3.181   0.528   0.485 -0.6917  0.1196  0.0813
  182MPD1    H5 2832   3.281   0.537   0.475 -0.7899 -0.1823 -1.1795
  182MPD1    N1 2833   2.822   0.277   0.691  0.7124  0.0099  0.2188
  182MPD1    H6 2834   2.809   0.244   0.787 -1.6587  0.2823 -0.0200
  182MPD1    H7 2835   2.768   0.363   0.681 -1.1503 -1.4860 -2.5922
  183MPD1     C 2836   0.379   1.706   9.254 -0.1872  0.6515 -0.0031
  183MPD1    C1 2837   0.415   1.685   9.384  0.0484  0.1024 -0.7227
  183MPD1    C2 2838   0.378   1.775   9.482  0.0864 -0.2975  0.3297
  183MPD1    C3 2839   0.321   1.894   9.437 -0.3887  0.3564  0.1076
  183MPD1    C4 2840   0.286   1.922   9.308  0.2295  0.2603  0.3187
  183MPD1    C5 2841   0.308   1.820   9.220  0.3681 -0.3407  0.2537
  183MPD1     H 2842   0.387   1.752   9.587  2.0184  0.4489  0.3277
  183MPD1    H1 2843   0.241   2.014   9.271 -0.7074  0.2279  1.3785
  183MPD1    H2 2844   0.387   1.626   9.181 -1.5681  0.6612 -0.1614
  183MPD1    H3 2845   0.280   1.833   9.116 -0.5679  1.0052  0.6774
  183MPD1     N 2846   0.292   1.988   9.534  0.6567 -0.0428 -0.0084
  183MPD1    H5 2847   0.315   1.963   9.630 -0.4654 -0.5697  0.1253
  183MPD1    N1 2848   0.448   1.556   9.422  0.0018  0.0929  0.3691
  183MPD1    H6 2849   0.503   1.510   9.350  0.6530  1.2249  0.1425
  183MPD1    H7 2850   0.506   1.562   9.505  0.0644 -1.1385  0.4172
  184MPD1     C 2851   2.939   4.605  10.446  0.1133  0.0736 -0.4887
  184MPD1    C1 2852   2.919   4.544  10.331  0.5030  0.0875 -0.3227
  184MPD1    C2 2853   2.964   4.597  10.212  0.0335 -0.4462  0.0414
  184MPD1    C3 2854   3.051   4.709  10.205 -0.2760 -0.1804 -0.7006
  184MPD1    C4 2855   3.097   0.015  10.329  0.4000 -0.4252 -0.1889
  184MPD1    C5 2856   3.035   4.700  10.444  0.4943  0.3343  0.4340
  184MPD1     H 2857   2.917   4.553  10.125  1.1684 -0.7068 -0.4424
  184MPD1    H1 2858   3.160   0.103  10.330 -0.2667  0.0512 -0.0461
  184MPD1    H2 2859   2.898   4.583  10.544 -1.1269  0.2926 -0.9491
  184MPD1    H3 2860   3.065   0.000  10.540 -0.4681  1.9574  0.0587
  184MPD1     N 2861   3.079   0.038  10.083  0.0018  0.4470 -0.4276
  184MPD1    H5 2862   3.129   0.126  10.091 -2.1062  1.4907  1.2279
  184MPD1    N1 2863   2.818   4.446  10.319 -0.2471  0.1089  0.0752
  184MPD1    H6 2864   2.840   4.398  10.232  1.5220  1.2298 -0.1003
  184MPD1    H7 2865   2.803   4.381  10.396  1.4737  0.7385  0.9330
  185MPD1     C 2866   2.698   0.340   9.084  0.2133 -1.1178  0.0451
  185MPD1    C1 2867   2.616   0.309   9.195  0.0333  0.3726 -0.7790
  185MPD1    C2 2868   2.684   0.286   9.315 -0.1455  0.8216 -0.2965
  185MPD1    C3 2869   2.818   0.310   9.321 -0.4188 -0.2269  0.3078
  185MPD1    C4 2870   2.890   0.348   9.216  0.3882  0.3068  1.1416
  185MPD1    C5 2871   2.830   0.358   9.091 -0.7064 -0.6418 -0.0329
  185MPD1     H 2872   2.628   0.252   9.402 -0.4925 -2.0929 -1.6816
  185MPD1    H1 2873   2.998   0.347   9.207  0.1712 -1.4349 -1.2402
  185MPD1    H2 2874   2.660   0.342   8.983 -0.9688  3.3149  0.5816
  185MPD1    H3 2875   2.892   0.380   9.005 -3.2781 -0.8165 -1.9332
  185MPD1     N 2876   2.891   0.291   9.443 -0.3000 -0.3173 -0.3676
  185MPD1    H5 2877   2.987   0.324   9.438  0.8656 -3.7561 -0.3879
  185MPD1    N1 2878   2.483   0.264   9.172 -0.1613 -0.6936 -0.0258
  185MPD1    H6 2879   2.434   0.313   9.098 -1.6307  0.0535  1.4441
  185MPD1    H7 2880   2.415   0.253   9.248 -0.5832 -0.9424 -0.4377
  186MPD1     C 2881   2.323   3.637  15.783  0.2581 -1.5314 -0.0649
  186MPD1    C1 2882   2.390   3.547  15.864 -0.6430  0.3872  1.0512
  186MPD1    C2 2883   2.417   3.591  15.988  0.2487  0.2635  0.6825
  186MPD1    C3 2884   2.374   3.713  16.043 -0.1926  0.2278 -0.2695
  186MPD1    C4 2885   2.289   3.792  15.967  0.2125  0.3881  0.2558
  186MPD1    C5 2886   2.259   3.748  15.838  0.2717  0.7066 -0.0028
  186MPD1     H 2887   2.488   3.534  16.047 -0.0360 -0.8303 -0.0205
  186MPD1    H1 2888   2.235   3.872  16.016  1.1435  0.4865  1.1152
  186MPD1    H2 2889   2.308   3.616  15.678  1.6296 -0.7314 -0.4159
  186MPD1    H3 2890   2.198   3.812  15.775 -1.5948  0.5128  1.6066
  186MPD1     N 2891   2.397   3.755  16.180 -0.2198  0.7230 -0.6300
  186MPD1    H5 2892   2.368   3.847  16.209 -0.5162  0.7552 -1.0388
  186MPD1    N1 2893   2.465   3.444  15.806 -0.6069  0.2505  0.6059
  186MPD1    H6 2894   2.427   3.409  15.718 -0.4245  0.3391  0.4924
  186MPD1    H7 2895   2.481   3.358  15.858  1.0395  0.4213  0.3828
  187MPD1     C 2896   2.020   0.889   0.131  0.7384 -0.4363  0.7942
  187MPD1    C1 2897   1.906   0.936   0.178  0.3570 -0.5004  0.6382
  187MPD1    C2 2898   1.810   0.965   0.088 -0.0840 -0.7709 -0.0806
  187MPD1    C3 2899   1.826   0.947  17.710  0.4803 -0.1178 -0.1674
  187MPD1    C4 2900   1.946   0.894  17.665  0.7179 -0.5547  0.1427
  187MPD1    C5 2901   2.037   0.857  17.757  0.6294 -0.0381  0.2295
  187MPD1     H 2902   1.715   1.000   0.128 -0.3600 -0.0632 -1.3512
  187MPD1    H1 2903   1.950   0.868  17.560  3.0756  0.0669  0.0918
  187MPD1    H2 2904   2.103   0.868   0.197  0.9825 -0.1996  0.5621
  187MPD1    H3 2905   2.130   0.812  17.724  3.0458  2.9184  2.9728
  187MPD1     N 2906   1.728   0.979  17.615  0.8044  1.0110  0.1165
  187MPD1    H5 2907   1.768   0.964  17.522  0.8115  0.4275  0.2163
  187MPD1    N1 2908   1.876   0.938   0.317 -0.3794  0.1693  0.2339
  187MPD1    H6 2909   1.822   1.023   0.333 -0.7877  0.5485 -3.2843
  187MPD1    H7 2910   1.964   0.953   0.367  0.2145 -3.5322  0.2573
  188MPD1     C 2911   0.702   1.519  10.034 -0.3436  0.1883 -0.3413
  188MPD1    C1 2912   0.809   1.477  10.108 -0.1860 -0.5017 -0.4472
  188MPD1    C2 2913   0.793   1.372  10.193 -0.1051  0.2355 -0.4340
  188MPD1    C3 2914   0.673   1.302  10.182 -0.0352 -0.4112  0.1313
  188MPD1    C4 2915   0.574   1.335  10.096 -0.0911 -0.4436  0.3595
  188MPD1    C5 2916   0.599   1.440  10.011  0.1664 -0.0356 -0.0550
  188MPD1     H 2917   0.868   1.356  10.270  0.6820  3.0118 -0.6450
  188MPD1    H1 2918   0.485   1.275  10.079 -1.1906  0.9178  1.3018
  188MPD1    H2 2919   0.699   1.617   9.988 -0.1950  1.1599  1.7094
  188MPD1    H3 2920   0.521   1.470   9.942 -0.7581 -0.4689  0.8027
  188MPD1     N 2921   0.651   1.187  10.268  0.4260 -0.1239 -0.9378
  188MPD1    H5 2922   0.556   1.152  10.270  0.6471 -0.6522  0.7467
  188MPD1    N1 2923   0.923   1.557  10.121  0.1552  0.3576  0.3162
  188MPD1    H6 2924   1.008   1.505  10.143  0.1101 -0.3815 -1.2596
  188MPD1    H7 2925   0.945   1.607  10.035  0.0041 -1.6270 -0.8869
  189MPD1     C 2926   2.387   2.907   1.056 -0.2128  0.1556 -0.0612
  189MPD1    C1 2927   2.413   2.992   0.953 -0.6315 -0.4972 -0.2581
  189MPD1    C2 2928   2.486   2.937   0.846  0.7685 -0.2641 -0.1972
  189MPD1    C3 2929   2.511   2.796   0.842  0.3658  0.0369 -0.1513
  189MPD1    C4 2930   2.482   2.724   0.945 -0.2119 -0.3975  0.5130
  189MPD1    C5 2931   2.420   2.770   1.051  0.5632 -0.5162  0.6022
  189MPD1     H 2932   2.515   2.993   0.758  0.1148  2.0812  1.0666
  189MPD1    H1 2933   2.512   2.620   0.950 -0.4420 -0.5357 -1.0562
  189MPD1    H2 2934   2.336   2.943   1.144  0.4351  0.9852 -0.0286
  189MPD1    H3 2935   2.411   2.708   1.139 -1.7197  0.0819  0.7838
  189MPD1     N 2936   2.578   2.740   0.732 -0.1157 -0.0430  0.0467
  189MPD1    H5 2937   2.608   2.813   0.667  1.3281 -0.1656  0.6003
  189MPD1    N1 2938   2.399   3.132   0.965 -0.1973 -0.5354 -0.4738
  189MPD1    H6 2939   2.312   3.142   1.016 -1.0130 -0.9596 -1.7821
  189MPD1    H7 2940   2.386   3.169   0.871  3.1997  0.7008 -0.4811
  190MPD1     C 2941   1.464   4.607  15.531 -0.1678 -0.9219 -0.0792
  190MPD1    C1 2942   1.576   4.659  15.464 -0.0787  0.4819 -1.0149
  190MPD1    C2 2943   1.669   4.715  15.545 -0.3567 -0.3864  0.6258
  190MPD1    C3 2944   1.658   4.716  15.686 -0.9446  0.8212  0.7175
  190MPD1    C4 2945   1.544   4.652  15.742  0.1540  0.4622  0.9112
  190MPD1    C5 2946   1.444   4.597  15.663  0.3912 -0.1444 -0.7974
  190MPD1     H 2947   1.762   0.005  15.497  0.2969 -2.0333  0.8384
  190MPD1    H1 2948   1.531   4.636  15.848 -0.6779 -2.2939  0.4092
  190MPD1    H2 2949   1.392   4.558  15.466  0.7421 -0.8225 -1.1597
  190MPD1    H3 2950   1.356   4.555  15.712 -0.7506  2.2467 -0.7818
  190MPD1     N 2951   1.763   0.025  15.764 -0.2664 -0.1056 -0.1081
  190MPD1    H5 2952   1.841   0.071  15.717  0.4280 -0.9837  0.1838
  190MPD1    N1 2953   1.582   4.653  15.320 -0.0476 -0.2018  0.6441
  190MPD1    H6 2954   1.566   0.005  15.279 -3.3659 -1.7736 -1.5159
  190MPD1    H7 2955   1.506   4.598  15.283  0.8171 -1.4019  0.6630
  191MPD1     C 2956   1.167   1.641  13.769 -0.0980  0.3204 -0.1469
  191MPD1    C1 2957   1.053   1.593  13.711  0.5550  0.3709 -0.2800
  191MPD1    C2 2958   0.942   1.677  13.703 -0.0539 -0.1984 -0.0057
  191MPD1    C3 2959   0.953   1.812  13.723  0.4124 -0.5458 -0.0599
  191MPD1    C4 2960   1.075   1.863  13.754  0.1351  0.2811 -0.2362
  191MPD1    C5 2961   1.182   1.780  13.785  0.2444  0.2227  0.1376
  191MPD1     H 2962   0.851   1.640  13.657  1.1741 -0.5971 -2.1040
  191MPD1    H1 2963   1.093   1.966  13.784  0.4212 -0.2442  1.4219
  191MPD1    H2 2964   1.253   1.579  13.794  0.2315  0.8274  0.0012
  191MPD1    H3 2965   1.277   1.827  13.805  0.0414  1.0951 -0.9822
  191MPD1     N 2966   0.846   1.898  13.684  0.2665  0.7970 -0.2007
  191MPD1    H5 2967   0.770   1.851  13.635  1.0821  1.2681 -1.9323
  191MPD1    N1 2968   1.032   1.450  13.715 -0.0634  0.0731 -0.4535
  191MPD1    H6 2969   1.119   1.398  13.720  0.2752  0.3452 -3.4573
  191MPD1    H7 2970   0.979   1.429  13.631 -1.6298  1.4678  0.1767
  192MPD1     C 2971   4.629   2.020  13.754  1.0798 -0.6175  0.4324
  192MPD1    C1 2972   4.717   1.915  13.743 -0.1376  0.4217 -0.0279
  192MPD1    C2 2973   0.104   1.940  13.704 -0.2645  0.4122  0.1116
  192MPD1    C3 2974   0.147   2.063  13.661 -0.5417  0.4621  0.4334
  192MPD1    C4 2975   0.047   2.156  13.648 -0.0796  0.2234  0.7963
  192MPD1    C5 2976   4.664   2.131  13.689  0.3876 -0.2251 -0.2436
  192MPD1     H 2977   0.177   1.861  13.692 -1.3788 -0.3382 -1.6884
  192MPD1    H1 2978   0.072   2.254  13.606  0.1505  0.6024  1.8262
  192MPD1    H2 2979   4.527   2.004  13.788  0.8709  0.2681  0.2269
  192MPD1    H3 2980   4.590   2.211  13.688 -2.0517 -2.4660  0.4950
  192MPD1     N 2981   0.275   2.095  13.611  0.1737 -0.4537  0.1241
  192MPD1    H5 2982   0.276   2.183  13.560  1.3375 -1.1114 -1.0030
  192MPD1    N1 2983   4.677   1.787  13.762 -0.2664 -0.3962 -0.2076
  192MPD1    H6 2984   0.013   1.726  13.791  1.2019  1.0939 -0.9335
  192MPD1    H7 2985   4.599   1.789  13.827  0.3018  0.2845  0.4427
  193MPD1     C 2986   0.755   2.359  16.600 -0.4143 -0.0548 -0.4573
  193MPD1    C1 2987   0.726   2.415  16.729 -0.0203  0.4241 -0.3568
  193MPD1    C2 2988   0.828   2.462  16.811 -0.1799 -0.0806 -0.0659
  193MPD1    C3 2989   0.964   2.461  16.770  0.4466 -0.2923 -0.2947
  193MPD1    C4 2990   0.986   2.424  16.641  0.2417  0.2388 -0.4949
  193MPD1    C5 2991   0.882   2.382  16.561  0.1730  0.1620 -0.0577
  193MPD1     H 2992   0.794   2.500  16.906  0.1203  0.9825 -0.3822
  193MPD1    H1 2993   1.084   2.401  16.602 -0.3930 -1.8191 -0.8958
  193MPD1    H2 2994   0.688   2.317  16.527 -1.2678 -2.0723  1.4666
  193MPD1    H3 2995   0.910   2.334  16.468  0.3771 -0.5797  0.3916
  193MPD1     N 2996   1.071   2.506  16.849 -0.0628 -0.4236  0.4457
  193MPD1    H5 2997   1.156   2.516  16.794 -0.9311  1.6576 -0.4978
  193MPD1    N1 2998   0.599   2.415  16.781 -0.5553  0.3687  0.0205
  193MPD1    H6 2999   0.518   2.397  16.722 -1.5820  1.3095  1.1550
  193MPD1    H7 3000   0.583   2.495  16.842  0.1817  1.8313 -1.7027
  194MPD1     C 3001   0.944   4.197  17.452  0.1159 -0.2525 -0.0461
  194MPD1    C1 3002   0.919   4.064  17.455 -0.3895 -0.2824  0.5035
  194MPD1    C2 3003   0.806   4.028  17.521 -0.6695 -0.5550  1.5213
  194MPD1    C3 3004   0.700   4.114  17.555  0.9663  0.0080  0.3263
  194MPD1    C4 3005   0.734   4.245  17.560  0.7430  0.7340  0.9907
  194MPD1    C5 3006   0.855   4.286  17.512  0.3034 -0.8604  0.0068
  194MPD1     H 3007   0.796   3.922  17.541  1.1112 -0.9992  0.0420
  194MPD1    H1 3008   0.664   4.316  17.604 -2.5276 -1.0094 -1.4633
  194MPD1    H2 3009   1.032   4.242  17.407  0.0001 -0.6019 -0.6168
  194MPD1    H3 3010   0.884   4.390  17.525 -2.1594 -0.5076  2.6788
  194MPD1     N 3011   0.568   4.081  17.597  0.0635 -0.1012  0.6417
  194MPD1    H5 3012   0.516   4.160  17.636 -0.7511  0.5532 -1.7651
  194MPD1    N1 3013   1.022   3.975  17.429 -0.2141  0.0277 -0.1466
  194MPD1    H6 3014   1.000   3.876  17.414 -2.7545  0.5320  0.3492
  194MPD1    H7 3015   1.092   4.011  17.364  1.0187 -1.4189  0.3586
  195MPD1     C 3016   1.288   1.585   0.311 -0.2868 -0.4100  0.4959
  195MPD1    C1 3017   1.401   1.528   0.358  0.3992  0.3117 -1.2156
  195MPD1    C2 3018   1.391   1.425   0.452 -0.0235 -0.3152 -0.3697
  195MPD1    C3 3019   1.262   1.382   0.497  0.5394  0.1787 -0.6771
  195MPD1    C4 3020   1.156   1.443   0.449 -0.4396  0.3920 -0.6323
  195MPD1    C5 3021   1.165   1.545   0.356  0.7465  0.0292  0.3011
  195MPD1     H 3022   1.479   1.384   0.499  1.2706  0.9783 -1.6549
  195MPD1    H1 3023   1.060   1.399   0.470 -0.8639  1.7886  0.3520
  195MPD1    H2 3024   1.283   1.672   0.246 -0.2274  0.2819  1.4186
  195MPD1    H3 3025   1.072   1.573   0.309  0.4829 -2.3204 -0.5966
  195MPD1     N 3026   1.239   1.275   0.585  0.3238  0.3058 -0.6575
  195MPD1    H5 3027   1.147   1.282   0.627  0.1296  2.7530 -1.4441
  195MPD1    N1 3028   1.525   1.592   0.331 -0.3483  0.5359  0.6802
  195MPD1    H6 3029   1.598   1.522   0.325  1.3850  2.2613  1.6030
  195MPD1    H7 3030   1.537   1.643   0.244 -1.7152  0.0170  0.1929
  196MPD1     C 3031   0.424   0.002  17.728 -0.6457 -0.0737 -0.5279
  196MPD1    C1 3032   0.503   0.094   0.033  0.1151 -0.6790 -0.5568
  196MPD1    C2 3033   0.442   0.209   0.073 -0.2195 -0.1550  0.2132
  196MPD1    C3 3034   0.305   0.222   0.061 -0.1344 -0.0660 -0.1291
  196MPD1    C4 3035   0.227   0.121   0.012  0.9860  0.2166  0.3276
  196MPD1    C5 3036   0.293   0.015  17.715  0.3854  0.2839  0.0522
  196MPD1     H 3037   0.503   0.291   0.110 -1.0551  1.8704 -2.9352
  196MPD1    H1 3038   0.119   0.129   0.008  0.8702  0.6959  4.1877
  196MPD1    H2 3039   0.467   4.644  17.708 -0.8897 -0.0120 -1.3512
  196MPD1    H3 3040   0.231   4.671  17.684 -0.6363  0.1771  2.4070
  196MPD1     N 3041   0.234   0.336   0.118 -0.4733 -0.1037  0.0528
  196MPD1    H5 3042   0.133   0.327   0.115 -0.5432 -0.2364  2.7761
  196MPD1    N1 3043   0.644   0.089   0.033 -0.7759  0.7957 -0.6628
  196MPD1    H6 3044   0.678   4.733   0.024  0.0755  1.0070  0.2854
  196MPD1    H7 3045   0.695   0.138   0.106  1.5910  0.5179 -2.1050
  197MPD1     C 3046   4.220   2.694  17.740  0.1060 -0.0566  0.5411
  197MPD1    C1 3047   4.342   2.739   0.025 -0.5402 -0.7960 -0.5827
  197MPD1    C2 3048   4.421   2.824  17.701  0.2122  0.1040  0.1376
  197MPD1    C3 3049   4.383   2.855  17.571  0.2929 -0.2753  0.0666
  197MPD1    C4 3050   4.252   2.818  17.532  0.2303 -0.8458  0.1504
  197MPD1    C5 3051   4.173   2.745  17.621 -0.0385  0.0653 -0.7267
  197MPD1     H 3052   4.513   2.861  17.744  1.6203 -1.7384 -1.3012
  197MPD1    H1 3053   4.211   2.841  17.435  1.8455  2.9520  0.3793
  197MPD1    H2 3054   4.146   2.637   0.037 -0.3872  0.5477  0.4958
  197MPD1    H3 3055   4.073   2.715  17.589 -0.5068  3.0859 -2.1004
  197MPD1     N 3056   4.458   2.920  17.481 -0.3345 -0.1747 -0.1454
  197MPD1    H5 3057   4.424   2.920  17.385  1.2688 -1.0820 -0.6992
  197MPD1    N1 3058   4.380   2.711   0.158  0.3665  0.4691  0.0609
  197MPD1    H6 3059   4.466   2.756   0.187  0.1695  1.2073 -0.4964
  197MPD1    H7 3060   4.304   2.739   0.221  1.2191  3.7743 -0.3871
  198MPD1     C 3061   1.835   1.130  14.973 -0.4651 -0.5661  0.3794
  198MPD1    C1 3062   1.930   1.203  15.041  0.8033 -0.1646 -0.2828
  198MPD1    C2 3063   1.925   1.216  15.180 -0.0766 -0.1264 -0.3156
  198MPD1    C3 3064   1.811   1.172  15.242  0.4787 -0.3847 -0.1630
  198MPD1    C4 3065   1.712   1.101  15.175  0.6282 -0.1340 -0.8267
  198MPD1    C5 3066   1.726   1.079  15.047  0.2656  0.5946 -0.3424
  198MPD1     H 3067   2.000   1.260  15.244  1.0382  0.2522 -1.8563
  198MPD1    H1 3068   1.624   1.059  15.224  1.0326  2.2136  1.8976
  198MPD1    H2 3069   1.847   1.116  14.866 -2.4693  0.6188  0.0078
  198MPD1    H3 3070   1.643   1.038  14.991  2.2104 -0.3482 -2.5773
  198MPD1     N 3071   1.803   1.196  15.382  0.1635 -0.1377  0.1547
  198MPD1    H5 3072   1.867   1.267  15.417 -2.1866  1.4202  1.2409
  198MPD1    N1 3073   2.038   1.243  14.970 -0.0249 -0.4860  0.0100
  198MPD1    H6 3074   2.009   1.306  14.895  2.4730  0.5774 -0.0598
  198MPD1    H7 3075   2.094   1.303  15.030 -3.7558 -0.8837  3.9135
  199MPD1     C 3076   3.342   3.444  10.847 -0.2920  0.2322  0.5335
  199MPD1    C1 3077   3.415   3.372  10.763 -0.3744  0.1283 -1.0008
  199MPD1    C2 3078   3.390   3.382  10.626 -0.0556  0.0439 -0.0319
  199MPD1    C3 3079   3.280   3.455  10.582 -0.1908 -0.4690  0.0174
  199MPD1    C4 3080   3.208   3.526  10.670 -0.1919 -0.4184 -0.3532
  199MPD1    C5 3081   3.237   3.514  10.806  0.1179 -0.3223 -0.0331
  199MPD1     H 3082   3.456   3.334  10.555 -1.6516  0.0450 -1.5132
  199MPD1    H1 3083   3.127   3.593  10.641 -1.7014 -1.5529  1.2446
  199MPD1    H2 3084   3.358   3.445  10.954 -3.6887 -0.1579  1.0520
  199MPD1    H3 3085   3.186   3.578  10.878  1.3348 -1.3182  1.7270
  199MPD1     N 3086   3.235   3.477  10.448  0.9548  0.1292 -0.2890
  199MPD1    H5 3087   3.174   3.554  10.424  0.8724 -0.1089 -0.8329
  199MPD1    N1 3088   3.544   3.337  10.806  0.7198  0.9805 -0.0056
  199MPD1    H6 3089   3.533   3.301  10.901 -0.1845  3.0638  0.6772
  199MPD1    H7 3090   3.590   3.262  10.755 -0.3800  1.2114 -1.3475
  200MPD1     C 3091   3.104   2.655  15.757 -0.0685  0.0598 -0.4926
  200MPD1    C1 3092   3.082   2.573  15.643  0.8521  0.1912  0.6868
  200MPD1    C2 3093   3.082   2.637  15.517 -0.2332 -0.3103  0.0271
  200MPD1    C3 3094   3.123   2.770  15.501  0.5584 -0.3076 -0.0895
  200MPD1    C4 3095   3.160   2.841  15.611 -0.4472 -0.5439 -0.7426
  200MPD1    C5 3096   3.144   2.790  15.736 -0.7690 -0.3534  1.0255
  200MPD1     H 3097   3.042   2.590  15.428  0.7828 -0.0086 -0.5871
  200MPD1    H1 3098   3.202   2.941  15.609  0.1066 -0.8308 -3.1995
  200MPD1    H2 3099   3.090   2.617  15.858  1.8295 -0.3554 -0.3821
  200MPD1    H3 3100   3.160   2.847  15.827  1.6596  1.8142 -0.7757
  200MPD1     N 3101   3.132   2.824  15.371 -0.3632  0.1962 -0.3700
  200MPD1    H5 3102   3.094   2.769  15.295  2.4876 -1.8416 -0.2816
  200MPD1    N1 3103   3.064   2.435  15.657 -0.2041 -0.4079  0.2884
  200MPD1    H6 3104   3.113   2.395  15.736  2.5375  1.2919 -0.5496
  200MPD1    H7 3105   3.104   2.388  15.575  1.4155  0.7139  0.4366
  201MPD1     C 3106   0.213   1.928  13.238  0.3820  0.4530  0.0465
  201MPD1    C1 3107   0.265   1.831  13.153 -0.4731 -0.4604  0.4752
  201MPD1    C2 3108   0.285   1.703  13.199 -0.4086  0.1055  0.4145
  201MPD1    C3 3109   0.235   1.667  13.325 -0.0431 -0.5020  0.3276
  201MPD1    C4 3110   0.171   1.758  13.404 -0.1339 -0.2703  0.2838
  201MPD1    C5 3111   0.159   1.892  13.361  0.4129  0.3511  0.2679
  201MPD1     H 3112   0.337   1.629  13.140  0.5884 -0.0332  1.4626
  201MPD1    H1 3113   0.130   1.724  13.498 -2.5919 -0.0700 -0.7020
  201MPD1    H2 3114   0.211   2.034  13.216  0.4192  0.3972 -0.2220
  201MPD1    H3 3115   0.104   1.962  13.423  0.1933  1.4628 -1.2087
  201MPD1     N 3116   0.262   1.534  13.366  0.5215  0.6462 -0.2167
  201MPD1    H5 3117   0.317   1.475  13.304  0.8607  0.1048  0.5976
  201MPD1    N1 3118   0.344   1.876  13.045  0.0057 -0.1008 -0.3244
  201MPD1    H6 3119   0.354   1.815  12.965  0.3140  1.3896 -1.4313
  201MPD1    H7 3120   0.295   1.955  13.002 -0.6207  0.5198  1.5015
  202MPD1     C 3121   4.054   1.517   9.232  0.5060 -0.4148 -0.6645
  202MPD1    C1 3122   4.095   1.386   9.231 -0.6418  0.2542  0.2298
  202MPD1    C2 3123   4.174   1.353   9.341 -0.0795 -0.2338  0.4923
  202MPD1    C3 3124   4.184   1.433   9.458 -0.0654  0.0817 -0.3604
  202MPD1    C4 3125   4.131   1.562   9.449  0.0517 -0.1636 -0.0853
  202MPD1    C5 3126   4.074   1.602   9.336 -0.3853 -1.1740 -0.5323
  202MPD1     H 3127   4.238   1.266   9.332 -1.1128 -0.6815 -2.4690
  202MPD1    H1 3128   4.149   1.626   9.534 -0.6869 -0.2352  0.1238
  202MPD1    H2 3129   4.024   1.564   9.139 -1.4095 -1.5057 -0.6057
  202MPD1    H3 3130   4.028   1.700   9.337 -0.4357 -1.1931 -0.9730
  202MPD1     N 3131   4.262   1.399   9.569  0.4286 -0.1740  0.5995
  202MPD1    H5 3132   4.262   1.472   9.640  1.2477 -2.7082  3.2302
  202MPD1    N1 3133   4.119   1.340   9.099 -0.1846  0.1450 -0.1902
  202MPD1    H6 3134   4.149   1.242   9.096  2.4647  0.9754 -0.5960
  202MPD1    H7 3135   4.053   1.358   9.024  0.9474 -1.5508 -1.5865
  203MPD1     C 3136   2.943   2.096  12.831 -0.5455 -0.3867 -0.0507
  203MPD1    C1 3137   2.977   2.015  12.936  1.1957 -0.0236  0.4691
  203MPD1    C2 3138   3.101   1.956  12.937 -0.0014 -0.8201  0.5670
  203MPD1    C3 3139   3.184   1.967  12.827 -0.8169  0.2180 -0.0697
  203MPD1    C4 3140   3.135   2.031  12.715 -0.5263  0.3613 -0.9709
  203MPD1    C5 3141   3.019   2.102  12.716  0.4087 -0.3216  0.0118
  203MPD1     H 3142   3.134   1.885  13.012 -0.3480  0.3381  1.8150
  203MPD1    H1 3143   3.197   2.044  12.627  1.2236 -0.9869  0.0711
  203MPD1    H2 3144   2.859   2.163  12.840  0.8918  1.1283  1.9082
  203MPD1    H3 3145   2.994   2.168  12.633 -0.3543  0.7663  1.1042
  203MPD1     N 3146   3.302   1.898  12.831 -0.0079 -0.2274 -0.2389
  203MPD1    H5 3147   3.296   1.849  12.920  3.3083  2.7278  1.6032
  203MPD1    N1 3148   2.907   2.020  13.055 -0.0056  0.0534  0.8679
  203MPD1    H6 3149   2.807   2.017  13.036 -0.4239 -0.0725  3.0454
  203MPD1    H7 3150   2.932   1.936  13.107  1.0044  0.3091  0.8016
  204MPD1     C 3151   3.239   2.088   0.599 -0.3882 -0.1480 -0.6087
  204MPD1    C1 3152   3.187   2.023   0.489 -0.6309  0.1722  0.2106
  204MPD1    C2 3153   3.239   2.055   0.362 -0.0937  0.0585  0.1818
  204MPD1    C3 3154   3.333   2.157   0.345  0.0334  0.5012  1.2253
  204MPD1    C4 3155   3.389   2.215   0.453 -0.3355  0.0170 -0.1734
  204MPD1    C5 3156   3.340   2.170   0.582  0.7744 -0.6017 -0.4326
  204MPD1     H 3157   3.223   1.980   0.286  0.5652 -0.2546  0.3491
  204MPD1    H1 3158   3.465   2.293   0.446 -2.0582  1.5001 -2.3638
  204MPD1    H2 3159   3.209   2.061   0.700  0.4102 -1.7767 -0.8017
  204MPD1    H3 3160   3.385   2.222   0.665 -0.5333 -0.4746  0.1985
  204MPD1     N 3161   3.371   2.178   0.209  0.1424 -0.2773  0.2481
  204MPD1    H5 3162   3.341   2.114   0.136 -1.0359  0.1051  0.3942
  204MPD1    N1 3163   3.102   1.911   0.501  0.2638 -0.1444  0.0812
  204MPD1    H6 3164   3.068   1.910   0.597 -1.3501  0.3123 -0.4707
  204MPD1    H7 3165   3.029   1.906   0.429  1.1209 -0.2553 -0.7794
  205MPD1     C 3166   3.942   2.199  16.487 -0.3249  0.6859 -0.3781
  205MPD1    C1 3167   3.978   2.069  16.466 -0.0355  0.0213  0.2371
  205MPD1    C2 3168   3.902   1.972  16.526  0.0254  0.5780  0.1739
  205MPD1    C3 3169   3.802   2.008  16.615  0.4000 -0.1036 -0.5691
  205MPD1    C4 3170   3.765   2.144  16.628 -0.3075 -0.1276 -0.3188
  205MPD1    C5 3171   3.826   2.234  16.550 -0.9217  0.9814  0.6256
  205MPD1     H 3172   3.928   1.869  16.502  1.5202  1.4268 -1.8864
  205MPD1    H1 3173   3.685   2.170  16.695  1.0164  2.0303  0.4233
  205MPD1    H2 3174   4.001   2.285  16.457  2.0539 -0.8435 -0.0851
  205MPD1    H3 3175   3.797   2.338  16.560 -1.8914  0.6340  1.4190
  205MPD1     N 3176   3.726   1.920  16.689 -0.1577  0.0348 -0.2440
  205MPD1    H5 3177   3.647   1.959  16.740  0.6492  0.1598  0.8952
  205MPD1    N1 3178   4.086   2.036  16.383 -0.8915 -0.6654 -0.8147
  205MPD1    H6 3179   4.152   2.112  16.377 -1.4176 -0.0023  1.6383
  205MPD1    H7 3180   4.130   1.956  16.428  1.0378 -0.4225 -2.3084
  206MPD1     C 3181   3.546   0.162  17.377 -0.5144 -0.6958  0.1662
  206MPD1    C1 3182   3.444   0.240  17.333 -1.1382  0.2389 -0.4253
  206MPD1    C2 3183   3.408   0.243  17.202  0.1625 -0.7351  0.3580
  206MPD1    C3 3184   3.476   0.156  17.115  0.5199  0.7630 -0.4238
  206MPD1    C4 3185   3.572   0.071  17.166 -0.4864  0.6364  0.4344
  206MPD1    C5 3186   3.599   0.070  17.301  0.1265  0.2001  0.8322
  206MPD1     H 3187   3.318   0.297  17.176 -0.4373 -0.7266  2.3871
  206MPD1    H1 3188   3.622   4.737  17.105  1.3065  1.5028  0.8570
  206MPD1    H2 3189   3.586   0.167  17.478  0.9107  2.0930 -0.5559
  206MPD1    H3 3190   3.675   0.003  17.341 -0.0243  0.0422  0.8534
  206MPD1     N 3191   3.443   0.145  16.977  0.2930 -0.5875 -0.2724
  206MPD1    H5 3192   3.493   0.079  16.917  0.9759 -0.2399 -0.0828
  206MPD1    N1 3193   3.367   0.300  17.432  0.1078 -0.0161 -0.3128
  206MPD1    H6 3194   3.324   0.386  17.400  0.5305 -0.3366 -1.7692
  206MPD1    H7 3195   3.425   0.321  17.514  0.3222 -0.3888 -0.3674
  207MPD1     C 3196   0.105   3.002  10.560  0.1284  0.1765 -0.7511
  207MPD1    C1 3197   0.102   3.024  10.421  0.0397 -0.6060  0.8158
  207MPD1    C2 3198   0.211   3.093  10.364 -0.3522  0.4889  1.2611
  207MPD1    C3 3199   0.325   3.120  10.444  0.7326 -0.0512  0.7035
  207MPD1    C4 3200   0.316   3.101  10.582  0.0344  0.4413 -0.2722
  207MPD1    C5 3201   0.213   3.035  10.642  0.1465  0.0290  0.1041
  207MPD1     H 3202   0.204   3.120  10.259  1.0567 -1.8160  0.5551
  207MPD1    H1 3203   0.406   3.127  10.635 -1.9753  0.6694  3.0275
  207MPD1    H2 3204   0.015   2.969  10.613 -1.4799  1.4218 -2.7086
  207MPD1    H3 3205   0.221   3.024  10.750 -0.5707  1.0032  0.2577
  207MPD1     N 3206   0.448   3.174  10.392 -0.2333 -0.4065  0.2896
  207MPD1    H5 3207   0.524   3.199  10.454  1.4326 -0.8961 -1.5686
  207MPD1    N1 3208   4.716   3.007  10.359 -0.5273 -0.2051 -0.3717
  207MPD1    H6 3209   4.657   2.934  10.397  2.2427 -2.7251 -0.9031
  207MPD1    H7 3210   4.729   2.984  10.261 -3.4259 -0.3519 -0.7132
  208MPD1     C 3211   4.304   0.544  16.580  0.0465 -0.3763 -0.6712
  208MPD1    C1 3212   4.173   0.581  16.562  0.2234 -0.1346  0.3440
  208MPD1    C2 3213   4.093   0.591  16.674 -0.0395  0.5635 -0.1066
  208MPD1    C3 3214   4.144   0.573  16.800 -0.6586  0.3081 -0.0147
  208MPD1    C4 3215   4.278   0.545  16.813 -0.5498  0.1533  0.8147
  208MPD1    C5 3216   4.360   0.542  16.708 -0.1014 -0.0568 -0.3532
  208MPD1     H 3217   3.991   0.622  16.656 -1.1930 -2.4354  1.3119
  208MPD1    H1 3218   4.323   0.528  16.910  1.3756  0.3410 -0.0355
  208MPD1    H2 3219   4.378   0.541  16.501  2.6589  0.2414  1.7485
  208MPD1    H3 3220   4.464   0.514  16.718  0.1760  1.0504 -0.1491
  208MPD1     N 3221   4.053   0.581  16.912 -0.5909 -0.5696  0.7052
  208MPD1    H5 3222   3.963   0.615  16.880  0.9050  0.5998 -2.3133
  208MPD1    N1 3223   4.111   0.590  16.432  0.1918 -0.2867  0.1803
  208MPD1    H6 3224   4.047   0.668  16.420  1.8373  0.8136 -1.4844
  208MPD1    H7 3225   4.175   0.596  16.353 -1.3887 -1.5163 -1.1870
  209MPD1     C 3226   1.890   2.322  10.059  0.1918  0.2807  0.0287
  209MPD1    C1 3227   1.968   2.417  10.119 -0.0320  0.9546 -0.4545
  209MPD1    C2 3228   1.913   2.510  10.207  0.0766  0.0445 -0.2567
  209MPD1    C3 3229   1.783   2.499  10.253  0.1684 -0.1213 -0.5358
  209MPD1    C4 3230   1.704   2.401  10.193 -0.1363 -0.3160  0.6810
  209MPD1    C5 3231   1.759   2.315  10.096  0.3494 -0.4383  0.0398
  209MPD1     H 3232   1.968   2.595  10.246 -1.8304 -0.0615  2.6584
  209MPD1    H1 3233   1.601   2.386  10.224 -0.3842 -1.2105 -0.5777
  209MPD1    H2 3234   1.920   2.249   9.985 -0.8857 -0.5090  0.3687
  209MPD1    H3 3235   1.685   2.256  10.044 -0.9248  1.5904 -0.4612
  209MPD1     N 3236   1.745   2.599  10.349  0.4293 -0.1959  0.2387
  209MPD1    H5 3237   1.816   2.666  10.376 -0.2427  1.0753 -1.1527
  209MPD1    N1 3238   2.093   2.444  10.058  0.1283 -0.0163  0.4523
  209MPD1    H6 3239   2.157   2.469  10.133  1.1251 -0.4701 -0.2572
  209MPD1    H7 3240   2.135   2.357  10.028 -1.0601 -0.7868  1.0037
  210MPD1     C 3241   2.098   3.282  10.945 -0.5749 -0.5448 -0.5224
  210MPD1    C1 3242   2.118   3.248  10.811  0.2423  0.4812 -0.4718
  210MPD1    C2 3243   2.024   3.160  10.754 -0.2741 -0.0096 -0.3188
  210MPD1    C3 3244   1.900   3.138  10.819  0.5685 -0.0555  0.7521
  210MPD1    C4 3245   1.872   3.195  10.940 -0.3452  0.0071  0.4328
  210MPD1    C5 3246   1.972   3.256  11.004 -0.2032  0.2028 -0.2660
  210MPD1     H 3247   2.047   3.110  10.660 -1.2683 -0.1138 -0.5017
  210MPD1    H1 3248   1.774   3.179  10.984 -0.4657 -0.5025 -0.0052
  210MPD1    H2 3249   2.180   3.326  11.001 -0.0099 -1.2374 -0.7954
  210MPD1    H3 3250   1.954   3.284  11.107  1.3886  0.9563 -0.1886
  210MPD1     N 3251   1.797   3.051  10.765 -0.1461  0.1618  0.3907
  210MPD1    H5 3252   1.716   3.018  10.819 -0.9546 -0.7968 -1.4105
  210MPD1    N1 3253   2.244   3.258  10.748 -0.3845  0.6982  0.1944
  210MPD1    H6 3254   2.239   3.260  10.646  1.6165  0.1401  0.0910
  210MPD1    H7 3255   2.299   3.340  10.770 -0.9782  1.4789 -1.2058
  211MPD1     C 3256   4.201   1.299  16.646  0.6692  0.4868 -0.0781
  211MPD1    C1 3257   4.168   1.428  16.682 -0.5038 -0.5130 -0.5404
  211MPD1    C2 3258   4.062   1.487  16.615 -0.1311  0.2500  0.4123
  211MPD1    C3 3259   3.991   1.428  16.516  0.8999  0.3456 -0.4665
  211MPD1    C4 3260   4.039   1.304  16.471 -0.2069  0.3641  0.3179
  211MPD1    C5 3261   4.133   1.237  16.549  0.2013 -0.5588 -0.0045
  211MPD1     H 3262   4.030   1.586  16.645 -2.7471  0.5550 -3.4789
  211MPD1    H1 3263   4.004   1.251  16.383  0.6897  1.5449 -0.7514
  211MPD1    H2 3264   4.287   1.247  16.686 -0.2134 -1.7334 -1.0495
  211MPD1    H3 3265   4.155   1.139  16.510  0.9033 -0.1133 -0.7198
  211MPD1     N 3266   3.884   1.496  16.456 -0.1815  0.4719 -0.0179
  211MPD1    H5 3267   3.858   1.582  16.503 -0.4214 -0.0327  0.7751
  211MPD1    N1 3268   4.259   1.500  16.764  0.0934  0.6687  0.6746
  211MPD1    H6 3269   4.294   1.441  16.839 -1.2077 -2.6475 -1.3239
  211MPD1    H7 3270   4.224   1.584  16.809 -2.3577 -0.3116  0.5710
  212MPD1     C 3271   2.920   0.146  16.836  0.0361  0.6985 -0.4848
  212MPD1    C1 3272   2.906   0.174  16.970 -0.4360  0.5537 -0.0437
  212MPD1    C2 3273   2.904   0.063  17.054 -0.1414 -0.3878 -0.1609
  212MPD1    C3 3274   2.924   4.670  17.013  0.2043  0.6856 -0.3728
  212MPD1    C4 3275   2.963   4.659  16.883 -0.5691 -0.3933  0.0225
  212MPD1    C5 3276   2.950   0.022  16.794 -0.0302 -0.6286 -0.2763
  212MPD1     H 3277   2.873   0.080  17.157 -1.8948  2.3006 -1.1548
  212MPD1    H1 3278   2.980   4.562  16.838 -0.8194  0.6093 -2.2722
  212MPD1    H2 3279   2.905   0.228  16.766  0.6535 -1.9463 -3.7177
  212MPD1    H3 3280   2.971   0.017  16.688  1.9333 -1.0751  0.1315
  212MPD1     N 3281   2.913   4.552  17.088  0.3476  0.0911 -0.2709
  212MPD1    H5 3282   2.917   4.470  17.028 -2.1376 -0.5947  0.5271
  212MPD1    N1 3283   2.862   0.299  17.016 -0.0240 -0.0619  0.1656
  212MPD1    H6 3284   2.911   0.368  16.960 -0.2056  2.2430  2.8627
  212MPD1    H7 3285   2.912   0.307  17.104 -1.2504  0.6358  0.7974
  213MPD1     C 3286   0.969   0.346  16.034  0.2029  0.4128  0.4334
  213MPD1    C1 3287   0.943   0.238  15.954  0.6377  0.4629 -0.2297
  213MPD1    C2 3288   0.867   0.274  15.843  0.2007  0.7367  0.0987
  213MPD1    C3 3289   0.829   0.407  15.811 -0.4025 -0.1676 -0.3749
  213MPD1    C4 3290   0.878   0.515  15.888  0.1479  0.3792 -0.8107
  213MPD1    C5 3291   0.945   0.480  16.005  0.4283 -0.3472 -0.2224
  213MPD1     H 3292   0.857   0.198  15.767 -0.8182 -1.3760  2.3231
  213MPD1    H1 3293   0.846   0.617  15.868 -0.0382  0.3774 -0.5187
  213MPD1    H2 3294   0.998   0.330  16.138  0.6074  0.5654  0.3452
  213MPD1    H3 3295   0.971   0.558  16.076  0.1136  0.6626 -1.2137
  213MPD1     N 3296   0.747   0.416  15.693  0.6834 -0.2596 -0.2635
  213MPD1    H5 3297   0.717   0.330  15.649  0.6433  0.6282 -1.9915
  213MPD1    N1 3298   0.930   0.107  16.008  0.1121  0.2549 -0.1084
  213MPD1    H6 3299   0.942   0.039  15.932 -1.3782 -1.1415  0.8965
  213MPD1    H7 3300   1.008   0.082  16.068  0.2985 -0.2588 -0.5568
  214MPD1     C 3301   0.294   4.638  15.015 -0.6252 -0.2691  0.5049
  214MPD1    C1 3302   0.261   4.652  15.147  0.3727 -0.3710  0.3998
  214MPD1    C2 3303   0.321   0.018  15.211 -0.3403  1.0248  0.9270
  214MPD1    C3 3304   0.383   0.125  15.143  0.2742 -0.4502 -0.2955
  214MPD1    C4 3305   0.398   0.112  15.007  0.6548  0.3535 -0.2705
  214MPD1    C5 3306   0.354   4.739  14.946 -0.0646  0.1093  0.5322
  214MPD1     H 3307   0.312   0.026  15.319 -0.8714  1.9344  0.8165
  214MPD1    H1 3308   0.445   0.188  14.947 -0.6593 -0.0999 -1.8998
  214MPD1    H2 3309   0.271   4.542  14.972  3.6517 -1.4614  0.8408
  214MPD1    H3 3310   0.363   4.724  14.839 -1.6700  0.3362  0.3693
  214MPD1     N 3311   0.435   0.244  15.204 -0.0766 -0.4168  0.5207
  214MPD1    H5 3312   0.468   0.307  15.132 -2.0931 -0.9090 -0.8550
  214MPD1    N1 3313   0.194   4.550  15.218 -0.5425  0.1550  0.4033
  214MPD1    H6 3314   0.117   4.503  15.172 -1.9028  0.1123  2.7301
  214MPD1    H7 3315   0.160   4.602  15.299 -0.8493 -1.0050  1.0169
  215MPD1     C 3316   1.301   1.580  10.995 -0.1781  0.7188 -0.2022
  215MPD1    C1 3317   1.330   1.605  11.121 -0.5623 -0.9450 -0.2005
  215MPD1    C2 3318   1.279   1.717  11.173  0.3561  0.1696 -0.6701
  215MPD1    C3 3319   1.205   1.810  11.101  0.5658  0.4721 -1.2003
  215MPD1    C4 3320   1.182   1.782  10.970  0.0179  0.1772  0.3388
  215MPD1    C5 3321   1.231   1.662  10.917  0.6132 -0.1756 -0.3981
  215MPD1     H 3322   1.289   1.728  11.281  0.7883  1.0966 -0.8032
  215MPD1    H1 3323   1.143   1.852  10.897  0.7478  1.2344  0.9533
  215MPD1    H2 3324   1.336   1.487  10.953 -2.3561 -0.6656  1.0275
  215MPD1    H3 3325   1.233   1.648  10.810 -0.6626 -3.6861  0.0461
  215MPD1     N 3326   1.159   1.921  11.167 -0.2652  0.1595  0.0605
  215MPD1    H5 3327   1.163   1.921  11.268 -1.1476 -0.5704  0.0983
  215MPD1    N1 3328   1.390   1.500  11.202 -0.1795 -0.2250  0.4213
  215MPD1    H6 3329   1.443   1.444  11.136 -0.6089 -1.1540  0.8772
  215MPD1    H7 3330   1.437   1.535  11.285  0.2568  0.5452 -0.1495
  216MPD1     C 3331   3.445   3.441  16.572  0.4413 -0.0647  0.5683
  216MPD1    C1 3332   3.337   3.425  16.659 -0.7104 -0.6838  0.5563
  216MPD1    C2 3333   3.364   3.374  16.785 -0.0580 -0.3714  0.6658
  216MPD1    C3 3334   3.487   3.321  16.821  0.0182 -0.3906 -0.3094
  216MPD1    C4 3335   3.584   3.319  16.724 -0.3873 -0.0755 -0.2739
  216MPD1    C5 3336   3.564   3.380  16.603  0.1010  0.0003  0.1226
  216MPD1     H 3337   3.289   3.395  16.860  0.4042  1.7226  0.5584
  216MPD1    H1 3338   3.685   3.287  16.745 -0.9777 -0.4669  2.0261
  216MPD1    H2 3339   3.426   3.488  16.476 -0.4433  0.7305  1.1281
  216MPD1    H3 3340   3.644   3.381  16.529 -0.5369 -1.6796 -0.5802
  216MPD1     N 3341   3.506   3.284  16.949  0.7664 -0.4678 -0.4068
  216MPD1    H5 3342   3.432   3.286  17.018  1.7656  1.1146  0.6300
  216MPD1    N1 3343   3.214   3.489  16.631  0.2610 -0.0693 -0.5996
  216MPD1    H6 3344   3.138   3.458  16.693  1.1393  0.6986  0.8674
  216MPD1    H7 3345   3.179   3.498  16.536 -1.2861 -1.4654 -0.1812
  217MPD1     C 3346   2.602   2.470   9.385  0.0176  0.4659  0.3038
  217MPD1    C1 3347   2.670   2.407   9.278  0.9019 -0.2541  0.0901
  217MPD1    C2 3348   2.754   2.300   9.316 -0.7543  0.2851  0.6560
  217MPD1    C3 3349   2.760   2.253   9.447 -0.5455 -0.0495 -0.4741
  217MPD1    C4 3350   2.693   2.320   9.544  0.6287 -0.3806  0.0835
  217MPD1    C5 3351   2.612   2.425   9.515  0.0208  0.3569 -0.1848
  217MPD1     H 3352   2.809   2.251   9.237  1.0111 -1.9843  3.3048
  217MPD1    H1 3353   2.708   2.281   9.644  3.8462 -0.7816 -0.5545
  217MPD1    H2 3354   2.553   2.565   9.372 -1.8143 -0.4145  0.8104
  217MPD1    H3 3355   2.555   2.487   9.583 -1.8838 -3.1426  1.3746
  217MPD1     N 3356   2.824   2.127   9.485 -0.2859  0.5771 -0.5080
  217MPD1    H5 3357   2.797   2.091   9.576  5.6157 -1.7863  0.3396
  217MPD1    N1 3358   2.660   2.455   9.148 -0.1283 -0.1052  0.0421
  217MPD1    H6 3359   2.576   2.508   9.125 -0.6227 -1.6652 -1.8438
  217MPD1    H7 3360   2.676   2.384   9.077  3.7395 -1.1382  1.9521
  218MPD1     C 3361   4.588   1.694  12.777  0.0654 -0.0616 -0.5619
  218MPD1    C1 3362   4.585   1.572  12.707 -0.7114 -0.1847 -0.2735
  218MPD1    C2 3363   4.704   1.504  12.688  0.1152  0.8494 -0.2511
  218MPD1    C3 3364   0.076   1.550  12.759  0.4104 -0.0134  0.1001
  218MPD1    C4 3365   0.087   1.675  12.817  0.4474 -1.3047 -0.4279
  218MPD1    C5 3366   4.710   1.746  12.820  0.3755 -0.0949  0.9725
  218MPD1     H 3367   4.691   1.410  12.636  1.1273  1.4357 -1.5493
  218MPD1    H1 3368   0.177   1.723  12.853 -1.6311  0.9568  1.8211
  218MPD1    H2 3369   4.502   1.758  12.794 -0.9604 -1.3355 -1.0148
  218MPD1    H3 3370   4.717   1.848  12.856  1.3522 -0.2118  1.0977
  218MPD1     N 3371   0.196   1.475  12.750  0.2604  0.1158 -0.3374
  218MPD1    H5 3372   0.178   1.387  12.703 -2.7399  0.7090 -0.2692
  218MPD1    N1 3373   4.477   1.537  12.630 -0.2281 -0.1171  0.2034
  218MPD1    H6 3374   4.477   1.440  12.601  1.7444 -0.5007  1.5288
  218MPD1    H7 3375   4.387   1.564  12.671 -1.0085 -0.3859 -1.3213
  219MPD1     C 3376   0.260   0.760  12.324  0.5070 -0.5211 -0.3772
  219MPD1    C1 3377   0.393   0.760  12.354  0.2116  0.5404  0.4014
  219MPD1    C2 3378   0.435   0.884  12.412 -0.0408 -0.1510 -0.1106
  219MPD1    C3 3379   0.349   0.981  12.455 -0.2386  0.2826 -0.5521
  219MPD1    C4 3380   0.216   0.962  12.443 -0.0790 -1.0233 -0.4735
  219MPD1    C5 3381   0.172   0.854  12.374  0.2535 -0.0666  0.9758
  219MPD1     H 3382   0.541   0.895  12.430  0.0657 -0.3031 -0.6518
  219MPD1    H1 3383   0.138   1.032  12.471  2.0929  1.0592  0.3720
  219MPD1    H2 3384   0.218   0.674  12.274 -1.4665 -1.0886  2.2351
  219MPD1    H3 3385   0.064   0.841  12.376  0.3616 -1.1639 -0.5236
  219MPD1     N 3386   0.389   1.100  12.523  1.1256 -0.7820  0.1775
  219MPD1    H5 3387   0.323   1.168  12.559  0.1426 -1.5550 -0.1878
  219MPD1    N1 3388   0.488   0.668  12.309  0.7191  0.2798  0.1595
  219MPD1    H6 3389   0.455   0.572  12.300 -3.4648  1.6858  0.5221
  219MPD1    H7 3390   0.565   0.670  12.376 -1.3846 -0.9054  2.5855
  220MPD1     C 3391   0.825   3.056   9.832  0.1338  0.1448 -0.2432
  220MPD1    C1 3392   0.901   2.962   9.898  0.4555  0.7176 -0.1763
  220MPD1    C2 3393   0.843   2.896  10.007 -0.3523 -0.1983  0.0327
  220MPD1    C3 3394   0.709   2.912  10.031 -0.0224 -1.0043 -0.4034
  220MPD1    C4 3395   0.637   3.001   9.952  0.0306  0.3343  0.3543
  220MPD1    C5 3396   0.698   3.071   9.853  0.2438 -0.0093  0.3080
  220MPD1     H 3397   0.907   2.835  10.069  0.4978 -0.9234 -1.5330
  220MPD1    H1 3398   0.532   3.027   9.960 -0.2792 -1.5020  2.1765
  220MPD1    H2 3399   0.862   3.122   9.754  1.0270 -0.2301 -0.1378
  220MPD1    H3 3400   0.633   3.140   9.801 -0.1291 -0.3118  0.3739
  220MPD1     N 3401   0.650   2.835  10.138  0.1291 -0.1058 -0.6116
  220MPD1    H5 3402   0.710   2.775  10.193  0.4538 -0.0734 -0.9332
  220MPD1    N1 3403   1.042   2.960   9.883 -0.3385 -0.1672  0.3663
  220MPD1    H6 3404   1.069   2.985   9.789 -0.4326  0.7295  0.5764
  220MPD1    H7 3405   1.069   2.863   9.899  0.2792 -0.4565 -2.5893
  221MPD1     C 3406   4.252   1.537  16.246  0.0391  0.4259 -0.6817
  221MPD1    C1 3407   4.370   1.465  16.234  0.2234 -0.3843 -1.2548
  221MPD1    C2 3408   4.360   1.332  16.201  0.1430 -0.5478  0.5869
  221MPD1    C3 3409   4.239   1.275  16.160  0.0742 -1.0893 -0.6433
  221MPD1    C4 3410   4.125   1.352  16.162 -0.6509  0.0640 -0.1297
  221MPD1    C5 3411   4.136   1.475  16.210  0.2697  0.0168 -0.0814
  221MPD1     H 3412   4.449   1.270  16.196  0.0589 -0.7825  2.0887
  221MPD1    H1 3413   4.030   1.311  16.131 -1.0078  0.2103  0.7621
  221MPD1    H2 3414   4.253   1.641  16.278 -0.3850  0.6067 -1.2540
  221MPD1    H3 3415   4.042   1.528  16.221 -0.5072 -1.3532 -0.0947
  221MPD1     N 3416   4.214   1.138  16.136  0.4221  0.1657 -0.3787
  221MPD1    H5 3417   4.122   1.115  16.100 -0.3314  1.6158  0.6283
  221MPD1    N1 3418   4.490   1.517  16.279 -0.5474  0.0142  0.0822
  221MPD1    H6 3419   4.567   1.484  16.221  0.1916 -0.5341  1.3762
  221MPD1    H7 3420   4.498   1.618  16.273 -0.1522 -0.1717 -2.4526
  222MPD1     C 3421   3.326   4.692   0.906  0.2579  0.3101 -0.2348
  222MPD1    C1 3422   3.431   0.034   0.864 -0.6600  0.0485  0.5585
  222MPD1    C2 3423   3.466   0.136   0.942  0.3829  0.0093 -0.0703
  222MPD1    C3 3424   3.394   0.162   1.058  0.2511  0.7174  0.1849
  222MPD1    C4 3425   3.286   0.087   1.090 -0.3879 -0.2652 -0.2814
  222MPD1    C5 3426   3.256   4.722   1.017  0.6594 -0.1233 -0.9068
  222MPD1     H 3427   3.561   0.179   0.910  1.9147 -2.5185  1.1266
  222MPD1    H1 3428   3.219   0.116   1.170  0.1589 -2.0282  0.8229
  222MPD1    H2 3429   3.303   4.600   0.855  0.9523  0.9221 -1.6733
  222MPD1    H3 3430   3.169   4.662   1.041 -0.9583  1.6527 -2.2659
  222MPD1     N 3431   3.414   0.283   1.131  0.3259  0.6718  0.5660
  222MPD1    H5 3432   3.350   0.283   1.209  0.8663  2.4576  1.0050
  222MPD1    N1 3433   3.525   4.732   0.770 -0.5688 -0.0209  0.2372
  222MPD1    H6 3434   3.473   4.683   0.697 -2.8204  0.8640  1.2454
  222MPD1    H7 3435   3.566   0.075   0.726  1.0481 -2.3851 -2.7308
  223MPD1     C 3436   3.930   0.956   1.823  0.3039  0.1440  0.2356
  223MPD1    C1 3437   3.810   0.911   1.865  0.2919  0.4942 -0.0350
  223MPD1    C2 3438   3.728   0.843   1.775  0.0678  0.2874  0.1212
  223MPD1    C3 3439   3.771   0.809   1.657  0.1587  0.0114  0.7639
  223MPD1    C4 3440   3.901   0.832   1.623  0.4699 -0.2505  0.0523
  223MPD1    C5 3441   3.978   0.904   1.709  0.0381  0.4727  0.5690
  223MPD1     H 3442   3.631   0.815   1.814 -0.0844  2.5765  1.3596
  223MPD1    H1 3443   3.926   0.803   1.522  1.5690  0.4263  0.1264
  223MPD1    H2 3444   4.006   0.997   1.887  0.7716 -1.6543  0.8472
  223MPD1    H3 3445   4.084   0.922   1.692  0.9557 -3.3126  2.2269
  223MPD1     N 3446   3.683   0.732   1.576  0.4151  0.9457  0.4399
  223MPD1    H5 3447   3.587   0.739   1.606  0.4166 -1.0929  0.9433
  223MPD1    N1 3448   3.761   0.948   1.986  0.1803 -0.0543 -0.0892
  223MPD1    H6 3449   3.691   0.891   2.032 -0.7896  1.3791  0.1967
  223MPD1    H7 3450   3.840   0.953   2.051  0.1352  1.1497 -0.1424
  224MPD1     C 3451   0.049   2.615   9.449 -0.4974 -0.4137 -0.3014
  224MPD1    C1 3452   0.022   2.480   9.430  0.4559 -0.1931  0.3463
  224MPD1    C2 3453   4.660   2.428   9.509 -0.7763 -0.3394  0.4867
  224MPD1    C3 3454   4.595   2.501   9.607 -0.8196 -0.0923  0.9704
  224MPD1    C4 3455   4.622   2.637   9.628 -0.4938  0.1404 -1.0208
  224MPD1    C5 3456   4.717   2.692   9.544  0.5568  0.1230  0.2984
  224MPD1     H 3457   4.642   2.322   9.492 -1.5528 -0.4263  1.8405
  224MPD1    H1 3458   4.578   2.693   9.709 -0.0087  0.2657 -0.8467
  224MPD1    H2 3459   0.126   2.674   9.403  0.3709 -0.2542  1.3403
  224MPD1    H3 3460   0.008   2.795   9.539 -0.7942  0.4801 -0.5072
  224MPD1     N 3461   4.509   2.439   9.699  0.3680  0.0427 -0.4114
  224MPD1    H5 3462   4.467   2.503   9.766  0.2611 -0.6589  0.1794
  224MPD1    N1 3463   0.097   2.406   9.336 -0.0842  0.2584  0.6414
  224MPD1    H6 3464   0.181   2.453   9.302 -0.0977  0.9860  1.6170
  224MPD1    H7 3465   0.120   2.310   9.362 -1.7902 -0.2921  0.1343
  225MPD1     C 3466   0.848   2.767  12.740 -0.4183 -0.4730  0.1541
  225MPD1    C1 3467   0.794   2.641  12.724 -0.1374  0.3019 -0.1718
  225MPD1    C2 3468   0.655   2.630  12.749  0.2055  0.9580  0.2354
  225MPD1    C3 3469   0.588   2.723  12.831  0.1889 -0.5842 -0.0065
  225MPD1    C4 3470   0.656   2.837  12.871 -0.4795  0.2488 -0.9804
  225MPD1    C5 3471   0.784   2.856  12.817  0.1043 -0.3764  0.3834
  225MPD1     H 3472   0.599   2.549  12.704 -0.3857  1.2308  0.4719
  225MPD1    H1 3473   0.612   2.911  12.937 -0.3655 -0.2049 -0.3979
  225MPD1    H2 3474   0.954   2.778  12.720 -0.2766  0.2991  1.3274
  225MPD1    H3 3475   0.839   2.945  12.845  2.4459 -1.9187  0.6784
  225MPD1     N 3476   0.451   2.720  12.867 -0.2309 -0.3470 -0.3880
  225MPD1    H5 3477   0.430   2.794  12.933 -0.2913 -0.8926  0.2006
  225MPD1    N1 3478   0.861   2.547  12.639 -0.5468  0.3026 -0.2681
  225MPD1    H6 3479   0.963   2.551  12.638 -0.4313 -2.6255 -0.9670
  225MPD1    H7 3480   0.833   2.450  12.649 -0.4447 -0.0816 -4.0063
  226MPD1     C 3481   4.273   2.956  10.025  0.4379  0.5402 -0.2626
  226MPD1    C1 3482   4.401   2.898  10.027  0.3222  0.2201 -0.5529
  226MPD1    C2 3483   4.514   2.982  10.027  0.1250  0.0759 -0.6022
  226MPD1    C3 3484   4.501   3.116  10.027  0.0347  0.6238  0.1079
  226MPD1    C4 3485   4.372   3.173  10.026  0.8095 -0.6907  0.0435
  226MPD1    C5 3486   4.260   3.092  10.030  0.0873  0.5598 -0.4702
  226MPD1     H 3487   4.612   2.936  10.029  0.3981  0.6424 -0.9210
  226MPD1    H1 3488   4.358   3.280  10.036  1.5828 -0.7475  1.6542
  226MPD1    H2 3489   4.185   2.894  10.037  0.3735  0.7401  0.3417
  226MPD1    H3 3490   4.167   3.147  10.043  0.0736 -0.0422  1.9544
  226MPD1     N 3491   4.623   3.194  10.044  0.0117 -0.4502  0.4982
  226MPD1    H5 3492   4.705   3.135  10.052  0.8106  0.6096  0.1290
  226MPD1    N1 3493   4.403   2.763   9.998  0.5351 -0.1050 -1.0112
  226MPD1    H6 3494   4.331   2.710  10.045  2.0873  0.1288  1.6497
  226MPD1    H7 3495   4.496   2.730  10.023  0.4813  0.0177 -0.6418
  227MPD1     C 3496   0.117   4.155   9.845  0.5033  0.4211  0.0965
  227MPD1    C1 3497   0.009   4.086   9.817  0.3852  0.0570 -1.1762
  227MPD1    C2 3498   0.008   3.952   9.835  0.1553  0.3341 -0.3866
  227MPD1    C3 3499   0.119   3.884   9.860 -0.1704 -0.2535 -0.6507
  227MPD1    C4 3500   0.232   3.953   9.899  0.6661 -0.4662  0.2570
  227MPD1    C5 3501   0.234   4.087   9.879 -0.1461 -0.1496 -0.1744
  227MPD1     H 3502   4.654   3.900   9.818 -0.0757  0.9542 -1.0116
  227MPD1    H1 3503   0.321   3.905   9.938  0.8525 -0.1989  0.1556
  227MPD1    H2 3504   0.118   4.263   9.841 -0.0997  0.5312  2.3928
  227MPD1    H3 3505   0.326   4.140   9.900 -0.1293  1.0718 -3.2285
  227MPD1     N 3506   0.111   3.745   9.868 -0.1339  0.7084 -0.5157
  227MPD1    H5 3507   0.024   3.694   9.868 -0.4149  1.2027 -1.6913
  227MPD1    N1 3508   4.632   4.156   9.780  0.2245  0.2716  0.0470
  227MPD1    H6 3509   4.563   4.097   9.734 -0.6494  0.9050  0.5585
  227MPD1    H7 3510   4.657   4.236   9.722  0.2765  0.0155 -0.2818
  228MPD1     C 3511   2.363   0.785  13.101  0.3804 -0.3266  0.0572
  228MPD1    C1 3512   2.255   0.781  13.010  0.1433  0.3681 -0.2730
  228MPD1    C2 3513   2.150   0.698  13.044  0.4705 -0.5844  0.2847
  228MPD1    C3 3514   2.136   0.628  13.161 -0.5502  0.1922 -0.2924
  228MPD1    C4 3515   2.242   0.650  13.257 -0.3706  0.6468  0.1502
  228MPD1    C5 3516   2.352   0.721  13.221  0.0734  0.3053  0.3034
  228MPD1     H 3517   2.062   0.691  12.980 -0.6247  2.1839  1.4831
  228MPD1    H1 3518   2.240   0.609  13.357  0.1191 -0.2688 -0.2252
  228MPD1    H2 3519   2.456   0.836  13.080 -0.2439  0.2632 -1.2666
  228MPD1    H3 3520   2.436   0.717  13.290  0.2683 -0.3851  0.0329
  228MPD1     N 3521   2.022   0.547  13.185 -0.4584  0.0942 -0.1003
  228MPD1    H5 3522   1.952   0.535  13.112  1.9682 -0.1315 -2.3949
  228MPD1    N1 3523   2.238   0.873  12.909 -0.5580 -0.1044  0.5044
  228MPD1    H6 3524   2.329   0.891  12.866 -0.1631 -2.1210  0.5107
  228MPD1    H7 3525   2.179   0.840  12.832  1.9618 -0.3406 -1.3358
  229MPD1     C 3526   2.137   3.794  14.175  0.4993  0.7329 -0.5974
  229MPD1    C1 3527   2.249   3.715  14.149 -0.5513  0.1426  0.2492
  229MPD1    C2 3528   2.346   3.709  14.246  0.2973  0.9964  0.3708
  229MPD1    C3 3529   2.323   3.747  14.375  0.0041 -0.7462  0.8764
  229MPD1    C4 3530   2.205   3.815  14.402 -0.7299  0.0416 -0.2846
  229MPD1    C5 3531   2.114   3.838  14.299  0.0416  1.5411 -0.2802
  229MPD1     H 3532   2.440   3.660  14.225  0.1909  1.1766 -0.5308
  229MPD1    H1 3533   2.179   3.856  14.499  0.2274 -2.8392  1.2139
  229MPD1    H2 3534   2.062   3.833  14.106 -1.0315  0.4273  0.8722
  229MPD1    H3 3535   2.022   3.895  14.305 -1.3697 -0.6254 -1.1967
  229MPD1     N 3536   2.415   3.723  14.488 -0.1466  0.3101 -0.3491
  229MPD1    H5 3537   2.393   3.769  14.575  0.9865  1.3474 -0.6128
  229MPD1    N1 3538   2.270   3.659  14.023 -0.2351  0.4949 -0.1229
  229MPD1    H6 3539   2.185   3.624  13.980 -0.7863  0.7898  0.7252
  229MPD1    H7 3540   2.336   3.582  14.026  0.0962  0.7778 -0.0580
  230MPD1     C 3541   2.387   4.203  15.175 -0.3060  0.1692 -0.3184
  230MPD1    C1 3542   2.332   4.199  15.052 -0.0389  0.1690  0.0093
  230MPD1    C2 3543   2.360   4.084  14.976 -0.8183  0.8063 -0.2729
  230MPD1    C3 3544   2.437   3.981  15.022  0.2009 -0.1945  0.0313
  230MPD1    C4 3545   2.485   3.985  15.150 -0.2744  0.4615 -0.3810
  230MPD1    C5 3546   2.466   4.100  15.227  0.0657 -0.1596 -0.3770
  230MPD1     H 3547   2.315   4.074  14.878 -0.0070 -0.6076 -0.4924
  230MPD1    H1 3548   2.540   3.907  15.201  0.4244 -0.4359 -2.5082
  230MPD1    H2 3549   2.369   4.294  15.232  0.8076  0.3733 -0.3046
  230MPD1    H3 3550   2.504   4.119  15.327  0.7061 -1.7796 -0.3168
  230MPD1     N 3551   2.462   3.876  14.932  0.1042 -0.4233  0.2333
  230MPD1    H5 3552   2.418   3.894  14.843 -0.1748 -1.7695  0.0953
  230MPD1    N1 3553   2.268   4.310  14.990 -0.3685  0.6130 -0.7802
  230MPD1    H6 3554   2.227   4.363  15.066 -1.7241 -0.4755 -0.7581
  230MPD1    H7 3555   2.191   4.271  14.936 -0.3427  1.2931 -1.3021
  231MPD1     C 3556   0.549   0.896  15.651 -0.9841  0.0188 -0.2720
  231MPD1    C1 3557   0.438   0.940  15.582 -0.1927  0.5408  0.5579
  231MPD1    C2 3558   0.463   1.005  15.462  0.2279  0.0694  0.5591
  231MPD1    C3 3559   0.586   1.058  15.424  0.3069 -0.6422 -0.5974
  231MPD1    C4 3560   0.692   1.036  15.510 -0.8145  0.2615 -0.1552
  231MPD1    C5 3561   0.672   0.960  15.625 -0.4759  0.1059  0.0513
  231MPD1     H 3562   0.375   1.028  15.404  0.0580  2.3500  1.7299
  231MPD1    H1 3563   0.786   1.084  15.482 -0.2850 -0.6308  0.0885
  231MPD1    H2 3564   0.536   0.837  15.741  0.9865 -3.2123 -2.0964
  231MPD1    H3 3565   0.761   0.926  15.677 -1.3305  2.0077  2.7665
  231MPD1     N 3566   0.585   1.133  15.305  0.1243 -0.0285 -0.0183
  231MPD1    H5 3567   0.499   1.132  15.251  0.6281 -0.0992 -0.8049
  231MPD1    N1 3568   0.314   0.887  15.610 -0.3923 -0.0527  0.4918
  231MPD1    H6 3569   0.295   0.880  15.710  0.7975  1.6501  0.8374
  231MPD1    H7 3570   0.250   0.954  15.567 -0.1791  0.7327  1.4116
  232MPD1     C 3571   1.915   2.669   0.855 -0.2281 -0.0361 -0.3610
  232MPD1    C1 3572   2.044   2.674   0.802 -0.4288 -0.5575  0.1878
  232MPD1    C2 3573   2.072   2.599   0.690  0.5699 -0.1152  0.5082
  232MPD1    C3 3574   1.981   2.509   0.641  0.0534 -0.8346 -0.3903
  232MPD1    C4 3575   1.851   2.507   0.695  0.7494  0.3201  0.4174
  232MPD1    C5 3576   1.826   2.589   0.800  0.5110  0.3683 -0.4550
  232MPD1     H 3577   2.156   2.620   0.625  0.7948 -2.5929 -0.0066
  232MPD1    H1 3578   1.775   2.447   0.648  1.9770 -0.9417  0.0475
  232MPD1    H2 3579   1.877   2.736   0.932  1.9032  0.7355  0.0117
  232MPD1    H3 3580   1.723   2.588   0.833  0.8078 -1.0163  0.4147
  232MPD1     N 3581   2.019   2.434   0.529 -0.1275 -0.7144  0.6105
  232MPD1    H5 3582   2.116   2.445   0.501 -0.4341 -1.0820 -0.6198
  232MPD1    N1 3583   2.135   2.773   0.826 -0.2640  0.1843  0.0186
  232MPD1    H6 3584   2.231   2.744   0.806 -0.5970 -1.3423  0.6328
  232MPD1    H7 3585   2.133   2.813   0.920 -2.7500 -0.1101  0.0964
  233MPD1     C 3586   2.470   1.457   1.628 -0.3651 -0.4481 -0.2900
  233MPD1    C1 3587   2.469   1.478   1.491 -0.1873  0.1806  0.9479
  233MPD1    C2 3588   2.585   1.461   1.413 -0.5273 -0.2167 -0.2528
  233MPD1    C3 3589   2.704   1.437   1.475 -0.5882 -0.1001  0.0327
  233MPD1    C4 3590   2.713   1.430   1.615 -0.3941  0.3547  0.1827
  233MPD1    C5 3591   2.596   1.442   1.694  0.9320 -0.2976 -0.2538
  233MPD1     H 3592   2.578   1.492   1.309  1.1377 -0.2170 -0.3666
  233MPD1    H1 3593   2.807   1.400   1.660  0.2094 -0.7761 -1.7970
  233MPD1    H2 3594   2.384   1.458   1.693 -1.2355  1.0956 -1.4923
  233MPD1    H3 3595   2.606   1.441   1.802 -0.8676 -1.1699 -0.0841
  233MPD1     N 3596   2.828   1.417   1.404 -0.5701 -0.1304  0.2049
  233MPD1    H5 3597   2.910   1.407   1.463 -0.1862  0.0373 -0.2933
  233MPD1    N1 3598   2.352   1.523   1.429  0.3503  0.3098  0.4120
  233MPD1    H6 3599   2.338   1.489   1.334 -1.4547 -0.9422  1.1191
  233MPD1    H7 3600   2.264   1.503   1.475 -0.6297 -0.1827 -1.6965
  234MPD1     C 3601   4.119   0.614   9.418 -0.1978 -0.2186  0.5870
  234MPD1    C1 3602   4.212   0.694   9.471  0.2205  0.5361  0.2179
  234MPD1    C2 3603   4.185   0.823   9.496  0.6077  0.8146 -0.0526
  234MPD1    C3 3604   4.068   0.882   9.465 -0.2822  0.4951 -0.1001
  234MPD1    C4 3605   3.972   0.801   9.413 -0.7336  0.2148  0.6671
  234MPD1    C5 3606   3.998   0.667   9.392  0.8381  0.0201  0.0849
  234MPD1     H 3607   4.269   0.886   9.523  3.0188 -3.1444  1.6609
  234MPD1    H1 3608   3.870   0.833   9.398 -1.0830 -0.5897  1.2460
  234MPD1    H2 3609   4.132   0.506   9.411  2.5872  0.1027  0.6361
  234MPD1    H3 3610   3.916   0.600   9.370  0.8144 -0.6361  2.1292
  234MPD1     N 3611   4.046   1.021   9.482 -0.0071 -0.4842  0.0570
  234MPD1    H5 3612   4.120   1.064   9.536  1.3441  0.4028 -2.4846
  234MPD1    N1 3613   4.339   0.637   9.516 -0.0587 -0.0738 -0.2109
  234MPD1    H6 3614   4.406   0.712   9.532  1.1379 -1.5707  1.7765
  234MPD1    H7 3615   4.379   0.571   9.449  2.8520  1.2165  0.2530
  235MPD1     C 3616   4.732   3.595  10.301 -0.6384 -0.7255 -0.3683
  235MPD1    C1 3617   0.026   3.723  10.254 -0.1824 -0.1595 -0.1943
  235MPD1    C2 3618   0.162   3.749  10.230  0.1102 -0.3468  0.4799
  235MPD1    C3 3619   0.258   3.658  10.270 -0.1051  0.3081 -0.1635
  235MPD1    C4 3620   0.220   3.534  10.328  0.1442  0.2364  0.0887
  235MPD1    C5 3621   0.089   3.508  10.332 -0.0348  0.4602  0.4016
  235MPD1     H 3622   0.192   3.848  10.199  0.4444 -0.2547  1.0999
  235MPD1    H1 3623   0.291   3.456  10.354  1.9753  1.7586 -0.3796
  235MPD1    H2 3624   4.628   3.571  10.316 -0.6898  0.1678  0.7776
  235MPD1    H3 3625   0.053   3.417  10.376  0.3380 -0.1068 -0.4609
  235MPD1     N 3626   0.395   3.685  10.235 -0.5461 -0.0945  0.6502
  235MPD1    H5 3627   0.412   3.761  10.170  0.6041 -1.1764 -0.3065
  235MPD1    N1 3628   4.668   3.806  10.202 -0.2074 -0.6722 -0.0922
  235MPD1    H6 3629   4.698   3.904  10.204 -0.1030 -0.6904 -0.5980
  235MPD1    H7 3630   4.578   3.801  10.249 -0.0014 -1.5466  0.2067
  236MPD1     C 3631   4.299   4.015  10.336 -0.6406  0.4839  0.1182
  236MPD1    C1 3632   4.344   3.903  10.403 -1.0714  0.3259 -0.4428
  236MPD1    C2 3633   4.475   3.888  10.448 -0.5540  0.3617  1.0012
  236MPD1    C3 3634   4.556   4.001  10.442 -0.4166 -0.0987  0.3164
  236MPD1    C4 3635   4.506   4.114  10.384 -0.1466  0.1763  0.0618
  236MPD1    C5 3636   4.382   4.122  10.325 -0.0136  0.1743 -0.1820
  236MPD1     H 3637   4.490   3.798  10.506  2.4545 -0.0189 -0.3711
  236MPD1    H1 3638   4.569   4.202  10.374 -0.2657  0.2251 -0.2529
  236MPD1    H2 3639   4.206   4.015  10.281 -1.4926 -0.4633  1.5467
  236MPD1    H3 3640   4.356   4.213  10.272  1.5238  2.0864  2.3325
  236MPD1     N 3641   4.682   4.003  10.499 -0.3372 -0.2891  0.7203
  236MPD1    H5 3642   4.740   4.083  10.476  0.8232 -1.3698 -0.1225
  236MPD1    N1 3643   4.256   3.794  10.397 -0.0737  0.2996  0.3855
  236MPD1    H6 3644   4.160   3.828  10.410 -0.4703 -0.8665  0.4851
  236MPD1    H7 3645   4.275   3.721  10.465  0.0004  0.0653  0.1105
  237MPD1     C 3646   0.868   2.453  15.651 -0.1899 -0.6055 -0.0115
  237MPD1    C1 3647   0.829   2.472  15.516  0.8431  0.2997 -0.5976
  237MPD1    C2 3648   0.723   2.393  15.470 -0.6877 -0.4902  0.0254
  237MPD1    C3 3649   0.640   2.336  15.563 -0.1248  0.3935  0.2331
  237MPD1    C4 3650   0.669   2.344  15.698 -0.1891 -0.5168 -0.0403
  237MPD1    C5 3651   0.780   2.397  15.734  0.1894  0.0471  0.2074
  237MPD1     H 3652   0.701   2.373  15.366 -0.4526 -0.0987 -0.0981
  237MPD1    H1 3653   0.591   2.311  15.767  1.2062 -1.5336  1.0439
  237MPD1    H2 3654   0.960   2.484  15.699 -1.0789  2.3102 -0.1842
  237MPD1    H3 3655   0.809   2.380  15.837 -0.5873 -0.5189  0.3367
  237MPD1     N 3656   0.510   2.285  15.536  0.8430 -0.1875 -0.0730
  237MPD1    H5 3657   0.459   2.239  15.611  1.9330 -0.0805  0.7288
  237MPD1    N1 3658   0.922   2.527  15.425  0.4261  0.5930 -0.2787
  237MPD1    H6 3659   0.876   2.559  15.339 -0.6727  2.8736  1.1582
  237MPD1    H7 3660   0.981   2.602  15.459  0.9284  0.9320 -1.8944
  238MPD1     C 3661   2.053   0.098  14.390 -0.4541  0.3681 -0.0171
  238MPD1    C1 3662   2.007   0.033  14.501  0.2753 -0.0633 -0.1320
  238MPD1    C2 3663   2.001   0.103  14.621 -0.5191 -0.2186 -0.2901
  238MPD1    C3 3664   2.038   0.234  14.623 -0.0982  0.2554  0.6987
  238MPD1    C4 3665   2.102   0.292  14.515  1.4828 -0.0859 -0.6228
  238MPD1    C5 3666   2.106   0.226  14.395  0.5530  0.2535 -0.7364
  238MPD1     H 3667   1.942   0.063  14.702 -0.0055 -2.3470 -0.9498
  238MPD1    H1 3668   2.135   0.395  14.522 -0.0395  0.3169  0.7673
  238MPD1    H2 3669   2.046   0.050  14.293  1.4843 -1.2580  0.6455
  238MPD1    H3 3670   2.143   0.283  14.311  0.7701  0.5377 -0.4478
  238MPD1     N 3671   2.003   0.325  14.729  0.2663 -0.2584  0.2104
  238MPD1    H5 3672   2.026   0.423  14.725  0.8372 -0.3164  2.4409
  238MPD1    N1 3673   1.956   4.643  14.495  0.4388 -0.1640  0.4270
  238MPD1    H6 3674   1.983   4.594  14.580 -2.9091  1.6288  2.5410
  238MPD1    H7 3675   2.002   4.602  14.414  0.8373 -1.4088  1.2946
  239MPD1     C 3676   2.363   1.389  15.158  0.3942 -0.5720 -0.4668
  239MPD1    C1 3677   2.247   1.441  15.211 -0.2771 -0.2659 -0.5794
  239MPD1    C2 3678   2.172   1.531  15.135  0.8209 -0.5426  0.2016
  239MPD1    C3 3679   2.224   1.571  15.007  0.5091  0.1124  0.9646
  239MPD1    C4 3680   2.338   1.515  14.954 -0.4518  0.5790  0.0702
  239MPD1    C5 3681   2.399   1.413  15.026 -0.0327  0.0595  0.0242
  239MPD1     H 3682   2.080   1.567  15.178  1.5461 -1.4373  2.5020
  239MPD1    H1 3683   2.381   1.547  14.860  1.2449 -2.5712 -0.2302
  239MPD1    H2 3684   2.428   1.326  15.217  0.7506 -0.3175 -0.5900
  239MPD1    H3 3685   2.495   1.372  14.994 -0.4294  1.6439 -3.2037
  239MPD1     N 3686   2.167   1.686  14.945  0.0080  0.5641  0.1968
  239MPD1    H5 3687   2.218   1.720  14.864 -1.0900  1.2836 -0.1848
  239MPD1    N1 3688   2.220   1.435  15.350 -0.6082  0.4652 -0.1501
  239MPD1    H6 3689   2.254   1.346  15.386  0.6593  1.7285  1.8076
  239MPD1    H7 3690   2.121   1.421  15.367 -0.7431  0.6044 -0.8282
  240MPD1     C 3691   2.227   1.373  14.423 -0.3279  0.1478 -0.3237
  240MPD1    C1 3692   2.105   1.349  14.360 -0.7816 -0.1101  0.0248
  240MPD1    C2 3693   1.988   1.362  14.433 -0.1351  0.1300 -0.3978
  240MPD1    C3 3694   1.987   1.389  14.567  0.0253 -0.0021 -0.0817
  240MPD1    C4 3695   2.109   1.401  14.629 -0.6322  0.3696  0.7165
  240MPD1    C5 3696   2.226   1.394  14.562  0.3177  0.1756 -0.1050
  240MPD1     H 3697   1.898   1.363  14.372  0.8643 -0.9322 -1.8744
  240MPD1    H1 3698   2.115   1.431  14.733  1.8136 -0.1693  0.7506
  240MPD1    H2 3699   2.318   1.373  14.365 -0.0115  0.2708  0.1799
  240MPD1    H3 3700   2.317   1.425  14.612 -0.8035  0.8464  1.5252
  240MPD1     N 3701   1.866   1.406  14.635  0.6365  0.1532 -0.2929
  240MPD1    H5 3702   1.784   1.413  14.575 -0.6466 -1.5096  1.2902
  240MPD1    N1 3703   2.100   1.336  14.220 -0.0082  0.7565  0.5745
  240MPD1    H6 3704   2.026   1.278  14.180  0.1612  0.4099  0.7629
  240MPD1    H7 3705   2.188   1.315  14.174 -0.8784  1.3850 -1.3801
  241MPD1     C 3706   1.329   1.404  15.589  0.5466  0.0229  0.1527
  241MPD1    C1 3707   1.381   1.511  15.527 -0.2134  0.0625 -0.8637
  241MPD1    C2 3708   1.436   1.502  15.401 -0.3863 -0.3056 -0.3874
  241MPD1    C3 3709   1.429   1.381  15.336 -0.3163 -0.4417  0.6023
  241MPD1    C4 3710   1.385   1.270  15.401 -0.2740 -0.1720 -0.5368
  241MPD1    C5 3711   1.335   1.279  15.531 -0.4460 -0.0684  0.0596
  241MPD1     H 3712   1.500   1.579  15.360 -0.7999  0.5489  0.5682
  241MPD1    H1 3713   1.394   1.169  15.363 -0.4920 -0.3393 -0.1380
  241MPD1    H2 3714   1.300   1.415  15.693 -1.9321 -2.4158 -0.2947
  241MPD1    H3 3715   1.309   1.192  15.590  0.2404  0.1964  0.7674
  241MPD1     N 3716   1.488   1.366  15.209  0.4380 -0.5620  0.0632
  241MPD1    H5 3717   1.482   1.273  15.170 -1.8623 -0.0301 -0.8485
  241MPD1    N1 3718   1.396   1.636  15.597 -0.1479 -0.2007  0.0793
  241MPD1    H6 3719   1.338   1.661  15.676 -2.8904 -0.1577 -1.9250
  241MPD1    H7 3720   1.404   1.714  15.532 -0.3697  0.0308  0.3334
  242MPD1     C 3721   1.258   3.664  16.064  0.8078  0.7235 -0.2647
  242MPD1    C1 3722   1.330   3.749  16.138  0.9531  0.2064 -0.1184
  242MPD1    C2 3723   1.383   3.855  16.065 -0.1262  0.0499  0.5644
  242MPD1    C3 3724   1.375   3.873  15.925  0.2742  1.0491 -0.3271
  242MPD1    C4 3725   1.306   3.781  15.857 -0.4892  0.6508 -0.1025
  242MPD1    C5 3726   1.240   3.681  15.929 -0.0621 -0.8189 -0.4932
  242MPD1     H 3727   1.448   3.918  16.125 -0.4177  1.8993 -1.0695
  242MPD1    H1 3728   1.304   3.793  15.750  2.4578  3.4193  0.1681
  242MPD1    H2 3729   1.206   3.581  16.111 -2.2893  1.2413 -2.7585
  242MPD1    H3 3730   1.173   3.608  15.886 -1.1179  1.2806 -2.4630
  242MPD1     N 3731   1.433   3.982  15.855  0.0688 -0.2828 -0.0405
  242MPD1    H5 3732   1.424   3.985  15.754  1.0950  0.1042 -0.1200
  242MPD1    N1 3733   1.336   3.730  16.276 -0.0642 -0.5078 -0.6049
  242MPD1    H6 3734   1.334   3.631  16.297  0.5931 -0.2009  0.9106
  242MPD1    H7 3735   1.419   3.777  16.313 -1.3092 -0.7581  2.4972
  243MPD1     C 3736   3.052   2.182   0.093 -0.1291  0.1234 -0.8705
  243MPD1    C1 3737   3.007   2.073   0.019  0.3202  0.7535 -0.2301
  243MPD1    C2 3738   3.049   2.076  17.647  1.0716  0.1191  0.2776
  243MPD1    C3 3739   3.119   2.181  17.590 -0.1216  0.9565 -0.4085
  243MPD1    C4 3740   3.155   2.285  17.664 -0.0838  0.8887 -0.4723
  243MPD1    C5 3741   3.120   2.290   0.037 -0.1340 -0.7586 -0.5912
  243MPD1     H 3742   3.027   1.993  17.581  0.2943  0.9747 -0.5465
  243MPD1    H1 3743   3.208   2.370  17.622  1.2627  0.6368  0.7019
  243MPD1    H2 3744   3.048   2.183   0.201 -2.7511 -2.7591 -0.9364
  243MPD1    H3 3745   3.159   2.365   0.105  0.5375 -1.1381 -0.5615
  243MPD1     N 3746   3.157   2.172  17.450  0.1755  0.0177 -0.3849
  243MPD1    H5 3747   3.144   2.076  17.419  0.3776  0.1843 -0.9792
  243MPD1    N1 3748   2.964   1.950   0.078 -0.5961 -0.5924 -0.1092
  243MPD1    H6 3749   2.906   1.896   0.015  0.0145 -0.2452 -0.9663
  243MPD1    H7 3750   2.914   1.960   0.166  0.5102  0.1113  0.4499
  244MPD1     C 3751   3.128   1.401  17.166 -0.7110 -0.0325 -0.8244
  244MPD1    C1 3752   3.152   1.445  17.289  0.6819 -0.0082 -0.5543
  244MPD1    C2 3753   3.201   1.575  17.308 -0.1592  0.2357  0.3081
  244MPD1    C3 3754   3.225   1.647  17.195 -0.2267  0.5320 -0.4239
  244MPD1    C4 3755   3.205   1.600  17.068  0.3694 -0.1981  0.1835
  244MPD1    C5 3756   3.137   1.481  17.055  0.5821  0.0471  0.4229
  244MPD1     H 3757   3.207   1.608  17.411 -2.4310  0.4808  0.3550
  244MPD1    H1 3758   3.208   1.665  16.981 -2.0103 -0.9472 -0.4700
  244MPD1    H2 3759   3.069   1.311  17.151  1.9071 -1.6876 -1.0135
  244MPD1    H3 3760   3.100   1.437  16.963  0.1571  0.4585  0.3980
  244MPD1     N 3761   3.266   1.781  17.212  0.0332  0.1871  0.4257
  244MPD1    H5 3762   3.262   1.821  17.305 -2.9215 -0.2281  0.5032
  244MPD1    N1 3763   3.100   1.368  17.387 -0.2618 -0.5482 -0.1224
  244MPD1    H6 3764   3.118   1.272  17.358  0.2255 -0.1769 -1.0462
  244MPD1    H7 3765   3.150   1.384  17.474 -0.7513 -1.2950  0.2957
  245MPD1     C 3766   0.063   3.415  13.052 -0.1414  0.4503  0.0106
  245MPD1    C1 3767   0.090   3.414  13.188 -0.3648 -0.2707 -0.3206
  245MPD1    C2 3768   0.155   3.520  13.237  0.1380 -0.2529  0.2232
  245MPD1    C3 3769   0.187   3.632  13.157  0.0672 -0.4299  0.2741
  245MPD1    C4 3770   0.142   3.630  13.028  0.1313  0.2912  0.3462
  245MPD1    C5 3771   0.087   3.526  12.972  0.7051  0.1050 -0.1945
  245MPD1     H 3772   0.191   3.527  13.339  0.8693 -0.4722 -0.0215
  245MPD1    H1 3773   0.153   3.716  12.964 -1.1637 -0.5441 -0.9924
  245MPD1    H2 3774   0.020   3.327  13.006 -1.5936  0.4268  1.4177
  245MPD1    H3 3775   0.061   3.532  12.867  1.0336  0.8885 -0.2335
  245MPD1     N 3776   0.249   3.746  13.214  0.3323 -0.1589 -0.2977
  245MPD1    H5 3777   0.287   3.745  13.308  0.9600 -0.2683 -0.5477
  245MPD1    N1 3778   0.084   3.293  13.255 -0.5749 -0.1707  0.4170
  245MPD1    H6 3779   0.112   3.301  13.353  0.8323  0.9193 -0.0734
  245MPD1    H7 3780   0.153   3.230  13.214  1.1997  1.6135  0.6855
  246MPD1     C 3781   4.666   1.578   9.588 -0.2862 -0.4845 -0.3467
  246MPD1    C1 3782   4.721   1.586   9.717 -0.0013 -0.7463  0.6952
  246MPD1    C2 3783   4.733   1.463   9.784  0.2135 -0.3538  0.6616
  246MPD1    C3 3784   4.699   1.343   9.725  0.5943 -0.2166  0.0101
  246MPD1    C4 3785   4.637   1.342   9.601 -0.4570  0.7310 -1.0555
  246MPD1    C5 3786   4.618   1.459   9.531  0.1995  0.5222 -0.0160
  246MPD1     H 3787   0.048   1.471   9.877  1.6800 -2.2022 -0.0459
  246MPD1    H1 3788   4.625   1.252   9.542 -1.5716  0.9451 -1.1593
  246MPD1    H2 3789   4.646   1.669   9.532 -1.7184  0.4135  1.6351
  246MPD1    H3 3790   4.567   1.459   9.436 -1.3814  0.0258  0.8268
  246MPD1     N 3791   4.736   1.226   9.788  0.3669  0.4166 -0.9424
  246MPD1    H5 3792   0.041   1.241   9.878  1.1603 -0.8797 -1.1177
  246MPD1    N1 3793   0.033   1.706   9.770 -0.9793  0.2249  0.7274
  246MPD1    H6 3794   0.041   1.708   9.872  1.5670  0.9550  0.4967
  246MPD1    H7 3795   4.729   1.788   9.728 -2.5042 -2.5871 -3.1432
  247MPD1     C 3796   3.418   3.690  17.159 -1.4218 -0.3804 -0.3547
  247MPD1    C1 3797   3.515   3.629  17.242 -0.4832 -0.1225  0.7322
  247MPD1    C2 3798   3.635   3.586  17.170  0.2189 -0.0160  0.9090
  247MPD1    C3 3799   3.655   3.602  17.035  0.0715  0.7002  0.1309
  247MPD1    C4 3800   3.554   3.654  16.963 -0.3096  0.3702  0.3508
  247MPD1    C5 3801   3.445   3.699  17.025  0.4169  0.0965  0.5567
  247MPD1     H 3802   3.718   3.559  17.234  0.7287 -1.1069 -0.2136
  247MPD1    H1 3803   3.558   3.680  16.858 -4.0032  0.7308  0.3221
  247MPD1    H2 3804   3.328   3.735  17.198 -0.3672  1.8389 -0.4604
  247MPD1    H3 3805   3.366   3.743  16.966 -1.2558  0.5777  3.1363
  247MPD1     N 3806   3.771   3.566  16.965 -0.2380 -0.2802 -0.1979
  247MPD1    H5 3807   3.768   3.578  16.864 -0.9415  1.0776 -0.0131
  247MPD1    N1 3808   3.489   3.594  17.377 -0.1544  0.5989 -0.1031
  247MPD1    H6 3809   3.425   3.662  17.416 -1.4982  0.0247 -1.3029
  247MPD1    H7 3810   3.567   3.591  17.443  0.3279 -0.1994 -0.7072
  248MPD1     C 3811   1.103   2.518   1.276  0.4402  0.3619  0.3066
  248MPD1    C1 3812   1.031   2.535   1.156 -0.0344  0.3988 -0.5156
  248MPD1    C2 3813   0.914   2.608   1.164 -0.5186  0.0576  0.3012
  248MPD1    C3 3814   0.875   2.670   1.284 -0.9005  0.1139  0.1747
  248MPD1    C4 3815   0.956   2.652   1.400 -0.9132 -0.3453 -0.2405
  248MPD1    C5 3816   1.067   2.580   1.393  0.1028 -0.0200 -0.5163
  248MPD1     H 3817   0.852   2.607   1.075  0.4193 -1.8938 -0.3335
  248MPD1    H1 3818   0.940   2.695   1.498 -1.7849 -0.3326 -0.3905
  248MPD1    H2 3819   1.196   2.464   1.282 -0.1776 -0.8411 -0.7991
  248MPD1    H3 3820   1.125   2.552   1.480 -1.7642  4.1156  2.0455
  248MPD1     N 3821   0.747   2.733   1.274 -0.0856  0.2104  0.2414
  248MPD1    H5 3822   0.712   2.731   1.179 -0.5561 -0.1966  0.4243
  248MPD1    N1 3823   1.082   2.506   1.025  0.4798  0.1551 -0.1879
  248MPD1    H6 3824   1.011   2.477   0.959 -0.1274  0.3250  0.3877
  248MPD1    H7 3825   1.153   2.433   1.022  1.0620  0.7655 -1.4391
  249MPD1     C 3826   1.680   1.991   9.750  0.3308  0.8929  0.2313
  249MPD1    C1 3827   1.586   2.085   9.773 -0.2373  0.6510  0.7102
  249MPD1    C2 3828   1.624   2.221   9.769  0.1671  0.0431 -0.2227
  249MPD1    C3 3829   1.756   2.255   9.759  1.3170  0.1764 -0.6965
  249MPD1    C4 3830   1.857   2.164   9.745 -0.2774 -0.7751  0.5283
  249MPD1    C5 3831   1.812   2.032   9.734  0.6312 -0.3824  0.1184
  249MPD1     H 3832   1.555   2.304   9.782  1.5806  0.6958  3.2139
  249MPD1    H1 3833   1.962   2.189   9.753 -0.5788  0.6781 -0.1327
  249MPD1    H2 3834   1.653   1.886   9.750  1.0710  0.6909 -1.4588
  249MPD1    H3 3835   1.892   1.958   9.725 -0.0851 -1.0664 -0.6624
  249MPD1     N 3836   1.785   2.394   9.777 -0.1513  0.5012 -0.1701
  249MPD1    H5 3837   1.701   2.438   9.812 -0.8682 -2.1029  1.3921
  249MPD1    N1 3838   1.452   2.054   9.777  0.4580  0.0176 -0.2467
  249MPD1    H6 3839   1.389   2.123   9.818 -0.3115 -0.9424  0.1941
  249MPD1    H7 3840   1.437   1.967   9.827 -0.0436  0.5804  0.5888
  250MPD2     C 3841   2.756   2.549  13.169  0.6883  0.0103  0.1023
  250MPD2    C1 3842   2.773   2.570  13.034 -0.5779 -0.5544  0.4213
  250MPD2    C2 3843   2.720   2.474  12.945 -0.1538  0.3082 -0.1270
  250MPD2    C3 3844   2.647   2.367  12.984  0.6630  0.1444  0.3120
  250MPD2    C4 3845   2.627   2.359  13.120 -0.5493 -0.4590 -0.4789
  250MPD2    C5 3846   2.681   2.447  13.212 -0.9951 -0.4984 -0.0346
  250MPD2     H 3847   2.758   2.465  12.844  0.7946  2.7353  0.0252
  250MPD2    H1 3848   2.571   2.274  13.157  0.2113 -0.4370  0.6881
  250MPD2    H2 3849   2.811   2.609  13.240  0.5527  0.5946 -0.2900
  250MPD2    H3 3850   2.670   2.433  13.319  0.3401  3.5852  0.6093
  250MPD2     N 3851   2.584   2.275  12.900 -0.0230  0.5532  0.6845
  250MPD2    H5 3852   2.524   2.205  12.942 -1.2825  1.8755  1.0887
  250MPD2    N1 3853   2.852   2.670  12.974  0.2608  0.5484  0.4062
  250MPD2    H7 3854   2.876   2.661  12.876 -0.0089  0.7175  0.3262
  251TMC3    C1 3855   3.004   2.862  12.977  0.4500 -0.3521  0.6410
  251TMC3    C2 3856   3.000   2.986  13.033  1.1057  0.5525 -0.5149
  251TMC3    C3 3857   3.109   3.062  13.050  0.7444  0.6157  0.4978
  251TMC3    C4 3858   3.132   2.808  12.949  0.0742 -0.4727  0.0696
  251TMC3    C5 3859   3.238   2.899  12.950  0.5725  0.1730 -0.2474
  251TMC3    C6 3860   3.231   3.026  13.004 -0.1358  0.1831 -0.5582
  251TMC3     C 3861   2.917   2.774  13.046  1.0949  0.3796 -0.4981
  251TMC3     O 3862   2.892   2.819  13.156 -0.0441  0.3728  0.5353
  251TMC3     H 3863   2.907   3.030  13.066  0.3674 -1.7533  0.4268
  251TMC3    H1 3864   3.142   2.703  12.923 -0.4647  0.2832 -3.1387
  251TMC3    H2 3865   3.309   3.101  12.996  0.3393  0.0747  3.0550
  251TMC3    C7 3866   3.357   2.834  12.999 -0.9775  0.5459 -0.4986
  251TMC3    C8 3867   3.097   3.177  13.135  0.1528 -0.4766 -0.0642
  251TMC3    O1 3868   3.338   2.757  13.089  0.4774 -0.5390  0.2094
  251TMC3    O2 3869   2.999   3.250  13.122 -0.4262  0.3251  0.2865
  252TMC3    C1 3870   3.660   4.532   9.626  0.3676 -0.6729  0.5016
  252TMC3    C2 3871   3.729   4.524   9.745  0.2313  0.2781  0.3176
  252TMC3    C3 3872   3.698   4.419   9.829  0.4151 -0.4250  0.4656
  252TMC3    C4 3873   3.567   4.436   9.599 -0.1580  0.1210  0.1203
  252TMC3    C5 3874   3.532   4.339   9.685  0.1726  0.5947 -0.0635
  252TMC3    C6 3875   3.598   4.331   9.802  1.1961 -0.3285  0.3615
  252TMC3     C 3876   3.691   4.626   9.521 -0.7153 -0.6126  0.0328
  252TMC3     O 3877   3.606   4.656   9.441 -0.1287 -0.0801 -0.2627
  252TMC3     H 3878   3.801   4.602   9.771  0.7098  0.1144 -0.5171
  252TMC3    H1 3879   3.519   4.440   9.502  1.8483 -0.8422 -0.9111
  252TMC3    H2 3880   3.567   4.256   9.875 -0.5497 -1.2605 -1.3207
  252TMC3    C7 3881   3.399   4.282   9.674  0.3660 -0.7443 -0.0081
  252TMC3    C8 3882   3.785   4.403   9.943  0.5455 -1.2912 -0.8027
  252TMC3    O1 3883   3.326   4.317   9.586 -0.2560  0.0563 -0.2784
  252TMC3    O2 3884   3.859   4.497   9.972 -0.3495 -0.0225 -0.0215
  253MPD2     C 3885   0.275   2.579  15.640 -0.0622  0.4702 -0.3614
  253MPD2    C1 3886   0.141   2.571  15.644  0.3155  0.1351  0.2434
  253MPD2    C2 3887   0.080   2.495  15.736  0.4760 -0.1887 -0.1121
  253MPD2    C3 3888   0.150   2.432  15.829  0.1155 -0.3070 -0.2693
  253MPD2    C4 3889   0.290   2.435  15.820  0.3848 -0.9669  0.4019
  253MPD2    C5 3890   0.348   2.510  15.728  0.4313 -0.1773  0.1345
  253MPD2     H 3891   4.714   2.477  15.725  0.3149  0.5558  0.2532
  253MPD2    H1 3892   0.351   2.382  15.892 -0.3940 -0.8485  1.1465
  253MPD2    H2 3893   0.336   2.643  15.577  1.3880 -0.9194 -0.3877
  253MPD2    H3 3894   0.455   2.514  15.714  0.2062  2.3765 -0.8457
  253MPD2     N 3895   0.087   2.366  15.941  0.7582  0.3469 -0.7003
  253MPD2    H5 3896   0.153   2.319  16.003  1.3297  0.8708 -0.9103
  253MPD2    N1 3897   0.057   2.638  15.556  0.2645  0.6920 -0.1527
  253MPD2    H7 3898   4.696   2.627  15.565  0.1509  1.3911 -0.6221
  254TMC3    C1 3899   4.670   2.269  16.087  0.9663  0.7636  0.1155
  254TMC3    C2 3900   4.542   2.282  16.139  0.1455  0.4549 -0.3785
  254TMC3    C3 3901   4.512   2.216  16.252  0.2629 -0.6258 -0.2679
  254TMC3    C4 3902   0.025   2.186  16.141 -0.5430 -0.1506  0.1757
  254TMC3    C5 3903   4.736   2.127  16.259  0.5950  0.2543  0.6315
  254TMC3    C6 3904   4.611   2.139  16.315 -0.3905  0.4688  0.2985
  254TMC3     C 3905   4.692   2.360  15.969  0.5037 -0.1611 -0.1312
  254TMC3     O 3906   4.594   2.409  15.914 -0.6428 -0.8179 -0.6200
  254TMC3     H 3907   4.470   2.336  16.080 -1.0865 -2.8628 -1.9022
  254TMC3    H1 3908   0.114   2.165  16.083 -0.2586  0.9642  0.2130
  254TMC3    H2 3909   4.593   2.095  16.413 -2.3649 -0.7709 -0.6299
  254TMC3    C7 3910   0.094   2.076  16.349  0.2247 -0.1854  0.1676
  254TMC3    C8 3911   4.398   2.259  16.330  0.2621  0.5484 -0.1260
  254TMC3    O1 3912   0.068   2.077  16.469 -0.1552  0.0769 -0.3057
  254TMC3    O2 3913   4.382   2.209  16.443 -0.1215 -0.0621 -0.2793
  255MPD2     C 3914   2.246   0.200   9.948 -0.3220  0.2676  0.4779
  255MPD2    C1 3915   2.385   0.217   9.948 -0.4409 -0.6155 -0.2368
  255MPD2    C2 3916   2.443   0.286   9.834  0.1875 -0.2257 -0.7565
  255MPD2    C3 3917   2.368   0.329   9.727 -0.2647 -0.0392 -0.6984
  255MPD2    C4 3918   2.233   0.297   9.729 -0.4783 -0.0626 -0.4421
  255MPD2    C5 3919   2.176   0.233   9.835 -0.0780 -0.0767 -1.3672
  255MPD2     H 3920   2.548   0.312   9.836 -0.2597  1.5266 -0.2566
  255MPD2    H1 3921   2.160   0.340   9.661 -1.7617  1.3945  1.8742
  255MPD2    H2 3922   2.194   0.153  10.030  1.5809  0.2008  1.6335
  255MPD2    H3 3923   2.073   0.202   9.823 -0.4671  0.7519 -0.0874
  255MPD2     N 3924   2.423   0.404   9.622 -0.3216  0.5099  0.2459
  255MPD2    H5 3925   2.522   0.425   9.634 -0.0882 -0.1687 -0.4562
  255MPD2    N1 3926   2.459   0.165  10.054 -0.1777 -0.0828  0.3149
  255MPD2    H7 3927   2.412   0.132  10.137  1.3649  0.8160  1.5314
  256TMC3    C1 3928   2.646   0.174  10.192  0.2820  0.4997  0.0458
  256TMC3    C2 3929   2.778   0.197  10.211 -0.0504  0.4378  0.0399
  256TMC3    C3 3930   2.828   0.244  10.333  0.0181 -0.4442  0.4457
  256TMC3    C4 3931   2.557   0.211  10.289  0.3928  0.2568  0.0657
  256TMC3    C5 3932   2.612   0.277  10.396 -0.0458 -0.1625 -0.6346
  256TMC3    C6 3933   2.741   0.285  10.428  0.2086 -0.2652 -0.0371
  256TMC3     C 3934   2.598   0.166  10.060 -0.5585  0.0065 -0.0977
  256TMC3     O 3935   2.678   0.156   9.967  0.1182 -0.0013  0.0518
  256TMC3     H 3936   2.846   0.164  10.133 -2.4237 -0.1351 -1.7997
  256TMC3    H1 3937   2.449   0.204  10.281  0.6693 -2.0332 -1.4915
  256TMC3    H2 3938   2.784   0.306  10.525  1.3837  0.1073 -0.6349
  256TMC3    C7 3939   2.527   0.381  10.450  0.6688 -0.1092  0.1015
  256TMC3    C8 3940   2.938   0.341  10.331 -0.3150  0.0159 -0.2710
  256TMC3    O1 3941   2.405   0.367  10.440  0.1520  0.5519 -0.0673
  256TMC3    O2 3942   3.021   0.344  10.422  0.0429 -0.1637  0.0874
  257MPD2     C 3943   1.875   2.710  13.389 -0.1402  0.8794  0.2697
  257MPD2    C1 3944   1.757   2.641  13.373 -0.8819  0.3128  0.0954
  257MPD2    C2 3945   1.733   2.539  13.460 -0.7350  0.2793  0.9474
  257MPD2    C3 3946   1.817   2.503  13.566  0.3700  0.0160  0.2596
  257MPD2    C4 3947   1.943   2.561  13.564  0.4515 -0.1132  0.5008
  257MPD2    C5 3948   1.973   2.672  13.485 -0.2774 -0.2386 -0.3919
  257MPD2     H 3949   1.637   2.488  13.457  0.2407 -1.3650 -1.5898
  257MPD2    H1 3950   2.018   2.534  13.637 -0.0306 -1.3517  0.5245
  257MPD2    H2 3951   1.900   2.792  13.322 -0.9313 -0.3274 -1.5189
  257MPD2    H3 3952   2.066   2.726  13.498  0.8296 -2.0367 -0.9970
  257MPD2     N 3953   1.774   2.409  13.666  0.1184 -0.0484  0.2712
  257MPD2    H5 3954   1.687   2.361  13.647 -0.6500  0.7031  1.9355
  257MPD2    N1 3955   1.668   2.671  13.263 -0.0230 -0.3502 -0.3090
  257MPD2    H7 3956   1.700   2.735  13.191 -0.9443  1.1166  0.6108
  258TMC3    C1 3957   1.831   2.239  13.827  0.0130  0.1473  0.6472
  258TMC3    C2 3958   1.764   2.145  13.753  0.1794 -0.4544 -0.7423
  258TMC3    C3 3959   1.776   2.015  13.794 -0.1516  0.5168  0.4378
  258TMC3    C4 3960   1.904   2.213  13.943 -0.2317  0.2913 -0.0227
  258TMC3    C5 3961   1.901   2.081  13.987  0.5695 -0.5890  0.6179
  258TMC3    C6 3962   1.840   1.987  13.913 -0.0260  0.1186  0.3072
  258TMC3     C 3963   1.857   2.373  13.775 -0.1505  0.5720 -0.5157
  258TMC3     O 3964   1.962   2.424  13.810  0.2289  0.1538  0.6441
  258TMC3     H 3965   1.718   2.161  13.656 -1.1253 -0.4136 -0.1197
  258TMC3    H1 3966   1.955   2.293  13.995  0.4205 -0.1919  0.0816
  258TMC3    H2 3967   1.845   1.885  13.950  0.3927  0.2438  0.6086
  258TMC3    C7 3968   2.002   2.050  14.089 -0.1483  0.4101 -0.0820
  258TMC3    C8 3969   1.743   1.906  13.708  0.1383 -0.1578 -0.1671
  258TMC3    O1 3970   2.094   2.124  14.117  0.0410  0.1000  0.6221
  258TMC3    O2 3971   1.645   1.917  13.640  0.8306 -0.3357  0.7440
  259MPD2     C 3972   1.148   3.465   1.281  0.1842 -0.9039 -0.3074
  259MPD2    C1 3973   1.208   3.361   1.357 -0.0707 -0.3529 -0.7697
  259MPD2    C2 3974   1.285   3.275   1.281 -0.1982 -0.1698  0.3507
  259MPD2    C3 3975   1.304   3.292   1.146 -0.0641 -0.2663  0.2240
  259MPD2    C4 3976   1.238   3.391   1.074 -0.6079 -0.2561 -0.0112
  259MPD2    C5 3977   1.162   3.476   1.147 -0.1060  0.5464  0.4163
  259MPD2     H 3978   1.340   3.191   1.324  0.3764 -1.2210 -2.4886
  259MPD2    H1 3979   1.242   3.404   0.966 -0.8206 -1.2786 -0.1421
  259MPD2    H2 3980   1.081   3.537   1.326  2.3936  0.3719  0.9803
  259MPD2    H3 3981   1.123   3.557   1.087 -1.0715  0.0568  0.3784
  259MPD2     N 3982   1.408   3.214   1.097  0.4229  0.3561 -0.3138
  259MPD2    H5 3983   1.461   3.169   1.170 -0.3677 -0.1774 -0.0633
  259MPD2    N1 3984   1.193   3.353   1.494  0.6575  0.2399  0.2507
  259MPD2    H7 3985   1.144   3.427   1.544 -0.4362 -0.4593  0.2120
  260TMC3    C1 3986   1.596   3.158   0.945  0.5201  0.3052  0.4461
  260TMC3    C2 3987   1.652   3.179   0.818  0.2337 -0.1028  0.1843
  260TMC3    C3 3988   1.771   3.107   0.791 -0.5103 -0.7953  0.3054
  260TMC3    C4 3989   1.662   3.092   1.042  0.6368  0.2216 -0.1257
  260TMC3    C5 3990   1.775   3.025   1.009  0.2835 -0.2289 -0.2128
  260TMC3    C6 3991   1.833   3.032   0.885  0.5116 -0.3419 -0.2582
  260TMC3     C 3992   1.462   3.219   0.970  0.6988 -0.5581 -0.5880
  260TMC3     O 3993   1.422   3.285   0.873  0.3779 -0.1484 -1.1787
  260TMC3     H 3994   1.598   3.218   0.732  0.6195  0.8616  0.3826
  260TMC3    H1 3995   1.617   3.077   1.140 -0.1601  1.9126 -0.2310
  260TMC3    H2 3996   1.927   2.980   0.867  0.8108  0.7213 -1.7453
  260TMC3    C7 3997   1.839   2.933   1.096 -0.2989 -0.3137  0.1160
  260TMC3    C8 3998   1.825   3.118   0.655  0.2801  0.9442  0.3016
  260TMC3    O1 3999   1.959   2.956   1.102 -0.0659 -0.1511  0.3166
  260TMC3    O2 4000   1.836   3.231   0.607  0.3398  0.4767 -0.4142
  261MPD2     C 4001   2.131   2.210  12.219  0.4246  0.4314 -0.4963
  261MPD2    C1 4002   2.255   2.256  12.242 -0.1104 -0.5524 -0.2863
  261MPD2    C2 4003   2.295   2.364  12.165 -1.2984 -0.2673  0.3918
  261MPD2    C3 4004   2.216   2.412  12.055 -0.3139  0.0088 -0.1956
  261MPD2    C4 4005   2.086   2.370  12.042 -0.0671  0.4832  0.1109
  261MPD2    C5 4006   2.057   2.259  12.113 -0.1025 -0.3842 -0.3531
  261MPD2     H 4007   2.394   2.407  12.174 -1.2789  0.1100 -1.6244
  261MPD2    H1 4008   2.015   2.399  11.964  1.0137  0.2258 -0.9625
  261MPD2    H2 4009   2.099   2.121  12.274  0.3860  1.3097  0.8952
  261MPD2    H3 4010   1.970   2.204  12.077 -0.8982 -0.7427  2.1716
  261MPD2     N 4011   2.264   2.519  11.985 -0.0801  0.3931 -0.4175
  261MPD2    H5 4012   2.353   2.559  12.012  0.7651 -1.1227 -0.9463
  261MPD2    N1 4013   2.349   2.207  12.333  0.1284 -0.4391  0.2290
  261MPD2    H7 4014   2.432   2.265  12.340 -1.5547  1.8699  1.2600
  262TMC3    C1 4015   2.263   2.689  11.824  0.1084 -0.0721  0.5653
  262TMC3    C2 4016   2.172   2.778  11.777  0.3689 -0.3393  0.3015
  262TMC3    C3 4017   2.218   2.888  11.692 -0.8240  0.0065 -0.4190
  262TMC3    C4 4018   2.391   2.694  11.781 -0.0617  0.5308 -0.1856
  262TMC3    C5 4019   2.431   2.801  11.700 -0.1330  0.5828 -0.0220
  262TMC3    C6 4020   2.347   2.897  11.657 -0.2425  0.0554  0.5859
  262TMC3     C 4021   2.203   2.573  11.874 -0.0693 -0.2235 -0.5439
  262TMC3     O 4022   2.095   2.549  11.815 -0.0571 -0.3966  0.2497
  262TMC3     H 4023   2.071   2.761  11.811 -0.2087  0.1343 -1.1794
  262TMC3    H1 4024   2.462   2.617  11.811  0.2435  0.5178 -0.9502
  262TMC3    H2 4025   2.372   2.967  11.577 -0.2163 -0.6321 -0.0038
  262TMC3    C7 4026   2.569   2.805  11.664  0.1213 -0.4686 -0.0963
  262TMC3    C8 4027   2.124   2.995  11.675  0.1358 -0.1927 -0.2391
  262TMC3    O1 4028   2.623   2.695  11.684 -0.0435  0.2716 -0.2540
  262TMC3    O2 4029   2.181   3.100  11.676  0.2635 -0.2716  0.0032
  263MPD2     C 4030   3.523   1.653  11.845 -0.1496  0.2667 -0.3007
  263MPD2    C1 4031   3.629   1.681  11.765  0.3494 -0.2241  0.4216
  263MPD2    C2 4032   3.613   1.766  11.657  0.4967  0.6281  0.2091
  263MPD2    C3 4033   3.489   1.825  11.625  0.2114  0.5690  0.0275
  263MPD2    C4 4034   3.379   1.786  11.701 -0.4187 -0.3691 -0.3621
  263MPD2    C5 4035   3.399   1.710  11.813  0.6791  0.0254 -0.0211
  263MPD2     H 4036   3.697   1.800  11.598  0.3551  1.1420  0.2976
  263MPD2    H1 4037   3.279   1.827  11.693  0.1831  1.0380 -0.5187
  263MPD2    H2 4038   3.551   1.593  11.931 -0.9441 -0.6875 -0.7181
  263MPD2    H3 4039   3.309   1.704  11.873 -0.6935  3.4576 -1.7670
  263MPD2     N 4040   3.482   1.917  11.520 -0.8019  0.5656 -0.1641
  263MPD2    H5 4041   3.568   1.949  11.477 -1.0791  1.2158 -0.2387
  263MPD2    N1 4042   3.751   1.622  11.795 -0.3982  0.4466 -0.3427
  263MPD2    H7 4043   3.752   1.564  11.878 -0.1401  0.1566 -0.5473
  264TMC3    C1 4044   3.386   2.081  11.370 -0.1254 -0.1590  0.5250
  264TMC3    C2 4045   3.279   2.166  11.353  0.5877 -0.4412 -0.7957
  264TMC3    C3 4046   3.276   2.257  11.252 -0.5076 -0.1647 -0.5380
  264TMC3    C4 4047   3.489   2.087  11.277 -0.3793  0.4334  0.2721
  264TMC3    C5 4048   3.476   2.182  11.179  0.5386 -0.0464  0.4945
  264TMC3    C6 4049   3.374   2.266  11.159 -0.5060 -0.0643 -0.3417
  264TMC3     C 4050   3.372   1.980  11.478  0.2679 -0.4493 -0.7169
  264TMC3     O 4051   3.259   1.972  11.520 -0.0823 -0.3067  0.2421
  264TMC3     H 4052   3.202   2.183  11.427 -1.4662 -3.7624 -2.1889
  264TMC3    H1 4053   3.567   2.012  11.277 -0.3712  0.4419 -0.0466
  264TMC3    H2 4054   3.354   2.337  11.079  1.4341 -0.7090 -1.4019
  264TMC3    C7 4055   3.593   2.211  11.099  0.1290  0.5061  0.1438
  264TMC3    C8 4056   3.158   2.343  11.233  0.2536 -0.8065 -0.5994
  264TMC3    O1 4057   3.570   2.277  11.000  0.2160  0.1370 -0.1933
  264TMC3    O2 4058   3.092   2.331  11.131  0.3780  0.7867  0.5894
  265MPD2     C 4059   0.670   1.981  15.493  0.5287  0.1773  0.4861
  265MPD2    C1 4060   0.733   1.903  15.586  0.6281  0.1366 -0.3629
  265MPD2    C2 4061   0.807   1.794  15.548  0.1463  0.7893 -0.0428
  265MPD2    C3 4062   0.832   1.785  15.413 -1.0308  0.5044  0.3607
  265MPD2    C4 4063   0.795   1.888  15.328  0.1218 -0.1605  0.8220
  265MPD2    C5 4064   0.697   1.970  15.361  0.1607 -0.0578 -0.3753
  265MPD2     H 4065   0.860   1.731  15.618 -0.5558  1.6105  1.2254
  265MPD2    H1 4066   0.812   1.887  15.220 -0.0224  3.8457  0.7648
  265MPD2    H2 4067   0.592   2.049  15.525 -0.3946 -1.4726  1.7431
  265MPD2    H3 4068   0.643   2.029  15.289 -1.5373 -0.4179  0.6034
  265MPD2     N 4069   0.916   1.691  15.361  0.1153  0.1743 -0.3536
  265MPD2    H5 4070   0.929   1.703  15.261 -3.6158  1.5180 -0.6893
  265MPD2    N1 4071   0.717   1.926  15.728  0.2228  0.1849  0.4597
  265MPD2    H7 4072   0.775   1.873  15.792  0.1248 -1.3166 -0.6838
  266TMC3    C1 4073   0.635   2.037  15.930 -0.9162  0.6722 -0.1590
  266TMC3    C2 4074   0.757   2.047  15.981 -0.3410  0.0267 -0.2611
  266TMC3    C3 4075   0.777   2.133  16.086 -0.1877  0.1750  0.2216
  266TMC3    C4 4076   0.525   2.094  15.991  0.2474 -0.0804  0.5608
  266TMC3    C5 4077   0.548   2.181  16.098  0.1195 -0.7558  0.0720
  266TMC3    C6 4078   0.675   2.200  16.147 -0.4740 -0.3050 -0.1683
  266TMC3     C 4079   0.624   2.012  15.786  0.7110 -0.0115  1.0863
  266TMC3     O 4080   0.535   2.075  15.735 -0.6609  0.6922  0.0825
  266TMC3     H 4081   0.840   1.995  15.934  0.3118  1.2216 -0.4262
  266TMC3    H1 4082   0.430   2.082  15.941  0.9734 -1.5882 -0.4687
  266TMC3    H2 4083   0.700   2.267  16.228 -1.7076 -1.4003  1.1218
  266TMC3    C7 4084   0.440   2.274  16.135  0.0501  0.0415 -0.0386
  266TMC3    C8 4085   0.904   2.126  16.149 -0.1970 -0.0919 -0.2758
  266TMC3    O1 4086   0.325   2.240  16.113 -0.0433  0.0371 -0.1910
  266TMC3    O2 4087   0.958   2.018  16.144  0.0296  0.2759 -0.0963
  267MPD2     C 4088   4.204   3.572  17.597  0.9566  0.3273 -0.2025
  267MPD2    C1 4089   4.112   3.508  17.675 -0.3551  0.5129  0.0667
  267MPD2    C2 4090   4.009   3.451  17.611 -0.1321  0.0386 -0.1308
  267MPD2    C3 4091   4.005   3.452  17.475 -0.1049  0.9161 -0.0898
  267MPD2    C4 4092   4.103   3.513  17.398  0.5326  0.3064 -0.2136
  267MPD2    C5 4093   4.201   3.566  17.466 -0.5415  0.5129 -1.1308
  267MPD2     H 4094   3.935   3.408  17.677  1.2644 -1.1030  0.6701
  267MPD2    H1 4095   4.101   3.498  17.291 -0.2255  0.2038 -0.1852
  267MPD2    H2 4096   4.273   3.642  17.642 -1.2148  0.9021  2.2344
  267MPD2    H3 4097   4.276   3.608  17.399  0.8001 -0.4278 -0.2083
  267MPD2     N 4098   3.903   3.388  17.402 -0.2775  0.0014  0.7044
  267MPD2    H5 4099   3.911   3.401  17.301 -1.1970  2.3129  0.9272
  267MPD2    N1 4100   4.119   3.520   0.054 -0.6426  0.1263  0.1427
  267MPD2    H7 4101   4.206   3.556   0.092  0.8896 -1.1357 -2.1913
  268TMC3    C1 4102   4.106   3.459   0.283 -0.5456  0.2407  0.1316
  268TMC3    C2 4103   4.204   3.545   0.321 -1.0501 -0.2065  0.5000
  268TMC3    C3 4104   4.272   3.517   0.431 -0.1310 -0.2410  0.1829
  268TMC3    C4 4105   4.070   3.353   0.360 -0.8211  0.5565  0.1539
  268TMC3    C5 4106   4.131   3.337   0.476 -0.6280 -0.0084 -0.1326
  268TMC3    C6 4107   4.232   3.415   0.517  0.2855 -0.3635  0.1428
  268TMC3     C 4108   4.030   3.478   0.153 -0.0425  0.0963 -0.3166
  268TMC3     O 4109   3.923   3.417   0.138  0.5350 -0.3069  0.3697
  268TMC3     H 4110   4.197   3.646   0.282 -0.3559 -0.4675 -0.3098
  268TMC3    H1 4111   4.004   3.279   0.315 -1.9772  0.3820  2.1261
  268TMC3    H2 4112   4.284   3.407   0.612 -0.5727 -0.9169  0.5703
  268TMC3    C7 4113   4.079   3.248   0.579 -0.3578  0.1256 -0.0811
  268TMC3    C8 4114   4.360   3.627   0.481 -0.2718 -0.6969  0.5179
  268TMC3    O1 4115   4.149   3.228   0.678 -0.2886  0.3622 -0.2893
  268TMC3    O2 4116   4.378   3.647   0.603 -0.7581  0.0001  0.8501
  269MPD2     C 4117   4.043   2.526  15.822  0.9484  0.7308  0.4440
  269MPD2    C1 4118   3.916   2.577  15.830 -0.1990  0.2575  1.0843
  269MPD2    C2 4119   3.889   2.714  15.836  0.8922 -0.2520 -0.1850
  269MPD2    C3 4120   3.998   2.801  15.828  0.2685 -0.3712  0.0492
  269MPD2    C4 4121   4.126   2.748  15.822 -0.1494 -0.7245  0.6716
  269MPD2    C5 4122   4.147   2.610  15.813  0.1051  0.0432  0.0148
  269MPD2     H 4123   3.790   2.754  15.852  1.8414  1.2908  1.9502
  269MPD2    H1 4124   4.203   2.823  15.804  0.0067 -1.0459  0.0239
  269MPD2    H2 4125   4.056   2.418  15.819 -3.2845  0.2327  0.6110
  269MPD2    H3 4126   4.236   2.560  15.774 -0.4991 -0.1340 -1.1403
  269MPD2     N 4127   3.969   2.937  15.836  0.5232  0.0485  0.3574
  269MPD2    H5 4128   3.871   2.963  15.846  0.3272 -0.5799  0.0885
  269MPD2    N1 4129   3.813   2.477  15.833  0.2373 -0.4532 -0.5890
  269MPD2    H7 4130   3.843   2.381  15.824  2.1003  0.1559 -0.9249
  270TMC3    C1 4131   3.598   2.384  15.830  0.1240 -0.3900  0.0548
  270TMC3    C2 4132   3.476   2.381  15.757  0.5889  0.1550 -0.5473
  270TMC3    C3 4133   3.421   2.257  15.730 -1.2615 -0.4173 -0.2748
  270TMC3    C4 4134   3.648   2.266  15.882  0.0096  0.1304  0.5776
  270TMC3    C5 4135   3.574   2.153  15.868  0.4634  0.2190  0.7980
  270TMC3    C6 4136   3.457   2.142  15.794  0.4197  0.4147 -0.3850
  270TMC3     C 4137   3.680   2.506  15.814  0.2576 -0.1618  0.3456
  270TMC3     O 4138   3.626   2.611  15.786  0.4490 -0.1874 -0.3349
  270TMC3     H 4139   3.443   2.468  15.701 -0.9897  0.9911  1.6790
  270TMC3    H1 4140   3.739   2.274  15.940  0.6060  0.7065 -0.4282
  270TMC3    H2 4141   3.408   2.047  15.772  3.7807 -1.2509 -0.6986
  270TMC3    C7 4142   3.646   2.034  15.903  0.1226  0.2886  0.4547
  270TMC3    C8 4143   3.366   2.243  15.598 -0.3531  0.2472  0.4331
  270TMC3    O1 4144   3.767   2.040  15.894  0.1246 -0.0910 -0.0841
  270TMC3    O2 4145   3.349   2.345  15.533  0.0566 -1.0831 -0.4327
  271MPD2     C 4146   2.919   2.613  14.183 -0.0125 -0.9454  0.6948
  271MPD2    C1 4147   2.869   2.566  14.302  0.1579 -0.4917  0.3437
  271MPD2    C2 4148   2.742   2.601  14.338 -0.3705  0.5231 -0.2998
  271MPD2    C3 4149   2.664   2.682  14.253  0.1874  0.1809 -0.5711
  271MPD2    C4 4150   2.712   2.702  14.123 -0.0526  0.1643 -0.1731
  271MPD2    C5 4151   2.838   2.669  14.090  0.6093 -0.8638  0.6317
  271MPD2     H 4152   2.710   2.559  14.433 -0.9639  0.4315 -0.5400
  271MPD2    H1 4153   2.647   2.752  14.052 -0.1641  0.5110  0.1697
  271MPD2    H2 4154   3.016   2.583  14.145 -0.6101  1.3595 -2.7220
  271MPD2    H3 4155   2.874   2.698  13.992  0.1345 -0.2632  0.6323
  271MPD2     N 4156   2.532   2.725  14.276 -0.1781  0.2054 -0.3292
  271MPD2    H5 4157   2.481   2.773  14.203 -2.9681 -0.8289  0.9365
  271MPD2    N1 4158   2.941   2.478  14.389 -0.3922 -0.0577  0.0505
  271MPD2    H7 4159   2.901   2.469  14.482 -1.7680  0.1624 -0.5120
  272TMC3    C1 4160   3.119   2.336  14.463 -0.0330 -0.0730 -0.1152
  272TMC3    C2 4161   3.208   2.238  14.419  0.0839  0.2966  0.4172
  272TMC3    C3 4162   3.242   2.134  14.510 -0.4906  1.1905 -0.4821
  272TMC3    C4 4163   3.060   2.333  14.585 -0.7467  0.1927  0.4249
  272TMC3    C5 4164   3.090   2.228  14.666 -0.3125 -0.3744 -0.5706
  272TMC3    C6 4165   3.179   2.128  14.633  0.2560 -0.3323  0.4786
  272TMC3     C 4166   3.059   2.421  14.359 -0.2435  0.4384  0.8206
  272TMC3     O 4167   3.101   2.404  14.246  0.5938  0.1793 -0.1884
  272TMC3     H 4168   3.253   2.232  14.320 -0.5669 -2.7243  0.3262
  272TMC3    H1 4169   3.008   2.417  14.631 -0.5338 -2.0598  4.7681
  272TMC3    H2 4170   3.199   2.049  14.705  0.6709 -1.2221 -0.6012
  272TMC3    C7 4171   3.042   2.224  14.805  0.3220 -0.2529 -0.3823
  272TMC3    C8 4172   3.342   2.041  14.462  1.1341  0.6894 -0.2400
  272TMC3    O1 4173   3.032   2.107  14.843 -0.0721  0.0945  0.3200
  272TMC3    O2 4174   3.369   2.044  14.344 -0.6782  0.0713 -0.5546
  273MPD2     C 4175   3.910   0.156  11.607  0.4962  0.1640 -0.6289
  273MPD2    C1 4176   3.996   0.254  11.634 -0.8856  0.3156  0.6531
  273MPD2    C2 4177   4.040   0.325  11.528 -0.6710 -0.4641 -0.0594
  273MPD2    C3 4178   3.993   0.297  11.400 -0.1983  0.1232  0.7036
  273MPD2    C4 4179   3.897   0.205  11.375  0.3478  0.1653  0.8310
  273MPD2    C5 4180   3.852   0.132  11.484  0.2360 -0.1987  0.2291
  273MPD2     H 4181   4.115   0.403  11.534 -1.4945  0.2644  0.9132
  273MPD2    H1 4182   3.867   0.173  11.276 -1.8001 -0.2469  1.6155
  273MPD2    H2 4183   3.872   0.091  11.684 -1.7388  0.6953 -1.2809
  273MPD2    H3 4184   3.783   0.049  11.488  2.3737 -2.0131 -0.6125
  273MPD2     N 4185   4.036   0.375  11.286  0.2234 -0.2008 -0.6528
  273MPD2    H5 4186   3.992   0.355  11.197 -0.0269 -0.7886 -0.4004
  273MPD2    N1 4187   4.031   0.291  11.770 -0.0453  0.0993 -0.3670
  273MPD2    H7 4188   3.984   0.242  11.846  0.5065 -0.5045 -0.4224
  274TMC3    C1 4189   4.101   0.579  11.172  0.1715  0.2651 -0.3690
  274TMC3    C2 4190   3.967   0.602  11.131 -0.5234  0.5186  0.6255
  274TMC3    C3 4191   3.942   0.734  11.091  0.4462 -0.2824  0.0016
  274TMC3    C4 4192   4.193   0.678  11.175 -0.4964 -0.3345  0.2359
  274TMC3    C5 4193   4.156   0.811  11.150  0.2646  0.1913 -0.0248
  274TMC3    C6 4194   4.037   0.834  11.095 -0.2962  0.6828 -0.2272
  274TMC3     C 4195   4.109   0.493  11.289  0.6217  0.6924  0.3241
  274TMC3     O 4196   4.175   0.548  11.378  0.2137  0.3357  0.3489
  274TMC3     H 4197   3.887   0.538  11.167 -1.3113  0.6926 -0.8407
  274TMC3    H1 4198   4.297   0.653  11.191 -0.3937 -0.5508 -0.7318
  274TMC3    H2 4199   3.988   0.930  11.088  0.8021  1.3672  1.6146
  274TMC3    C7 4200   4.194   0.904  11.255  0.0718  0.3867 -0.0310
  274TMC3    C8 4201   3.813   0.762  11.033 -0.2807  0.4454  0.5969
  274TMC3    O1 4202   4.174   1.025  11.238 -0.1202  0.4356 -0.8234
  274TMC3    O2 4203   3.811   0.875  10.986 -0.2295 -0.1924  0.1280
  275MPD2     C 4204   4.279   3.675  14.305  0.1249  0.5515  0.3689
  275MPD2    C1 4205   4.271   3.643  14.440  0.2211  0.4381 -0.0168
  275MPD2    C2 4206   4.151   3.588  14.480 -0.8374 -0.5204  0.3764
  275MPD2    C3 4207   4.050   3.566  14.393  0.0934 -0.8978 -0.7043
  275MPD2    C4 4208   4.062   3.610  14.262  0.5031 -0.3496  0.1819
  275MPD2    C5 4209   4.178   3.654  14.216  0.9065  0.4172 -0.1127
  275MPD2     H 4210   4.140   3.558  14.584  1.1390 -0.2135  0.6698
  275MPD2    H1 4211   3.985   3.597  14.187 -0.1128 -1.3327  0.9743
  275MPD2    H2 4212   4.368   3.717  14.261 -0.5845  1.4034 -0.2574
  275MPD2    H3 4213   4.198   3.687  14.114  0.8962 -0.9013 -0.5405
  275MPD2     N 4214   3.928   3.513  14.437 -0.2253 -0.0331  0.0633
  275MPD2    H5 4215   3.862   3.487  14.363 -1.1073 -1.1542  1.2486
  275MPD2    N1 4216   4.374   3.662  14.537  0.7859  0.0037  0.5233
  275MPD2    H7 4217   4.341   3.654  14.633 -2.6397 -0.7368 -0.7058
  276TMC3    C1 4218   4.574   3.715  14.633  0.0996  0.5549  0.0558
  276TMC3    C2 4219   4.690   3.643  14.619  1.1425  0.0745 -0.3014
  276TMC3    C3 4220   0.008   3.584  14.733 -0.5884 -0.1741  0.1536
  276TMC3    C4 4221   4.511   3.722  14.751 -0.2572  0.0946 -0.7862
  276TMC3    C5 4222   4.573   3.655  14.862 -0.3429  0.2789 -0.6204
  276TMC3    C6 4223   4.693   3.598  14.854 -0.1913 -0.5406 -0.0679
  276TMC3     C 4224   4.492   3.727  14.515 -0.0328 -0.1954  0.7085
  276TMC3     O 4225   4.554   3.736  14.414 -0.1123 -0.0310  0.7995
  276TMC3     H 4226   0.009   3.644  14.528  1.1700  1.4361 -0.2688
  276TMC3    H1 4227   4.414   3.768  14.767 -0.8201 -1.3868  0.0514
  276TMC3    H2 4228   4.729   3.541  14.939 -0.7636  1.2399  1.3676
  276TMC3    C7 4229   4.504   3.664  14.989  0.4702  0.0416  0.0513
  276TMC3    C8 4230   0.101   3.469  14.702 -0.8143  0.1976 -0.2801
  276TMC3    O1 4231   4.528   3.585  15.081  0.2230  0.8487 -0.7382
  276TMC3    O2 4232   0.201   3.495  14.633  0.0836 -0.4721 -0.2606
  277MPD2     C 4233   1.391   2.503  13.804 -0.5109 -0.1017 -0.4671
  277MPD2    C1 4234   1.262   2.477  13.762  0.3344 -0.7780  0.0039
  277MPD2    C2 4235   1.202   2.361  13.796 -1.3109 -0.2265  0.3430
  277MPD2    C3 4236   1.258   2.265  13.876 -0.2381 -0.1829  0.1231
  277MPD2    C4 4237   1.388   2.289  13.912 -0.0742  0.1032 -0.7355
  277MPD2    C5 4238   1.453   2.409  13.874  0.2196  0.2257 -0.1724
  277MPD2     H 4239   1.096   2.344  13.779 -1.5445  3.8238 -2.1054
  277MPD2    H1 4240   1.436   2.213  13.974 -0.0716  0.7288  0.0350
  277MPD2    H2 4241   1.439   2.595  13.772 -1.6415 -0.4844 -3.2037
  277MPD2    H3 4242   1.552   2.430  13.912 -0.0306  1.3820 -0.1878
  277MPD2     N 4243   1.172   2.161  13.909 -0.3607 -0.7082  0.5128
  277MPD2    H5 4244   1.078   2.161  13.871 -0.7191  1.0349  1.4004
  277MPD2    N1 4245   1.199   2.579  13.692 -0.1933 -0.3342  0.7470
  277MPD2    H7 4246   1.242   2.670  13.681  1.7022 -1.2504  0.6221
  278TMC3    C1 4247   1.074   2.013  14.055  0.1920 -0.2775  0.3324
  278TMC3    C2 4248   1.060   1.875  14.067 -0.3404  0.7878 -0.1961
  278TMC3    C3 4249   0.937   1.821  14.062  0.3352  0.6718  0.3524
  278TMC3    C4 4250   0.960   2.094  14.043  1.0102 -1.0174  0.7869
  278TMC3    C5 4251   0.839   2.031  14.059  0.2159 -0.5110  0.5805
  278TMC3    C6 4252   0.821   1.894  14.062 -0.4764  0.7616 -0.7257
  278TMC3     C 4253   1.199   2.064  14.005 -0.2683  0.3978 -0.3486
  278TMC3     O 4254   1.300   2.008  14.045  0.0253 -1.3522  0.3696
  278TMC3     H 4255   1.151   1.817  14.077 -0.4503  0.3981 -1.5786
  278TMC3    H1 4256   0.980   2.201  14.040 -0.0401 -0.8512 -0.1934
  278TMC3    H2 4257   0.721   1.854  14.073 -0.5499  0.8233 -1.1669
  278TMC3    C7 4258   0.724   2.115  14.030 -0.7421 -0.7331 -0.4970
  278TMC3    C8 4259   0.925   1.676  14.070 -0.2376  0.3290  0.0964
  278TMC3    O1 4260   0.750   2.231  14.018  0.1540  0.0275  0.0886
  278TMC3    O2 4261   1.010   1.623  14.138 -0.5104  0.7524  0.6518
  279MPD2     C 4262   0.766   1.862   0.535  0.1255 -0.1976  0.2404
  279MPD2    C1 4263   0.688   1.940   0.621 -0.3743 -0.3656 -1.2614
  279MPD2    C2 4264   0.614   2.051   0.574 -0.2487  0.3205 -0.4624
  279MPD2    C3 4265   0.621   2.074   0.439  0.0308 -0.2955  0.1187
  279MPD2    C4 4266   0.701   1.988   0.362  0.0446  0.1730  0.2945
  279MPD2    C5 4267   0.768   1.881   0.403 -0.0458 -0.5683  0.1323
  279MPD2     H 4268   0.560   2.117   0.642 -0.6276 -0.7001  0.2331
  279MPD2    H1 4269   0.699   1.995   0.254  0.5222 -1.2026  0.2046
  279MPD2    H2 4270   0.824   1.788   0.590  0.1529  0.3410  0.9449
  279MPD2    H3 4271   0.822   1.820   0.331  0.5663  1.1516 -0.8635
  279MPD2     N 4272   0.562   2.183   0.372 -0.0087  0.2726 -0.1936
  279MPD2    H5 4273   0.604   2.196   0.280 -0.2155  0.2807 -0.2863
  279MPD2    N1 4274   0.683   1.893   0.756  0.3399 -0.3746 -0.7736
  279MPD2    H7 4275   0.757   1.827   0.776 -0.3265 -0.6467  0.8481
  280TMC3    C1 4276   0.476   1.980   0.842  0.6252  0.5202 -0.2139
  280TMC3    C2 4277   0.400   1.914   0.749  0.3301 -0.0683  0.1402
  280TMC3    C3 4278   0.271   1.946   0.743  0.3129  0.7023 -0.0004
  280TMC3    C4 4279   0.428   2.073   0.930 -1.2239  0.6431 -0.0801
  280TMC3    C5 4280   0.295   2.092   0.924  0.3932 -0.1970 -0.4889
  280TMC3    C6 4281   0.217   2.029   0.831 -0.7271 -0.0590  0.6272
  280TMC3     C 4282   0.612   1.940   0.858  0.2004  0.1038 -0.6712
  280TMC3     O 4283   0.643   1.927   0.972 -0.0108  0.0892 -0.1792
  280TMC3     H 4284   0.446   1.830   0.699 -1.7377 -1.0071 -0.1775
  280TMC3    H1 4285   0.489   2.132   0.998 -0.8835  0.6338 -0.3806
  280TMC3    H2 4286   0.112   2.053   0.823 -0.1105  2.7249  0.7425
  280TMC3    C7 4287   0.262   2.225   0.962  0.0936  0.4261 -0.6302
  280TMC3    C8 4288   0.175   1.848   0.696  0.4032  0.3805 -0.6922
  280TMC3    O1 4289   0.303   2.262   1.071  0.5242 -0.0885 -0.4887
  280TMC3    O2 4290   0.066   1.844   0.754  0.4528 -0.4933 -0.5705
  281TMC3    C1 4291   3.736   2.736  13.764 -0.6993  0.3091 -0.2255
  281TMC3    C2 4292   3.721   2.768  13.630 -0.3502  0.3485 -0.2653
  281TMC3    C3 4293   3.680   2.660  13.550  0.5057 -0.0287 -0.2690
  281TMC3    C4 4294   3.719   2.607  13.806  0.6721  0.0221  0.4311
  281TMC3    C5 4295   3.673   2.507  13.725 -0.5490  0.1613  0.6598
  281TMC3    C6 4296   3.645   2.538  13.598  0.0392 -0.8558  0.0626
  281TMC3     C 4297   3.691   2.837  13.856 -0.1159 -0.0301  0.1622
  281TMC3     O 4298   3.668   2.807  13.973 -0.0893  0.5931 -0.1015
  281TMC3     H 4299   3.733   2.869  13.590  0.9496  0.2203 -0.1742
  281TMC3    H1 4300   3.723   2.585  13.912  1.9778  2.7096  0.9297
  281TMC3    H2 4301   3.608   2.462  13.530  0.3843  0.6595 -1.8420
  281TMC3    C7 4302   3.632   2.376  13.769  0.4507  0.5544 -0.0378
  281TMC3    C8 4303   3.662   2.679  13.403  0.7758  0.4163  0.2645
  281TMC3    O1 4304   3.698   2.327  13.859  0.1440 -0.0856  0.9231
  281TMC3    O2 4305   3.604   2.596  13.337 -0.2306 -0.3702  0.0059
  282MPD2     C 4306   1.223   3.894  15.142 -0.1459  0.4734  0.2757
  282MPD2    C1 4307   1.087   3.930  15.139 -0.1524  0.5899 -0.6466
  282MPD2    C2 4308   1.018   3.937  15.019  0.1875  0.2333  0.1760
  282MPD2    C3 4309   1.077   3.909  14.900 -0.7367 -0.0974  0.1727
  282MPD2    C4 4310   1.210   3.872  14.906  0.2548  0.0105 -0.2761
  282MPD2    C5 4311   1.282   3.870  15.021  0.3729 -0.2719  0.3602
  282MPD2     H 4312   0.913   3.964  15.016 -0.1971 -1.3793 -0.8438
  282MPD2    H1 4313   1.265   3.853  14.815  1.0392  0.4776  0.1017
  282MPD2    H2 4314   1.282   3.884  15.233 -3.0032  0.1869  2.0983
  282MPD2    H3 4315   1.385   3.838  15.010  0.4265 -0.3893  1.1722
  282MPD2     N 4316   1.006   3.928  14.781  0.0585 -0.1745  0.1140
  282MPD2    H5 4317   0.912   3.966  14.784  0.5231  1.3351 -4.2688
  282MPD2    N1 4318   1.022   3.934  15.266  0.1049  0.1718  0.1203
  282MPD2    H7 4319   0.925   3.965  15.273 -0.1184 -0.6470  0.5633
  283TMC3    C1 4320   0.966   3.897  15.494  0.0971 -1.1454  0.5787
  283TMC3    C2 4321   0.910   4.023  15.513  0.5214  0.9476 -0.3543
  283TMC3    C3 4322   0.846   4.052  15.630  0.2758 -0.1601  0.5666
  283TMC3    C4 4323   0.954   3.793  15.582  0.4592 -0.4205  0.2152
  283TMC3    C5 4324   0.892   3.829  15.696  0.5006  0.4641 -0.3040
  283TMC3    C6 4325   0.844   3.953  15.726 -0.4161  0.4848  0.0059
  283TMC3     C 4326   1.059   3.872  15.385 -0.1802 -0.5509  0.0136
  283TMC3     O 4327   1.145   3.785  15.413 -0.1952  0.1807  0.6835
  283TMC3     H 4328   0.930   4.108  15.448 -2.2081  1.5929 -0.3256
  283TMC3    H1 4329   1.017   3.705  15.578 -1.7184 -1.9052 -1.5750
  283TMC3    H2 4330   0.781   3.972  15.812  1.1642  1.0095  1.0444
  283TMC3    C7 4331   0.817   3.738  15.778  0.4640 -0.5454 -0.0327
  283TMC3    C8 4332   0.821   4.189  15.683 -0.5792  0.3738  0.2191
  283TMC3    O1 4333   0.804   3.764  15.897 -0.2488  0.2497  0.6296
  283TMC3    O2 4334   0.840   4.209  15.806  0.6563 -0.4081  0.6662
  284MPD2     C 4335   3.230   3.115  12.507  0.9688 -0.0265 -0.5132
  284MPD2    C1 4336   3.298   3.085  12.387  0.5073 -0.9288  0.3354
  284MPD2    C2 4337   3.296   2.957  12.346 -0.0280 -0.9590  0.7497
  284MPD2    C3 4338   3.249   2.856  12.427  0.0203  0.1887  0.1049
  284MPD2    C4 4339   3.192   2.884  12.553  0.1598  0.0697  0.3862
  284MPD2    C5 4340   3.173   3.017  12.586 -0.5470  0.7700  0.0383
  284MPD2     H 4341   3.343   2.935  12.250 -1.1699  0.4082 -0.1236
  284MPD2    H1 4342   3.169   2.808  12.627 -0.8481 -0.0909 -0.0852
  284MPD2    H2 4343   3.222   3.216  12.545 -0.8257 -0.5987  0.6318
  284MPD2    H3 4344   3.134   3.031  12.686 -0.1251 -0.3525  0.3620
  284MPD2     N 4345   3.295   2.730  12.382  0.2297 -0.6433  0.0350
  284MPD2    H5 4346   3.339   2.720  12.291  1.7677  0.9889  0.5906
  284MPD2    N1 4347   3.358   3.169  12.287 -0.0176 -0.1728  0.0634
  284MPD2    H7 4348   3.404   3.122  12.209  0.0998  0.7743 -0.4391
  285TMC3    C1 4349   3.438   3.358  12.167  0.2174  0.0046  0.4661
  285TMC3    C2 4350   3.509   3.270  12.088  0.3146 -0.0489  1.1554
  285TMC3    C3 4351   3.615   3.317  12.010  0.3719 -0.2017 -0.5563
  285TMC3    C4 4352   3.469   3.492  12.147  0.1185 -0.3314 -0.0737
  285TMC3    C5 4353   3.567   3.534  12.063  0.2700 -0.9111 -0.1124
  285TMC3    C6 4354   3.646   3.448  11.998 -0.1501 -0.1899  0.1719
  285TMC3     C 4355   3.366   3.306  12.286  0.8663 -0.1070 -0.6782
  285TMC3     O 4356   3.322   3.380  12.372  0.0471  0.0698 -0.3615
  285TMC3     H 4357   3.493   3.163  12.093  0.7199 -0.1434  0.3865
  285TMC3    H1 4358   3.400   3.563  12.190 -0.0248  0.4818 -1.6452
  285TMC3    H2 4359   3.712   3.472  11.915 -1.3958 -0.4961 -0.9176
  285TMC3    C7 4360   3.544   3.655  11.988 -0.8744 -1.1833  0.0083
  285TMC3    C8 4361   3.697   3.213  11.944  0.2366 -0.0232 -0.4884
  285TMC3    O1 4362   3.640   3.714  11.938  0.0123 -0.0892 -0.9673
  285TMC3    O2 4363   3.638   3.104  11.920  0.2407 -0.3489  0.3780
  286MPD2     C 4364   3.571   1.145   0.900  0.4655 -0.5630 -0.4722
  286MPD2    C1 4365   3.656   1.222   0.976  0.5475  1.0081  0.4449
  286MPD2    C2 4366   3.787   1.181   0.980 -0.3510 -0.0984 -0.2435
  286MPD2    C3 4367   3.844   1.088   0.898  0.0403 -0.0726  0.1076
  286MPD2    C4 4368   3.765   1.021   0.807  0.2060  0.2114 -0.5012
  286MPD2    C5 4369   3.630   1.051   0.808 -0.1486 -0.3410  0.2670
  286MPD2     H 4370   3.843   1.244   1.048 -1.7822  2.2275 -1.2431
  286MPD2    H1 4371   3.808   0.965   0.725  0.3130 -1.2905  0.5705
  286MPD2    H2 4372   3.465   1.165   0.892  0.9143  2.0746  0.2444
  286MPD2    H3 4373   3.560   1.003   0.741  2.3226  0.4224 -2.8523
  286MPD2     N 4374   3.983   1.084   0.886 -0.7973  0.5660  0.2368
  286MPD2    H5 4375   4.018   1.039   0.803  1.4735 -0.9082  2.0113
  286MPD2    N1 4376   3.619   1.323   1.063 -0.1868  0.0605  0.4398
  286MPD2    H7 4377   3.683   1.348   1.137  1.2577  1.0592 -1.1456
  287TMC3    C1 4378   4.203   1.172   0.904  0.8924 -0.1305  0.4690
  287TMC3    C2 4379   4.225   1.180   0.771 -0.3961 -0.2429 -0.6813
  287TMC3    C3 4380   4.355   1.172   0.728 -0.5978 -0.3812 -0.3045
  287TMC3    C4 4381   4.306   1.164   0.994  0.3830  0.2041  0.3560
  287TMC3    C5 4382   4.434   1.158   0.951 -0.7583 -0.1799  0.5629
  287TMC3    C6 4383   4.463   1.170   0.820  0.2625 -0.0757  0.2312
  287TMC3     C 4384   4.077   1.150   0.966 -0.8870  0.1346  0.5918
  287TMC3     O 4385   4.062   1.195   1.079 -0.2795 -0.0022  0.0067
  287TMC3     H 4386   4.147   1.212   0.702 -0.8323  0.3976  0.1215
  287TMC3    H1 4387   4.277   1.151   1.098  2.5907 -1.9701  0.7135
  287TMC3    H2 4388   4.564   1.182   0.783  0.0312  2.0377  0.2906
  287TMC3    C7 4389   4.539   1.150   1.050 -0.5182  0.0631  0.3973
  287TMC3    C8 4390   4.382   1.165   0.585 -1.2105 -0.4581  0.3243
  287TMC3    O1 4391   4.497   1.155   1.163 -0.2795  0.1645 -0.0240
  287TMC3    O2 4392   4.289   1.165   0.512 -0.3050  0.0293 -0.2687
  288TMC3    C1 4393   1.444   1.821  14.335  0.5415 -0.8011 -0.4893
  288TMC3    C2 4394   1.359   1.828  14.443  0.3635 -0.4336  0.5191
  288TMC3    C3 4395   1.375   1.942  14.522 -0.7760 -0.1059  0.1710
  288TMC3    C4 4396   1.547   1.910  14.316 -0.4859 -0.2127 -0.5134
  288TMC3    C5 4397   1.563   2.013  14.405  0.7624  0.4429  0.0268
  288TMC3    C6 4398   1.469   2.035  14.504 -0.2344  0.6215  0.9188
  288TMC3     C 4399   1.452   1.698  14.263 -0.1109 -0.1431  0.7911
  288TMC3     O 4400   1.410   1.600  14.316 -0.1748  0.0617  1.0391
  288TMC3     H 4401   1.296   1.742  14.463  1.6949 -1.9344 -1.7967
  288TMC3    H1 4402   1.620   1.882  14.241 -0.3622 -0.0157 -0.4662
  288TMC3    H2 4403   1.484   2.115  14.575 -0.8921  0.6588  1.0188
  288TMC3    C7 4404   1.664   2.115  14.363 -0.2659  0.8311 -0.5893
  288TMC3    C8 4405   1.283   1.969  14.629  0.2969 -0.2782 -0.2920
  288TMC3    O1 4406   1.703   2.117  14.245  0.0687  0.4297  0.1835
  288TMC3    O2 4407   1.291   2.086  14.673 -0.0883  0.0532 -0.2922
  289MPD2     C 4408   1.270   0.916  14.824 -0.0701 -0.4942  0.2050
  289MPD2    C1 4409   1.278   1.037  14.756  0.4337 -1.5069  0.2108
  289MPD2    C2 4410   1.202   1.061  14.640 -0.2603 -0.8653 -0.6273
  289MPD2    C3 4411   1.101   0.971  14.614 -0.0192  0.0766 -0.4893
  289MPD2    C4 4412   1.096   0.853  14.681 -0.1151  0.1146  0.2661
  289MPD2    C5 4413   1.183   0.826  14.776 -0.1890  0.2799 -0.5518
  289MPD2     H 4414   1.216   1.150  14.580  0.2842 -1.5380 -1.4902
  289MPD2    H1 4415   1.018   0.782  14.657 -0.1719 -0.2788  1.6185
  289MPD2    H2 4416   1.338   0.885  14.903 -0.5796  2.0988  1.6746
  289MPD2    H3 4417   1.169   0.726  14.816  1.3879  0.2205 -0.1524
  289MPD2     N 4418   1.006   0.994  14.511  0.2912 -0.2074  0.0854
  289MPD2    H5 4419   0.963   0.912  14.471 -1.4223  0.8722 -0.2749
  289MPD2    N1 4420   1.375   1.129  14.806  0.4014  0.0580  0.1912
  289MPD2    H7 4421   1.420   1.107  14.894  0.0305  1.8981  0.8427
  290TMC3    C1 4422   0.857   1.115  14.388  0.2511 -0.7350 -0.0169
  290TMC3    C2 4423   0.789   1.233  14.396 -0.1338  0.3272 -0.4057
  290TMC3    C3 4424   0.661   1.231  14.352 -0.5433  0.1028 -0.0256
  290TMC3    C4 4425   0.806   1.000  14.328  0.7192 -0.5117  0.6846
  290TMC3    C5 4426   0.675   1.009  14.288  0.0638  0.1504  0.4677
  290TMC3    C6 4427   0.602   1.123  14.298 -0.5850 -0.2760 -0.8058
  290TMC3     C 4428   0.968   1.119  14.471 -0.7341 -0.1530 -0.0854
  290TMC3     O 4429   1.011   1.225  14.513 -0.9558 -0.0632 -0.2080
  290TMC3     H 4430   0.827   1.315  14.457 -0.4941  0.1417  0.0714
  290TMC3    H1 4431   0.863   0.913  14.301  0.9032  0.3879 -1.8580
  290TMC3    H2 4432   0.503   1.134  14.256 -1.2628  2.3301  1.4616
  290TMC3    C7 4433   0.618   0.909  14.201 -0.6782 -0.2210  0.4008
  290TMC3    C8 4434   0.576   1.346  14.361 -0.1819 -0.1537 -0.7217
  290TMC3    O1 4435   0.500   0.921  14.170  0.2547 -0.0130 -0.0461
  290TMC3    O2 4436   0.455   1.334  14.383  0.3842  0.8510  0.4788
  291MPD2     C 4437   0.504   0.784   0.725  0.3122 -0.3151  0.1348
  291MPD2    C1 4438   0.609   0.704   0.675 -0.4984 -0.0072  0.4573
  291MPD2    C2 4439   0.737   0.725   0.728 -0.8227  0.3877 -0.0486
  291MPD2    C3 4440   0.773   0.840   0.802  0.3700 -0.7057 -0.0038
  291MPD2    C4 4441   0.669   0.927   0.833 -0.1025  0.2869 -0.6719
  291MPD2    C5 4442   0.539   0.894   0.800 -0.3905  0.1585 -0.0618
  291MPD2     H 4443   0.815   0.654   0.700  0.6049  2.1988 -0.6507
  291MPD2    H1 4444   0.689   1.018   0.887  1.1867  0.5631 -1.6284
  291MPD2    H2 4445   0.400   0.775   0.695  0.2231 -0.3564  0.4583
  291MPD2    H3 4446   0.458   0.956   0.836 -0.6452 -0.4951  0.4833
  291MPD2     N 4447   0.911   0.865   0.823 -0.0884  0.4744 -0.3089
  291MPD2    H5 4448   0.978   0.798   0.784 -1.0564 -1.0355  0.6362
  291MPD2    N1 4449   0.583   0.585   0.611 -0.7208 -0.6184 -0.8049
  291MPD2    H7 4450   0.658   0.516   0.611  0.7398  0.9782 -1.1924
  292TMC3    C1 4451   0.471   0.409   0.493 -0.3374 -0.0774 -0.1636
  292TMC3    C2 4452   0.358   0.336   0.506 -0.0832  0.1742  0.0433
  292TMC3    C3 4453   0.363   0.202   0.481  0.1406 -0.4098  0.4555
  292TMC3    C4 4454   0.593   0.354   0.466 -0.6545  0.4289 -0.0021
  292TMC3    C5 4455   0.598   0.222   0.441 -0.3196 -0.2175 -0.7205
  292TMC3    C6 4456   0.483   0.143   0.456 -0.4356 -0.5625 -0.4059
  292TMC3     C 4457   0.468   0.542   0.552  0.3176  0.2062 -0.5342
  292TMC3     O 4458   0.355   0.595   0.548 -0.1153 -0.0256  0.4312
  292TMC3     H 4459   0.263   0.385   0.524  0.2612  1.1925 -0.8962
  292TMC3    H1 4460   0.678   0.415   0.436  0.5946 -0.9748  0.6929
  292TMC3    H2 4461   0.494   0.037   0.437  1.5446  0.1958 -3.4391
  292TMC3    C7 4462   0.716   0.161   0.380 -0.3581 -0.2603 -0.2892
  292TMC3    C8 4463   0.267   0.130   0.556  0.4218  0.3776 -0.5346
  292TMC3    O1 4464   0.693   0.045   0.341 -0.0977 -0.2386 -0.6363
  292TMC3    O2 4465   0.159   0.190   0.572 -0.2422  0.5230 -0.2059
  293MPD2     C 4466   1.897   1.890  13.365  0.3964 -0.7298  0.6587
  293MPD2    C1 4467   1.851   2.023  13.361  0.5161 -0.0234 -1.1164
  293MPD2    C2 4468   1.917   2.121  13.434 -0.4134  0.5167  0.2409
  293MPD2    C3 4469   2.021   2.076  13.507  0.3099 -0.2255  0.4212
  293MPD2    C4 4470   2.082   1.952  13.487  0.2114 -0.0008  0.5716
  293MPD2    C5 4471   2.016   1.861  13.410  0.4747 -0.3315  0.6151
  293MPD2     H 4472   1.891   2.225  13.442  1.5073  0.8075  2.6936
  293MPD2    H1 4473   2.165   1.914  13.545  0.4368 -0.4862 -0.0709
  293MPD2    H2 4474   1.846   1.814  13.307 -1.6542  2.0776 -1.1821
  293MPD2    H3 4475   2.065   1.768  13.382  0.0697 -0.7894  1.4370
  293MPD2     N 4476   2.080   2.167  13.596  0.0280 -0.4877  0.0580
  293MPD2    H5 4477   2.055   2.265  13.602 -1.8658 -0.8897 -1.2209
  293MPD2    N1 4478   1.722   2.038  13.306  0.2503  0.4783  0.2728
  293MPD2    H7 4479   1.679   1.966  13.249 -1.8167  1.0191  1.1499
  294TMC3    C1 4480   1.528   2.147  13.245 -0.4838 -0.1364 -0.5347
  294TMC3    C2 4481   1.452   2.033  13.263  0.9632 -0.8357 -0.1427
  294TMC3    C3 4482   1.323   2.038  13.211 -0.0348 -0.0600  0.2295
  294TMC3    C4 4483   1.487   2.264  13.184 -0.5785  0.2820  0.0266
  294TMC3    C5 4484   1.358   2.262  13.134  0.3756 -0.1789 -0.2931
  294TMC3    C6 4485   1.283   2.145  13.140 -0.1075 -0.0832  0.2810
  294TMC3     C 4486   1.651   2.157  13.314 -0.5723  0.2955  0.1192
  294TMC3     O 4487   1.684   2.266  13.352 -0.1671  0.0755 -0.2314
  294TMC3     H 4488   1.491   1.955  13.326  0.8531 -1.0284 -0.3135
  294TMC3    H1 4489   1.543   2.356  13.173  2.1746 -1.6712 -2.3257
  294TMC3    H2 4490   1.186   2.145  13.091 -0.1565 -0.5121  0.3717
  294TMC3    C7 4491   1.317   2.350  13.028  0.6076  0.0916  0.6875
  294TMC3    C8 4492   1.273   1.907  13.170 -0.5950 -0.8274 -0.4669
  294TMC3    O1 4493   1.201   2.390  13.038 -0.0103  0.2124 -0.1308
  294TMC3    O2 4494   1.272   1.817  13.255 -0.2612 -0.9915  0.1918
  295MPD2     C 4495   2.199   0.922   1.361 -0.4149  0.1550 -0.8715
  295MPD2    C1 4496   2.230   1.052   1.330  0.1153 -0.6334  0.0234
  295MPD2    C2 4497   2.152   1.151   1.384  0.1127 -0.1702 -0.0601
  295MPD2    C3 4498   2.066   1.130   1.490  0.2850 -0.2500  0.0891
  295MPD2    C4 4499   2.050   0.998   1.531 -0.2563 -0.0932  0.3270
  295MPD2    C5 4500   2.114   0.899   1.465 -0.6558  0.1988 -0.0963
  295MPD2     H 4501   2.154   1.253   1.347  0.6154  0.0882  0.6960
  295MPD2    H1 4502   1.971   0.970   1.600 -0.0498  1.9832  1.4079
  295MPD2    H2 4503   2.234   0.834   1.308 -0.3886 -0.6135  0.4157
  295MPD2    H3 4504   2.080   0.797   1.477  2.4586 -0.6739  1.5586
  295MPD2     N 4505   1.990   1.228   1.561  0.0729  0.2600  0.3498
  295MPD2    H5 4506   1.933   1.193   1.637 -0.6851 -1.7331 -1.1536
  295MPD2    N1 4507   2.330   1.065   1.240  0.6020 -0.1472 -0.0376
  295MPD2    H7 4508   2.363   0.977   1.202  1.8315  0.4009 -0.2268
  296TMC3    C1 4509   1.932   1.433   1.653 -0.2404 -0.5458 -0.0099
  296TMC3    C2 4510   2.003   1.538   1.705  0.5501  0.5518  0.7763
  296TMC3    C3 4511   1.936   1.652   1.745  0.2489 -0.1702 -0.9757
  296TMC3    C4 4512   1.792   1.423   1.654  0.1262  0.6204  0.0250
  296TMC3    C5 4513   1.730   1.527   1.718  0.2539  0.4967 -0.5585
  296TMC3    C6 4514   1.797   1.640   1.759 -0.1172  0.2112  0.4529
  296TMC3     C 4515   2.003   1.364   1.547 -0.1770  0.1156  0.4788
  296TMC3     O 4516   2.088   1.423   1.483 -0.5692 -0.1122 -0.3852
  296TMC3     H 4517   2.111   1.536   1.709  0.6849  3.0985 -1.3635
  296TMC3    H1 4518   1.737   1.342   1.607  1.8489 -1.3031  1.3164
  296TMC3    H2 4519   1.734   1.711   1.811 -0.0797  1.4647 -1.1944
  296TMC3    C7 4520   1.602   1.498   1.779 -0.2598  0.2121 -0.3594
  296TMC3    C8 4521   2.017   1.750   1.810  0.4337  0.7002 -0.6217
  296TMC3    O1 4522   1.546   1.584   1.845  0.4459 -0.3351 -0.0965
  296TMC3    O2 4523   2.139   1.738   1.816 -0.4428  0.1961 -0.1694
  297MPD2     C 4524   0.204   2.441  16.516 -0.0226 -0.4334  0.8856
  297MPD2    C1 4525   0.167   2.575  16.523  0.3381  0.0502  0.4533
  297MPD2    C2 4526   0.260   2.674  16.522 -0.7948 -0.2726  0.2167
  297MPD2    C3 4527   0.396   2.641  16.511  0.2726  0.1168 -0.2644
  297MPD2    C4 4528   0.432   2.508  16.495 -0.5350 -0.2777 -0.4062
  297MPD2    C5 4529   0.335   2.413  16.496 -0.3302 -0.1843  0.1116
  297MPD2     H 4530   0.236   2.777  16.543  0.2379  0.1830 -0.8231
  297MPD2    H1 4531   0.535   2.486  16.471 -0.5261  0.4230 -0.9941
  297MPD2    H2 4532   0.135   2.358  16.513  2.3191 -2.4425  2.3760
  297MPD2    H3 4533   0.361   2.309  16.479  0.8639 -0.3407  2.9501
  297MPD2     N 4534   0.496   2.739  16.504 -0.2472 -0.4950  0.1755
  297MPD2    H5 4535   0.590   2.715  16.474  0.9928  1.9267  2.1648
  297MPD2    N1 4536   0.031   2.609  16.513 -0.5219  0.5011  0.1912
  297MPD2    H7 4537   0.002   2.706  16.526 -3.3251 -0.0508 -2.0613
  298TMC3    C1 4538   4.553   2.605  16.450 -0.2432 -0.0068  0.1877
  298TMC3    C2 4539   4.506   2.636  16.329  0.0367  0.6492  0.5795
  298TMC3    C3 4540   4.421   2.740  16.306  0.2129 -0.3043  0.6939
  298TMC3    C4 4541   4.527   2.679  16.560  0.0360 -0.3950  0.2999
  298TMC3    C5 4542   4.423   2.773  16.535  0.3132  0.2536  0.8433
  298TMC3    C6 4543   4.367   2.804  16.417 -0.6228  0.3313  0.0001
  298TMC3     C 4544   4.678   2.532  16.458  0.9603 -0.0157 -0.1107
  298TMC3     O 4545   4.690   2.437  16.385 -0.3714  0.0870  0.4672
  298TMC3     H 4546   4.532   2.577  16.242 -0.0000  1.2242  0.1827
  298TMC3    H1 4547   4.562   2.642  16.656  1.0119 -1.8618 -0.6181
  298TMC3    H2 4548   4.303   2.889  16.395  1.1194  2.0722  1.6640
  298TMC3    C7 4549   4.385   2.851  16.653  0.7148  0.1743 -0.0977
  298TMC3    C8 4550   4.412   2.803  16.172 -0.1278 -0.0553  0.3599
  298TMC3    O1 4551   4.446   2.837  16.757 -0.2988 -0.3142 -0.6692
  298TMC3    O2 4552   4.319   2.871  16.143  0.2981  0.0713  0.5147
  299MPD2     C 4553   0.199   2.552  10.912  0.0222 -0.2862 -0.4948
  299MPD2    C1 4554   0.217   2.688  10.923  0.0026  0.4098  0.2815
  299MPD2    C2 4555   0.112   2.776  10.893 -0.3778  0.6968 -0.5759
  299MPD2    C3 4556   4.728   2.715  10.867 -0.6980  0.0019 -0.0210
  299MPD2    C4 4557   4.717   2.582  10.856  0.5914  0.0470 -0.0483
  299MPD2    C5 4558   0.081   2.501  10.882 -0.4880  0.2840  0.2903
  299MPD2     H 4559   0.127   2.884  10.891  0.3839  0.6293  1.3562
  299MPD2    H1 4560   4.623   2.534  10.833  0.1571 -0.3191  2.4711
  299MPD2    H2 4561   0.273   2.478  10.938  0.6120  0.1247 -0.9849
  299MPD2    H3 4562   0.072   2.393  10.886  0.0888  0.2486  0.6248
  299MPD2     N 4563   4.604   2.776  10.852  0.2664 -0.0756 -1.2053
  299MPD2    H5 4564   4.530   2.712  10.825 -0.3592  0.9284 -1.9002
  299MPD2    N1 4565   0.347   2.729  10.952 -0.2148 -0.5439  0.6103
  299MPD2    H7 4566   0.408   2.653  10.981 -0.4064 -1.0558 -0.3277
  300TMC3    C1 4567   4.438   2.951  10.819  0.4240 -0.6264 -0.4818
  300TMC3    C2 4568   4.413   3.086  10.814 -0.1693 -0.5520 -0.2149
  300TMC3    C3 4569   4.285   3.120  10.774 -0.3766  0.4445 -0.2383
  300TMC3    C4 4570   4.339   2.858  10.781  0.0214  0.5372 -0.4058
  300TMC3    C5 4571   4.219   2.902  10.727 -0.5672 -0.3155 -0.2839
  300TMC3    C6 4572   4.191   3.034  10.722  0.1529 -0.1135 -0.8032
  300TMC3     C 4573   4.578   2.914  10.867  0.1462 -0.0774  0.1464
  300TMC3     O 4574   4.652   3.000  10.910  0.0893  0.4059  0.0937
  300TMC3     H 4575   4.490   3.158  10.840  0.7954 -1.5127 -0.3770
  300TMC3    H1 4576   4.347   2.751  10.794 -0.7966  0.6099  0.6904
  300TMC3    H2 4577   4.091   3.061  10.691 -0.7742  0.0247  2.2900
  300TMC3    C7 4578   4.107   2.815  10.743  1.0222 -0.3918 -0.3508
  300TMC3    C8 4579   4.243   3.252  10.823  0.3870  0.6304  0.1779
  300TMC3    O1 4580   4.014   2.832  10.663 -0.5915 -0.1301 -0.3976
  300TMC3    O2 4581   4.166   3.316  10.750 -0.1082  0.2238 -0.1441
  301MPD2     C 4582   2.569   3.986   1.828  0.0583  0.5012  0.7846
  301MPD2    C1 4583   2.444   3.931   1.869 -0.2103  0.3097  0.4354
  301MPD2    C2 4584   2.437   3.795   1.895  0.3633 -1.3099  0.3921
  301MPD2    C3 4585   2.538   3.707   1.858 -0.4719 -0.3835  0.8290
  301MPD2    C4 4586   2.661   3.759   1.822 -0.4835  0.0582  0.0437
  301MPD2    C5 4587   2.682   3.899   1.821 -0.6347  0.0215 -0.0216
  301MPD2     H 4588   2.348   3.758   1.943 -1.3490 -1.4875 -2.8931
  301MPD2    H1 4589   2.745   3.692   1.805  0.0127  0.7986 -0.3984
  301MPD2    H2 4590   2.579   4.092   1.810 -1.7984  0.4599 -0.4711
  301MPD2    H3 4591   2.773   3.937   1.778  0.6244 -0.6033  2.0783
  301MPD2     N 4592   2.523   3.569   1.867 -0.1211 -0.4425 -0.5835
  301MPD2    H5 4593   2.599   3.514   1.829  0.2424 -0.5038  0.2401
  301MPD2    N1 4594   2.329   4.006   1.888 -0.3773 -0.2698 -0.8688
  301MPD2    H7 4595   2.247   3.976   1.940 -1.7276  2.7562 -1.2867
  302TMC3    C1 4596   2.415   3.352   1.868  0.0447  0.1374  0.6849
  302TMC3    C2 4597   2.541   3.292   1.875 -0.3243 -0.2272 -0.1748
  302TMC3    C3 4598   2.539   3.158   1.905 -0.1418  0.1630  0.4748
  302TMC3    C4 4599   2.293   3.291   1.882 -0.4678  0.5530 -0.9557
  302TMC3    C5 4600   2.301   3.154   1.896  0.1328  0.9385 -0.1915
  302TMC3    C6 4601   2.420   3.091   1.916  0.2606 -0.1723  1.2483
  302TMC3     C 4602   2.407   3.496   1.897 -0.1217 -0.0366 -0.2008
  302TMC3     O 4603   2.309   3.539   1.957  0.0493 -0.3657  0.1912
  302TMC3     H 4604   2.630   3.355   1.878 -1.0359  0.7798 -0.1709
  302TMC3    H1 4605   2.202   3.351   1.879 -0.6654  0.2667 -0.7564
  302TMC3    H2 4606   2.425   2.983   1.909  0.9843 -0.0514 -0.1336
  302TMC3    C7 4607   2.176   3.081   1.864 -0.1164  0.4781 -0.7262
  302TMC3    C8 4608   2.653   3.083   1.859  0.3148 -1.0641  0.0133
  302TMC3    O1 4609   2.173   2.962   1.883  0.4345 -0.0914 -0.1867
  302TMC3    O2 4610   2.660   2.965   1.897  0.0302  0.0982 -0.0238
  303MPD2     C 4611   2.704   2.775  10.821  0.4600 -0.0181  0.0388
  303MPD2    C1 4612   2.616   2.673  10.789  0.6635  0.0687 -0.6791
  303MPD2    C2 4613   2.600   2.638  10.653  0.7960  0.4103  0.0376
  303MPD2    C3 4614   2.679   2.685  10.552 -0.3731 -0.0695  0.4834
  303MPD2    C4 4615   2.759   2.786  10.589  0.5915  0.3288 -0.0870
  303MPD2    C5 4616   2.773   2.834  10.717  0.1285  1.0144 -0.1008
  303MPD2     H 4617   2.522   2.566  10.630 -0.1458  1.1733  0.8491
  303MPD2    H1 4618   2.814   2.839  10.511 -0.2106  1.9394  0.4513
  303MPD2    H2 4619   2.714   2.825  10.917  1.4594 -2.2143  1.0731
  303MPD2    H3 4620   2.826   2.927  10.735  0.0899  1.1211 -0.5208
  303MPD2     N 4621   2.681   2.643  10.416  0.3916  0.0848  0.1741
  303MPD2    H5 4622   2.743   2.687  10.349 -1.0604  2.4453  0.3766
  303MPD2    N1 4623   2.561   2.605  10.901 -0.2663  0.0467 -0.3656
  303MPD2    H7 4624   2.594   2.631  10.993 -0.3010 -2.9951  0.5051
  304TMC3    C1 4625   2.462   2.450  11.028 -0.5218 -0.0237  0.1190
  304TMC3    C2 4626   2.367   2.534  11.085  0.0161  0.1252  0.5911
  304TMC3    C3 4627   2.266   2.470  11.154 -0.0310  0.2579 -0.5450
  304TMC3    C4 4628   2.463   2.312  11.039 -0.2877  0.3607  0.4984
  304TMC3    C5 4629   2.358   2.263  11.102  0.0139  0.4776  0.1194
  304TMC3    C6 4630   2.272   2.333  11.178 -0.0374  0.5505  0.4602
  304TMC3     C 4631   2.488   2.491  10.892  0.7029 -0.1936 -0.2765
  304TMC3     O 4632   2.469   2.417  10.797  0.4636 -0.9014 -0.3410
  304TMC3     H 4633   2.365   2.641  11.065  2.5894  0.3659  1.5444
  304TMC3    H1 4634   2.513   2.249  10.967 -0.0444  1.1430 -0.0236
  304TMC3    H2 4635   2.190   2.281  11.226  1.1107 -2.3976 -0.7750
  304TMC3    C7 4636   2.298   2.140  11.048  0.1610  0.2058 -0.2867
  304TMC3    C8 4637   2.142   2.511  11.092 -0.5256  0.2822  0.4359
  304TMC3    O1 4638   2.177   2.130  11.058 -0.1424  1.0997 -0.1488
  304TMC3    O2 4639   2.127   2.629  11.076 -0.2694 -0.3148  0.0308
  305MPD2     C 4640   1.165   4.373  14.179 -0.4834  0.0850  0.6617
  305MPD2    C1 4641   1.181   4.243  14.199 -0.8222  0.4193 -0.4362
  305MPD2    C2 4642   1.160   4.151  14.097 -0.0057 -0.5392  0.2726
  305MPD2    C3 4643   1.107   4.194  13.975 -0.1880  0.1739 -0.6305
  305MPD2    C4 4644   1.091   4.330  13.960 -0.1280  0.1473  0.2258
  305MPD2    C5 4645   1.120   4.424  14.057  0.7358 -1.1216  0.3920
  305MPD2     H 4646   1.177   4.045  14.104 -1.2651 -0.8246 -0.9110
  305MPD2    H1 4647   1.058   4.374  13.866  0.8350 -1.9353 -1.0971
  305MPD2    H2 4648   1.191   4.445  14.256 -0.9483 -0.3162  1.1977
  305MPD2    H3 4649   1.122   4.531  14.039 -2.1888 -0.9637  1.0006
  305MPD2     N 4650   1.080   4.109  13.866 -0.3798 -0.5085 -0.3390
  305MPD2    H5 4651   1.075   4.150  13.774  1.5676 -1.2117 -0.7481
  305MPD2    N1 4652   1.237   4.213  14.327 -0.2064  0.0317  0.0195
  305MPD2    H7 4653   1.246   4.288  14.395  3.1135  2.0110 -2.6206
  306TMC3    C1 4654   1.345   4.089  14.492 -0.4454 -0.6325 -0.4922
  306TMC3    C2 4655   1.435   3.991  14.500  0.0700  0.4854 -0.1964
  306TMC3    C3 4656   1.494   3.990  14.623  0.2673  1.0113 -0.0860
  306TMC3    C4 4657   1.298   4.167  14.591 -0.4627 -0.0369  0.1544
  306TMC3    C5 4658   1.345   4.150  14.712  0.5666  0.2587  0.1021
  306TMC3    C6 4659   1.447   4.057  14.732 -0.4529 -0.1129 -0.4492
  306TMC3     C 4660   1.280   4.090  14.365  0.0080  0.5023 -0.9455
  306TMC3     O 4661   1.275   3.983  14.309 -0.1276 -0.1136 -0.3302
  306TMC3     H 4662   1.459   3.926  14.416  0.7089  0.0189  0.3509
  306TMC3    H1 4663   1.225   4.245  14.569  1.3124  1.7338  0.4734
  306TMC3    H2 4664   1.479   4.024  14.830  0.8556 -1.7910 -1.4394
  306TMC3    C7 4665   1.263   4.201  14.822  0.3324  0.8453 -0.3628
  306TMC3    C8 4666   1.612   3.903  14.646 -0.2320  0.1002  0.2782
  306TMC3    O1 4667   1.150   4.235  14.794  0.4215  0.0831  0.7620
  306TMC3    O2 4668   1.626   3.821  14.557 -0.1193  0.3726 -0.0160
  307MPD2     C 4669   3.524   1.258   0.355  0.3353  0.3019 -0.0541
  307MPD2    C1 4670   3.594   1.382   0.350  0.1739 -0.5085  0.9053
  307MPD2    C2 4671   3.581   1.469   0.451  0.2429  0.9803  0.2277
  307MPD2    C3 4672   3.513   1.438   0.565 -0.1342  0.4593 -0.9810
  307MPD2    C4 4673   3.462   1.309   0.581 -0.2895  0.3390 -0.4471
  307MPD2    C5 4674   3.468   1.224   0.474  0.3885 -0.3300 -0.4100
  307MPD2     H 4675   3.639   1.561   0.445  2.4691 -0.3852  0.8808
  307MPD2    H1 4676   3.401   1.277   0.665 -0.0699  2.9773  0.7486
  307MPD2    H2 4677   3.512   1.195   0.268  0.8013 -0.6221  0.5570
  307MPD2    H3 4678   3.424   1.125   0.477 -0.8476  0.1911 -1.4503
  307MPD2     N 4679   3.501   1.517   0.681 -0.4298 -0.0687 -0.0818
  307MPD2    H5 4680   3.458   1.478   0.763 -0.5323  0.7963  0.2829
  307MPD2    N1 4681   3.663   1.431   0.243  0.1280  0.4163  0.2075
  307MPD2    H7 4682   3.701   1.525   0.243 -1.7947  1.1949  1.8242
  308TMC3    C1 4683   3.287   1.743   0.947 -0.1155  0.6286  0.1591
  308TMC3    C2 4684   3.332   1.869   0.993  0.4882  0.0039 -0.1775
  308TMC3    C3 4685   3.448   1.912   0.930  0.3054 -0.2901  0.1466
  308TMC3    C4 4686   3.356   1.656   0.870 -0.0019 -0.2931  0.0133
  308TMC3    C5 4687   3.475   1.705   0.817 -0.2754 -0.2564 -0.2134
  308TMC3    C6 4688   3.517   1.832   0.847  0.1109  0.5275 -0.3109
  308TMC3     C 4689   3.150   1.712   0.979  0.4606  0.1364  0.3144
  308TMC3     O 4690   3.125   1.592   0.987  0.2333 -0.6110  0.4684
  308TMC3     H 4691   3.278   1.938   1.056 -0.5110 -0.7951 -0.1685
  308TMC3    H1 4692   3.299   1.568   0.841 -1.8216  0.7221  0.5281
  308TMC3    H2 4693   3.611   1.870   0.809  1.7632 -2.4998  0.7759
  308TMC3    C7 4694   3.527   1.652   0.699 -0.9046 -0.5963  0.0374
  308TMC3    C8 4695   3.498   2.044   0.963 -0.0376  0.3528  0.5337
  308TMC3    O1 4696   3.593   1.723   0.624 -0.2626 -0.7068 -0.2165
  308TMC3    O2 4697   3.482   2.085   1.078 -0.3285 -0.1140 -0.0294
  309MPD2     C 4698   3.011   2.484  17.309  0.3564  0.1475 -0.1617
  309MPD2    C1 4699   2.893   2.462  17.233 -0.4219  0.5012 -0.5441
  309MPD2    C2 4700   2.772   2.479  17.307 -0.2559 -0.5358  0.4013
  309MPD2    C3 4701   2.770   2.490  17.448 -0.3363  0.6728 -0.0036
  309MPD2    C4 4702   2.895   2.509  17.515 -0.1195 -0.0768 -0.1657
  309MPD2    C5 4703   3.007   2.510  17.445  0.2573 -0.4294  0.2737
  309MPD2     H 4704   2.680   2.457  17.254  0.0320 -1.0447  0.1109
  309MPD2    H1 4705   2.903   2.518  17.623 -2.1096 -1.2813  0.0649
  309MPD2    H2 4706   3.111   2.485  17.267  0.2723 -2.2904 -0.4569
  309MPD2    H3 4707   3.095   2.528  17.505  0.9803 -1.5810 -0.4285
  309MPD2     N 4708   2.649   2.515  17.521  0.0900  0.5327 -0.1389
  309MPD2    H5 4709   2.654   2.522  17.622 -1.8594  0.7281 -0.0573
  309MPD2    N1 4710   2.896   2.429  17.095  0.2724  0.2710 -0.3516
  309MPD2    H7 4711   2.807   2.420  17.047  0.3515 -2.2164 -0.0439
  310TMC3    C1 4712   3.001   2.387  16.889  0.2793  0.1361 -0.1633
  310TMC3    C2 4713   2.936   2.488  16.830 -0.3512  0.4331  0.1281
  310TMC3    C3 4714   2.966   2.517  16.697 -0.6960 -1.0929 -0.5454
  310TMC3    C4 4715   3.104   2.319  16.824 -0.2780  0.1864  0.1111
  310TMC3    C5 4716   3.134   2.362  16.699 -0.7310 -0.1031  0.4743
  310TMC3    C6 4717   3.063   2.458  16.628  0.1693  0.0047 -0.2000
  310TMC3     C 4718   3.013   2.393  17.036 -0.2956 -0.4391  0.2898
  310TMC3     O 4719   3.121   2.356  17.080 -0.5624 -0.1585 -0.4283
  310TMC3     H 4720   2.869   2.550  16.888  0.5111  1.7354 -0.2805
  310TMC3    H1 4721   3.158   2.251  16.889  0.6417  2.1066  1.3445
  310TMC3    H2 4722   3.071   2.473  16.521 -0.1140 -0.3849 -0.2772
  310TMC3    C7 4723   3.247   2.293  16.635  0.3303  0.1164  0.4077
  310TMC3    C8 4724   2.896   2.623  16.633 -0.2584 -0.1137 -0.1991
  310TMC3    O1 4725   3.299   2.195  16.695 -0.4928  0.3128 -0.3848
  310TMC3    O2 4726   2.788   2.645  16.681  0.1507 -0.6709  0.1126
  311MPD2     C 4727   4.733   3.782  12.622  0.2987 -0.6058  0.1462
  311MPD2    C1 4728   0.030   3.841  12.740  0.9565  0.3332 -0.4619
  311MPD2    C2 4729   4.678   3.857  12.838  0.5311 -0.2530  0.0097
  311MPD2    C3 4730   4.549   3.825  12.823 -0.3939 -0.8175 -0.5362
  311MPD2    C4 4731   4.510   3.765  12.703 -0.2436  0.4506  0.0801
  311MPD2    C5 4732   4.601   3.751  12.603 -1.0468  0.0742  0.1808
  311MPD2     H 4733   4.716   3.889  12.934 -0.2766 -1.2007  0.6357
  311MPD2    H1 4734   4.408   3.744  12.673 -0.6238 -0.4970  2.0208
  311MPD2    H2 4735   0.050   3.771  12.530 -0.5575 -1.4732 -0.2879
  311MPD2    H3 4736   4.565   3.720  12.505  2.1288  0.4892 -1.1194
  311MPD2     N 4737   4.462   3.827  12.931 -0.2739 -0.7316 -0.5398
  311MPD2    H5 4738   4.500   3.864  13.017 -1.5810  2.9957 -1.5884
  311MPD2    N1 4739   0.165   3.887  12.757 -0.4162 -0.3148 -0.0594
  311MPD2    H7 4740   0.201   3.925  12.844 -0.4587 -1.4809  0.4712
  312TMC3    C1 4741   4.260   3.834  13.051 -0.0506  0.2010 -0.3852
  312TMC3    C2 4742   4.124   3.822  13.054  0.0311  0.4986  0.0880
  312TMC3    C3 4743   4.045   3.895  13.140 -0.5605  0.8340  0.3689
  312TMC3    C4 4744   4.321   3.908  13.154 -0.1099  0.3953 -0.1822
  312TMC3    C5 4745   4.240   3.970  13.242  0.1253  0.1825 -0.8305
  312TMC3    C6 4746   4.103   3.968  13.236  0.2591  0.1077  0.0586
  312TMC3     C 4747   4.331   3.781  12.930 -0.3074  0.6838 -0.3147
  312TMC3     O 4748   4.269   3.717  12.848 -0.3446 -0.0102  0.7018
  312TMC3     H 4749   4.081   3.739  12.998  1.3728 -0.6812  0.8079
  312TMC3    H1 4750   4.427   3.917  13.176 -0.3976  4.1393 -0.2677
  312TMC3    H2 4751   4.052   4.016  13.319 -0.5582  1.3874 -1.1690
  312TMC3    C7 4752   4.297   4.067  13.342  0.1313  0.6750 -0.1464
  312TMC3    C8 4753   3.902   3.883  13.128 -0.7585 -0.2040 -0.1847
  312TMC3    O1 4754   4.250   4.180  13.350 -0.1525  0.2725  0.3776
  312TMC3    O2 4755   3.854   3.778  13.088 -0.1183  0.1812  0.2278
  313MPD2     C 4756   3.232   3.418  11.687  0.1449 -0.2810 -0.3424
  313MPD2    C1 4757   3.336   3.452  11.613  0.5657 -0.1552 -0.3831
  313MPD2    C2 4758   3.436   3.356  11.592  0.0331  0.4387  0.0635
  313MPD2    C3 4759   3.422   3.228  11.639 -0.0643  0.8986  0.5937
  313MPD2    C4 4760   3.311   3.191  11.715  0.5975  0.3951 -0.1791
  313MPD2    C5 4761   3.222   3.294  11.738  0.4775  0.2447  0.2511
  313MPD2     H 4762   3.520   3.389  11.532  0.2904  0.3105  0.3566
  313MPD2    H1 4763   3.303   3.092  11.760 -1.7429  0.6360 -0.0498
  313MPD2    H2 4764   3.150   3.484  11.716 -1.0016 -1.5750 -0.6359
  313MPD2    H3 4765   3.135   3.269  11.799  0.0616 -1.8676 -1.2043
  313MPD2     N 4766   3.512   3.126  11.583  0.1853  0.6570 -0.0931
  313MPD2    H5 4767   3.588   3.160  11.524 -0.1921  0.2851 -0.7787
  313MPD2    N1 4768   3.355   3.580  11.558  0.5127 -0.3192  1.2061
  313MPD2    H7 4769   3.445   3.603  11.518 -0.7657  1.1003 -0.8409
  314TMC3    C1 4770   3.294   3.803  11.479 -0.1874 -0.4297 -0.0563
  314TMC3    C2 4771   3.425   3.829  11.466  0.4814  0.0709 -0.2069
  314TMC3    C3 4772   3.457   3.944  11.402  0.0021 -0.0167  0.4945
  314TMC3    C4 4773   3.194   3.868  11.412 -0.3540  0.7442  0.1549
  314TMC3    C5 4774   3.237   3.972  11.329 -0.1075 -0.4560 -0.4880
  314TMC3    C6 4775   3.365   4.011  11.327  0.5444  0.3399 -0.3719
  314TMC3     C 4776   3.253   3.672  11.539 -0.3003 -0.5426  0.2011
  314TMC3     O 4777   3.132   3.662  11.552  0.1249  0.1897  0.0349
  314TMC3     H 4778   3.505   3.771  11.511  0.9375  0.4094 -0.5840
  314TMC3    H1 4779   3.094   3.829  11.399  0.5468 -1.0737 -1.3733
  314TMC3    H2 4780   3.394   4.095  11.265  1.1435  0.1377 -0.3601
  314TMC3    C7 4781   3.167   3.973  11.200 -0.2096 -0.7942  0.5522
  314TMC3    C8 4782   3.589   3.994  11.383 -0.3996  0.2187 -0.7288
  314TMC3    O1 4783   3.049   3.937  11.195  0.1681  0.3368 -0.9933
  314TMC3    O2 4784   3.618   4.059  11.286  0.4104 -0.4606  0.8111
  315MPD2     C 4785   4.110   1.911   0.218 -0.1841 -0.1826 -0.5580
  315MPD2    C1 4786   4.126   1.916   0.357  0.1865  0.0462  0.3468
  315MPD2    C2 4787   4.156   2.048   0.415 -0.2474  0.3886  0.6297
  315MPD2    C3 4788   4.171   2.155   0.335  0.0446  0.9647  0.2196
  315MPD2    C4 4789   4.166   2.142   0.201 -0.6248 -0.2092 -0.7292
  315MPD2    C5 4790   4.139   2.015   0.145 -0.3038 -0.1539 -0.2738
  315MPD2     H 4791   4.170   2.059   0.522  0.7196  0.5867  0.4843
  315MPD2    H1 4792   4.197   2.223   0.137  1.7141 -2.9708 -3.1273
  315MPD2    H2 4793   4.078   1.816   0.176 -1.9450  0.0301  0.3193
  315MPD2    H3 4794   4.123   2.007   0.038 -0.9435  1.5364 -0.3115
  315MPD2     N 4795   4.211   2.273   0.396 -0.0726 -1.0222  0.6368
  315MPD2    H5 4796   4.195   2.273   0.496 -0.0972  1.2602  0.6446
  315MPD2    N1 4797   4.098   1.801   0.437  0.2217 -0.3055  0.1866
  315MPD2    H7 4798   4.047   1.727   0.391  2.6226 -1.0044 -1.3549
  316TMC3    C1 4799   4.243   2.502   0.432  0.3408 -0.4993 -0.5435
  316TMC3    C2 4800   4.318   2.486   0.547 -0.1673 -0.1823 -0.2465
  316TMC3    C3 4801   4.329   2.600   0.622 -0.2313  0.0313  0.2707
  316TMC3    C4 4802   4.188   2.620   0.394  0.5833 -0.4222 -0.5805
  316TMC3    C5 4803   4.205   2.723   0.481 -0.2712 -0.4681 -0.6250
  316TMC3    C6 4804   4.265   2.720   0.600  0.0967 -0.6510 -0.3363
  316TMC3     C 4805   4.241   2.396   0.336  0.3124  0.0501  0.7995
  316TMC3     O 4806   4.234   2.438   0.221  0.3736 -0.2854  0.5368
  316TMC3     H 4807   4.359   2.390   0.578 -0.2567  0.2348  1.1528
  316TMC3    H1 4808   4.145   2.635   0.296 -1.9276  0.2472  0.6317
  316TMC3    H2 4809   4.282   2.806   0.664  0.4867 -0.7609 -0.2921
  316TMC3    C7 4810   4.173   2.850   0.417  0.1713  0.3726 -0.0037
  316TMC3    C8 4811   4.408   2.591   0.741 -0.1286  0.3435 -0.0461
  316TMC3    O1 4812   4.269   2.903   0.366 -0.0286 -0.4904 -0.0528
  316TMC3    O2 4813   4.375   2.658   0.835 -0.6161  0.0135  0.5978
  317MPD2     C 4814   0.869   1.166  13.529 -0.2593  0.2957  0.7635
  317MPD2    C1 4815   0.901   1.043  13.477  0.6945  0.0655  0.2463
  317MPD2    C2 4816   0.971   0.954  13.558  0.0560  0.1315  0.2824
  317MPD2    C3 4817   1.017   0.996  13.683  0.2436 -0.9661 -0.7753
  317MPD2    C4 4818   0.980   1.117  13.739  0.4230 -0.0836 -0.0957
  317MPD2    C5 4819   0.895   1.191  13.661 -0.1395 -0.4726  0.3629
  317MPD2     H 4820   0.990   0.852  13.525 -2.1063  0.0615 -0.7179
  317MPD2    H1 4821   1.005   1.156  13.836  1.1735 -0.0258 -0.3077
  317MPD2    H2 4822   0.812   1.242  13.476  1.2485  2.2050  1.8347
  317MPD2    H3 4823   0.853   1.285  13.697  1.8998  1.5753 -2.5940
  317MPD2     N 4824   1.118   0.912  13.740  0.6217 -0.0023 -0.4721
  317MPD2    H5 4825   1.128   0.819  13.702  0.9794 -0.4928  0.8110
  317MPD2    N1 4826   0.864   1.000  13.349  0.1263 -0.8071 -0.2481
  317MPD2    H7 4827   0.898   0.912  13.311  0.8650 -0.3648 -0.5918
  318TMC3    C1 4828   1.297   0.838  13.879  0.4057 -0.5177  0.7144
  318TMC3    C2 4829   1.254   0.709  13.887 -0.4383 -0.0394 -0.6154
  318TMC3    C3 4830   1.352   0.613  13.908 -0.3467  0.7144  0.2775
  318TMC3    C4 4831   1.426   0.867  13.863  0.1522  0.0555 -0.7484
  318TMC3    C5 4832   1.525   0.769  13.886  0.1386 -0.6269  0.2647
  318TMC3    C6 4833   1.486   0.643  13.918  0.2195 -0.1984 -0.4402
  318TMC3     C 4834   1.201   0.945  13.844  0.0459 -0.0264 -0.8990
  318TMC3     O 4835   1.236   1.059  13.871  0.3894 -0.5299  0.0211
  318TMC3     H 4836   1.145   0.703  13.894 -0.4756  0.7548 -0.4411
  318TMC3    H1 4837   1.460   0.966  13.836 -0.0734  0.6082  1.0009
  318TMC3    H2 4838   1.555   0.561  13.931  1.2479  0.6256 -0.7003
  318TMC3    C7 4839   1.627   0.765  13.777  0.6525  0.2716 -0.6511
  318TMC3    C8 4840   1.311   0.474  13.924 -0.8172  0.1811  0.1875
  318TMC3    O1 4841   1.593   0.814  13.669  0.2565  0.9142 -0.2453
  318TMC3    O2 4842   1.383   0.401  13.994  0.0010 -0.1988 -0.0788
  319MPD2     C 4843   2.044   1.661  16.698  0.0326 -0.1999  0.2325
  319MPD2    C1 4844   2.064   1.524  16.685  0.3849  0.1663  0.0673
  319MPD2    C2 4845   1.965   1.456  16.603 -0.6456 -0.2500 -0.3108
  319MPD2    C3 4846   1.875   1.529  16.528 -0.1771  0.0086 -0.0429
  319MPD2    C4 4847   1.862   1.669  16.536  0.2580 -0.4747 -1.2232
  319MPD2    C5 4848   1.947   1.726  16.628 -0.2077 -0.7516  0.2893
  319MPD2     H 4849   1.981   1.350  16.590  1.1210  0.2096 -2.0826
  319MPD2    H1 4850   1.772   1.717  16.499 -1.4910 -1.2952  2.0197
  319MPD2    H2 4851   2.110   1.710  16.768  0.2614 -2.5264  1.6743
  319MPD2    H3 4852   1.943   1.831  16.655 -2.7866 -0.5088 -1.1089
  319MPD2     N 4853   1.791   1.466  16.434 -0.6202 -0.2290 -0.0843
  319MPD2    H5 4854   1.725   1.535  16.402 -1.2651 -0.3230  1.0191
  319MPD2    N1 4855   2.159   1.446  16.759 -0.0720 -0.1928 -0.3081
  319MPD2    H7 4856   2.158   1.348  16.735 -0.9267 -0.5670  1.2304
  320TMC3    C1 4857   1.657   1.299  16.340  0.8299 -0.6744  0.3884
  320TMC3    C2 4858   1.607   1.398  16.256  1.7404 -0.3910  0.1557
  320TMC3    C3 4859   1.500   1.365  16.181 -0.2201 -0.9806 -0.4381
  320TMC3    C4 4860   1.611   1.167  16.345 -0.8012  0.4608 -0.7837
  320TMC3    C5 4861   1.506   1.137  16.261 -0.2999  0.1134  0.0192
  320TMC3    C6 4862   1.447   1.240  16.183 -0.0599  0.0816 -0.5485
  320TMC3     C 4863   1.765   1.330  16.424 -0.0448 -0.6972  0.0619
  320TMC3     O 4864   1.795   1.244  16.509  0.5332  0.3451 -0.2922
  320TMC3     H 4865   1.640   1.501  16.253 -1.2561  0.5399 -0.1880
  320TMC3    H1 4866   1.662   1.096  16.409 -2.3838 -0.6504 -0.7276
  320TMC3    H2 4867   1.373   1.202  16.113  0.7224 -1.7219 -0.4203
  320TMC3    C7 4868   1.488   0.997  16.220  0.9931  0.1908  0.4186
  320TMC3    C8 4869   1.454   1.452  16.086 -0.4330  0.3557 -0.9711
  320TMC3    O1 4870   1.439   0.973  16.111  0.9105  0.0367 -0.1052
  320TMC3    O2 4871   1.526   1.545  16.062 -0.0609 -0.8458 -0.8982
  321TMC3    C1 4872   2.343   1.405  16.897 -0.5635 -0.4728  0.3906
  321TMC3    C2 4873   2.311   1.274  16.911  0.1081 -0.0440 -0.8208
  321TMC3    C3 4874   2.411   1.194  16.950 -0.4836 -0.0890 -0.0060
  321TMC3    C4 4875   2.473   1.449  16.899 -0.5485  0.5189  0.5567
  321TMC3    C5 4876   2.578   1.366  16.926 -0.7227  0.0244 -0.2033
  321TMC3    C6 4877   2.544   1.235  16.946 -0.9925  0.3448  0.1995
  321TMC3     C 4878   2.255   1.503  16.832  0.5882  0.4142 -0.0868
  321TMC3     O 4879   2.291   1.617  16.851  0.3919  0.2959  0.8984
  321TMC3     H 4880   2.212   1.232  16.907  0.6194 -1.3416  0.1367
  321TMC3    H1 4881   2.490   1.556  16.894 -0.2441  0.4220 -0.5529
  321TMC3    H2 4882   2.620   1.165  16.977 -2.1290 -1.3959 -0.9099
  321TMC3    C7 4883   2.674   1.404  17.028  0.4174  0.1223 -0.4307
  321TMC3    C8 4884   2.386   1.103  17.060 -0.4936 -0.1390  0.6854
  321TMC3    O1 4885   2.688   1.324  17.121  0.1058 -0.1532  0.0907
  321TMC3    O2 4886   2.286   1.033  17.048 -0.1845  0.2894  0.0210
  322MPD2     C 4887   0.717   3.293  14.165 -0.6119 -1.0029 -0.4319
  322MPD2    C1 4888   0.848   3.302  14.149  0.7777  0.6636  0.4002
  322MPD2    C2 4889   0.924   3.192  14.100 -0.9404  0.2352 -0.9267
  322MPD2    C3 4890   0.861   3.074  14.064 -0.1374  0.1453  0.2359
  322MPD2    C4 4891   0.719   3.065  14.088  0.6374  0.1666 -0.1199
  322MPD2    C5 4892   0.653   3.173  14.143 -0.1808  1.0037 -0.7803
  322MPD2     H 4893   1.032   3.198  14.110 -1.1843  1.8477  0.8256
  322MPD2    H1 4894   0.667   2.973  14.063  1.0926  0.1346 -0.9599
  322MPD2    H2 4895   0.657   3.380  14.190  1.5848  0.4531 -0.2291
  322MPD2    H3 4896   0.546   3.183  14.159 -0.1799  0.6765 -0.5587
  322MPD2     N 4897   0.945   2.969  14.022  0.5209 -0.3177  0.5717
  322MPD2    H5 4898   1.041   2.983  13.994  0.0023  0.8158 -0.6191
  322MPD2    N1 4899   0.903   3.427  14.176  0.2747  0.3587 -0.7200
  322MPD2    H7 4900   0.868   3.490  14.248 -0.4660 -0.3649 -0.4494
  323TMC3    C1 4901   1.104   3.559  14.183  0.0495 -0.6356  0.5989
  323TMC3    C2 4902   1.203   3.609  14.104  0.0351  0.9099 -0.2466
  323TMC3    C3 4903   1.313   3.651  14.175  0.4199  0.4953  0.3412
  323TMC3    C4 4904   1.105   3.544  14.321  0.0945  0.0905  0.0054
  323TMC3    C5 4905   1.214   3.597  14.385  0.0063  1.1025  0.4659
  323TMC3    C6 4906   1.318   3.647  14.315 -0.8670  0.5280 -0.1243
  323TMC3     C 4907   1.015   3.466  14.111  0.4359 -0.1300 -1.2296
  323TMC3     O 4908   1.056   3.432  13.999  0.3232  0.0308 -0.1785
  323TMC3     H 4909   1.184   3.624  13.998  1.1980  0.7222 -0.4836
  323TMC3    H1 4910   1.023   3.499  14.375  0.8660 -0.0787  1.0282
  323TMC3    H2 4911   1.408   3.686  14.362  0.0939 -0.4036 -1.1791
  323TMC3    C7 4912   1.273   3.507  14.484 -0.1341 -1.3054  0.1195
  323TMC3    C8 4913   1.412   3.738  14.111  0.1897  1.5298  0.4181
  323TMC3    O1 4914   1.268   3.393  14.443 -0.4963  0.0563  0.4621
  323TMC3    O2 4915   1.517   3.749  14.170  0.1771 -0.0261  0.0921
  324MPD2     C 4916   2.869   4.403  14.906 -0.7003 -0.0667 -0.0170
  324MPD2    C1 4917   2.845   4.537  14.879 -0.0837 -0.3567 -0.8446
  324MPD2    C2 4918   2.711   4.577  14.897 -0.2426 -0.0480 -0.2240
  324MPD2    C3 4919   2.616   4.489  14.934 -0.1071  0.2147 -0.3473
  324MPD2    C4 4920   2.648   4.361  14.975 -0.2040 -0.3963 -0.4280
  324MPD2    C5 4921   2.779   4.321  14.964 -0.3862 -0.2313  0.2004
  324MPD2     H 4922   2.699   4.683  14.882  0.2545  0.0970  0.4139
  324MPD2    H1 4923   2.570   4.293  15.006  0.5978 -0.9533  0.3614
  324MPD2    H2 4924   2.964   4.353  14.891  0.2686  1.8813 -0.3747
  324MPD2    H3 4925   2.803   4.217  14.983  0.3953 -0.3632 -1.5436
  324MPD2     N 4926   2.478   4.528  14.946 -0.1834 -0.0461 -0.3643
  324MPD2    H5 4927   2.410   4.458  14.973 -0.1871 -0.0030 -0.2591
  324MPD2    N1 4928   2.940   4.628  14.819  0.0022 -0.1024 -0.3630
  324MPD2    H7 4929   2.903   4.716  14.785 -0.5179 -0.4443 -0.6829
  325TMC3    C1 4930   2.296   4.670  14.972  0.1364  0.6504  0.2334
  325TMC3    C2 4931   2.201   4.603  14.897  0.2040  0.6796 -0.0385
  325TMC3    C3 4932   2.071   4.642  14.912 -0.0089 -0.6868  0.7416
  325TMC3    C4 4933   2.262   0.022  15.067  0.1155 -0.0978 -0.2423
  325TMC3    C5 4934   2.131   0.057  15.075  0.8044  0.3763 -0.0606
  325TMC3    C6 4935   2.029   0.006  14.994 -0.0522  0.0427  0.1950
  325TMC3     C 4936   2.435   4.662  14.932 -0.3181  0.3231 -0.2132
  325TMC3     O 4937   2.492   0.028  14.933  0.2190 -0.1865  0.1492
  325TMC3     H 4938   2.228   4.525  14.826  0.1605 -1.2015  1.9907
  325TMC3    H1 4939   2.341   0.076  15.119  0.1613 -0.0227 -0.3919
  325TMC3    H2 4940   1.925   0.035  14.992 -0.0558  0.0414  0.4124
  325TMC3    C7 4941   2.110   0.172  15.159  0.5178 -0.5913  0.1942
  325TMC3    C8 4942   1.977   4.543  14.867  0.4714 -0.0449  1.3350
  325TMC3    O1 4943   2.201   0.239  15.202  0.1258  0.3295  0.1097
  325TMC3    O2 4944   1.997   4.484  14.761  0.2141  0.3908  0.5003
  326MPD2     C 4945   3.502   1.568  11.213 -0.2843  0.1339  0.4685
  326MPD2    C1 4946   3.561   1.469  11.129  0.2585 -0.0796  0.8777
  326MPD2    C2 4947   3.697   1.440  11.162  0.4240 -0.8180  0.2145
  326MPD2    C3 4948   3.757   1.500  11.270  0.4731 -0.4481 -0.4756
  326MPD2    C4 4949   3.697   1.601  11.341  0.3893 -0.3508  0.5483
  326MPD2    C5 4950   3.569   1.632  11.309  0.0119  0.0739 -0.6860
  326MPD2     H 4951   3.751   1.381  11.089 -0.8231  0.6424 -1.9152
  326MPD2    H1 4952   3.746   1.645  11.427  2.5574  0.8154 -1.2565
  326MPD2    H2 4953   3.403   1.606  11.188 -0.8261 -0.5826  1.5184
  326MPD2    H3 4954   3.510   1.703  11.367  1.4162  0.7178 -0.0634
  326MPD2     N 4955   3.890   1.479  11.308 -1.1586  0.7199 -0.2853
  326MPD2    H5 4956   3.927   1.540  11.380 -0.9179 -1.6997  1.6222
  326MPD2    N1 4957   3.497   1.399  11.016 -0.4512 -0.3465 -0.4175
  326MPD2    H7 4958   3.552   1.323  10.977  0.8502  1.2910 -1.7979
  327TMC3    C1 4959   3.293   1.336  10.889 -0.1455 -0.4489 -0.0205
  327TMC3    C2 4960   3.181   1.384  10.820  0.2191 -0.5476  0.7939
  327TMC3    C3 4961   3.087   1.301  10.761  0.1179  0.0913 -0.3886
  327TMC3    C4 4962   3.305   1.205  10.888  0.6276  0.1962 -0.7122
  327TMC3    C5 4963   3.222   1.123  10.814  0.2379  0.2144  0.4097
  327TMC3    C6 4964   3.112   1.167  10.744 -0.0662  0.1730  0.1150
  327TMC3     C 4965   3.371   1.434  10.971  0.0749  0.2148 -0.3909
  327TMC3     O 4966   3.313   1.544  10.987  0.3767 -0.3226 -0.3293
  327TMC3     H 4967   3.166   1.491  10.831  2.6349  0.1876 -3.0463
  327TMC3    H1 4968   3.386   1.160  10.946 -0.3538 -2.4307 -1.3652
  327TMC3    H2 4969   3.055   1.108  10.673  0.2315  1.5138 -1.2544
  327TMC3    C7 4970   3.239   0.984  10.814 -0.6397 -0.1545  0.2709
  327TMC3    C8 4971   2.975   1.369  10.701  0.5252  0.6722 -0.3361
  327TMC3    O1 4972   3.174   0.924  10.730  0.3781  0.5124  0.6964
  327TMC3    O2 4973   2.997   1.483  10.662  0.1153  0.2113  1.1285
  328MPD2     C 4974   1.579   0.812  17.284 -0.4065  0.5692 -0.1166
  328MPD2    C1 4975   1.508   0.694  17.286  0.0936  0.1463 -0.0613
  328MPD2    C2 4976   1.397   0.669  17.210 -0.6883 -0.1412  0.1925
  328MPD2    C3 4977   1.347   0.767  17.124  0.1676  0.2701  0.1257
  328MPD2    C4 4978   1.415   0.890  17.120  0.7019  0.4565  0.2140
  328MPD2    C5 4979   1.522   0.909  17.203  0.0263 -0.4638  0.1128
  328MPD2     H 4980   1.339   0.581  17.233 -2.7017  1.4596  1.3049
  328MPD2    H1 4981   1.365   0.968  17.064  3.0556  2.7726  1.3491
  328MPD2    H2 4982   1.658   0.828  17.356 -0.4468 -3.4072  0.8169
  328MPD2    H3 4983   1.574   1.003  17.200  0.4445 -0.6813  0.5039
  328MPD2     N 4984   1.235   0.748  17.038  0.3342  0.2050  0.1447
  328MPD2    H5 4985   1.210   0.823  16.974 -0.6492 -2.0236 -2.0611
  328MPD2    N1 4986   1.539   0.590  17.379 -0.1683 -0.5028 -0.1789
  328MPD2    H7 4987   1.492   0.501  17.365 -0.6550 -0.3528  0.5183
  329TMC3    C1 4988   1.620   0.474  17.559  0.7198  0.2912 -0.1546
  329TMC3    C2 4989   1.612   0.474  17.693 -0.1346 -0.4790 -0.4115
  329TMC3    C3 4990   1.598   0.348  17.749  0.1067  1.1481 -0.3944
  329TMC3    C4 4991   1.609   0.365  17.471  0.2646  0.4694 -0.0980
  329TMC3    C5 4992   1.586   0.247  17.536  0.2553  0.0603 -0.2297
  329TMC3    C6 4993   1.584   0.235  17.672 -0.3535  0.1643  0.0603
  329TMC3     C 4994   1.616   0.599  17.489 -1.3057 -0.0771  0.1881
  329TMC3     O 4995   1.673   0.688  17.547 -0.0951 -0.5170 -0.3741
  329TMC3     H 4996   1.619   0.559   0.003 -0.7067 -1.2445  0.6266
  329TMC3    H1 4997   1.627   0.372  17.364 -2.2234  0.1918 -0.5258
  329TMC3    H2 4998   1.541   0.144  17.713  0.1255  0.4598  1.2164
  329TMC3    C7 4999   1.579   0.118  17.465 -0.4317  0.1043  0.0673
  329TMC3    C8 5000   1.551   0.328   0.130 -0.1605  0.7781  0.0532
  329TMC3    O1 5001   1.608   0.016  17.523  0.9559 -0.4561  0.2002
  329TMC3    O2 5002   1.529   0.214   0.169 -0.1579  0.0636  0.5248
  330TMC3    C1 5003   3.838   0.492   9.718  0.6214  0.3589  0.0887
  330TMC3    C2 5004   3.726   0.446   9.645 -0.4003 -0.3846 -0.0824
  330TMC3    C3 5005   3.708   0.306   9.647 -0.1178  0.5688  0.2003
  330TMC3    C4 5006   3.924   0.414   9.787  0.2675  0.2496 -0.3878
  330TMC3    C5 5007   3.885   0.284   9.808  0.8266 -0.0881 -1.0485
  330TMC3    C6 5008   3.783   0.229   9.731  0.0983  0.1616 -0.2588
  330TMC3     C 5009   3.854   0.631   9.735 -0.4686  0.5078  0.8909
  330TMC3     O 5010   3.933   0.668   9.824 -0.2890  0.1879  0.1370
  330TMC3     H 5011   3.665   0.505   9.578  2.4541  1.9740 -0.6063
  330TMC3    H1 5012   4.007   0.461   9.840 -0.6572  2.5750 -1.0053
  330TMC3    H2 5013   3.766   0.122   9.732  0.4880  0.1191  1.4783
  330TMC3    C7 5014   3.970   0.184   9.876 -0.1759  0.2244 -0.3063
  330TMC3    C8 5015   3.584   0.257   9.598 -0.3378  0.1331  0.0842
  330TMC3    O1 5016   3.950   0.066   9.843 -0.4278 -0.4976 -0.3247
  330TMC3    O2 5017   3.527   0.303   9.501 -1.0367  0.4699  0.5362
  331MPD2     C 5018   1.616   4.213  13.186  0.0861  0.1947 -0.2255
  331MPD2    C1 5019   1.731   4.252  13.125  0.2922 -0.5766 -0.4426
  331MPD2    C2 5020   1.816   4.153  13.076  0.0324 -0.4423  0.4023
  331MPD2    C3 5021   1.795   4.018  13.092  0.1150 -0.8691 -0.7963
  331MPD2    C4 5022   1.677   3.986  13.149  1.1176  0.3243  0.2416
  331MPD2    C5 5023   1.593   4.079  13.198 -0.0688 -0.6590 -0.0330
  331MPD2     H 5024   1.912   4.178  13.030  0.4440 -0.0993  1.4509
  331MPD2    H1 5025   1.648   3.882  13.162  0.3009  0.5358  0.0809
  331MPD2    H2 5026   1.541   4.280  13.227 -0.7994 -1.0468  0.2074
  331MPD2    H3 5027   1.500   4.041  13.240 -0.8605 -0.4397 -1.5620
  331MPD2     N 5028   1.876   3.937  13.011  0.4656 -0.4254 -0.2207
  331MPD2    H5 5029   1.933   3.987  12.943  1.1395 -1.2636 -0.2824
  331MPD2    N1 5030   1.765   4.390  13.110 -0.2625  0.3494 -0.9632
  331MPD2    H7 5031   1.699   4.451  13.158  1.1600 -1.3182  3.1525
  332TMC3    C1 5032   1.951   3.741  12.911 -0.3234 -0.0425  0.8097
  332TMC3    C2 5033   1.990   3.811  12.798 -0.5652  0.1534  0.4763
  332TMC3    C3 5034   2.081   3.747  12.716  0.0290 -0.1735  0.5695
  332TMC3    C4 5035   2.020   3.636  12.956 -0.5555  0.7124 -0.5527
  332TMC3    C5 5036   2.136   3.598  12.891  0.5092  0.5288 -0.4939
  332TMC3    C6 5037   2.173   3.660  12.778  1.0605 -0.4308  0.0833
  332TMC3     C 5038   1.862   3.794  13.009 -0.0862 -0.3002 -0.0096
  332TMC3     O 5039   1.802   3.716  13.087  0.2756  0.2152 -0.1919
  332TMC3     H 5040   1.924   3.889  12.762  0.0959  0.7748  0.6241
  332TMC3    H1 5041   1.997   3.594  13.054  0.7288 -0.7206 -0.8574
  332TMC3    H2 5042   2.264   3.640  12.721 -0.2238 -0.4743 -1.9439
  332TMC3    C7 5043   2.204   3.487  12.947 -0.0498  0.0341 -0.6515
  332TMC3    C8 5044   2.130   3.841  12.615 -0.6983  0.0896  0.2896
  332TMC3    O1 5045   2.137   3.399  13.004  0.6770 -0.4087  0.5165
  332TMC3    O2 5046   2.251   3.855  12.601  0.2816 -0.4248 -0.6439
  333MPD2     C 5047   1.943   4.601  11.183 -0.0146  0.2623  0.2606
  333MPD2    C1 5048   2.048   4.523  11.149 -0.5117  0.1238  0.1359
  333MPD2    C2 5049   2.077   4.420  11.241  0.2514 -0.3982 -0.0883
  333MPD2    C3 5050   2.013   4.398  11.358 -0.1226  0.1861 -0.4874
  333MPD2    C4 5051   1.912   4.478  11.393 -0.6014 -0.0251  0.0174
  333MPD2    C5 5052   1.877   4.573  11.300  0.2250 -0.1238  0.5785
  333MPD2     H 5053   2.160   4.356  11.215  0.5297 -1.0471  2.4370
  333MPD2    H1 5054   1.854   4.469  11.484 -0.6303 -2.1767 -0.2328
  333MPD2    H2 5055   1.898   4.673  11.117  0.0452 -0.1211 -0.1996
  333MPD2    H3 5056   1.793   4.640  11.312  1.7490  1.7458  0.7042
  333MPD2     N 5057   2.043   4.281  11.438 -0.3032  0.0865 -0.1053
  333MPD2    H5 5058   2.123   4.223  11.413  1.3548  2.5092 -0.4093
  333MPD2    N1 5059   2.116   4.538  11.034  0.2648 -0.4910  1.1161
  333MPD2    H7 5060   2.111   4.631  10.995  0.1673 -0.9247  0.1097
  334TMC3    C1 5061   2.305   4.475  10.907 -0.0736  0.2119 -0.4934
  334TMC3    C2 5062   2.363   4.382  10.829 -0.3762  0.4667  0.0837
  334TMC3    C3 5063   2.481   4.428  10.761  0.7280  0.0314 -0.6716
  334TMC3    C4 5064   2.350   4.606  10.918 -0.1086 -0.9531 -0.4083
  334TMC3    C5 5065   2.465   4.636  10.852  0.1844 -0.3415  0.0905
  334TMC3    C6 5066   2.538   4.545  10.775  0.3014  0.7532  0.4845
  334TMC3     C 5067   2.187   4.434  10.976 -0.3972 -0.0440 -0.5715
  334TMC3     O 5068   2.167   4.317  10.993  0.1254 -0.1058 -0.4063
  334TMC3     H 5069   2.324   4.285  10.800  0.6010 -0.2703  1.2285
  334TMC3    H1 5070   2.299   4.674  10.985  1.8641  0.6897 -0.5687
  334TMC3    H2 5071   2.621   4.585  10.718  1.9429  0.6301  2.8425
  334TMC3    C7 5072   2.509   0.032  10.832  0.0059  0.6629  0.1589
  334TMC3    C8 5073   2.557   4.322  10.691 -1.0780 -0.6497 -1.1862
  334TMC3    O1 5074   2.629   0.056  10.801 -0.0289 -0.9764  0.0556
  334TMC3    O2 5075   2.497   4.218  10.666 -0.2893 -0.4725  0.4648
  335TMC3    C1 5076   2.118   0.465  17.470 -0.3425 -0.0848 -0.0158
  335TMC3    C2 5077   2.051   0.460  17.349 -0.6512 -0.0204  0.0540
  335TMC3    C3 5078   2.122   0.451  17.233  0.3712  0.1003 -0.8130
  335TMC3    C4 5079   2.254   0.479  17.470 -0.1043  0.2003 -0.1697
  335TMC3    C5 5080   2.318   0.464  17.346  0.6203 -0.7942  0.0392
  335TMC3    C6 5081   2.256   0.460  17.229 -0.0518  0.3874  0.4355
  335TMC3     C 5082   2.043   0.466  17.593  0.6270  0.3336 -0.6846
  335TMC3     O 5083   1.939   0.404  17.587  0.5537  1.2332  0.0675
  335TMC3     H 5084   1.945   0.439  17.350 -1.0867  2.3893  1.9707
  335TMC3    H1 5085   2.300   0.495  17.567  1.9546 -0.3692 -1.0467
  335TMC3    H2 5086   2.317   0.454  17.139 -0.1842 -0.4832  0.4088
  335TMC3    C7 5087   2.462   0.464  17.348 -0.3248 -0.9091 -0.4121
  335TMC3    C8 5088   2.062   0.381  17.130 -0.1926  0.4193 -0.9481
  335TMC3    O1 5089   2.525   0.498  17.245  0.8753 -0.4213 -0.3587
  335TMC3    O2 5090   2.095   0.421  17.020  0.5595  0.5334  0.2701
  336MPD2     C 5091   1.800   3.291  16.441 -0.5549 -0.4910  0.2734
  336MPD2    C1 5092   1.780   3.223  16.317 -0.0949 -0.3030  0.2405
  336MPD2    C2 5093   1.813   3.092  16.302  0.3674 -0.0281 -0.5257
  336MPD2    C3 5094   1.874   3.020  16.405 -0.1791 -0.0137  0.3678
  336MPD2    C4 5095   1.879   3.084  16.525  0.8891  0.5389  0.2073
  336MPD2    C5 5096   1.850   3.216  16.542  0.6491 -0.9537 -0.1632
  336MPD2     H 5097   1.796   3.049  16.204 -1.6017  0.0042 -0.2024
  336MPD2    H1 5098   1.912   3.037  16.617 -0.3479  1.5163  1.1434
  336MPD2    H2 5099   1.770   3.394  16.454 -0.9113 -0.4397 -0.9065
  336MPD2    H3 5100   1.859   3.268  16.637 -1.4069 -2.8630  1.0795
  336MPD2     N 5101   1.891   2.879  16.412  0.0542  0.2136  0.1990
  336MPD2    H5 5102   1.914   2.847  16.505 -0.0274  1.0412  0.4984
  336MPD2    N1 5103   1.726   3.282  16.202  0.2408 -0.2987  0.4912
  336MPD2    H7 5104   1.693   3.218  16.131  2.3873 -0.3233 -0.4726
  337TMC3    C1 5105   1.632   3.443  16.068 -0.1977 -0.2323  0.1912
  337TMC3    C2 5106   1.529   3.373  16.015  0.1986  0.4204 -0.1910
  337TMC3    C3 5107   1.493   3.394  15.887 -0.7691 -0.4450 -0.1050
  337TMC3    C4 5108   1.693   3.540  15.995  0.2515 -0.2702  0.6910
  337TMC3    C5 5109   1.642   3.571  15.869  0.4817 -0.4198 -0.9734
  337TMC3    C6 5110   1.549   3.493  15.813  0.5486  0.3146  0.0317
  337TMC3     C 5111   1.688   3.414  16.199 -0.1468 -0.1418 -0.3135
  337TMC3     O 5112   1.716   3.508  16.272  0.8819 -0.4088  0.5910
  337TMC3     H 5113   1.488   3.285  16.063 -0.5993  0.2206 -1.2404
  337TMC3    H1 5114   1.785   3.584  16.032 -0.7626  1.2613  1.3878
  337TMC3    H2 5115   1.516   3.520  15.713 -0.2793 -0.9186 -0.0330
  337TMC3    C7 5116   1.708   3.670  15.789  0.6831 -0.2133  0.0020
  337TMC3    C8 5117   1.358   3.348  15.854 -0.2163  0.4150 -0.2595
  337TMC3    O1 5118   1.691   3.676  15.667 -0.1640 -0.0195 -0.7381
  337TMC3    O2 5119   1.282   3.307  15.945 -0.2326  0.2742 -0.3633
  338MPD2     C 5120   1.991   2.538   1.244  0.6048 -0.0436  0.0248
  338MPD2    C1 5121   1.984   2.486   1.123 -1.0362  0.1972  0.2471
  338MPD2    C2 5122   1.860   2.436   1.083  0.3748 -0.4162  0.1842
  338MPD2    C3 5123   1.755   2.428   1.166  0.2033 -0.9802 -0.1692
  338MPD2    C4 5124   1.759   2.477   1.297  0.3901 -0.1560  0.8747
  338MPD2    C5 5125   1.882   2.531   1.334 -0.1403  0.3610  0.2193
  338MPD2     H 5126   1.843   2.378   0.993  0.3122 -1.2741  0.7490
  338MPD2    H1 5127   1.673   2.480   1.363  0.0193 -1.0693  0.4363
  338MPD2    H2 5128   2.086   2.575   1.282  0.8441 -0.2231 -0.4037
  338MPD2    H3 5129   1.888   2.567   1.436  0.5277 -0.5029  0.4900
  338MPD2     N 5130   1.639   2.379   1.100 -0.6315 -0.3398 -0.1229
  338MPD2    H5 5131   1.638   2.367   0.999  1.8732  0.6676 -0.2725
  338MPD2    N1 5132   2.100   2.465   1.049  0.3392 -0.1084  0.0140
  338MPD2    H7 5133   2.079   2.426   0.957 -0.2886 -0.6053  0.3615
  339TMC3    C1 5134   1.414   2.358   1.073 -0.3589 -0.2081  0.4504
  339TMC3    C2 5135   1.318   2.263   1.109 -0.6707  0.4534 -0.8250
  339TMC3    C3 5136   1.240   2.221   1.012 -0.2287 -0.1928 -0.4623
  339TMC3    C4 5137   1.429   2.396   0.942 -0.0461  0.7030  0.3278
  339TMC3    C5 5138   1.348   2.352   0.849  0.1771 -0.4390 -0.0136
  339TMC3    C6 5139   1.250   2.261   0.884  0.7372 -0.3239 -0.5026
  339TMC3     C 5140   1.520   2.370   1.166  0.3267 -0.1133 -0.2755
  339TMC3     O 5141   1.499   2.369   1.289  0.4320 -0.1307  1.0902
  339TMC3     H 5142   1.322   2.239   1.215 -0.2019  0.3457 -0.8704
  339TMC3    H1 5143   1.496   2.478   0.920 -1.3567  1.5199 -0.6083
  339TMC3    H2 5144   1.177   2.223   0.813  0.3911  2.4138 -1.6230
  339TMC3    C7 5145   1.410   2.335   0.718  0.5933  0.3685 -0.6421
  339TMC3    C8 5146   1.190   2.082   1.020 -0.7708 -0.8897 -0.2809
  339TMC3    O1 5147   1.533   2.327   0.721  0.4667  0.1766 -0.5691
  339TMC3    O2 5148   1.158   2.025   0.917 -0.0544  0.4439 -0.1831
  340MPD2     C 5149   2.426   0.862  10.631 -0.3310 -0.1732  0.2185
  340MPD2    C1 5150   2.342   0.761  10.589 -0.0908 -0.0127 -0.2313
  340MPD2    C2 5151   2.398   0.639  10.539  0.4524  1.0172  0.2529
  340MPD2    C3 5152   2.535   0.612  10.531 -0.3764 -0.4978  0.3794
  340MPD2    C4 5153   2.609   0.723  10.572 -0.0514  0.7429 -0.1671
  340MPD2    C5 5154   2.558   0.835  10.629 -0.0904  0.1452 -0.0943
  340MPD2     H 5155   2.327   0.564  10.505  1.9823 -1.5935  2.8355
  340MPD2    H1 5156   2.717   0.712  10.569 -0.1013  0.6184 -1.6306
  340MPD2    H2 5157   2.397   0.961  10.664  1.2324  0.1212  0.7128
  340MPD2    H3 5158   2.618   0.924  10.645 -0.4469  0.1014  1.4856
  340MPD2     N 5159   2.602   0.497  10.478  0.0041  0.0213 -0.0023
  340MPD2    H5 5160   2.703   0.506  10.474  0.0252  0.8597  2.7772
  340MPD2    N1 5161   2.207   0.784  10.565 -0.2942 -1.1664 -0.2384
  340MPD2    H7 5162   2.184   0.882  10.579 -0.2938 -1.1807 -0.1347
  341TMC3    C1 5163   1.976   0.748  10.505  0.1760 -0.5595  0.5067
  341TMC3    C2 5164   1.877   0.660  10.474 -0.2867  0.0647  0.5115
  341TMC3    C3 5165   1.748   0.712  10.473 -0.1744  0.1055  0.2002
  341TMC3    C4 5166   1.950   0.872  10.539 -0.0833 -0.2347 -0.2969
  341TMC3    C5 5167   1.826   0.920  10.529 -0.2748  0.2718  0.0145
  341TMC3    C6 5168   1.724   0.847  10.480 -0.7555 -0.4663 -0.9841
  341TMC3     C 5169   2.111   0.695  10.523 -0.0269  0.5138 -0.4550
  341TMC3     O 5170   2.117   0.574  10.496 -0.4678  0.1448  0.4858
  341TMC3     H 5171   1.897   0.563  10.430 -1.8213 -0.8039  1.7127
  341TMC3    H1 5172   2.031   0.941  10.559 -0.3293  0.0245 -0.2014
  341TMC3    H2 5173   1.629   0.898  10.470 -1.6026 -2.2157 -1.9921
  341TMC3    C7 5174   1.813   1.068  10.531  0.0089 -0.1040  0.0773
  341TMC3    C8 5175   1.642   0.617  10.436 -0.1000  0.5897 -0.2833
  341TMC3    O1 5176   1.897   1.130  10.597 -0.3348 -0.0002  0.6345
  341TMC3    O2 5177   1.681   0.501  10.444  0.9019  0.1361 -0.4010
  342MPD2     C 5178   0.617   3.938   0.175  0.0228 -0.1237 -0.1212
  342MPD2    C1 5179   0.731   3.883   0.118  0.2701 -0.3240 -0.0719
  342MPD2    C2 5180   0.839   3.963   0.102 -0.0299  0.1020  0.5568
  342MPD2    C3 5181   0.839   4.100   0.133 -0.2936 -0.1392  0.3323
  342MPD2    C4 5182   0.724   4.155   0.182  0.9033  0.6832 -0.5159
  342MPD2    C5 5183   0.611   4.072   0.204 -0.3264 -0.6877 -0.7637
  342MPD2     H 5184   0.925   3.907   0.067  0.5873  1.0878  0.5257
  342MPD2    H1 5185   0.711   4.261   0.198  1.1252  0.5380  0.6340
  342MPD2    H2 5186   0.527   3.883   0.201 -2.2807  3.2859 -0.9063
  342MPD2    H3 5187   0.520   4.114   0.246  0.0354 -0.9677  0.2960
  342MPD2     N 5188   0.950   4.186   0.098  0.8776  1.0046 -0.2835
  342MPD2    H5 5189   0.936   4.286   0.098 -0.4764  0.8252 -0.2069
  342MPD2    N1 5190   0.741   3.747   0.079  0.2473  0.4046  0.3137
  342MPD2    H7 5191   0.822   3.739   0.018  0.1427 -1.4889  0.4113
  343TMC3    C1 5192   0.698   3.518   0.053 -0.2638 -0.1015  0.3497
  343TMC3    C2 5193   0.777   3.516  17.698  0.2802  0.3226  1.7305
  343TMC3    C3 5194   0.776   3.398  17.626  0.2347  0.3476  1.0289
  343TMC3    C4 5195   0.630   3.412   0.098  0.1195  0.7307  0.0519
  343TMC3    C5 5196   0.633   3.297   0.032  0.0340  0.0363 -0.1099
  343TMC3    C6 5197   0.712   3.286  17.675 -0.3161  0.0391  0.5584
  343TMC3     C 5198   0.660   3.642   0.118 -0.2315 -0.0509  0.3525
  343TMC3     O 5199   0.570   3.642   0.195 -0.0534  0.0325 -0.3841
  343TMC3     H 5200   0.833   3.601  17.660 -0.6797 -0.1104 -0.6701
  343TMC3    H1 5201   0.563   3.416   0.183 -0.2530  0.4352 -0.2265
  343TMC3    H2 5202   0.714   3.189  17.627 -2.5787  0.8852 -1.2837
  343TMC3    C7 5203   0.544   3.197   0.071 -0.4048  0.2597  0.2255
  343TMC3    C8 5204   0.908   3.373  17.562  0.1193  0.1032 -0.2999
  343TMC3    O1 5205   0.464   3.166  17.741 -0.3321  0.0547  0.4300
  343TMC3    O2 5206   0.988   3.467  17.559 -0.7229  0.5298 -0.1100
  344MPD2     C 5207   0.900   3.260  11.514  0.5109  0.3479  0.4926
  344MPD2    C1 5208   0.851   3.257  11.383 -0.2423  0.2391 -0.9880
  344MPD2    C2 5209   0.896   3.346  11.295 -0.1212 -0.3999  0.3976
  344MPD2    C3 5210   0.983   3.447  11.338 -0.3560  0.1808  0.3322
  344MPD2    C4 5211   1.031   3.445  11.471  0.8725 -0.3939  0.0805
  344MPD2    C5 5212   0.990   3.350  11.555  0.0611 -0.5388 -0.0171
  344MPD2     H 5213   0.856   3.352  11.195 -3.6010 -0.7254  1.7591
  344MPD2    H1 5214   1.105   3.521  11.495  3.1283 -3.4534  2.8409
  344MPD2    H2 5215   0.863   3.192  11.590  0.9323  0.3323  0.6828
  344MPD2    H3 5216   1.032   3.345  11.655  4.3591 -1.3689 -1.8635
  344MPD2     N 5217   1.036   3.555  11.262  0.1628 -0.1130 -0.9561
  344MPD2    H5 5218   1.086   3.628  11.312  0.6301 -0.5840 -0.7309
  344MPD2    N1 5219   0.745   3.161  11.350  0.1393 -0.0378  0.2239
  344MPD2    H7 5220   0.725   3.098  11.427 -2.5222  0.9392  0.3061
  345TMC3    C1 5221   1.081   3.704  11.079 -0.3427 -0.7361  0.3615
  345TMC3    C2 5222   1.196   3.752  11.142  0.3348 -0.2882 -0.1734
  345TMC3    C3 5223   1.248   3.872  11.095 -0.6019 -0.1767 -0.1715
  345TMC3    C4 5224   1.035   3.761  10.966 -0.1623  0.3446 -0.2381
  345TMC3    C5 5225   1.095   3.877  10.918 -0.1819 -0.7242 -0.2808
  345TMC3    C6 5226   1.202   3.932  10.987  0.1698  0.8309  0.4408
  345TMC3     C 5227   1.022   3.582  11.122 -0.4336 -0.0413 -0.5074
  345TMC3     O 5228   0.971   3.511  11.039 -0.0719 -0.8463 -0.1887
  345TMC3     H 5229   1.222   3.712  11.240  1.0632 -1.4689 -0.8495
  345TMC3    H1 5230   0.961   3.705  10.910  2.0557  1.3627 -4.2017
  345TMC3    H2 5231   1.254   4.017  10.946 -0.5641  0.9379 -0.2813
  345TMC3    C7 5232   1.032   3.969  10.824 -0.6585  0.2200  0.8340
  345TMC3    C8 5233   1.269   3.968  11.200  0.5853  0.1379  0.8930
  345TMC3    O1 5234   1.070   4.086  10.811  0.4993 -0.0415  0.8870
  345TMC3    O2 5235   1.307   3.927  11.306 -0.0285 -0.5810 -0.3233
  346MPD2     C 5236   1.017   4.567  14.732  0.7676 -0.3775 -0.5044
  346MPD2    C1 5237   1.117   4.664  14.729  0.7437 -0.0373  0.0912
  346MPD2    C2 5238   1.158   4.729  14.844  0.4142  0.3085  0.3191
  346MPD2    C3 5239   1.104   4.699  14.966 -0.5710 -0.4796 -0.6423
  346MPD2    C4 5240   1.013   4.596  14.968 -0.2016  0.7447 -0.6550
  346MPD2    C5 5241   0.968   4.534  14.853  0.0921 -0.1750 -0.1627
  346MPD2     H 5242   1.238   0.062  14.838  1.0762 -0.4659 -0.2653
  346MPD2    H1 5243   0.954   4.582  15.058  1.4290  2.4133  0.6601
  346MPD2    H2 5244   0.967   4.530  14.643 -0.3742 -1.4242  0.5690
  346MPD2    H3 5245   0.891   4.458  14.855  0.2063 -0.2688  0.4081
  346MPD2     N 5246   1.157   0.016  15.082 -0.4870  0.2154 -0.3228
  346MPD2    H5 5247   1.240   0.073  15.067 -0.3078  0.1505  0.4105
  346MPD2    N1 5248   1.182   4.706  14.608  0.0233 -0.0653 -0.0011
  346MPD2    H7 5249   1.255   0.037  14.609 -0.6678  0.6473 -0.7200
  347TMC3    C1 5250   1.163   0.105  15.296 -0.4085 -0.7960 -0.5403
  347TMC3    C2 5251   1.270   0.177  15.251 -0.0642  0.1883 -0.2381
  347TMC3    C3 5252   1.347   0.233  15.346  0.1171  0.4121  0.0096
  347TMC3    C4 5253   1.132   0.090  15.433  0.2073 -0.0893  0.3936
  347TMC3    C5 5254   1.217   0.153  15.523  0.7409 -0.2885  0.9279
  347TMC3    C6 5255   1.324   0.227  15.476  0.3974 -0.1840 -0.4012
  347TMC3     C 5256   1.103   0.009  15.206  1.0795 -0.2381 -0.3495
  347TMC3     O 5257   1.008   4.683  15.250 -0.8812  0.7375  0.6287
  347TMC3     H 5258   1.299   0.206  15.151  0.7722 -0.4065 -0.1627
  347TMC3    H1 5259   1.040   0.037  15.456  1.1886 -1.6225  0.7235
  347TMC3    H2 5260   1.403   0.252  15.546 -0.4377 -2.2419  1.2782
  347TMC3    C7 5261   1.211   0.138  15.668 -0.4880 -0.2750 -0.3358
  347TMC3    C8 5262   1.487   0.241  15.303 -0.6191 -0.3100  0.5588
  347TMC3    O1 5263   1.272   0.212  15.745  0.3576 -0.3359 -0.1143
  347TMC3    O2 5264   1.521   0.158  15.217 -0.1423 -0.1247 -0.6418
  348MPD2     C 5265   0.118   4.381  11.664  1.1580 -0.1008 -0.1348
  348MPD2    C1 5266   4.728   4.342  11.653 -1.1010  0.1401  0.2559
  348MPD2    C2 5267   4.642   4.435  11.605 -0.1374  0.1396  0.0145
  348MPD2    C3 5268   4.682   4.563  11.565 -1.2558 -0.4146 -0.4343
  348MPD2    C4 5269   0.077   4.592  11.564  0.1391  0.1513 -0.3434
  348MPD2    C5 5270   0.166   4.507  11.617  0.0689  0.3976 -0.1968
  348MPD2     H 5271   4.535   4.424  11.601 -0.4226  2.7119  0.5402
  348MPD2    H1 5272   0.118   4.679  11.513 -1.8220  0.7906 -0.8219
  348MPD2    H2 5273   0.198   4.317  11.700  1.8779  0.3244 -0.9703
  348MPD2    H3 5274   0.270   4.536  11.610  0.3889 -0.3231  1.4374
  348MPD2     N 5275   4.577   4.643  11.515  0.1318 -0.0324  0.0601
  348MPD2    H5 5276   4.496   4.607  11.465  1.1412  0.1010 -1.6576
  348MPD2    N1 5277   4.673   4.222  11.706 -0.5842 -0.2849 -0.2970
  348MPD2    H7 5278   4.576   4.205  11.683  0.0570 -3.2760 -0.8115
  349TMC3    C1 5279   4.684   4.023  11.833 -0.1456 -0.3851  0.0375
  349TMC3    C2 5280   0.004   3.956  11.940  0.0000 -0.3028  0.1906
  349TMC3    C3 5281   4.657   3.905  12.036 -0.4513  0.3194 -0.0345
  349TMC3    C4 5282   4.546   4.026  11.824  0.2613 -0.8043  0.0767
  349TMC3    C5 5283   4.468   3.966  11.911 -0.0947 -0.2688 -0.2595
  349TMC3    C6 5284   4.519   3.900  12.023 -0.8418 -0.1816 -0.4659
  349TMC3     C 5285   0.015   4.126  11.765  0.3103 -0.1304  0.5479
  349TMC3     O 5286   0.138   4.124  11.779 -0.0499  0.0062  0.1739
  349TMC3     H 5287   0.111   3.954  11.957 -0.2197 -0.9589  1.4457
  349TMC3    H1 5288   4.500   4.069  11.735 -1.5180 -3.1137 -0.1075
  349TMC3    H2 5289   4.452   3.899  12.108  2.5920 -0.1843  2.2208
  349TMC3    C7 5290   4.353   4.046  11.935 -0.0922  0.2492 -0.7142
  349TMC3    C8 5291   4.725   3.829  12.140 -0.6437 -0.0736 -0.4765
  349TMC3    O1 5292   4.244   4.005  11.906  0.1862  0.4372 -0.0939
  349TMC3    O2 5293   0.100   3.852  12.173 -0.6143  0.0480 -0.0143
  350MPD2     C 5294   3.853   3.222  10.858  0.2925  0.0452 -0.3999
  350MPD2    C1 5295   3.800   3.103  10.829  0.2985 -0.2822 -0.1644
  350MPD2    C2 5296   3.808   3.001  10.922  0.1203 -0.6946  0.0705
  350MPD2    C3 5297   3.849   3.020  11.056  0.3636  0.0700  0.5082
  350MPD2    C4 5298   3.897   3.152  11.082  0.5068  0.3857 -0.5424
  350MPD2    C5 5299   3.906   3.247  10.984 -0.2683  0.3696  0.1249
  350MPD2     H 5300   3.763   2.905  10.900 -0.9169 -0.5245  1.4669
  350MPD2    H1 5301   3.933   3.183  11.179 -2.5325  1.0233  0.3810
  350MPD2    H2 5302   3.867   3.302  10.787  1.0127 -1.8330 -2.3755
  350MPD2    H3 5303   3.961   3.338  11.005  0.5841  0.1987 -1.3209
  350MPD2     N 5304   3.831   2.928  11.164  0.3406  0.3597  0.2297
  350MPD2    H5 5305   3.781   2.843  11.141  1.1199  0.5080 -1.9735
  350MPD2    N1 5306   3.759   3.064  10.703  0.1569 -0.9668  0.5026
  350MPD2    H7 5307   3.739   2.965  10.693  1.3479 -1.1779  0.2322
  351TMC3    C1 5308   3.713   3.070  10.472 -0.5841  0.0556  0.3489
  351TMC3    C2 5309   3.768   2.941  10.465  0.5790 -0.4576  0.1568
  351TMC3    C3 5310   3.745   2.877  10.349  0.6102 -0.3172 -0.0328
  351TMC3    C4 5311   3.631   3.125  10.376 -0.3702  0.2908  0.3168
  351TMC3    C5 5312   3.608   3.051  10.261 -0.6617  0.1477  0.8387
  351TMC3    C6 5313   3.664   2.919  10.248 -0.7211  0.3797 -0.5541
  351TMC3     C 5314   3.744   3.147  10.596  0.2359  0.3968  0.1218
  351TMC3     O 5315   3.769   3.265  10.587 -0.2899  0.5353 -0.5927
  351TMC3     H 5316   3.836   2.900  10.538  0.1722 -0.1892  0.6857
  351TMC3    H1 5317   3.583   3.221  10.391 -2.3836 -0.7651  0.7188
  351TMC3    H2 5318   3.653   2.872  10.151 -0.4386 -0.3471 -0.2352
  351TMC3    C7 5319   3.532   3.113  10.152  0.6249  0.6254  0.0650
  351TMC3    C8 5320   3.842   2.778  10.312  0.2877  0.0170 -1.1857
  351TMC3    O1 5321   3.466   3.041  10.077 -0.2790  0.2346  0.6280
  351TMC3    O2 5322   3.804   2.683  10.247 -0.0843 -0.6563 -0.5692
  352MPD2     C 5323   2.129   0.227   1.603 -0.3623 -0.3033 -0.0816
  352MPD2    C1 5324   2.047   0.126   1.553  0.8473  0.0827  0.0406
  352MPD2    C2 5325   2.045   0.001   1.609 -0.2648  1.2722 -0.7175
  352MPD2    C3 5326   2.111   4.729   1.725  0.3487 -0.0750 -0.1375
  352MPD2    C4 5327   2.194   0.092   1.777 -0.2075 -0.2361 -0.7309
  352MPD2    C5 5328   2.198   0.209   1.716  0.5496 -1.3207 -0.3763
  352MPD2     H 5329   1.984   4.667   1.560  0.1223 -0.3866  1.2906
  352MPD2    H1 5330   2.245   0.075   1.871 -1.4421  2.3204  0.3848
  352MPD2    H2 5331   2.124   0.329   1.566 -0.8076  0.3357  1.7216
  352MPD2    H3 5332   2.251   0.293   1.758  1.3388 -2.0465  0.0867
  352MPD2     N 5333   2.119   4.604   1.790 -0.3825  0.6892  0.0100
  352MPD2    H5 5334   2.186   4.589   1.865 -1.3960  1.6854  1.1066
  352MPD2    N1 5335   1.972   0.170   1.441 -0.0153 -0.5709 -0.4424
  352MPD2    H7 5336   1.971   0.269   1.419 -0.0178 -0.3426  0.5548
  353TMC3    C1 5337   2.051   4.392   1.857 -0.5190 -0.1752  0.5304
  353TMC3    C2 5338   2.169   4.334   1.849  0.2213 -0.7708 -0.1072
  353TMC3    C3 5339   2.183   4.195   1.863  0.0459 -0.0883 -0.5863
  353TMC3    C4 5340   1.937   4.316   1.855  0.0204 -0.3043  0.5225
  353TMC3    C5 5341   1.945   4.181   1.859  0.4247 -0.3003  0.2886
  353TMC3    C6 5342   2.072   4.121   1.869  0.1740 -0.5725 -0.0321
  353TMC3     C 5343   2.028   4.503   1.768  0.4049 -0.0097 -0.3563
  353TMC3     O 5344   1.937   4.495   1.685 -0.1217 -0.1855 -0.8801
  353TMC3     H 5345   2.255   4.398   1.831  0.6780 -1.1188  0.8322
  353TMC3    H1 5346   1.841   4.366   1.869  0.1641  0.2715 -0.5104
  353TMC3    H2 5347   2.071   4.013   1.869  0.2271 -0.5702 -0.6291
  353TMC3    C7 5348   1.843   4.093   1.815 -0.0385  0.3612 -0.4464
  353TMC3    C8 5349   2.320   4.139   1.853 -0.9753  0.0964  0.3285
  353TMC3    O1 5350   1.861   3.970   1.807  0.1699  0.2724  0.0234
  353TMC3    O2 5351   2.402   4.213   1.797 -0.3282  0.1612  0.0063
  354TMC3    C1 5352   3.877   1.271  13.938 -0.2321 -0.3264  0.2998
  354TMC3    C2 5353   3.791   1.360  13.887 -0.7422  0.2267 -0.6412
  354TMC3    C3 5354   3.794   1.385  13.755  0.0997 -0.2729 -0.3941
  354TMC3    C4 5355   3.977   1.216  13.867 -0.0184  0.3283 -0.1726
  354TMC3    C5 5356   3.988   1.251  13.732 -0.2463 -0.1340  0.2909
  354TMC3    C6 5357   3.894   1.333  13.673  0.5087 -0.2376 -0.3374
  354TMC3     C 5358   3.817   1.184  14.041 -1.0189 -0.0742 -0.0466
  354TMC3     O 5359   3.697   1.174  14.031 -0.0063 -0.5449  0.1833
  354TMC3     H 5360   3.723   1.414  13.952 -1.3002 -1.1398 -0.0751
  354TMC3    H1 5361   4.021   1.124  13.905  0.5931  1.0562  0.8650
  354TMC3    H2 5362   3.890   1.351  13.566 -0.1410 -0.0576 -0.2864
  354TMC3    C7 5363   4.021   1.129  13.657  0.0536  0.4398  0.0398
  354TMC3    C8 5364   3.709   1.494  13.712  0.2372  0.2767 -0.1643
  354TMC3    O1 5365   4.017   1.019  13.705  0.1774 -0.3263 -0.1754
  354TMC3    O2 5366   3.652   1.565  13.796  0.6122  0.2015 -0.1024
  355MPD2     C 5367   3.566   1.917  12.113  0.2784  0.4241 -0.0967
  355MPD2    C1 5368   3.651   1.958  12.017 -0.5068 -0.5465  0.1327
  355MPD2    C2 5369   3.781   1.928  12.035  0.8329 -0.2262  1.2208
  355MPD2    C3 5370   3.827   1.870  12.155  0.5508  0.9879 -1.0856
  355MPD2    C4 5371   3.736   1.842  12.258  0.0895  0.5821 -0.0655
  355MPD2    C5 5372   3.603   1.861  12.233  0.0302 -0.4833 -0.3178
  355MPD2     H 5373   3.858   1.945  11.961  0.7505 -3.2380  0.4154
  355MPD2    H1 5374   3.765   1.798  12.352 -1.6769 -1.3139 -0.3945
  355MPD2    H2 5375   3.458   1.921  12.109  0.2501 -0.3587 -0.0253
  355MPD2    H3 5376   3.525   1.828  12.302  0.6798  0.2415  0.7733
  355MPD2     N 5377   3.958   1.852  12.192 -0.4216  0.0844  0.9129
  355MPD2    H5 5378   3.982   1.851  12.290 -3.3458  2.3498  1.6667
  355MPD2    N1 5379   3.594   2.020  11.896  0.1783 -0.3275  0.0654
  355MPD2    H7 5380   3.497   1.996  11.879 -0.1100  1.2608 -0.4318
  356TMC3    C1 5381   4.184   1.874  12.144 -0.0558  0.5840 -0.0721
  356TMC3    C2 5382   4.253   1.951  12.059 -0.1941  0.4008 -0.2179
  356TMC3    C3 5383   4.325   2.055  12.107  0.1389 -1.6626 -0.4392
  356TMC3    C4 5384   4.196   1.898  12.281 -0.2320 -0.2640  0.1984
  356TMC3    C5 5385   4.273   2.004  12.327 -0.2472  0.0176 -0.2425
  356TMC3    C6 5386   4.335   2.088  12.241 -0.2526 -0.1033  0.5083
  356TMC3     C 5387   4.056   1.848  12.098  0.0019  0.6250  0.4030
  356TMC3     O 5388   4.047   1.842  11.977 -0.0322 -0.2037  0.1455
  356TMC3     H 5389   4.251   1.943  11.951 -0.9011  2.9935 -0.3826
  356TMC3    H1 5390   4.143   1.833  12.349  4.1955 -2.1396  1.8877
  356TMC3    H2 5391   4.370   2.188  12.262  2.3952 -0.8763 -0.1705
  356TMC3    C7 5392   4.318   1.994  12.461 -0.0551 -0.1059  0.5338
  356TMC3    C8 5393   4.391   2.139  12.005  0.1649  0.5363  0.0983
  356TMC3    O1 5394   4.274   1.893  12.512  0.2974  0.2064 -0.2462
  356TMC3    O2 5395   4.382   2.099  11.892  0.0520 -0.2953 -0.1930
  357MPD2     C 5396   3.172   1.360   0.418  0.1155 -0.4909  0.9158
  357MPD2    C1 5397   3.126   1.242   0.475 -0.9549 -0.8703 -1.1676
  357MPD2    C2 5398   3.085   1.253   0.604  0.0657 -0.1940 -0.1592
  357MPD2    C3 5399   3.099   1.370   0.682  0.5972  0.7896  0.4060
  357MPD2    C4 5400   3.135   1.486   0.622  0.2192  0.2192  0.2229
  357MPD2    C5 5401   3.180   1.477   0.491  0.1193 -0.5629 -0.5464
  357MPD2     H 5402   3.049   1.166   0.657 -1.0271 -0.0117 -0.6171
  357MPD2    H1 5403   3.141   1.588   0.660  1.7146  1.0249 -2.1751
  357MPD2    H2 5404   3.213   1.369   0.318  1.8157  0.5199  1.7089
  357MPD2    H3 5405   3.207   1.571   0.443  0.4558 -0.1504  0.4478
  357MPD2     N 5406   3.085   1.365   0.823  0.4442 -0.4224 -0.6976
  357MPD2    H5 5407   3.094   1.450   0.878 -1.1121 -0.8694  0.2450
  357MPD2    N1 5408   3.111   1.117   0.416  0.4043 -0.4536 -0.6412
  357MPD2    H7 5409   3.073   1.051   0.482  2.3232 -1.1741 -0.2452
  358TMC3    C1 5410   3.158   0.935   0.266 -0.0678 -0.2290 -0.0626
  358TMC3    C2 5411   3.241   0.894   0.168  0.3142 -0.0092 -0.4948
  358TMC3    C3 5412   3.292   0.775   0.171 -0.6567  0.1668  0.5978
  358TMC3    C4 5413   3.116   0.848   0.361  0.3835  0.3305 -0.1823
  358TMC3    C5 5414   3.177   0.727   0.365 -0.0417 -0.0894 -0.6020
  358TMC3    C6 5415   3.279   0.684   0.277  0.2157  0.0904 -0.1398
  358TMC3     C 5416   3.152   1.078   0.291 -0.0608  0.2125  0.0049
  358TMC3     O 5417   3.190   1.146   0.195 -0.1454  0.3732  0.1911
  358TMC3     H 5418   3.269   0.967   0.093  0.9438 -0.4966 -0.7271
  358TMC3    H1 5419   3.041   0.877   0.433  0.5233 -0.2760  0.2077
  358TMC3    H2 5420   3.316   0.582   0.277 -0.7733 -0.2838  2.5807
  358TMC3    C7 5421   3.105   0.628   0.433  0.5849 -0.0263  0.3636
  358TMC3    C8 5422   3.405   0.759   0.084 -0.0127 -0.0859  0.5008
  358TMC3    O1 5423   2.985   0.656   0.444  0.0909 -0.4773  0.0303
  358TMC3    O2 5424   3.409   0.799  17.725  0.0798  0.3337  0.1427
  359MPD2     C 5425   3.620   0.519  12.312 -0.4248 -0.8186 -0.2456
  359MPD2    C1 5426   3.698   0.414  12.267  0.0341  0.2076  0.0833
  359MPD2    C2 5427   3.654   0.285  12.297  0.0567 -0.2769 -0.4398
  359MPD2    C3 5428   3.530   0.263  12.366 -0.0016 -0.3755 -0.6851
  359MPD2    C4 5429   3.455   0.375  12.397  0.3876 -0.0185  0.5594
  359MPD2    C5 5430   3.505   0.497  12.377 -0.2950 -0.3891 -0.4538
  359MPD2     H 5431   3.722   0.204  12.277 -0.9563 -1.2673  0.1649
  359MPD2    H1 5432   3.368   0.363  12.460  2.3379 -0.1028  3.2410
  359MPD2    H2 5433   3.650   0.623  12.304  0.1191 -0.8745  0.9651
  359MPD2    H3 5434   3.456   0.590  12.404 -0.7949 -0.3464 -1.5086
  359MPD2     N 5435   3.482   0.133  12.406  0.1544  0.2763 -0.5623
  359MPD2    H5 5436   3.388   0.122  12.443 -0.4833  1.5030 -1.8052
  359MPD2    N1 5437   3.825   0.425  12.200  0.7808  0.2286 -0.3103
  359MPD2    H7 5438   3.881   0.341  12.187 -1.2406 -1.1129 -0.2531
  360TMC3    C1 5439   4.012   0.519  12.105 -0.4577  0.3940 -0.1721
  360TMC3    C2 5440   4.118   0.600  12.141 -0.2346 -0.6006 -0.7900
  360TMC3    C3 5441   4.231   0.601  12.071  0.7576  0.3224  0.2052
  360TMC3    C4 5442   4.018   0.444  11.993  0.1001 -0.2870 -0.7447
  360TMC3    C5 5443   4.137   0.432  11.930 -0.7037  0.2494  0.0346
  360TMC3    C6 5444   4.244   0.509  11.967  0.6817  0.1841 -0.2152
  360TMC3     C 5445   3.874   0.543  12.158  0.1718 -0.5343  0.1379
  360TMC3     O 5446   3.844   0.659  12.192  0.2680 -0.3234 -0.3563
  360TMC3     H 5447   4.101   0.688  12.203 -0.5799 -0.0104 -1.7173
  360TMC3    H1 5448   3.924   0.403  11.959 -1.5419  1.6286  1.4521
  360TMC3    H2 5449   4.338   0.499  11.914  1.6542 -2.9965  2.0767
  360TMC3    C7 5450   4.139   0.373  11.798  0.4997  0.1870  0.6942
  360TMC3    C8 5451   4.312   0.723  12.071 -0.4328 -0.4991 -0.2404
  360TMC3    O1 5452   4.225   0.421  11.727  0.1298 -0.7242  0.6139
  360TMC3    O2 5453   4.270   0.831  12.101 -0.2738  0.1902 -0.0787
  361MPD2     C 5454   1.431   3.675  16.622 -0.5365  0.2907  0.6704
  361MPD2    C1 5455   1.405   3.711  16.752 -0.0195  0.8636 -0.1053
  361MPD2    C2 5456   1.508   3.681  16.850 -0.2074  0.6713 -0.3546
  361MPD2    C3 5457   1.623   3.622  16.811  0.3639 -0.8392 -0.1184
  361MPD2    C4 5458   1.640   3.589  16.679 -0.6822  0.1707 -0.5350
  361MPD2    C5 5459   1.547   3.613  16.584  0.3746  0.0528 -0.6472
  361MPD2     H 5460   1.488   3.702  16.954 -1.4001 -0.4949 -0.3366
  361MPD2    H1 5461   1.726   3.533  16.645  1.3532  3.2343 -0.3629
  361MPD2    H2 5462   1.359   3.692  16.543 -0.2445 -2.1709 -0.1256
  361MPD2    H3 5463   1.568   3.582  16.482 -0.3242  1.0170 -1.0764
  361MPD2     N 5464   1.726   3.585  16.900 -0.0102  0.3557  0.0047
  361MPD2    H5 5465   1.813   3.553  16.859 -1.7145 -3.1654 -0.8957
  361MPD2    N1 5466   1.288   3.771  16.792 -0.1835 -0.4180  0.1778
  361MPD2    H7 5467   1.271   3.794  16.890  0.0262  1.6796 -0.2694
  362TMC3    C1 5468   1.076   3.892  16.774 -0.5150  0.5279 -0.3576
  362TMC3    C2 5469   1.114   3.974  16.884  0.4190  0.3868 -0.5606
  362TMC3    C3 5470   1.048   4.097  16.893  0.7752 -0.1583 -0.6236
  362TMC3    C4 5471   0.980   3.922  16.688  0.6746 -0.0732  0.6093
  362TMC3    C5 5472   0.911   4.040  16.708 -1.0018 -0.3274 -0.1450
  362TMC3    C6 5473   0.949   4.124  16.804  0.5438 -0.4425  0.6055
  362TMC3     C 5474   1.181   3.814  16.709 -0.0315 -0.1287 -0.0140
  362TMC3     O 5475   1.169   3.823  16.586  0.0034  0.5770  0.2815
  362TMC3     H 5476   1.200   3.955  16.948  0.2785  0.3806 -0.3738
  362TMC3    H1 5477   0.958   3.855  16.606  0.4211 -0.8481  1.3139
  362TMC3    H2 5478   0.898   4.218  16.825 -2.5279 -2.4506  2.0629
  362TMC3    C7 5479   0.852   4.106  16.595 -0.4762 -0.6576  0.2298
  362TMC3    C8 5480   1.097   4.193  16.999 -0.1742 -0.0258  0.6023
  362TMC3    O1 5481   0.849   4.228  16.594  0.3257  0.6265 -0.6612
  362TMC3    O2 5482   1.201   4.156  17.053  1.0675  0.0856  0.5709
  363TMC3    C1 5483   0.219   2.194   9.637  0.2858 -0.6186  0.4084
  363TMC3    C2 5484   0.135   2.135   9.724 -0.2921 -0.4559 -0.4662
  363TMC3    C3 5485   0.070   2.208   9.817  0.0787  0.2757  0.6084
  363TMC3    C4 5486   0.230   2.333   9.634  0.5327 -0.5110  0.2856
  363TMC3    C5 5487   0.175   2.404   9.740 -0.0101  0.2127  0.2949
  363TMC3    C6 5488   0.101   2.342   9.833 -0.4140 -0.5487  0.2973
  363TMC3     C 5489   0.262   2.123   9.511 -0.3553  0.0548  0.2060
  363TMC3     O 5490   0.264   2.182   9.406  0.6599 -0.1955  0.6253
  363TMC3     H 5491   0.113   2.029   9.726  0.6664 -0.6597 -0.5816
  363TMC3    H1 5492   0.282   2.375   9.549 -0.4922 -1.8087 -0.9727
  363TMC3    H2 5493   0.067   2.395   9.921  0.2801  0.7592 -0.2284
  363TMC3    C7 5494   0.198   2.548   9.762 -0.0367 -0.2386 -0.6005
  363TMC3    C8 5495   0.002   2.146   9.931 -0.5519  0.1484  0.1430
  363TMC3    O1 5496   0.140   2.605   9.852 -0.2618 -0.0939  0.0139
  363TMC3    O2 5497   4.735   2.215  10.036  0.2447 -0.2908 -0.2142
  364MPD2     C 5498   2.505   1.389  10.498  0.4344 -0.7145 -0.6716
  364MPD2    C1 5499   2.603   1.485  10.507  0.2300  0.1005  0.6106
  364MPD2    C2 5500   2.719   1.454  10.579 -0.2008 -0.6443  0.3187
  364MPD2    C3 5501   2.737   1.329  10.635 -0.5135  0.3039  0.1513
  364MPD2    C4 5502   2.647   1.235  10.606 -0.0908  0.1669  0.1361
  364MPD2    C5 5503   2.526   1.268  10.546 -0.5926  0.1409  0.4039
  364MPD2     H 5504   2.797   1.530  10.579  1.0125 -1.8902  0.6316
  364MPD2    H1 5505   2.656   1.134  10.644 -1.1914  0.0073 -0.0295
  364MPD2    H2 5506   2.413   1.422  10.452  1.7913  2.1273 -1.3986
  364MPD2    H3 5507   2.451   1.190  10.551  0.5969 -1.0071  0.2886
  364MPD2     N 5508   2.861   1.293  10.693  0.2536  0.1889  0.0316
  364MPD2    H5 5509   2.859   1.199  10.731  0.0859 -0.2639 -1.0977
  364MPD2    N1 5510   2.575   1.609  10.446  0.5498 -0.2195 -0.7513
  364MPD2    H7 5511   2.480   1.638  10.424 -0.1626 -1.6689  0.4357
  365TMC3    C1 5512   2.626   1.825  10.365  0.0123  0.5615 -0.7841
  365TMC3    C2 5513   2.677   1.838  10.234 -0.5332  0.0732 -0.6004
  365TMC3    C3 5514   2.741   1.952  10.201  0.3781 -0.8232 -0.3700
  365TMC3    C4 5515   2.633   1.930  10.451  0.1929 -0.0731 -0.2648
  365TMC3    C5 5516   2.700   2.043  10.410 -0.6010 -0.1952  0.4699
  365TMC3    C6 5517   2.751   2.059  10.279 -0.5443 -1.0618  0.6047
  365TMC3     C 5518   2.680   1.706  10.428  0.1190  0.6492  0.2771
  365TMC3     O 5519   2.799   1.711  10.473  0.1388  0.0640 -0.0057
  365TMC3     H 5520   2.686   1.751  10.171 -0.8354 -0.8884  0.6823
  365TMC3    H1 5521   2.602   1.917  10.554  2.0800 -0.6850  0.2293
  365TMC3    H2 5522   2.796   2.153  10.250  0.6914 -1.0910  2.3663
  365TMC3    C7 5523   2.720   2.154  10.504 -1.0329  0.6285  0.2116
  365TMC3    C8 5524   2.831   1.944  10.086 -0.2382  0.2439  1.1556
  365TMC3    O1 5525   2.757   2.261  10.454 -0.0710 -0.2086  0.1620
  365TMC3    O2 5526   2.863   2.045  10.029 -0.2050  0.1574 -0.1822
  366MPD2     C 5527   1.256   2.423  15.629  1.2603 -0.6707  0.1169
  366MPD2    C1 5528   1.386   2.456  15.624 -0.7254 -0.5651 -0.1660
  366MPD2    C2 5529   1.474   2.354  15.620  0.1360 -0.0958  0.1713
  366MPD2    C3 5530   1.430   2.218  15.617 -0.1805  0.2575  0.4078
  366MPD2    C4 5531   1.294   2.193  15.627 -0.7124  0.3727 -1.1723
  366MPD2    C5 5532   1.208   2.298  15.633  0.8096  0.7163 -0.1404
  366MPD2     H 5533   1.579   2.380  15.608  1.3475 -4.1639  1.7128
  366MPD2    H1 5534   1.268   2.089  15.642  3.3526 -0.4605  0.0511
  366MPD2    H2 5535   1.187   2.506  15.638 -0.4259 -2.0600 -0.1139
  366MPD2    H3 5536   1.105   2.264  15.637  1.3483 -0.7103  1.4962
  366MPD2     N 5537   1.523   2.113  15.605 -0.1726 -0.2673 -0.3827
  366MPD2    H5 5538   1.620   2.141  15.613 -0.2682 -0.7339  2.2172
  366MPD2    N1 5539   1.429   2.586  15.617  0.2092  0.6415  0.5385
  366MPD2    H7 5540   1.530   2.598  15.619  0.4528 -1.3372  0.1620
  367TMC3    C1 5541   1.429   2.802  15.544  0.1977  0.2683  0.5758
  367TMC3    C2 5542   1.507   2.847  15.646  0.1824  0.3439 -0.4205
  367TMC3    C3 5543   1.567   2.972  15.626  0.3998 -0.1172  0.2052
  367TMC3    C4 5544   1.406   2.875  15.434  0.4991  0.2128 -0.3709
  367TMC3    C5 5545   1.459   2.999  15.423  0.2996 -0.1087  0.0243
  367TMC3    C6 5546   1.539   3.052  15.519 -0.3604  0.1237  0.0198
  367TMC3     C 5547   1.352   2.684  15.566 -0.2716  0.3864  0.5801
  367TMC3     O 5548   1.238   2.687  15.523 -0.0348 -0.3228 -0.2650
  367TMC3     H 5549   1.533   2.784  15.731  1.0345 -1.1928 -1.8415
  367TMC3    H1 5550   1.332   2.843  15.361  1.8670 -1.4249 -1.0489
  367TMC3    H2 5551   1.573   3.154  15.514  0.4345 -0.2319 -1.6473
  367TMC3    C7 5552   1.422   3.088  15.314  0.1766 -0.6634 -0.7401
  367TMC3    C8 5553   1.648   3.030  15.735  0.2520 -0.0746  0.0166
  367TMC3    O1 5554   1.441   3.208  15.320 -0.0777 -0.1071  0.5202
  367TMC3    O2 5555   1.628   2.968  15.840 -0.3529 -0.6533 -0.1995
  368MPD2     C 5556   2.150   3.997  13.210  0.2241  0.2887  0.7467
  368MPD2    C1 5557   2.231   4.107  13.193 -0.0830  0.1876  0.2709
  368MPD2    C2 5558   2.353   4.087  13.125 -0.3076  0.2145 -0.2004
  368MPD2    C3 5559   2.380   3.969  13.050  0.0747  0.6585 -0.0086
  368MPD2    C4 5560   2.299   3.866  13.078  0.6283  0.1783 -0.6001
  368MPD2    C5 5561   2.188   3.874  13.157 -0.0425  0.6853 -0.0102
  368MPD2     H 5562   2.430   4.163  13.117 -1.4138  1.5100  1.6094
  368MPD2    H1 5563   2.323   3.772  13.029  1.0180 -0.2776  0.4711
  368MPD2    H2 5564   2.058   3.999  13.266  0.5377 -0.4355  1.2845
  368MPD2    H3 5565   2.138   3.781  13.179  1.1288  0.6204  2.2940
  368MPD2     N 5566   2.505   3.962  12.980 -0.4029  0.3365 -0.2191
  368MPD2    H5 5567   2.567   4.042  12.991  1.1271 -0.7579 -0.7687
  368MPD2    N1 5568   2.186   4.223  13.257  0.0011  0.3804 -0.4271
  368MPD2    H7 5569   2.104   4.222  13.318  0.5309 -0.1492  0.2679
  369TMC3    C1 5570   2.192   4.463  13.282 -0.1843 -0.7778 -0.7773
  369TMC3    C2 5571   2.245   4.576  13.242  0.3932  0.1616 -0.2588
  369TMC3    C3 5572   2.193   4.686  13.301  0.5394  0.1784 -0.1198
  369TMC3    C4 5573   2.094   4.451  13.377  0.3771 -0.2098  0.6679
  369TMC3    C5 5574   2.027   4.558  13.410  0.3073  0.0650  0.0669
  369TMC3    C6 5575   2.074   4.679  13.372  0.2572  0.0474  0.5326
  369TMC3     C 5576   2.249   4.345  13.222 -0.4665 -0.2598 -0.5909
  369TMC3     O 5577   2.342   4.369  13.150  0.5326  0.1357  0.3357
  369TMC3     H 5578   2.319   4.580  13.164  2.2324 -1.7724  1.4010
  369TMC3    H1 5579   2.066   4.357  13.423  0.5585  0.2665  1.7483
  369TMC3    H2 5580   2.017   0.028  13.397 -1.6917 -0.5928 -1.5101
  369TMC3    C7 5581   1.917   4.559  13.501 -0.0719  0.5849 -0.2097
  369TMC3    C8 5582   2.243   0.075  13.248 -0.4538 -0.0935 -0.5738
  369TMC3    O1 5583   1.911   4.467  13.581  0.2582 -0.2923  0.3800
  369TMC3    O2 5584   2.220   0.083  13.127 -0.4282  0.2244  0.1556
  370TMC3    C1 5585   2.486   0.013  16.557 -0.2832 -0.3898  0.1093
  370TMC3    C2 5586   2.403   4.680  16.634  0.4990 -0.6325  0.0641
  370TMC3    C3 5587   2.334   4.571  16.578  0.1956 -0.0147  0.2616
  370TMC3    C4 5588   2.492   4.726  16.426 -0.7451  0.6442  0.4045
  370TMC3    C5 5589   2.412   4.627  16.366 -0.3564  0.3121 -0.0799
  370TMC3    C6 5590   2.338   4.545  16.444  0.7460  0.5590  0.5476
  370TMC3     C 5591   2.547   0.133  16.613 -0.1829  0.0303  0.2184
  370TMC3     O 5592   2.527   0.144  16.732 -0.0638 -0.4133 -0.0932
  370TMC3     H 5593   2.389   4.716  16.735 -3.1305 -0.6090 -0.4367
  370TMC3    H1 5594   2.551   0.053  16.365  0.6630 -0.4595  0.5549
  370TMC3    H2 5595   2.275   4.470  16.397 -0.3321  1.7047  0.1668
  370TMC3    C7 5596   2.459   4.590  16.239  0.3261 -0.7283 -0.1741
  370TMC3    C8 5597   2.280   4.478  16.670  0.4336 -0.0372 -0.6834
  370TMC3    O1 5598   2.481   4.683  16.159 -0.2799  0.2438 -0.2213
  370TMC3    O2 5599   2.283   4.361  16.634 -0.1827  0.4275 -0.0652
  371TMC3    C1 5600   3.961   3.157  15.819 -0.0684 -0.7719  0.1782
  371TMC3    C2 5601   3.870   3.160  15.913  0.6700  0.3016  0.0307
  371TMC3    C3 5602   3.765   3.253  15.921 -0.0032  0.8906 -0.3763
  371TMC3    C4 5603   3.970   3.264  15.729 -0.0588 -0.0499  0.2805
  371TMC3    C5 5604   3.870   3.356  15.733 -0.6353  0.8184 -0.3352
  371TMC3    C6 5605   3.769   3.354  15.828  0.4169 -0.0015  0.2909
  371TMC3     C 5606   4.047   3.041  15.806 -0.0858  0.3174 -0.3896
  371TMC3     O 5607   4.158   3.056  15.757  0.2999 -0.2846 -0.3098
  371TMC3     H 5608   3.873   3.083  15.990 -0.3633 -0.3365 -0.5692
  371TMC3    H1 5609   4.055   3.267  15.662 -1.3109 -0.8290 -1.3394
  371TMC3    H2 5610   3.684   3.418  15.809 -1.1310 -1.7154  1.3725
  371TMC3    C7 5611   3.870   3.462  15.642  0.2122 -0.2576  0.4625
  371TMC3    C8 5612   3.650   3.227  16.012 -0.3879 -0.2581 -0.6105
  371TMC3    O1 5613   3.847   3.574  15.681  0.5372 -0.0629  0.2717
  371TMC3    O2 5614   3.663   3.137  16.098 -0.6107 -0.3549  0.2068
  372MPD2     C 5615   2.977   0.198  13.255 -0.6063  0.4845 -0.3427
  372MPD2    C1 5616   3.081   0.139  13.323  0.8474 -0.0339 -0.4115
  372MPD2    C2 5617   3.059   0.070  13.438 -0.5968 -0.3500 -0.2984
  372MPD2    C3 5618   2.933   0.048  13.489  0.1518  0.0853 -1.0365
  372MPD2    C4 5619   2.825   0.108  13.424 -0.4862  0.1003  0.5732
  372MPD2    C5 5620   2.853   0.180  13.311 -0.0149 -0.9176 -0.0784
  372MPD2     H 5621   3.151   0.039  13.485 -0.3729  0.7842 -0.0025
  372MPD2    H1 5622   2.724   0.104  13.465 -0.5749 -3.6382 -0.0019
  372MPD2    H2 5623   2.986   0.246  13.158 -1.2421 -0.6487 -0.9618
  372MPD2    H3 5624   2.769   0.221  13.257  1.5176 -0.2655 -1.9841
  372MPD2     N 5625   2.913   4.692  13.591  0.5959 -0.1862  0.2915
  372MPD2    H5 5626   2.999   4.649  13.625  0.1597 -1.5064 -0.3128
  372MPD2    N1 5627   3.213   0.139  13.279  0.8174  0.6244 -0.0934
  372MPD2    H7 5628   3.281   0.109  13.348  0.7976 -1.2716 -0.8920
  373TMC3    C1 5629   2.814   4.575  13.763 -0.1628  0.2710  0.4643
  373TMC3    C2 5630   2.709   4.577  13.853 -0.2282 -0.0904 -0.1363
  373TMC3    C3 5631   2.689   4.463  13.917 -0.4636 -0.1672 -0.1456
  373TMC3    C4 5632   2.893   4.466  13.750  0.8491 -0.3108  0.0290
  373TMC3    C5 5633   2.881   4.353  13.829 -0.2761  0.3120 -0.4270
  373TMC3    C6 5634   2.767   4.348  13.902  0.2168 -0.1030 -0.5797
  373TMC3     C 5635   2.797   4.668  13.654 -0.5067 -0.0311  1.3846
  373TMC3     O 5636   2.687   4.728  13.644  0.3259 -0.0693 -0.0202
  373TMC3     H 5637   2.647   4.666  13.859  0.0300  0.0846 -0.0612
  373TMC3    H1 5638   2.986   4.480  13.696 -0.7541 -1.4327 -3.0097
  373TMC3    H2 5639   2.731   4.254  13.942 -2.2190  2.0084  2.2236
  373TMC3    C7 5640   2.987   4.258  13.842  0.1565 -0.2642  0.0150
  373TMC3    C8 5641   2.573   4.449  14.000 -0.5922  0.6770  0.4659
  373TMC3    O1 5642   3.084   4.267  13.768 -0.1236  0.5739  0.2995
  373TMC3    O2 5643   2.470   4.488  13.946 -0.1817 -0.5549  0.1692
  374TMC3    C1 5644   3.023   0.132   9.867  0.7101  0.5236  0.8024
  374TMC3    C2 5645   3.140   0.205   9.858 -0.1252  0.2032  0.8599
  374TMC3    C3 5646   3.151   0.303   9.762 -0.3260 -0.3919 -0.2660
  374TMC3    C4 5647   2.925   0.153   9.769  0.5336 -1.0248  0.9106
  374TMC3    C5 5648   2.941   0.242   9.670 -0.2224 -0.3553 -0.6007
  374TMC3    C6 5649   3.050   0.323   9.668 -0.3389  0.2583  0.1957
  374TMC3     C 5650   3.006   0.020   9.968 -0.2144  0.0281 -0.5381
  374TMC3     O 5651   2.917   4.678   9.946  0.1196  0.5871 -0.1015
  374TMC3     H 5652   3.207   0.192   9.942  0.3564 -1.9517  0.1703
  374TMC3    H1 5653   2.835   0.093   9.767  0.0641 -0.3605  2.1599
  374TMC3    H2 5654   3.048   0.416   9.613  2.0730  1.0214  1.4074
  374TMC3    C7 5655   2.840   0.241   9.561 -0.5115  0.3131  0.0771
  374TMC3    C8 5656   3.263   0.392   9.748 -0.0309 -0.3001  0.1858
  374TMC3    O1 5657   2.729   0.197   9.581  0.0966  0.2657 -0.3220
  374TMC3    O2 5658   3.266   0.469   9.654  0.2636 -0.5809  0.0941
  375MPD2     C 5659   3.760   0.393  17.308  0.1565 -0.5282  0.4214
  375MPD2    C1 5660   3.684   0.447  17.201 -0.0967  0.6665 -0.0524
  375MPD2    C2 5661   3.713   0.413  17.071  0.7064  0.1153 -0.2395
  375MPD2    C3 5662   3.823   0.330  17.035  0.1234  0.1503 -0.7267
  375MPD2    C4 5663   3.887   0.269  17.144  0.8373 -0.2816 -0.4495
  375MPD2    C5 5664   3.855   0.299  17.276  0.4424 -0.4393 -0.4886
  375MPD2     H 5665   3.636   0.445  17.002  0.9362  0.4961 -0.3133
  375MPD2    H1 5666   3.966   0.196  17.132  0.4885 -0.6947 -0.2051
  375MPD2    H2 5667   3.733   0.400  17.412  1.4712 -2.4412  0.8945
  375MPD2    H3 5668   3.907   0.244  17.353 -0.6260 -0.8692 -0.0656
  375MPD2     N 5669   3.854   0.290  16.907  0.5155 -0.1457 -0.7746
  375MPD2    H5 5670   3.931   0.226  16.893 -1.5358 -2.1436 -2.8919
  375MPD2    N1 5671   3.571   0.531  17.227 -0.1949  0.0558 -0.4665
  375MPD2    H7 5672   3.507   0.549  17.151 -3.4939 -0.1028  2.3077
  376TMC3    C1 5673   3.845   0.290  16.674  0.2064  0.3186 -0.3995
  376TMC3    C2 5674   3.981   0.275  16.668 -0.2318 -0.3798  0.1534
  376TMC3    C3 5675   4.031   0.240  16.540 -0.2514 -0.6024  0.4736
  376TMC3    C4 5676   3.767   0.274  16.566 -0.9994  0.4152  0.2878
  376TMC3    C5 5677   3.818   0.224  16.450  0.1015  0.4379 -0.6833
  376TMC3    C6 5678   3.953   0.214  16.429  0.3747 -0.3374 -0.2012
  376TMC3     C 5679   3.777   0.316  16.798  0.3964 -0.2320 -0.1387
  376TMC3     O 5680   3.670   0.371  16.784 -0.4066 -0.1826 -0.1422
  376TMC3     H 5681   4.045   0.298  16.752 -1.3953 -1.4949  1.3546
  376TMC3    H1 5682   3.663   0.303  16.564 -1.8937 -2.6419  3.2240
  376TMC3    H2 5683   4.006   0.194  16.336 -1.6071  0.5247 -1.5072
  376TMC3    C7 5684   3.734   0.233  16.330 -0.1798  0.7991 -0.4156
  376TMC3    C8 5685   4.176   0.228  16.519  0.2282 -0.2327  0.6426
  376TMC3    O1 5686   3.788   0.248  16.222 -0.2735 -0.0464 -0.1063
  376TMC3    O2 5687   4.215   0.217  16.403  0.2437  0.3504 -0.1205
  377MPD2     C 5688   1.566   0.447  12.697 -0.1917 -0.6760  0.2214
  377MPD2    C1 5689   1.659   0.417  12.794  0.1742 -0.3721  0.3458
  377MPD2    C2 5690   1.612   0.378  12.922  0.2973 -0.5116 -0.2399
  377MPD2    C3 5691   1.473   0.368  12.938 -0.0990  0.3895  0.1464
  377MPD2    C4 5692   1.385   0.416  12.844  0.2334 -0.5531 -0.2078
  377MPD2    C5 5693   1.433   0.452  12.722 -0.2040  0.5287 -0.3575
  377MPD2     H 5694   1.685   0.349  12.997 -0.3880  2.5894  1.6388
  377MPD2    H1 5695   1.278   0.427  12.853  0.1925 -0.0038 -1.3041
  377MPD2    H2 5696   1.591   0.488  12.600  0.6725  0.9846  1.1332
  377MPD2    H3 5697   1.364   0.474  12.642 -0.9312 -0.7671 -0.0778
  377MPD2     N 5698   1.415   0.313  13.054 -0.2621 -0.7549  0.0540
  377MPD2    H5 5699   1.314   0.308  13.057 -0.3465 -0.2490 -2.0415
  377MPD2    N1 5700   1.792   0.429  12.766  0.2787 -1.1726 -0.0151
  377MPD2    H7 5701   1.815   0.437  12.668  0.3111 -0.7809  0.0224
  378TMC3    C1 5702   2.105   0.409  12.542 -0.3329 -0.2355 -0.4745
  378TMC3    C2 5703   2.012   0.448  12.632 -0.1403 -0.0571 -0.2881
  378TMC3    C3 5704   2.024   0.414  12.763 -0.3847  0.0968 -0.1810
  378TMC3    C4 5705   2.211   0.332  12.585 -0.4480 -0.8578  0.4077
  378TMC3    C5 5706   2.224   0.299  12.715  0.6085  0.1808 -1.0228
  378TMC3    C6 5707   2.133   0.336  12.805 -0.1395  0.2778 -0.7236
  378TMC3     C 5708   2.086   0.442  12.396 -0.9516  0.6841  0.3359
  378TMC3     O 5709   2.185   0.433  12.323  0.1888  0.2777  0.6883
  378TMC3     H 5710   1.936   0.517  12.597  1.7192  2.5727  0.8463
  378TMC3    H1 5711   2.274   0.293  12.507  0.3643  1.0986  0.0838
  378TMC3    H2 5712   2.142   0.300  12.907  0.9538  0.7009 -0.6744
  378TMC3    C7 5713   2.364   0.264  12.758 -0.1231 -0.2262  0.0004
  378TMC3    C8 5714   1.901   0.409  12.847  0.0940  0.1540  0.1824
  378TMC3    O1 5715   2.388   0.293  12.874 -0.4161  0.1713 -0.1957
  378TMC3    O2 5716   1.912   0.373  12.963 -0.7457  0.2752  0.2426
  379MPD2     C 5717   2.805   2.997  16.303 -0.0570  0.1817  0.9327
  379MPD2    C1 5718   2.716   2.910  16.360  0.8723 -1.0618  0.1953
  379MPD2    C2 5719   2.771   2.805  16.441  0.3200  0.4801 -1.1065
  379MPD2    C3 5720   2.908   2.791  16.450  0.2843 -0.6223  0.1899
  379MPD2    C4 5721   2.998   2.870  16.385  0.8421  0.0613  0.7053
  379MPD2    C5 5722   2.941   2.974  16.310 -0.2736  0.2850 -0.3230
  379MPD2     H 5723   2.708   2.731  16.488  0.3203  0.6318 -0.8691
  379MPD2    H1 5724   3.102   2.842  16.377  0.6217 -0.8568  1.0450
  379MPD2    H2 5725   2.781   3.067  16.224  0.9844  0.8575  1.2180
  379MPD2    H3 5726   3.006   3.040  16.255  0.9479  0.2565  1.0629
  379MPD2     N 5727   2.965   2.688  16.526  0.0915 -0.4616 -0.5224
  379MPD2    H5 5728   3.062   2.662  16.511  0.4147  1.0935 -1.1955
  379MPD2    N1 5729   2.578   2.920  16.328 -0.3693  0.3483 -0.5223
  379MPD2    H7 5730   2.545   2.967  16.244 -1.2548 -1.2214 -1.0509
  380TMC3    C1 5731   2.359   2.867  16.327 -0.0777  0.1802 -0.4025
  380TMC3    C2 5732   2.336   2.744  16.274 -0.1424 -0.0925  0.0898
  380TMC3    C3 5733   2.272   2.730  16.159 -0.1495  0.6887  0.3939
  380TMC3    C4 5734   2.314   2.986  16.270 -0.2215 -0.3754  0.6801
  380TMC3    C5 5735   2.242   2.973  16.157  0.5972 -0.5249  0.9632
  380TMC3    C6 5736   2.215   2.852  16.100 -0.3546 -0.0629  0.0154
  380TMC3     C 5737   2.478   2.862  16.400 -0.3195  0.5466  0.1874
  380TMC3     O 5738   2.472   2.802  16.506 -0.0797 -0.1224  0.1588
  380TMC3     H 5739   2.394   2.661  16.312  0.3623  0.5722  0.7694
  380TMC3    H1 5740   2.346   3.083  16.306  3.4623 -0.1118 -3.2902
  380TMC3    H2 5741   2.145   2.841  16.019  0.0146 -0.8925 -0.1910
  380TMC3    C7 5742   2.181   3.094  16.101  0.5415 -0.7158 -0.2976
  380TMC3    C8 5743   2.358   2.653  16.063 -0.0556 -1.2088  0.2009
  380TMC3    O1 5744   2.242   3.200  16.116  0.1589  0.2606  0.0277
  380TMC3    O2 5745   2.474   2.625  16.097  0.3966  0.0149 -0.0589
  381TMC3    C1 5746   2.439   3.738  16.414  0.0470  0.8614 -0.2010
  381TMC3    C2 5747   2.488   3.864  16.410  0.1447 -0.7573 -0.1904
  381TMC3    C3 5748   2.507   3.931  16.524  0.0231 -0.4920  0.5377
  381TMC3    C4 5749   2.407   3.677  16.531  0.0206 -0.0394  0.1966
  381TMC3    C5 5750   2.424   3.751  16.649 -0.7528  0.7148  0.4199
  381TMC3    C6 5751   2.475   3.878  16.646  0.3381 -0.0091  0.0446
  381TMC3     C 5752   2.427   3.668  16.277  0.7138  0.2938 -0.5943
  381TMC3     O 5753   2.435   3.546  16.273 -0.2874  0.2770 -0.0230
  381TMC3     H 5754   2.515   3.913  16.317  1.4745  1.1338  1.2026
  381TMC3    H1 5755   2.372   3.574  16.529  1.9870 -0.7263  1.0691
  381TMC3    H2 5756   2.504   3.931  16.736 -1.0567 -1.8463  1.5779
  381TMC3    C7 5757   2.373   3.708  16.773  0.1122 -0.3249 -0.5332
  381TMC3    C8 5758   2.584   4.057  16.512 -0.4770 -0.0076 -0.3064
  381TMC3    O1 5759   2.374   3.590  16.807 -0.1202  0.4578  0.5127
  381TMC3    O2 5760   2.666   4.056  16.422 -0.1483 -0.8348 -0.1985
  382MPD2     C 5761   1.545   1.760  17.060  0.6537  0.3903 -0.1268
  382MPD2    C1 5762   1.576   1.751  17.196  0.6378 -0.1899  0.0013
  382MPD2    C2 5763   1.564   1.628  17.257  0.4576  0.6211 -0.7686
  382MPD2    C3 5764   1.518   1.525  17.182  0.0238 -0.1383  1.2623
  382MPD2    C4 5765   1.475   1.534  17.050 -0.2386 -0.8023 -0.2843
  382MPD2    C5 5766   1.491   1.655  16.991 -0.4830  0.0748 -0.3781
  382MPD2     H 5767   1.578   1.622  17.365 -2.8416 -2.8468 -0.5104
  382MPD2    H1 5768   1.429   1.459  16.986 -2.1377 -0.0092  0.1525
  382MPD2    H2 5769   1.572   1.849  17.003 -0.4312 -0.7834 -2.4614
  382MPD2    H3 5770   1.466   1.671  16.886  1.3766  1.0047 -0.6827
  382MPD2     N 5771   1.495   1.398  17.237  0.2368 -0.1058  0.1558
  382MPD2    H5 5772   1.435   1.336  17.183 -2.5823  2.8202 -0.0434
  382MPD2    N1 5773   1.630   1.855  17.269  0.2757  1.0871 -0.1451
  382MPD2    H7 5774   1.662   1.834  17.363 -1.0120 -0.3208 -0.0281
  383TMC3    C1 5775   1.495   1.221  17.396  0.4868  0.1409 -0.6765
  383TMC3    C2 5776   1.368   1.177  17.360 -0.1631  0.7406  0.8595
  383TMC3    C3 5777   1.318   1.063  17.422 -0.5588  0.1623  1.0573
  383TMC3    C4 5778   1.571   1.153  17.477  0.8079 -0.7190 -0.1725
  383TMC3    C5 5779   1.526   1.035  17.523 -0.4796  0.2480 -0.3756
  383TMC3    C6 5780   1.397   0.987  17.503  0.4441 -0.0827 -0.0434
  383TMC3     C 5781   1.544   1.349  17.361 -0.4502  0.3757  0.2268
  383TMC3     O 5782   1.632   1.391  17.433  0.0024  0.4967  0.1965
  383TMC3     H 5783   1.306   1.243  17.299  1.0067  0.2412 -0.8779
  383TMC3    H1 5784   1.668   1.187  17.510  1.3896 -0.9826 -1.6329
  383TMC3    H2 5785   1.365   0.893  17.545  1.1544  0.2419  1.2300
  383TMC3    C7 5786   1.598   0.998  17.643 -0.2214 -0.4008 -0.2503
  383TMC3    C8 5787   1.193   1.009  17.367  0.0086 -0.7827  0.9991
  383TMC3    O1 5788   1.537   0.990  17.750 -0.0252 -0.5293  0.0411
  383TMC3    O2 5789   1.132   1.091  17.301  0.5213 -0.1529  0.2353
  384MPD2     C 5790   2.482   3.155  11.943  0.6876 -0.0720  0.0603
  384MPD2    C1 5791   2.403   3.060  11.997 -0.0549  0.0915  0.1801
  384MPD2    C2 5792   2.457   2.940  12.025  0.1670 -0.0213 -0.0732
  384MPD2    C3 5793   2.587   2.922  11.993 -0.2100  0.4553  0.2391
  384MPD2    C4 5794   2.664   3.017  11.931 -0.8305 -0.0072 -0.0445
  384MPD2    C5 5795   2.612   3.139  11.896 -1.0181  0.0104  0.0427
  384MPD2     H 5796   2.396   2.867  12.076 -0.5572  0.2308 -0.5854
  384MPD2    H1 5797   2.768   3.003  11.905 -0.6579  0.7960  0.1917
  384MPD2    H2 5798   2.437   3.251  11.921  2.6358  1.1505  1.4619
  384MPD2    H3 5799   2.664   3.221  11.848 -0.5852 -0.3200 -0.0518
  384MPD2     N 5800   2.661   2.804  12.023 -0.6445 -0.5131 -0.1541
  384MPD2    H5 5801   2.762   2.815  12.015 -0.8293  2.7224  1.7920
  384MPD2    N1 5802   2.273   3.093  12.039  0.2024 -0.1980  0.5724
  384MPD2    H7 5803   2.256   3.193  12.044 -1.0596 -0.4046  0.3402
  385TMC3    C1 5804   2.712   2.602  12.119 -0.7317 -1.1805  0.7166
  385TMC3    C2 5805   2.839   2.628  12.066  0.0373 -0.5187 -0.5286
  385TMC3    C3 5806   2.939   2.609  12.151  0.2775 -0.6898  0.6116
  385TMC3    C4 5807   2.688   2.565  12.250  0.4553  0.0353  0.0056
  385TMC3    C5 5808   2.795   2.554  12.337 -0.3205 -0.8546  0.1843
  385TMC3    C6 5809   2.921   2.577  12.291 -0.5274 -0.0335  0.1457
  385TMC3     C 5810   2.607   2.686  12.070  0.7901  0.3468  0.4921
  385TMC3     O 5811   2.493   2.654  12.100  0.0007 -0.0182 -0.8544
  385TMC3     H 5812   2.856   2.643  11.960  0.7536 -1.0937 -0.4996
  385TMC3    H1 5813   2.586   2.541  12.279 -0.0103 -0.9631 -2.5213
  385TMC3    H2 5814   3.005   2.566  12.358 -0.9281 -0.5506  0.5578
  385TMC3    C7 5815   2.756   2.599  12.472  0.1384 -0.2332  0.2828
  385TMC3    C8 5816   3.063   2.548  12.103 -0.2380  0.5905 -0.0403
  385TMC3    O1 5817   2.837   2.575  12.560  0.4663 -0.0283  0.2374
  385TMC3    O2 5818   3.155   2.538  12.187 -0.5539  0.4689  0.2390
  386TMC3    C1 5819   3.476   0.234  11.966  0.0607 -0.3196 -0.0737
  386TMC3    C2 5820   3.497   0.296  11.852  0.4031  0.1973  0.5487
  386TMC3    C3 5821   3.430   0.414  11.817 -0.4237  0.7819  0.0713
  386TMC3    C4 5822   3.379   0.272  12.053  0.1528 -0.1418 -0.1201
  386TMC3    C5 5823   3.313   0.387  12.020 -0.4089 -0.3456 -0.3048
  386TMC3    C6 5824   3.341   0.461  11.912 -0.4939 -0.1527  0.5879
  386TMC3     C 5825   3.565   0.123  11.999  0.4589  0.7828  0.6663
  386TMC3     O 5826   3.673   0.128  11.949 -0.8368  0.4809  0.3958
  386TMC3     H 5827   3.578   0.261  11.789  1.6091 -0.4530  2.4496
  386TMC3    H1 5828   3.357   0.213  12.141  0.6230 -0.7196 -0.3949
  386TMC3    H2 5829   3.278   0.547  11.889  0.8709  1.1259  1.5894
  386TMC3    C7 5830   3.243   0.442  12.122  0.3897 -0.6819  0.6343
  386TMC3    C8 5831   3.379   0.430  11.687  0.2109  0.7777 -0.2440
  386TMC3    O1 5832   3.171   0.362  12.184 -0.5038 -0.2735  0.4750
  386TMC3    O2 5833   3.322   0.534  11.664  0.0430  0.5385 -0.4014
  387MPD2     C 5834   0.329   0.488  10.192  0.4388 -0.2193 -0.1466
  387MPD2    C1 5835   0.406   0.488  10.304 -0.7711  0.9087  0.3348
  387MPD2    C2 5836   0.466   0.368  10.354  1.4889 -0.5424  0.3645
  387MPD2    C3 5837   0.442   0.252  10.281 -0.4161 -0.1303 -0.2189
  387MPD2    C4 5838   0.360   0.253  10.168  0.4643  0.3605 -0.6836
  387MPD2    C5 5839   0.300   0.371  10.129  0.2145 -0.1382  0.8996
  387MPD2     H 5840   0.515   0.369  10.451  1.0345 -0.2750  0.5910
  387MPD2    H1 5841   0.347   0.164  10.108 -1.0509 -1.6003  2.5552
  387MPD2    H2 5842   0.283   0.575  10.147  3.3306  1.2554 -0.3073
  387MPD2    H3 5843   0.237   0.378  10.042  1.4047  4.5574  0.4273
  387MPD2     N 5844   0.521   0.146  10.319 -0.6894  0.2405 -0.7652
  387MPD2    H5 5845   0.583   0.162  10.398 -1.2947 -2.1762  0.1756
  387MPD2    N1 5846   0.459   0.598  10.370  0.4009 -0.0588 -0.4239
  387MPD2    H7 5847   0.521   0.587  10.449 -0.8826 -2.1664  0.2885
  388TMC3    C1 5848   0.565   0.799  10.398 -0.4634  0.6961  0.2631
  388TMC3    C2 5849   0.580   0.936  10.366  0.6816  0.0011 -0.6135
  388TMC3    C3 5850   0.698   0.993  10.404 -0.3984 -0.8988 -1.3637
  388TMC3    C4 5851   0.649   0.736  10.485  0.4192 -0.1379  0.1148
  388TMC3    C5 5852   0.763   0.800  10.523  0.6322  0.2374 -0.0636
  388TMC3    C6 5853   0.791   0.925  10.474 -0.2980  0.4726  0.0565
  388TMC3     C 5854   0.456   0.728  10.327 -0.0510 -1.1497  0.8238
  388TMC3     O 5855   0.406   0.769  10.224  0.1889  0.5625  0.4260
  388TMC3     H 5856   0.507   0.990  10.307 -1.4940 -2.5065 -0.2296
  388TMC3    H1 5857   0.654   0.628  10.495  1.0348 -0.1240 -0.0492
  388TMC3    H2 5858   0.889   0.968  10.492 -2.9410  5.8211  1.6116
  388TMC3    C7 5859   0.888   0.726  10.548 -0.2321  0.4208 -0.1325
  388TMC3    C8 5860   0.751   1.118  10.334  0.1648 -0.4562  0.6789
  388TMC3    O1 5861   0.993   0.764  10.499  0.5332 -0.0517 -0.1653
  388TMC3    O2 5862   0.873   1.136  10.327  0.2400  0.2914 -0.2151
  389MPD2     C 5863   0.273   3.315  12.018  0.7024 -0.7532  0.0602
  389MPD2    C1 5864   0.158   3.259  11.961  0.6942 -0.1184 -0.4015
  389MPD2    C2 5865   0.088   3.170  12.041 -0.1464  0.9404  0.6485
  389MPD2    C3 5866   0.115   3.156  12.177  0.0468 -0.6160 -0.3309
  389MPD2    C4 5867   0.215   3.233  12.237  0.2624  0.0319  0.2633
  389MPD2    C5 5868   0.301   3.297  12.148  0.3279  0.2354 -0.1380
  389MPD2     H 5869   0.013   3.110  11.990 -0.6156 -0.1010  2.5624
  389MPD2    H1 5870   0.241   3.231  12.342  0.2924  3.0594  0.3124
  389MPD2    H2 5871   0.342   3.373  11.958 -1.1024  1.3745  0.0386
  389MPD2    H3 5872   0.388   3.348  12.187  1.2187 -0.2475 -1.4642
  389MPD2     N 5873   0.040   3.076  12.259 -0.0517  0.6822  0.1226
  389MPD2    H5 5874   0.057   3.092  12.358 -2.9775 -1.7000  1.0162
  389MPD2    N1 5875   0.136   3.272  11.821  0.8418 -0.0316  0.3285
  389MPD2    H7 5876   0.195   3.336  11.769 -1.1134  1.4194 -0.1425
  390TMC3    C1 5877   4.643   2.893  12.327 -0.2576 -0.6794 -0.2755
  390TMC3    C2 5878   4.630   2.754  12.323 -0.0721  0.2027 -0.2433
  390TMC3    C3 5879   4.541   2.689  12.410 -0.2410  0.1555 -0.2314
  390TMC3    C4 5880   4.558   2.966  12.413  0.0033 -0.1484 -0.4222
  390TMC3    C5 5881   4.458   2.901  12.471 -0.2148 -0.5864  0.7335
  390TMC3    C6 5882   4.459   2.764  12.491 -0.4822  0.0932  0.2328
  390TMC3     C 5883   4.716   2.961  12.222  0.5254 -0.1272  0.0043
  390TMC3     O 5884   4.710   2.901  12.118  0.0835 -0.2749 -0.4317
  390TMC3     H 5885   4.668   2.690  12.245  2.3782  2.6844 -1.0751
  390TMC3    H1 5886   4.551   3.074  12.409 -1.2119 -0.1513  1.3965
  390TMC3    H2 5887   4.391   2.721  12.563  0.9790  1.5464  2.4872
  390TMC3    C7 5888   4.332   2.942  12.412  0.1560 -1.2127 -0.3787
  390TMC3    C8 5889   4.475   2.570  12.355 -0.3846 -0.4884  0.0663
  390TMC3    O1 5890   4.328   3.043  12.351  0.0217 -0.0849  0.2497
  390TMC3    O2 5891   4.462   2.563  12.237 -0.2281  0.7249 -0.1891
  391MPD2     C 5892   3.982   4.689  11.018 -0.2630  0.2445  0.2168
  391MPD2    C1 5893   4.077   0.055  10.995  0.0509 -0.1792  0.5936
  391MPD2    C2 5894   4.081   0.112  10.869  0.9354 -0.2487  0.4101
  391MPD2    C3 5895   3.992   0.073  10.771 -0.5281  0.1674 -0.1190
  391MPD2    C4 5896   3.894   4.724  10.803 -1.0497  0.3189  0.4475
  391MPD2    C5 5897   3.889   4.658  10.919  0.2444  0.2906 -0.9158
  391MPD2     H 5898   4.168   0.171  10.843 -0.8083  1.5289 -1.3924
  391MPD2    H1 5899   3.818   4.699  10.730  1.7527 -1.7077 -1.7833
  391MPD2    H2 5900   3.960   4.647  11.115 -1.1360  0.5400  0.1455
  391MPD2    H3 5901   3.818   4.578  10.936 -1.6272  1.7907 -1.6729
  391MPD2     N 5902   4.011   0.135  10.644  0.5044 -0.0496  0.1299
  391MPD2    H5 5903   4.100   0.181  10.631 -0.8365  2.4144 -0.2020
  391MPD2    N1 5904   4.176   0.102  11.086  0.0229  0.8318 -0.2372
  391MPD2    H7 5905   4.248   0.164  11.052 -0.9896  2.2233  0.1672
  392TMC3    C1 5906   3.967   0.215  10.435  0.2575 -0.6338 -0.5854
  392TMC3    C2 5907   3.875   0.225  10.336 -0.9138  0.0934 -0.5367
  392TMC3    C3 5908   3.878   0.337  10.263  0.6976  0.1313  0.3328
  392TMC3    C4 5909   4.059   0.318  10.459 -0.0044 -0.5752  0.2029
  392TMC3    C5 5910   4.058   0.427  10.377 -0.2651  0.1728  0.5369
  392TMC3    C6 5911   3.969   0.438  10.275  0.7222 -1.4263 -0.4180
  392TMC3     C 5912   3.929   0.123  10.537  0.3139 -0.2928 -1.2991
  392TMC3     O 5913   3.824   0.059  10.523  0.5449 -0.3602 -0.0116
  392TMC3     H 5914   3.806   0.144  10.315  0.4554 -1.0805 -0.4933
  392TMC3    H1 5915   4.140   0.290  10.525  0.3178  1.1724  0.5488
  392TMC3    H2 5916   3.968   0.515  10.199  2.7712 -0.8157  0.1762
  392TMC3    C7 5917   4.174   0.520  10.383 -0.3349 -0.5562  0.5393
  392TMC3    C8 5918   3.786   0.346  10.156 -0.3898 -0.0588 -0.2509
  392TMC3    O1 5919   4.248   0.501  10.477 -0.1068  0.1891 -0.0672
  392TMC3    O2 5920   3.744   0.238  10.122 -0.1651 -0.0566  0.3072
  393TMC3    C1 5921   2.570   3.100  11.275  0.7947 -0.9079 -0.2268
  393TMC3    C2 5922   2.437   3.059  11.281 -0.3735 -0.0816 -0.3743
  393TMC3    C3 5923   2.422   2.925  11.290  0.3194  0.5418  0.3954
  393TMC3    C4 5924   2.672   3.007  11.287 -0.1047  0.8401  0.0220
  393TMC3    C5 5925   2.648   2.874  11.261 -0.4616 -0.4009 -0.2363
  393TMC3    C6 5926   2.517   2.832  11.259 -0.3744  0.1954 -0.0455
  393TMC3     C 5927   2.596   3.210  11.185 -0.9724 -0.2258 -1.0044
  393TMC3     O 5928   2.685   3.191  11.107  0.1736 -0.0892 -0.4666
  393TMC3     H 5929   2.357   3.132  11.282 -1.7062 -1.5546  2.8207
  393TMC3    H1 5930   2.772   3.048  11.278 -0.2456  0.8186 -1.6736
  393TMC3    H2 5931   2.486   2.735  11.222 -1.0274  1.6025 -3.2471
  393TMC3    C7 5932   2.750   2.786  11.204  0.6177 -0.4083 -0.7340
  393TMC3    C8 5933   2.286   2.879  11.314  0.3339 -0.0528 -0.3099
  393TMC3    O1 5934   2.708   2.682  11.156 -0.0466  0.9488 -0.2702
  393TMC3    O2 5935   2.201   2.960  11.283 -0.0703  0.1522  0.5810
  394TMC3    C1 5936   0.026   3.297  11.621 -0.1165 -0.0801 -0.0619
  394TMC3    C2 5937   4.642   3.314  11.560  0.1997  0.1152  0.6308
  394TMC3    C3 5938   4.620   3.404  11.462  0.1645  0.2982  0.2946
  394TMC3    C4 5939   0.129   3.378  11.586 -0.2641  0.0084  0.1388
  394TMC3    C5 5940   0.110   3.461  11.480  0.2700  0.2773 -0.1361
  394TMC3    C6 5941   4.727   3.481  11.423 -0.5357  0.3257  0.3886
  394TMC3     C 5942   0.027   3.225  11.750 -0.1666  0.5302  0.3242
  394TMC3     O 5943   4.678   3.144  11.776  0.4643  0.2995  0.3026
  394TMC3     H 5944   4.564   3.256  11.607 -0.4941 -0.5302 -1.2995
  394TMC3    H1 5945   0.232   3.359  11.611 -0.5139 -2.5720 -0.7533
  394TMC3    H2 5946   4.716   3.556  11.345  1.2904  1.1086  0.8889
  394TMC3    C7 5947   0.229   3.501  11.405  0.3121 -0.5631 -0.0582
  394TMC3    C8 5948   4.498   3.406  11.387 -0.0988  0.1503  0.5530
  394TMC3    O1 5949   0.336   3.499  11.462  0.4170 -0.0155  0.0232
  394TMC3    O2 5950   4.417   3.314  11.405 -0.3054  0.3713  0.1877
  395TMC3    C1 5951   0.085   0.303  15.011 -0.1995 -0.1054 -0.5884
  395TMC3    C2 5952   0.098   0.216  14.910  0.2067 -0.0201  0.2950
  395TMC3    C3 5953   0.145   0.260  14.792  0.2192  0.2689 -0.6376
  395TMC3    C4 5954   0.126   0.433  15.000 -0.5378 -0.6013  0.8082
  395TMC3    C5 5955   0.159   0.484  14.877 -0.1099  0.3323 -0.2060
  395TMC3    C6 5956   0.170   0.394  14.774  0.1893  0.2087 -0.2419
  395TMC3     C 5957   0.021   0.260  15.140 -0.9126  0.0119 -0.4730
  395TMC3     O 5958   0.032   0.328  15.242  0.0850 -0.1651 -0.3943
  395TMC3     H 5959   0.093   0.113  14.942  1.2103 -0.3125 -0.4979
  395TMC3    H1 5960   0.113   0.502  15.083 -0.0907  1.0764 -0.5130
  395TMC3    H2 5961   0.216   0.425  14.681  1.3258 -2.3910 -0.5506
  395TMC3    C7 5962   0.242   0.605  14.873 -0.3994  0.3675 -0.3990
  395TMC3    C8 5963   0.197   0.168  14.685  0.0934  0.2714 -0.0644
  395TMC3    O1 5964   0.288   0.655  14.975 -0.1260 -0.2555 -0.2438
  395TMC3    O2 5965   0.285   0.216  14.611  0.3837 -0.0099 -0.2065
  396MPD2     C 5966   0.951   1.768  17.524  0.3937  0.1829  0.3137
  396MPD2    C1 5967   0.849   1.730  17.433 -0.4429  0.2234 -0.0923
  396MPD2    C2 5968   0.831   1.810  17.324 -0.3730 -0.2285  0.2884
  396MPD2    C3 5969   0.888   1.935  17.307  0.6630  0.3835 -0.0283
  396MPD2    C4 5970   0.982   1.974  17.398  0.7531  0.5443 -0.1003
  396MPD2    C5 5971   1.012   1.891  17.505  0.4677  0.2754 -0.3776
  396MPD2     H 5972   0.756   1.786  17.250 -0.4399  0.6423  0.0716
  396MPD2    H1 5973   1.042   2.064  17.395 -0.0069  0.9509 -3.3603
  396MPD2    H2 5974   0.980   1.704  17.606 -1.7525 -0.5587  0.4974
  396MPD2    H3 5975   1.096   1.910  17.571  1.0085 -1.1099 -0.6844
  396MPD2     N 5976   0.851   2.018  17.201  0.4102 -0.2912  0.0156
  396MPD2    H5 5977   0.884   2.113  17.217 -1.2588  0.3559 -0.3304
  396MPD2    N1 5978   0.774   1.610  17.428  0.2421 -0.4070 -0.3150
  396MPD2    H7 5979   0.702   1.604  17.357 -0.1402 -0.1304  0.0514
  397TMC3    C1 5980   0.707   1.391  17.478  0.2325  0.1971 -0.5539
  397TMC3    C2 5981   0.646   1.400  17.359 -0.6937 -0.3244  0.3314
  397TMC3    C3 5982   0.542   1.316  17.324  0.4345  0.0549 -0.3788
  397TMC3    C4 5983   0.642   1.328  17.581  0.2888  0.3399  0.8020
  397TMC3    C5 5984   0.524   1.257  17.554  0.8211  0.0087  0.7909
  397TMC3    C6 5985   0.473   1.252  17.428  0.5487  0.0630  0.0721
  397TMC3     C 5986   0.778   1.512  17.523  0.6288 -0.5529 -0.2980
  397TMC3     O 5987   0.832   1.521  17.634  0.5500  0.2737  0.4161
  397TMC3     H 5988   0.712   1.444  17.285 -1.5350  1.4937  0.6805
  397TMC3    H1 5989   0.668   1.338  17.685  0.5253 -0.1777  0.7943
  397TMC3    H2 5990   0.394   1.185  17.393 -0.3004  0.2770  1.5858
  397TMC3    C7 5991   0.484   1.148  17.637 -0.7036 -0.0220  0.8793
  397TMC3    C8 5992   0.510   1.276  17.190  0.2901  0.1756  0.0409
  397TMC3    O1 5993   0.577   1.093  17.689  0.1715 -0.5638  0.2034
  397TMC3    O2 5994   0.399   1.227  17.170  0.4284  0.4181  0.8111
  398MPD2     C 5995   3.168   2.918   0.257  0.3468 -0.2420  0.0028
  398MPD2    C1 5996   3.177   2.783   0.284  0.4717 -0.1562 -0.5451
  398MPD2    C2 5997   3.299   2.721   0.262  0.6761 -0.5559  0.1957
  398MPD2    C3 5998   3.414   2.787   0.229 -0.0673 -0.5057 -0.5676
  398MPD2    C4 5999   3.405   2.923   0.211  0.6213 -0.2580 -0.0286
  398MPD2    C5 6000   3.281   2.986   0.210  0.2164  0.0167  0.1723
  398MPD2     H 6001   3.304   2.615   0.283 -1.7901 -0.4463  1.3622
  398MPD2    H1 6002   3.496   2.980   0.196  0.2279  0.5450  0.6058
  398MPD2    H2 6003   3.076   2.972   0.271 -0.3268 -1.1802 -0.7876
  398MPD2    H3 6004   3.271   3.089   0.179  3.8623  0.5238  0.7271
  398MPD2     N 6005   3.527   2.707   0.222 -0.0731 -0.0507 -0.5487
  398MPD2    H5 6006   3.529   2.614   0.263 -0.4078 -0.1215 -0.6896
  398MPD2    N1 6007   3.064   2.700   0.329  0.2545  0.3265 -0.2939
  398MPD2    H7 6008   3.071   2.599   0.334 -0.7460  0.3567  1.7172
  399TMC3    C1 6009   2.856   2.648   0.421 -0.1538 -0.3129  0.1757
  399TMC3    C2 6010   2.780   2.684   0.533  0.0801  0.3154 -0.0909
  399TMC3    C3 6011   2.694   2.587   0.586 -0.2574 -0.2066 -0.6113
  399TMC3    C4 6012   2.835   2.525   0.357  0.8797 -0.1068 -0.3513
  399TMC3    C5 6013   2.742   2.437   0.418  0.1291 -0.1147 -0.1539
  399TMC3    C6 6014   2.675   2.460   0.535 -0.1840  0.4239 -0.1708
  399TMC3     C 6015   2.940   2.749   0.364  1.5720 -0.2710 -0.2349
  399TMC3     O 6016   2.907   2.864   0.388  0.2270  0.4828 -0.1546
  399TMC3     H 6017   2.797   2.782   0.575 -1.8050  0.9030 -0.7100
  399TMC3    H1 6018   2.897   2.509   0.269  1.4561  1.0804 -0.1656
  399TMC3    H2 6019   2.609   2.388   0.583 -1.1797  1.4023 -0.0525
  399TMC3    C7 6020   2.695   2.322   0.351 -0.6306  0.0011  0.0651
  399TMC3    C8 6021   2.630   2.615   0.714  0.5329 -0.6399  0.2160
  399TMC3    O1 6022   2.671   2.225   0.416 -0.7487 -0.4555  0.0425
  399TMC3    O2 6023   2.607   2.517   0.785 -0.5050  0.4080  0.0304
  400TMC3    C1 6024   1.066   0.636  16.915  0.6747  0.9846  0.9147
  400TMC3    C2 6025   0.958   0.557  16.932  0.3557 -0.0824  0.6843
  400TMC3    C3 6026   0.855   0.572  16.841  0.0379 -0.4617  0.1487
  400TMC3    C4 6027   1.069   0.742  16.824  0.9708 -0.6064 -0.7322
  400TMC3    C5 6028   0.966   0.752  16.735  0.0140 -0.0491 -0.4214
  400TMC3    C6 6029   0.857   0.672  16.744 -0.5227 -0.3314  0.2830
  400TMC3     C 6030   1.164   0.633  17.022  0.3123 -0.2814 -0.4651
  400TMC3     O 6031   1.181   0.528  17.079 -0.2790  0.2276 -0.2056
  400TMC3     H 6032   0.949   0.471  16.998 -0.4016  0.8930  1.8307
  400TMC3    H1 6033   1.140   0.822  16.842  0.7416 -0.4735 -0.4191
  400TMC3    H2 6034   0.772   0.699  16.681 -1.3419 -0.1979  1.4473
  400TMC3    C7 6035   0.962   0.890  16.688  1.0807  0.4336 -0.4499
  400TMC3    C8 6036   0.752   0.472  16.844  0.3741 -1.0812 -0.1382
  400TMC3    O1 6037   0.858   0.947  16.715  0.1656  0.4479 -0.5097
  400TMC3    O2 6038   0.732   0.418  16.950 -0.1771  0.1705 -0.9217
  401MPD2     C 6039   0.258   3.530   0.275 -0.5985  0.2377  0.0095
  401MPD2    C1 6040   0.151   3.566   0.351  0.1678  0.2161 -1.1814
  401MPD2    C2 6041   0.051   3.477   0.365  0.2964 -0.5997  0.6137
  401MPD2    C3 6042   0.046   3.357   0.302 -1.0155 -0.6746 -0.2658
  401MPD2    C4 6043   0.143   3.335   0.203  1.0729  0.9060  0.2016
  401MPD2    C5 6044   0.249   3.421   0.195 -0.0776  0.1825  0.2090
  401MPD2     H 6045   4.725   3.507   0.446 -3.1678 -1.0587 -2.0862
  401MPD2    H1 6046   0.133   3.239   0.154  0.3144  0.5780  0.9931
  401MPD2    H2 6047   0.344   3.595   0.263  0.1016 -0.5294  0.8340
  401MPD2    H3 6048   0.330   3.404   0.125  0.5445  0.0592  0.9470
  401MPD2     N 6049   4.697   3.251   0.336  0.4295 -0.5935  0.3216
  401MPD2    H5 6050   4.708   3.172   0.273  0.8470 -0.1480 -0.1615
  401MPD2    N1 6051   0.147   3.681   0.432 -0.0889 -0.5289  0.0166
  401MPD2    H7 6052   0.063   3.696   0.487 -0.1688 -1.3332  0.1116
  402TMC3    C1 6053   4.561   3.118   0.476 -0.0278 -0.2733  0.6124
  402TMC3    C2 6054   4.475   3.126   0.581 -0.2271 -0.1607 -0.2220
  402TMC3    C3 6055   4.461   3.016   0.658  0.1015 -0.0064 -0.5590
  402TMC3    C4 6056   4.625   3.001   0.450  0.2281 -0.2640 -0.1280
  402TMC3    C5 6057   4.611   2.898   0.529  0.7905  0.6293 -0.1263
  402TMC3    C6 6058   4.531   2.903   0.631 -0.2706  0.5778 -0.3923
  402TMC3     C 6059   4.616   3.250   0.439  0.5919  0.5353  0.4237
  402TMC3     O 6060   4.579   3.349   0.502  0.1762 -0.5857 -0.0881
  402TMC3     H 6061   4.416   3.216   0.592 -1.6819 -1.4126  2.3127
  402TMC3    H1 6062   4.707   2.997   0.379  1.5920 -0.4044  1.4590
  402TMC3    H2 6063   4.525   2.824   0.705 -1.8763  1.3644  0.3059
  402TMC3    C7 6064   4.727   2.811   0.541  0.2071  0.1498  0.0953
  402TMC3    C8 6065   4.455   3.047   0.800 -0.3883  0.1323  0.3454
  402TMC3    O1 6066   0.037   2.768   0.438 -0.2483 -0.2267 -0.4913
  402TMC3    O2 6067   4.518   2.975   0.875  0.2510 -0.2791  0.4784
  403MPD2     C 6068   2.371   2.657  13.265 -0.0595 -0.0064  0.4335
  403MPD2    C1 6069   2.406   2.664  13.397  0.0012  0.3756  0.7248
  403MPD2    C2 6070   2.520   2.738  13.430  0.6311 -0.6779 -0.4083
  403MPD2    C3 6071   2.580   2.815  13.327  0.7974  0.3236  0.7783
  403MPD2    C4 6072   2.549   2.805  13.195  0.6882  0.1709  0.2032
  403MPD2    C5 6073   2.447   2.723  13.166 -0.1999  0.2505 -0.0657
  403MPD2     H 6074   2.568   2.732  13.528  0.7604  1.5901 -0.3401
  403MPD2    H1 6075   2.609   2.843  13.113 -0.3041 -0.9028 -1.0215
  403MPD2    H2 6076   2.289   2.596  13.228 -0.6051  1.3377 -0.5592
  403MPD2    H3 6077   2.411   2.707  13.066 -0.4931  1.0955 -0.0975
  403MPD2     N 6078   2.698   2.894  13.348 -0.5510  0.0294 -0.4265
  403MPD2    H5 6079   2.735   2.928  13.260  0.6045 -0.1079  0.0013
  403MPD2    N1 6080   2.342   2.582  13.487 -0.3748  0.1603 -0.2204
  403MPD2    H7 6081   2.274   2.514  13.457 -1.1063 -0.3515  2.5718
  404TMC3    C1 6082   2.290   2.483  13.710 -0.2256 -0.0837  0.3065
  404TMC3    C2 6083   2.318   2.486  13.842  0.2831  0.9133  0.3417
  404TMC3    C3 6084   2.295   2.386  13.927  0.3199  1.2119 -0.5063
  404TMC3    C4 6085   2.248   2.366  13.654  0.4150 -0.0061 -0.0556
  404TMC3    C5 6086   2.230   2.259  13.744 -0.1691 -1.0481 -0.0484
  404TMC3    C6 6087   2.238   2.267  13.877  0.5803  0.7191  1.4635
  404TMC3     C 6088   2.356   2.584  13.625 -0.7702 -0.0635  0.4327
  404TMC3     O 6089   2.414   2.668  13.692 -0.2887 -0.1565 -0.4196
  404TMC3     H 6090   2.340   2.580  13.893  0.8353 -0.2260  2.2188
  404TMC3    H1 6091   2.238   2.355  13.547 -1.4811 -1.0977  0.2172
  404TMC3    H2 6092   2.218   2.178  13.936  0.1505 -0.5249 -0.5876
  404TMC3    C7 6093   2.171   2.133  13.694  0.0548  0.2750  0.3180
  404TMC3    C8 6094   2.348   2.395  14.062  0.1369 -0.3338 -0.2831
  404TMC3    O1 6095   2.206   2.028  13.743 -0.6032 -0.1965  0.0610
  404TMC3    O2 6096   2.437   2.481  14.080  0.0995  0.1315  0.6128
  405MPD2     C 6097   3.056   3.559  15.009 -0.2720 -0.5542 -0.1770
  405MPD2    C1 6098   3.119   3.460  14.938  0.6078  0.0216  0.4313
  405MPD2    C2 6099   3.096   3.459  14.801 -0.0966 -0.1902 -0.0397
  405MPD2    C3 6100   3.016   3.551  14.740  0.0158  0.2989 -0.0101
  405MPD2    C4 6101   2.974   3.655  14.804 -0.4450  0.0500 -0.2042
  405MPD2    C5 6102   2.983   3.656  14.937  0.6007  0.2116  0.0931
  405MPD2     H 6103   3.128   3.381  14.734 -1.5429 -0.1581 -0.7731
  405MPD2    H1 6104   2.915   3.735  14.762 -1.6631 -1.7464 -1.8577
  405MPD2    H2 6105   3.060   3.578  15.116 -2.7964  0.6410 -0.2931
  405MPD2    H3 6106   2.934   3.731  14.998  0.2184 -0.6698  0.8671
  405MPD2     N 6107   2.993   3.530  14.606 -0.8343  0.4593 -0.0738
  405MPD2    H5 6108   3.045   3.453  14.564 -1.5940 -0.9837  1.6420
  405MPD2    N1 6109   3.187   3.356  15.011  0.0083 -0.1486  0.8113
  405MPD2    H7 6110   3.198   3.367  15.111  0.6601  0.5134  0.6614
  406TMC3    C1 6111   2.814   3.478  14.190 -0.0365 -0.6061  0.3066
  406TMC3    C2 6112   2.807   3.340  14.207  0.1306  0.6002  0.2924
  406TMC3    C3 6113   2.839   3.293  14.327 -0.6232 -0.5066 -0.1825
  406TMC3    C4 6114   2.845   3.563  14.291 -0.5589 -0.0954 -0.5380
  406TMC3    C5 6115   2.874   3.507  14.411 -0.8888  0.0645  0.1091
  406TMC3    C6 6116   2.863   3.370  14.436  0.1241 -0.5232  0.0698
  406TMC3     C 6117   2.800   3.536  14.061 -0.2077 -0.0726  0.0465
  406TMC3     O 6118   2.863   3.643  14.042 -0.1780  0.6329  0.3082
  406TMC3     H 6119   2.783   3.273  14.125  0.4815 -0.0122  0.6863
  406TMC3    H1 6120   2.837   3.671  14.282  0.6454  0.0004 -0.4016
  406TMC3    H2 6121   2.860   3.335  14.539 -1.0606  1.9604  0.8818
  406TMC3    C7 6122   2.899   3.590  14.529  0.1668 -0.4433  0.1305
  406TMC3    C8 6123   2.848   3.151  14.347  0.4462 -0.0444  0.1923
  406TMC3    O1 6124   2.858   3.706  14.535 -0.1330 -0.2455 -0.3143
  406TMC3    O2 6125   2.769   3.079  14.289  0.0840  0.4352  0.0251
  407MPD2     C 6126   0.121   4.510  10.185  0.0065  0.1612 -0.5342
  407MPD2    C1 6127   0.160   4.624  10.112 -0.1403 -0.9018  0.3757
  407MPD2    C2 6128   0.119   0.003  10.164 -0.2193 -0.3739 -0.6843
  407MPD2    C3 6129   0.083   0.016  10.297 -0.2406 -0.2401  0.0182
  407MPD2    C4 6130   0.043   4.648  10.366  0.5735  0.8277  0.0495
  407MPD2    C5 6131   0.058   4.522  10.309  0.3313 -0.4219  0.0225
  407MPD2     H 6132   0.146   0.097  10.118  0.7436 -1.0224 -1.4459
  407MPD2    H1 6133   0.001   4.661  10.465 -0.1486 -0.7275 -0.0527
  407MPD2    H2 6134   0.144   4.412  10.145 -1.5468 -1.3754  2.3587
  407MPD2    H3 6135   0.035   4.424  10.349  0.8045  0.0168  1.3727
  407MPD2     N 6136   0.078   0.150  10.346 -0.8554  0.1696 -0.0431
  407MPD2    H5 6137   0.111   0.217  10.277 -0.5915  0.5933  0.4943
  407MPD2    N1 6138   0.212   4.623   9.983 -0.2206 -0.2371  0.0271
  407MPD2    H7 6139   0.221   4.708   9.927  0.6265  0.3335  1.0292
  408TMC3    C1 6140   0.378   4.574   9.828  0.2063 -0.2961 -0.3177
  408TMC3    C2 6141   0.508   4.598   9.859  0.5857  0.6660 -0.4204
  408TMC3    C3 6142   0.562   4.710   9.814  0.0262 -0.0725  0.3136
  408TMC3    C4 6143   0.313   4.657   9.739  0.1615 -0.2217 -0.1421
  408TMC3    C5 6144   0.369   0.034   9.689  0.3698 -0.0364  0.2196
  408TMC3    C6 6145   0.499   0.051   9.725  0.3115  0.0986  0.1895
  408TMC3     C 6146   0.313   4.531   9.944  0.0964  0.5060 -0.1448
  408TMC3     O 6147   0.360   4.433  10.003 -0.3592  0.0206  0.1531
  408TMC3     H 6148   0.557   4.555   9.945  0.5434  0.9178 -0.2704
  408TMC3    H1 6149   0.206   4.641   9.728  0.4035 -0.2187 -2.4798
  408TMC3    H2 6150   0.559   0.133   9.687 -0.3365  0.1767 -0.6574
  408TMC3    C7 6151   0.304   0.165   9.685 -0.1025 -0.2974 -0.8785
  408TMC3    C8 6152   0.654   0.037   9.895  0.0459  0.6052 -0.3805
  408TMC3    O1 6153   0.366   0.252   9.749 -0.0729  0.1452  0.2151
  408TMC3    O2 6154   0.753   4.721   9.935 -0.2851 -0.0918 -0.1127
  409MPD2     C 6155   0.079   0.293  17.129 -0.2006  0.5225  0.1423
  409MPD2    C1 6156   0.212   0.314  17.152  0.2297  0.9260  0.2933
  409MPD2    C2 6157   0.267   0.436  17.131 -0.0602  0.0221  0.1420
  409MPD2    C3 6158   0.181   0.542  17.086  0.1958  0.0597 -0.1414
  409MPD2    C4 6159   0.046   0.515  17.068  0.0588 -0.4856  0.1854
  409MPD2    C5 6160   4.740   0.393  17.086 -0.4440 -0.0959 -0.0432
  409MPD2     H 6161   0.374   0.443  17.146 -0.1398 -0.8031  1.0250
  409MPD2    H1 6162   4.718   0.580  17.014  1.2893 -0.4681 -1.3437
  409MPD2    H2 6163   0.034   0.196  17.148  0.1949  0.6063  1.5710
  409MPD2    H3 6164   4.636   0.366  17.068 -0.2045 -2.3692  1.8754
  409MPD2     N 6165   0.235   0.667  17.048 -0.2049 -0.0621 -0.4070
  409MPD2    H5 6166   0.169   0.735  17.011  0.6662  0.7795 -0.3913
  409MPD2    N1 6167   0.299   0.217  17.210  0.5250 -0.5911  0.1566
  409MPD2    H7 6168   0.391   0.253  17.232 -0.5104  2.0030  0.2309
  410TMC3    C1 6169   0.392   0.848  17.027  0.6805  1.1888  0.3050
  410TMC3    C2 6170   0.500   0.897  17.095  0.4022 -0.3908  0.7255
  410TMC3    C3 6171   0.597   0.971  17.037 -0.3554  0.5004  0.5857
  410TMC3    C4 6172   0.386   0.872  16.892  0.6166  0.4086  0.0325
  410TMC3    C5 6173   0.495   0.932  16.830  0.9591  0.2891  0.0350
  410TMC3    C6 6174   0.605   0.978  16.903 -0.2164  0.5811 -0.0746
  410TMC3     C 6175   0.368   0.708  17.067 -0.1688  0.0432  0.7775
  410TMC3     O 6176   0.457   0.638  17.112  0.0187 -0.3530 -0.0437
  410TMC3     H 6177   0.519   0.846  17.189  1.1703 -0.9756  0.2455
  410TMC3    H1 6178   0.302   0.831  16.837 -0.7069  1.8631  0.9702
  410TMC3    H2 6179   0.679   1.043  16.858  0.4681  0.5121  0.9569
  410TMC3    C7 6180   0.477   0.967  16.692  0.8849  0.1190 -0.2712
  410TMC3    C8 6181   0.721   0.954  17.102 -0.1578  0.0262 -0.2308
  410TMC3    O1 6182   0.371   0.937  16.640 -0.2666  0.0880 -0.1024
  410TMC3    O2 6183   0.797   1.047  17.109 -0.0900 -0.1101 -0.0600
  411MPD2     C 6184   0.575   1.809  14.814  0.1295 -0.5323 -0.1078
  411MPD2    C1 6185   0.489   1.765  14.914 -0.4544  0.1664  0.0061
  411MPD2    C2 6186   0.428   1.641  14.901  0.4272 -0.7409  0.7490
  411MPD2    C3 6187   0.454   1.557  14.795 -0.5995  0.3153 -0.7407
  411MPD2    C4 6188   0.548   1.596  14.702 -0.7779  0.5656 -0.3256
  411MPD2    C5 6189   0.600   1.718  14.714 -0.2402  0.0448  0.2101
  411MPD2     H 6190   0.348   1.616  14.970 -0.9792  2.5884  0.3260
  411MPD2    H1 6191   0.576   1.544  14.611 -1.0636  0.1752 -0.1877
  411MPD2    H2 6192   0.633   1.900  14.813  0.1859 -0.5527  1.2776
  411MPD2    H3 6193   0.666   1.755  14.637 -0.9306 -0.0610 -0.4339
  411MPD2     N 6194   0.384   1.449  14.750  0.2534  0.2529  0.1058
  411MPD2    H5 6195   0.419   1.418  14.660  0.1987  1.2861 -0.2692
  411MPD2    N1 6196   0.450   1.842  15.029  0.1524  0.6672  0.4125
  411MPD2    H7 6197   0.390   1.800  15.099  0.4636 -1.5601 -0.6289
  412TMC3    C1 6198   0.209   1.282  14.743 -0.4702  0.4969  0.2325
  412TMC3    C2 6199   0.106   1.214  14.804 -0.0771 -0.4409  0.1183
  412TMC3    C3 6200   0.053   1.115  14.732  0.4405  0.2507 -0.8823
  412TMC3    C4 6201   0.247   1.252  14.613 -0.0099 -0.4522 -0.4749
  412TMC3    C5 6202   0.182   1.155  14.545  0.2741 -0.0150 -0.5816
  412TMC3    C6 6203   0.093   1.078  14.608  0.5350 -0.5630 -0.6000
  412TMC3     C 6204   0.282   1.385  14.821 -0.2928 -0.3364  0.1670
  412TMC3     O 6205   0.238   1.408  14.929 -0.9358 -0.0552 -0.3384
  412TMC3     H 6206   0.091   1.240  14.909  0.8638 -0.0507  0.1562
  412TMC3    H1 6207   0.335   1.303  14.575  0.0473 -1.2128 -1.3621
  412TMC3    H2 6208   0.064   0.988  14.556  2.4007 -1.4720 -0.0832
  412TMC3    C7 6209   0.116   1.210  14.427  0.7202 -0.2338  0.6978
  412TMC3    C8 6210   4.663   1.055  14.755  0.4928  0.3098 -0.0131
  412TMC3    O1 6211   4.740   1.175  14.418  0.1601  0.0738  0.3074
  412TMC3    O2 6212   4.631   0.991  14.854  0.5404 -0.0274 -0.0208
  413MPD2     C 6213   1.966   4.466  16.060 -0.0100  0.5170 -0.1734
  413MPD2    C1 6214   1.963   4.433  15.926 -0.1630 -0.0364 -0.4436
  413MPD2    C2 6215   2.087   4.395  15.866  0.2935  0.4045  1.0471
  413MPD2    C3 6216   2.200   4.375  15.945 -0.5436  0.2391 -0.1962
  413MPD2    C4 6217   2.204   4.418  16.072  0.4917 -0.5833 -0.4396
  413MPD2    C5 6218   2.086   4.462  16.128  0.6405  0.5618  0.3825
  413MPD2     H 6219   2.093   4.370  15.760 -0.2234 -0.6678  1.2746
  413MPD2    H1 6220   2.299   4.414  16.124  0.0583 -0.9156  0.3226
  413MPD2    H2 6221   1.882   4.481  16.127  2.2958  2.0196  2.3968
  413MPD2    H3 6222   2.086   4.496  16.231  0.1085 -0.8352  0.8454
  413MPD2     N 6223   2.317   4.327  15.887 -0.6585  0.6740 -0.2345
  413MPD2    H5 6224   2.322   4.329  15.785  1.5614  0.0822 -0.1368
  413MPD2    N1 6225   1.847   4.419  15.861  1.0539 -0.3205  0.4549
  413MPD2    H7 6226   1.764   4.420  15.919  1.4570 -0.6089  1.0355
  414TMC3    C1 6227   2.490   4.177  15.857 -0.0146 -0.1138  0.3088
  414TMC3    C2 6228   2.537   4.048  15.879  0.6124  0.0279  0.0661
  414TMC3    C3 6229   2.612   3.984  15.792  0.0969 -0.3380 -0.5686
  414TMC3    C4 6230   2.526   4.247  15.746 -0.1742  0.6922  0.5670
  414TMC3    C5 6231   2.607   4.179  15.655 -0.3685 -0.0687 -0.2448
  414TMC3    C6 6232   2.648   4.049  15.676  0.3847 -1.3344  0.1149
  414TMC3     C 6233   2.394   4.235  15.950  0.5932  0.5437 -0.3120
  414TMC3     O 6234   2.372   4.176  16.056  0.7212  0.1262 -0.5385
  414TMC3     H 6235   2.497   4.003  15.969 -1.3527  1.9444  0.1558
  414TMC3    H1 6236   2.515   4.355  15.748  0.5824  0.7348  2.8994
  414TMC3    H2 6237   2.711   3.997  15.605 -0.8884  0.5812 -2.4329
  414TMC3    C7 6238   2.672   4.238  15.542  0.7864 -0.1374  0.0600
  414TMC3    C8 6239   2.663   3.851  15.813 -0.6554  0.4730 -0.2244
  414TMC3    O1 6240   2.763   4.181  15.483 -0.1123  0.3031  0.0496
  414TMC3    O2 6241   2.695   3.779  15.717 -0.1677  0.8232 -0.0293
  415TMC3    C1 6242   2.623   2.516  10.227 -0.0177 -0.6743 -0.0327
  415TMC3    C2 6243   2.651   2.620  10.145  0.6599 -0.4610 -0.0667
  415TMC3    C3 6244   2.652   2.593  10.007 -0.1375 -0.5232  0.6562
  415TMC3    C4 6245   2.573   2.400  10.175  0.0547 -0.2719 -0.1571
  415TMC3    C5 6246   2.568   2.387  10.038  0.1109 -0.5223  0.2925
  415TMC3    C6 6247   2.619   2.477   9.950 -0.1072 -0.1577  0.1715
  415TMC3     C 6248   2.609   2.533  10.369  0.1565 -0.8802 -0.2037
  415TMC3     O 6249   2.528   2.466  10.430  0.0545 -0.1082  0.3398
  415TMC3     H 6250   2.683   2.720  10.173  0.0958 -0.5410  0.8540
  415TMC3    H1 6251   2.536   2.321  10.239 -1.1550  0.6668  0.3227
  415TMC3    H2 6252   2.601   2.473   9.843 -1.6461  2.5752  0.3426
  415TMC3    C7 6253   2.494   2.290   9.972 -0.0787  0.8658 -0.0439
  415TMC3    C8 6254   2.694   2.697   9.910 -0.3171  0.1928  0.3442
  415TMC3    O1 6255   2.518   2.245   9.863 -0.1682  0.3185  0.5806
  415TMC3    O2 6256   2.688   2.671   9.791 -0.1567  0.1083  0.5122
  416MPD2     C 6257   4.188   0.879  11.766  0.4172 -0.3414  0.8401
  416MPD2    C1 6258   4.164   0.991  11.689  0.1039 -0.1611  0.3497
  416MPD2    C2 6259   4.189   0.984  11.550 -0.2519  0.1859 -0.2978
  416MPD2    C3 6260   4.217   0.856  11.496 -0.6892 -0.0562 -0.2448
  416MPD2    C4 6261   4.272   0.765  11.581  0.0549 -0.2361 -0.0413
  416MPD2    C5 6262   4.258   0.775  11.718  0.1586  0.2142  0.1274
  416MPD2     H 6263   4.145   1.055  11.481  1.3349  0.7873 -0.6703
  416MPD2    H1 6264   4.289   0.670  11.532  2.9042 -0.0765  0.6516
  416MPD2    H2 6265   4.180   0.874  11.874 -2.2828 -2.7107  0.5085
  416MPD2    H3 6266   4.277   0.682  11.771  0.2963 -0.4310 -1.0533
  416MPD2     N 6267   4.214   0.828  11.362  0.0730  0.7282 -0.4294
  416MPD2    H5 6268   4.224   0.729  11.340  2.3448  1.2788 -1.8238
  416MPD2    N1 6269   4.106   1.109  11.749 -1.2084 -0.2934  0.1268
  416MPD2    H7 6270   4.101   1.106  11.850  1.1898 -1.6008  0.2129
  417TMC3    C1 6271   4.043   1.337  11.779 -0.9799  0.9117  0.3212
  417TMC3    C2 6272   4.018   1.321  11.913  0.9010  0.7598  0.2683
  417TMC3    C3 6273   3.969   1.432  11.980  0.0315  0.0387 -0.6418
  417TMC3    C4 6274   4.009   1.448  11.709 -0.7193 -1.0523 -0.7518
  417TMC3    C5 6275   3.968   1.558  11.784  0.1239  0.3330 -0.7961
  417TMC3    C6 6276   3.952   1.552  11.919  0.6001 -0.2475  0.2282
  417TMC3     C 6277   4.100   1.234  11.694  0.9273  1.0913 -0.3619
  417TMC3     O 6278   4.118   1.265  11.580 -0.8655 -0.2762  0.3371
  417TMC3     H 6279   4.051   1.226  11.954  2.6293  1.0544 -0.4291
  417TMC3    H1 6280   4.023   1.461  11.602 -0.5505 -2.8692 -0.9489
  417TMC3    H2 6281   3.910   1.636  11.973 -1.4119 -0.5908 -0.8111
  417TMC3    C7 6282   3.864   1.633  11.722  0.2994  0.0029  0.2111
  417TMC3    C8 6283   3.943   1.434  12.129 -0.4553  0.5420 -0.0905
  417TMC3    O1 6284   3.887   1.671  11.607  0.4472 -0.3361 -0.4248
  417TMC3    O2 6285   3.916   1.547  12.178 -0.0638 -0.3297 -0.3361
  418TMC3    C1 6286   3.867   2.501   0.126 -0.2687 -0.2031  0.1441
  418TMC3    C2 6287   3.828   2.634   0.122 -0.7089  0.1254  0.0515
  418TMC3    C3 6288   3.745   2.671   0.223  0.7641 -0.3802 -0.2181
  418TMC3    C4 6289   3.833   2.415   0.231  0.1079 -0.3909 -0.8519
  418TMC3    C5 6290   3.778   2.478   0.344 -0.3886 -0.2152 -0.1688
  418TMC3    C6 6291   3.725   2.599   0.336 -0.3986  0.5073  0.2205
  418TMC3     C 6292   3.915   2.437   0.004  0.2507  0.0177  0.3769
  418TMC3     O 6293   3.960   2.509  17.671 -0.1740 -0.5737 -0.1386
  418TMC3     H 6294   3.828   2.688   0.028  0.1446 -1.4698 -0.8500
  418TMC3    H1 6295   3.897   2.329   0.246 -0.1384 -0.0665  1.9996
  418TMC3    H2 6296   3.664   2.644   0.414 -1.4005  1.0412 -0.8687
  418TMC3    C7 6297   3.748   2.398   0.463  0.7505  0.0280 -0.3011
  418TMC3    C8 6298   3.643   2.760   0.173 -0.1866 -0.0006 -0.0426
  418TMC3    O1 6299   3.758   2.274   0.441  0.3029 -0.4453 -0.2616
  418TMC3    O2 6300   3.664   2.838   0.082 -0.2166  0.0775  0.0629
  419MPD2     C 6301   1.750   1.151  12.547  0.5338 -0.4979 -0.9229
  419MPD2    C1 6302   1.642   1.225  12.587 -0.2158  0.4051 -0.3097
  419MPD2    C2 6303   1.593   1.198  12.712  0.5912 -0.2995 -0.2006
  419MPD2    C3 6304   1.645   1.108  12.794  0.6280  0.1727  0.3738
  419MPD2    C4 6305   1.755   1.028  12.758  0.0517  0.3497 -0.2714
  419MPD2    C5 6306   1.802   1.049  12.625 -0.4796 -0.3828 -0.7474
  419MPD2     H 6307   1.506   1.251  12.748 -0.1436 -1.9362  0.4322
  419MPD2    H1 6308   1.785   0.939  12.813 -0.4031 -0.0036 -0.5885
  419MPD2    H2 6309   1.805   1.170  12.456  0.6990  2.4496 -0.2173
  419MPD2    H3 6310   1.891   0.996  12.595 -2.6372 -2.5122 -3.3688
  419MPD2     N 6311   1.578   1.085  12.912 -0.4370 -0.4666 -0.2383
  419MPD2    H5 6312   1.490   1.134  12.922  0.3287  0.3146  2.5105
  419MPD2    N1 6313   1.583   1.321  12.507 -0.2633  0.0048 -0.1102
  419MPD2    H7 6314   1.501   1.363  12.551  0.6839  1.6524  0.0944
  420TMC3    C1 6315   1.533   1.020  13.128  0.6748 -0.3183 -0.2317
  420TMC3    C2 6316   1.405   1.059  13.102 -0.2845  0.5910  0.1989
  420TMC3    C3 6317   1.321   1.097  13.200 -0.2552  0.7062  0.4850
  420TMC3    C4 6318   1.581   1.032  13.252 -0.6371  0.4177  0.7120
  420TMC3    C5 6319   1.497   1.078  13.347 -0.3910  0.7244  1.0593
  420TMC3    C6 6320   1.364   1.097  13.328 -0.3539 -0.2877 -0.6370
  420TMC3     C 6321   1.632   1.014  13.016  0.9571  0.0982  0.7998
  420TMC3     O 6322   1.738   0.961  13.041  0.2062  0.6977 -0.1126
  420TMC3     H 6323   1.372   1.041  13.001 -1.0851  1.3425  0.3239
  420TMC3    H1 6324   1.687   1.013  13.270 -0.2069  0.7298 -1.4903
  420TMC3    H2 6325   1.303   1.135  13.409 -1.6362 -1.5407 -1.0208
  420TMC3    C7 6326   1.554   1.131  13.474 -0.0662  0.4531  0.0270
  420TMC3    C8 6327   1.188   1.160  13.162 -0.6238 -0.4693  0.0950
  420TMC3    O1 6328   1.475   1.157  13.566  0.1840  0.3705  0.0514
  420TMC3    O2 6329   1.149   1.134  13.046 -0.4243  0.1767 -0.3173
  421TMC3    C1 6330   2.877   3.001  13.452 -0.2986  0.4694 -0.0815
  421TMC3    C2 6331   2.894   3.106  13.546 -0.1727 -0.1482 -0.1782
  421TMC3    C3 6332   3.012   3.104  13.626 -0.9464  0.4462  0.8341
  421TMC3    C4 6333   2.970   2.900  13.450 -0.6099  0.0191  0.2121
  421TMC3    C5 6334   3.082   2.903  13.535  0.6723  0.3249 -0.2353
  421TMC3    C6 6335   3.109   3.011  13.614  0.4001 -0.1262  0.0664
  421TMC3     C 6336   2.753   2.937  13.467 -0.1052 -0.0209  0.2217
  421TMC3     O 6337   2.713   2.928  13.580  0.9295 -0.1525  0.6538
  421TMC3     H 6338   2.808   3.165  13.575  0.2643  0.2644  0.2633
  421TMC3    H1 6339   2.940   2.810  13.397 -3.8253  0.0770  1.9339
  421TMC3    H2 6340   3.204   3.027  13.664  0.5388 -0.7111 -0.0072
  421TMC3    C7 6341   3.133   2.775  13.591  0.3475  0.8165  0.0498
  421TMC3    C8 6342   3.020   3.168  13.755 -0.9215  0.1329  0.1365
  421TMC3    O1 6343   3.103   2.671  13.537 -0.0952  0.0097 -0.6315
  421TMC3    O2 6344   2.964   3.272  13.774 -0.7776 -0.5523  0.6364
  422TMC3    C1 6345   0.627   3.957  12.646  0.7265  0.1315  0.2963
  422TMC3    C2 6346   0.639   4.044  12.752 -0.8741 -0.3779 -0.4713
  422TMC3    C3 6347   0.530   4.066  12.832  0.4875 -0.0262  0.2040
  422TMC3    C4 6348   0.505   3.902  12.619 -0.2824  0.1726 -0.6139
  422TMC3    C5 6349   0.395   3.935  12.698  0.0603 -0.5075 -0.6114
  422TMC3    C6 6350   0.403   4.011  12.814 -0.1909  0.4803 -0.2500
  422TMC3     C 6351   0.715   3.983  12.531 -0.0645  0.3978  0.4190
  422TMC3     O 6352   0.816   4.039  12.568 -0.7858  0.2828  0.5718
  422TMC3     H 6353   0.739   4.078  12.777 -1.2925 -1.0053  2.0445
  422TMC3    H1 6354   0.489   3.836  12.534 -1.7941 -3.2674  2.3324
  422TMC3    H2 6355   0.322   4.042  12.879 -0.4464 -0.2926 -0.1996
  422TMC3    C7 6356   0.267   3.877  12.657 -0.0765  0.3789  0.1623
  422TMC3    C8 6357   0.529   4.182  12.911 -0.8516 -0.6016  0.2107
  422TMC3    O1 6358   0.270   3.822  12.547  0.2835  0.4760  0.7563
  422TMC3    O2 6359   0.447   4.194  13.001 -0.3116  0.0819  0.0670
  423MPD2     C 6360   1.463   4.604   0.828  0.1062 -0.1055 -0.5136
  423MPD2    C1 6361   1.596   4.624   0.839 -0.0491 -0.0432  0.8939
  423MPD2    C2 6362   1.679   4.565   0.746  0.2250 -0.0234 -0.3750
  423MPD2    C3 6363   1.633   4.472   0.651  0.0587 -0.0752  0.1252
  423MPD2    C4 6364   1.502   4.439   0.658  0.5763  0.0405 -0.2099
  423MPD2    C5 6365   1.416   4.508   0.745  0.2725 -0.0061  0.0764
  423MPD2     H 6366   1.786   4.585   0.749  0.3856 -1.1192  1.5453
  423MPD2    H1 6367   1.453   4.357   0.607  0.2114  0.7999 -1.0868
  423MPD2    H2 6368   1.391   4.646   0.897 -1.8945 -0.5931 -2.3215
  423MPD2    H3 6369   1.313   4.476   0.741 -0.8183  3.6478 -0.6413
  423MPD2     N 6370   1.714   4.403   0.562  0.0690 -0.0890 -0.8212
  423MPD2    H5 6371   1.667   4.323   0.520 -0.0098 -0.2896 -0.3475
  423MPD2    N1 6372   1.650   4.715   0.935  0.1131  0.2910  0.6728
  423MPD2    H7 6373   1.745   0.006   0.922  0.5713 -0.5477  2.0221
  424TMC3    C1 6374   1.662   0.132   1.107  0.0821 -0.0311 -0.1797
  424TMC3    C2 6375   1.770   0.081   1.173 -0.5410 -0.2799 -0.1204
  424TMC3    C3 6376   1.818   0.152   1.276 -0.2723 -0.0992 -0.7879
  424TMC3    C4 6377   1.601   0.251   1.141 -0.1487  0.6556  0.0942
  424TMC3    C5 6378   1.652   0.316   1.248 -0.5646 -0.2569  1.0443
  424TMC3    C6 6379   1.765   0.268   1.320 -0.2008  0.4151  0.3271
  424TMC3     C 6380   1.586   0.033   1.040  0.0082  0.0153  0.7677
  424TMC3     O 6381   1.464   0.041   1.061  0.4743  0.8306  0.0895
  424TMC3     H 6382   1.804   4.722   1.147  0.9257  0.1151  0.3007
  424TMC3    H1 6383   1.513   0.284   1.087  0.1853  0.3642 -0.6361
  424TMC3    H2 6384   1.792   0.318   1.413 -0.8923  2.4129 -0.5494
  424TMC3    C7 6385   1.590   0.436   1.307 -0.7060  0.2642 -0.0480
  424TMC3    C8 6386   1.913   0.083   1.358  0.6629 -0.8293 -0.0253
  424TMC3    O1 6387   1.654   0.507   1.385 -0.2451 -0.6203  0.0651
  424TMC3    O2 6388   1.924   4.700   1.351 -0.2372 -0.5404 -0.6469
  425MPD2     C 6389   1.587   3.938  17.197 -0.6856  0.1683  1.1373
  425MPD2    C1 6390   1.570   3.878  17.319 -0.4970 -0.3288 -0.8746
  425MPD2    C2 6391   1.540   3.958  17.423  0.2482 -0.2458  0.9243
  425MPD2    C3 6392   1.524   4.095  17.404 -0.2046 -0.4378 -0.5612
  425MPD2    C4 6393   1.551   4.163  17.287 -0.4401  0.0597 -0.1827
  425MPD2    C5 6394   1.583   4.076  17.184  0.1324  0.3645  0.1380
  425MPD2     H 6395   1.515   3.921  17.522 -3.2272 -2.2962 -0.7664
  425MPD2    H1 6396   1.558   4.270  17.278  0.0757  0.1260  0.8917
  425MPD2    H2 6397   1.589   3.876  17.108 -0.9756  2.1513 -0.2501
  425MPD2    H3 6398   1.612   4.121  17.089 -0.4869 -1.9651 -1.1613
  425MPD2     N 6399   1.477   4.159  17.523  0.4364 -0.5550 -0.0978
  425MPD2    H5 6400   1.468   4.100  17.605 -1.0449 -0.3038 -0.0732
  425MPD2    N1 6401   1.556   3.740  17.324  0.0465  0.0201  0.2301
  425MPD2    H7 6402   1.573   3.688  17.239 -0.1856 -2.0754  1.4602
  426TMC3    C1 6403   1.520   3.525  17.414  0.0783 -0.1119 -0.4677
  426TMC3    C2 6404   1.474   3.472  17.299 -0.3135  0.0611  0.0686
  426TMC3    C3 6405   1.507   3.341  17.277  0.6558  0.3282 -0.8558
  426TMC3    C4 6406   1.573   3.452  17.522 -0.6019 -0.0480 -0.0759
  426TMC3    C5 6407   1.609   3.320  17.490 -0.6112 -0.3857 -0.1131
  426TMC3    C6 6408   1.576   3.268  17.366  0.6252  0.3719  0.1880
  426TMC3     C 6409   1.541   3.669  17.440  0.7698 -0.0790 -0.0278
  426TMC3     O 6410   1.534   3.697  17.561 -0.3547  0.1755 -0.0152
  426TMC3     H 6411   1.441   3.535  17.217  0.0759  0.0898 -0.0661
  426TMC3    H1 6412   1.617   3.495  17.611  0.9087  0.8822 -1.2674
  426TMC3    H2 6413   1.607   3.165  17.350  1.0063  0.5564 -0.2720
  426TMC3    C7 6414   1.641   3.236  17.600 -0.7654 -0.3549 -0.2193
  426TMC3    C8 6415   1.443   3.255  17.175  0.0484 -0.1777 -0.4890
  426TMC3    O1 6416   1.700   3.130  17.572 -0.5233 -0.8520 -0.8539
  426TMC3    O2 6417   1.511   3.167  17.124  0.2741  0.3006 -0.6193
  427MPD2     C 6418   4.481   1.642  15.134 -0.3386  0.4658 -1.1843
  427MPD2    C1 6419   4.412   1.560  15.218  0.5239 -0.9343  0.2330
  427MPD2    C2 6420   4.274   1.569  15.219  0.4903  0.6775 -0.1330
  427MPD2    C3 6421   4.210   1.662  15.136  0.4536 -0.2040 -0.3607
  427MPD2    C4 6422   4.284   1.746  15.054  0.4820  0.3890  0.3259
  427MPD2    C5 6423   4.420   1.731  15.052 -0.7251 -0.0662  0.6405
  427MPD2     H 6424   4.219   1.489  15.266 -1.0700  2.3223  0.8500
  427MPD2    H1 6425   4.239   1.808  14.978  1.9302 -0.8405 -1.5283
  427MPD2    H2 6426   4.589   1.632  15.129 -0.0487  2.6113  0.7310
  427MPD2    H3 6427   4.479   1.790  14.982 -2.5321 -0.5985 -1.3330
  427MPD2     N 6428   4.074   1.666  15.113  0.0220 -0.0727  0.0693
  427MPD2    H5 6429   4.025   1.719  15.041 -0.2562 -0.3563  0.0489
  427MPD2    N1 6430   4.489   1.457  15.286  0.7734  0.3134 -0.2737
  427MPD2    H7 6431   4.589   1.458  15.265  0.9867 -0.7883  0.7030
  428TMC3    C1 6432   4.533   1.275  15.419  0.0358  0.2731  0.8252
  428TMC3    C2 6433   4.480   1.154  15.454 -0.6521 -0.1542 -0.3811
  428TMC3    C3 6434   4.568   1.057  15.494  0.1534 -0.4966 -0.1557
  428TMC3    C4 6435   4.667   1.302  15.410  0.5992 -0.2507  1.1355
  428TMC3    C5 6436   0.005   1.196  15.447  0.0987  0.1296 -0.5371
  428TMC3    C6 6437   4.701   1.077  15.489  0.2850 -0.2978  0.4930
  428TMC3     C 6438   4.437   1.368  15.382  0.0698 -0.3853 -0.6651
  428TMC3     O 6439   4.328   1.373  15.439  0.6743  0.0530  0.3708
  428TMC3     H 6440   4.380   1.153  15.494 -0.6627 -1.8578 -0.4550
  428TMC3    H1 6441   4.701   1.401  15.383  0.2891  0.0007  1.6678
  428TMC3    H2 6442   0.029   0.996  15.512 -0.3300 -0.9705 -0.0834
  428TMC3    C7 6443   0.143   1.213  15.475 -0.0391 -0.3385  0.1586
  428TMC3    C8 6444   4.531   0.914  15.510 -0.3489 -0.0671 -0.1471
  428TMC3    O1 6445   0.194   1.162  15.574  0.2015 -0.3442 -0.1249
  428TMC3    O2 6446   4.616   0.849  15.573  0.0283  0.7610 -0.2979
  429MPD2     C 6447   1.314   1.317  17.750 -0.1530 -0.1798 -0.2437
  429MPD2    C1 6448   1.212   1.247  17.685 -0.5658 -0.1880 -0.3652
  429MPD2    C2 6449   1.156   1.298  17.564 -0.2818  0.5255 -0.1252
  429MPD2    C3 6450   1.206   1.421  17.517 -0.2037  0.1648  0.0484
  429MPD2    C4 6451   1.296   1.489  17.591  0.0263 -0.4333  0.5905
  429MPD2    C5 6452   1.350   1.440  17.706  0.4924 -0.1224  0.1566
  429MPD2     H 6453   1.083   1.249  17.500 -0.5345 -0.0944  0.6344
  429MPD2    H1 6454   1.338   1.582  17.554 -2.3560  0.7312  0.8276
  429MPD2    H2 6455   1.365   1.277   0.080 -0.6380  1.2786  0.7117
  429MPD2    H3 6456   1.416   1.508   0.000  1.0067 -1.5133  1.3479
  429MPD2     N 6457   1.164   1.464  17.387 -0.0362  0.5520 -0.4670
  429MPD2    H5 6458   1.101   1.402  17.337  1.0878 -0.1223 -1.0615
  429MPD2    N1 6459   1.149   1.133  17.744  0.9494  0.0327  0.4647
  429MPD2    H7 6460   1.071   1.092  17.692 -1.0012  1.6695  2.1192
  430TMC3    C1 6461   1.138   1.606  17.197 -0.3897  0.3422  0.8022
  430TMC3    C2 6462   1.157   1.729  17.144  0.3408  0.6699  0.1986
  430TMC3    C3 6463   1.139   1.737  17.011 -0.0327 -0.2404 -0.2935
  430TMC3    C4 6464   1.111   1.496  17.120  0.3607 -1.0497  0.3019
  430TMC3    C5 6465   1.090   1.510  16.986 -0.0551  0.5395 -0.7570
  430TMC3    C6 6466   1.102   1.633  16.926  0.1847 -0.2319  0.0968
  430TMC3     C 6467   1.198   1.590  17.330 -0.5901  0.2970 -0.0339
  430TMC3     O 6468   1.256   1.684  17.382  0.6119  0.2537  0.0495
  430TMC3     H 6469   1.160   1.818  17.205 -3.1988  0.9506 -0.0415
  430TMC3    H1 6470   1.102   1.397  17.163 -1.7180 -0.7632  0.5332
  430TMC3    H2 6471   1.052   1.647  16.830 -0.2973  1.8144  0.6507
  430TMC3    C7 6472   1.079   1.383  16.917  1.4516  0.6998  0.3522
  430TMC3    C8 6473   1.150   1.866  16.959  0.4172 -0.3600 -0.1491
  430TMC3    O1 6474   1.047   1.280  16.972  0.7811 -0.1997 -0.1280
  430TMC3    O2 6475   1.104   1.964  17.020  0.1998 -0.3272 -0.4057
  431MPD2     C 6476   1.151   1.692  13.016  0.4451  0.1121 -0.0458
  431MPD2    C1 6477   1.228   1.788  12.959 -0.7752  0.3639  0.2015
  431MPD2    C2 6478   1.259   1.774  12.820  0.5758  0.6622  0.1938
  431MPD2    C3 6479   1.214   1.673  12.740  0.4810  0.4990 -1.0731
  431MPD2    C4 6480   1.140   1.581  12.808 -0.0862  0.0659  0.5462
  431MPD2    C5 6481   1.101   1.588  12.940  0.4703  0.5139  0.5445
  431MPD2     H 6482   1.322   1.849  12.773 -1.3328  0.9891 -1.8528
  431MPD2    H1 6483   1.110   1.498  12.744  0.0390 -0.6830  1.4640
  431MPD2    H2 6484   1.112   1.687  13.117  0.3231  1.8921  0.0029
  431MPD2    H3 6485   1.031   1.516  12.980  1.3224  0.3281  1.7085
  431MPD2     N 6486   1.255   1.643  12.607 -0.3981 -0.3201 -0.1107
  431MPD2    H5 6487   1.231   1.554  12.563  0.4259  0.4086 -2.0279
  431MPD2    N1 6488   1.272   1.893  13.031  0.3749 -0.4806 -0.2587
  431MPD2    H7 6489   1.320   1.970  12.984 -2.4727  3.0452  2.6015
  432TMC3    C1 6490   1.393   1.661  12.413  0.1987 -0.1114 -0.1310
  432TMC3    C2 6491   1.447   1.744  12.319  0.6604  0.5932 -0.8787
  432TMC3    C3 6492   1.557   1.711  12.252 -1.2425  0.1607 -0.0556
  432TMC3    C4 6493   1.440   1.537  12.433 -0.0027 -0.2569  0.2864
  432TMC3    C5 6494   1.542   1.497  12.348  0.4867  0.6828 -0.2902
  432TMC3    C6 6495   1.610   1.582  12.262  0.7435  0.0359  0.4615
  432TMC3     C 6496   1.330   1.728  12.527 -0.3749 -0.5586  0.3458
  432TMC3     O 6497   1.353   1.846  12.548 -0.3800  0.0319  0.0529
  432TMC3     H 6498   1.392   1.835  12.296  2.2923  1.3537 -1.7791
  432TMC3    H1 6499   1.391   1.472  12.505  1.5052 -5.0312 -3.0012
  432TMC3    H2 6500   1.686   1.556  12.189 -0.7743 -1.1363 -0.6927
  432TMC3    C7 6501   1.613   1.374  12.383  0.0583  0.9579 -0.4713
  432TMC3    C8 6502   1.610   1.808  12.156 -0.6144  0.0854 -0.0536
  432TMC3    O1 6503   1.705   1.343  12.305  0.2708  0.7166  0.2833
  432TMC3    O2 6504   1.537   1.903  12.130  0.1332 -0.1885  0.1195
  433MPD2     C 6505   4.717   0.303  10.855  0.1661  0.5127  0.9296
  433MPD2    C1 6506   0.045   0.214  10.940 -0.5651 -0.4571  0.9220
  433MPD2    C2 6507   0.097   0.257  11.057 -0.8253  0.0066 -0.4353
  433MPD2    C3 6508   0.086   0.389  11.091  0.3553  0.2020 -0.1396
  433MPD2    C4 6509   0.024   0.475  11.009  0.3297  0.5682  0.4565
  433MPD2    C5 6510   4.709   0.434  10.894 -0.2458 -0.3696 -0.4338
  433MPD2     H 6511   0.158   0.196  11.122 -0.8213  0.4870  0.0169
  433MPD2    H1 6512   0.033   0.581  11.034 -0.3539  1.2987 -2.3547
  433MPD2    H2 6513   4.674   0.275  10.760 -0.1460  1.5886  0.7562
  433MPD2    H3 6514   4.661   0.510  10.834  0.5995 -1.1564 -2.1001
  433MPD2     N 6515   0.136   0.424  11.223  0.1069 -0.0701  0.0773
  433MPD2    H5 6516   0.173   0.345  11.275 -1.7505 -0.2685  1.0851
  433MPD2    N1 6517   0.067   0.083  10.887  0.6832 -0.4914 -0.4032
  433MPD2    H7 6518   0.027   0.064  10.795  1.8728 -0.6625 -0.8803
  434TMC3    C1 6519   0.181   4.611  10.859 -0.1955 -1.3363 -0.1322
  434TMC3    C2 6520   0.286   4.544  10.911 -0.1113 -0.3718  0.0447
  434TMC3    C3 6521   0.283   4.412  10.913 -0.2933  0.6116  0.3027
  434TMC3    C4 6522   0.077   4.544  10.798  0.3220 -0.4914  0.4594
  434TMC3    C5 6523   0.089   4.410  10.795  0.0528 -0.1099 -0.2870
  434TMC3    C6 6524   0.184   4.339  10.859  0.1838 -0.5199 -0.6766
  434TMC3     C 6525   0.147   4.727  10.943 -0.3855  0.6939 -0.2926
  434TMC3     O 6526   0.174   4.717  11.062  0.5259  0.0963 -0.0041
  434TMC3     H 6527   0.356   4.608  10.962  0.1048 -0.7093  0.1714
  434TMC3    H1 6528   4.738   4.598  10.747  0.8333 -1.1309 -0.9946
  434TMC3    H2 6529   0.181   4.231  10.853  0.4449 -0.6137  0.8467
  434TMC3    C7 6530   4.722   4.333  10.732 -0.5833  0.6487  0.7783
  434TMC3    C8 6531   0.390   4.357  10.987 -0.6252 -0.0305 -0.8606
  434TMC3    O1 6532   4.674   4.373  10.626  0.1163 -0.3499  0.6351
  434TMC3    O2 6533   0.483   4.427  11.023 -0.2889 -0.4244 -0.5223
  435MPD2     C 6534   2.527   4.731  15.697  0.8404  0.0172  0.1002
  435MPD2    C1 6535   2.503   0.052  15.819  0.0810  0.0107 -0.1781
  435MPD2    C2 6536   2.602   0.078  15.911  0.5937  0.5398  0.0328
  435MPD2    C3 6537   2.727   0.030  15.883  0.3163 -0.1224 -0.3557
  435MPD2    C4 6538   2.748   4.711  15.760  0.2129  0.3078 -0.5036
  435MPD2    C5 6539   2.659   4.701  15.660  0.0287  0.4285 -0.1727
  435MPD2     H 6540   2.577   0.112  16.011 -0.7342  1.0775 -0.4769
  435MPD2    H1 6541   2.847   4.687  15.723 -0.0964 -0.4726 -0.8230
  435MPD2    H2 6542   2.449   4.712  15.625 -0.1830  2.2563  0.6413
  435MPD2    H3 6543   2.692   4.658  15.566  3.0771  0.7617  0.7547
  435MPD2     N 6544   2.814   0.024  15.996 -0.3918 -0.0119 -0.8468
  435MPD2    H5 6545   2.777   0.028  16.090 -0.2025  1.5230 -0.8417
  435MPD2    N1 6546   2.369   0.074  15.864  0.3200  0.7751 -0.2423
  435MPD2    H7 6547   2.345   0.128  15.947  3.4097  2.2272 -0.3091
  436TMC3    C1 6548   2.058   0.077  16.118  0.6148  0.2279  0.1276
  436TMC3    C2 6549   2.169   0.060  16.038  0.1439  0.0257  0.1297
  436TMC3    C3 6550   2.149   0.014  15.915  0.0670 -0.2271  0.6641
  436TMC3    C4 6551   1.928   0.071  16.078  0.0739  0.9749 -0.5010
  436TMC3    C5 6552   1.913   0.034  15.943 -0.6741  0.1620 -0.0396
  436TMC3    C6 6553   2.021   0.008  15.869  0.4655  0.2530 -0.2048
  436TMC3     C 6554   2.100   0.141  16.245  0.1876  0.5976 -0.5164
  436TMC3     O 6555   2.214   0.174  16.263 -0.2617 -0.9201  0.4307
  436TMC3     H 6556   2.265   0.050  16.087 -0.3815  0.0951  1.1775
  436TMC3    H1 6557   1.844   0.093  16.143 -1.1191  0.5210 -1.8884
  436TMC3    H2 6558   2.015   4.707  15.768  1.1622  1.2151 -0.6395
  436TMC3    C7 6559   1.777   0.012  15.896  0.8233 -0.2601  0.3712
  436TMC3    C8 6560   2.264   4.731  15.828  0.3948 -0.2397 -1.0453
  436TMC3    O1 6561   1.689   4.734  15.979  0.1244  0.3183 -0.4917
  436TMC3    O2 6562   2.259   4.646  15.744  0.3874 -0.1199 -0.0641
  437TMC3    C1 6563   0.753   2.092  13.598 -0.0695 -0.8094 -0.7679
  437TMC3    C2 6564   0.630   2.028  13.579  0.1647  0.3997  0.0362
  437TMC3    C3 6565   0.514   2.100  13.592  0.2416  0.5918  0.5499
  437TMC3    C4 6566   0.750   2.228  13.614 -0.4075  0.4382 -0.0607
  437TMC3    C5 6567   0.632   2.295  13.598 -0.0041 -0.4756  0.4543
  437TMC3    C6 6568   0.507   2.237  13.597 -0.0325 -0.5868  0.4826
  437TMC3     C 6569   0.858   2.034  13.675  0.3529 -0.1563  0.2040
  437TMC3     O 6570   0.944   2.112  13.711 -0.6231 -0.4872  0.7202
  437TMC3     H 6571   0.622   1.920  13.574 -2.0411  0.6221 -1.2459
  437TMC3    H1 6572   0.843   2.282  13.622  0.7640 -1.6869  0.4833
  437TMC3    H2 6573   0.415   2.291  13.579 -0.1967 -1.1631 -0.4272
  437TMC3    C7 6574   0.642   2.421  13.531  0.4213 -0.2625 -0.1575
  437TMC3    C8 6575   0.394   2.027  13.629 -0.3564  0.0470 -0.0906
  437TMC3    O1 6576   0.558   2.501  13.563 -0.4840 -0.2950 -0.2172
  437TMC3    O2 6577   0.409   1.915  13.681  0.1120 -0.0246  0.0827
  438MPD2     C 6578   3.568   2.763  17.103  0.5298  0.5722  0.8677
  438MPD2    C1 6579   3.677   2.730  17.177  0.1535  0.1976  0.0354
  438MPD2    C2 6580   3.660   2.667  17.304 -0.3739 -0.2683 -0.0869
  438MPD2    C3 6581   3.536   2.622  17.349  0.4376  0.5101  0.6130
  438MPD2    C4 6582   3.429   2.650  17.272  0.3934  0.9188  0.6650
  438MPD2    C5 6583   3.448   2.727  17.159  0.2717 -0.3628  0.8329
  438MPD2     H 6584   3.747   2.627  17.354 -1.1651 -1.3523  0.4193
  438MPD2    H1 6585   3.331   2.622  17.308  0.3938 -0.8976 -0.7671
  438MPD2    H2 6586   3.570   2.808  17.004 -2.4129 -1.2861 -0.0312
  438MPD2    H3 6587   3.358   2.754  17.104 -0.1456 -1.1097  1.1537
  438MPD2     N 6588   3.514   2.526  17.445  0.6679 -0.5510  0.0310
  438MPD2    H5 6589   3.432   2.466  17.440 -0.7106  1.3814 -0.5761
  438MPD2    N1 6590   3.809   2.736  17.126 -1.1782 -0.6958  0.2112
  438MPD2    H7 6591   3.882   2.690  17.180 -2.1263  1.0019  2.9441
  439TMC3    C1 6592   3.968   2.711  16.971  0.0884 -0.0117  0.0798
  439TMC3    C2 6593   3.990   2.650  16.852 -0.1112  0.4557 -0.5651
  439TMC3    C3 6594   4.116   2.627  16.810 -0.2035  0.6130  0.4997
  439TMC3    C4 6595   4.068   2.746  17.059  0.1659  0.1022 -0.0900
  439TMC3    C5 6596   4.197   2.712  17.018  0.3752  0.6239  0.7118
  439TMC3    C6 6597   4.225   2.655  16.895 -0.5291 -0.3136 -0.0491
  439TMC3     C 6598   3.841   2.763  17.000  0.3569  0.1364 -0.1427
  439TMC3     O 6599   3.777   2.812  16.911 -0.1194 -0.1463  0.0705
  439TMC3     H 6600   3.901   2.632  16.793  0.1171 -2.2121 -0.0827
  439TMC3    H1 6601   4.059   2.817  17.141 -1.6760  0.6866 -0.8082
  439TMC3    H2 6602   4.323   2.621  16.864 -0.9178 -1.2586 -0.2539
  439TMC3    C7 6603   4.305   2.752  17.099 -0.3007  0.9803 -0.5090
  439TMC3    C8 6604   4.145   2.567  16.681  0.4959 -0.2428 -0.6608
  439TMC3    O1 6605   4.290   2.788  17.213  0.0072  0.6065 -0.5951
  439TMC3    O2 6606   4.251   2.495  16.676  0.4397  0.4342 -0.7343
  440MPD2     C 6607   2.860   3.110  14.956  0.6407  1.3040 -0.5118
  440MPD2    C1 6608   2.816   3.222  15.022  0.1827  0.2754 -0.0788
  440MPD2    C2 6609   2.827   3.225  15.161 -0.0615  0.4393  0.4137
  440MPD2    C3 6610   2.867   3.109  15.227  0.0408  0.0668  0.2425
  440MPD2    C4 6611   2.885   2.993  15.157  0.0422  0.4536  0.0655
  440MPD2    C5 6612   2.890   2.994  15.024  0.6784 -0.0480 -0.3569
  440MPD2     H 6613   2.817   3.322  15.209 -1.3339  0.2132  0.6247
  440MPD2    H1 6614   2.912   2.896  15.198 -0.8933  0.4942  0.7840
  440MPD2    H2 6615   2.872   3.109  14.848 -0.3966 -0.8204 -0.5980
  440MPD2    H3 6616   2.913   2.903  14.969  1.1927  0.9691 -1.8324
  440MPD2     N 6617   2.887   3.110  15.370 -0.3345  0.3197  0.1053
  440MPD2    H5 6618   2.929   3.028  15.412  0.0118  1.0319  1.1341
  440MPD2    N1 6619   2.765   3.331  14.956  0.3022  0.1535 -0.4307
  440MPD2    H7 6620   2.732   3.403  15.020  0.0562  0.2949 -0.7134
  441TMC3    C1 6621   2.824   3.147  15.592  0.1961 -0.2794 -0.0873
  441TMC3    C2 6622   2.836   3.236  15.690  0.7020  0.3362  0.6113
  441TMC3    C3 6623   2.857   3.183  15.810  0.3056  0.1863 -0.3811
  441TMC3    C4 6624   2.845   3.009  15.614 -0.3600  0.1745 -0.4322
  441TMC3    C5 6625   2.841   2.966  15.744 -0.4721 -0.4369 -0.4069
  441TMC3    C6 6626   2.865   3.051  15.840  0.2757  0.2199  0.1087
  441TMC3     C 6627   2.818   3.195  15.456  0.3614  0.1139 -0.1035
  441TMC3     O 6628   2.754   3.298  15.437 -0.7942 -0.0148  0.8836
  441TMC3     H 6629   2.855   3.339  15.663 -0.7151 -0.0979 -2.0837
  441TMC3    H1 6630   2.820   2.946  15.529 -0.5694  0.9137 -0.9220
  441TMC3    H2 6631   2.899   3.018  15.937  1.3659  0.1040 -0.3211
  441TMC3    C7 6632   2.749   2.855  15.787  0.8696 -0.9250  0.3178
  441TMC3    C8 6633   2.846   3.266  15.927  0.1830 -0.2517 -0.3841
  441TMC3    O1 6634   2.720   2.860  15.909  0.2006 -0.2621  0.3822
  441TMC3    O2 6635   2.840   3.205  16.029  0.6554 -0.0577 -0.2688
  442MPD2     C 6636   1.186   3.458  16.876  0.3683  0.1161  0.3996
  442MPD2    C1 6637   1.051   3.448  16.897  0.4706 -0.2622 -0.1192
  442MPD2    C2 6638   0.984   3.363  16.814  0.4425  0.2703  0.0427
  442MPD2    C3 6639   1.039   3.289  16.713  0.1996 -0.5190 -0.4419
  442MPD2    C4 6640   1.176   3.300  16.702 -0.5490 -0.1844  0.3359
  442MPD2    C5 6641   1.246   3.392  16.778 -0.2723 -0.3223 -0.0464
  442MPD2     H 6642   0.882   3.351  16.850  0.1491  0.6239 -0.6569
  442MPD2    H1 6643   1.224   3.250  16.617 -0.3922 -0.6393  0.6920
  442MPD2    H2 6644   1.248   3.534  16.923  2.3899 -2.4389  1.8799
  442MPD2    H3 6645   1.353   3.406  16.764 -0.2481  1.1231  1.5842
  442MPD2     N 6646   0.962   3.195  16.635 -0.3704  0.5945  0.1990
  442MPD2    H5 6647   1.008   3.155  16.553 -0.2068  0.8350  0.1718
  442MPD2    N1 6648   0.982   3.525  16.996 -0.6628 -0.4390 -0.2440
  442MPD2    H7 6649   0.883   3.507  17.006 -0.6750 -0.4662 -0.4057
  443TMC3    C1 6650   0.935   3.679  17.165 -0.9588 -0.3198 -0.1106
  443TMC3    C2 6651   0.906   3.811  17.149  0.1144 -0.1013 -0.3733
  443TMC3    C3 6652   0.785   3.854  17.183 -0.1762 -0.1498 -0.0972
  443TMC3    C4 6653   0.848   3.586  17.213 -0.0701  0.5726  0.3687
  443TMC3    C5 6654   0.730   3.637  17.253  0.3575  0.1542  0.1184
  443TMC3    C6 6655   0.693   3.763  17.225  0.4372 -0.0865 -0.0463
  443TMC3     C 6656   1.027   3.632  17.062 -0.9226 -0.1645  0.0545
  443TMC3     O 6657   1.139   3.684  17.051  0.7435  0.1598 -0.0247
  443TMC3     H 6658   0.981   3.875  17.104 -1.3686  0.7185 -1.6502
  443TMC3    H1 6659   0.889   3.488  17.234  1.5290  0.7626 -1.8211
  443TMC3    H2 6660   0.593   3.792  17.252 -0.2348 -2.6872  0.2525
  443TMC3    C7 6661   0.648   3.539  17.321  0.6831  0.0976  0.0435
  443TMC3    C8 6662   0.744   3.951  17.084  0.1927 -0.2215 -0.3931
  443TMC3    O1 6663   0.651   3.424  17.289  0.9489  0.7886  0.2195
  443TMC3    O2 6664   0.795   4.060  17.078 -0.6762 -0.2141  0.2800
  444MPD2     C 6665   1.177   3.235  17.553  0.4535 -0.1673 -0.0152
  444MPD2    C1 6666   1.062   3.190  17.488  0.0916  0.2740  0.3752
  444MPD2    C2 6667   1.069   3.073  17.420  0.6181  0.4410 -0.5756
  444MPD2    C3 6668   1.188   3.002  17.414 -0.4183  0.0572 -0.0232
  444MPD2    C4 6669   1.298   3.051  17.479  0.4361  0.3042 -0.0225
  444MPD2    C5 6670   1.296   3.172  17.542  0.1941 -0.2541 -0.9493
  444MPD2     H 6671   0.987   3.031  17.364 -0.7136  1.7503  0.3936
  444MPD2    H1 6672   1.399   3.011  17.480 -0.4701 -1.8971  1.1865
  444MPD2    H2 6673   1.183   3.322  17.617  1.0760 -1.0838  1.1709
  444MPD2    H3 6674   1.378   3.221  17.594 -1.4677  1.5892 -0.0511
  444MPD2     N 6675   1.191   2.882  17.339  0.4753  0.5220  0.4906
  444MPD2    H5 6676   1.111   2.852  17.285  0.5544 -1.3251  1.3856
  444MPD2    N1 6677   0.936   3.250  17.513  0.1658 -0.1116  0.1228
  444MPD2    H7 6678   0.856   3.192  17.488  0.6089 -0.6773  0.0173
  445TMC3    C1 6679   1.298   2.686  17.224  0.8175  0.0194  0.1426
  445TMC3    C2 6680   1.179   2.670  17.154 -0.1328  0.2353  0.3181
  445TMC3    C3 6681   1.185   2.589  17.044 -0.0744  0.1827 -0.7040
  445TMC3    C4 6682   1.420   2.638  17.177 -0.1777 -0.2774  0.4995
  445TMC3    C5 6683   1.420   2.562  17.061 -0.7632  0.5067 -0.4041
  445TMC3    C6 6684   1.301   2.536  17.001 -0.0527 -0.0729 -0.7245
  445TMC3     C 6685   1.304   2.805  17.319  0.1289 -0.5076 -0.5977
  445TMC3     O 6686   1.420   2.839  17.343  0.2174 -0.5180  0.2232
  445TMC3     H 6687   1.088   2.720  17.184 -0.7654 -1.1838  0.7338
  445TMC3    H1 6688   1.514   2.664  17.225 -1.4837  0.3653  2.6726
  445TMC3    H2 6689   1.297   2.458  16.925 -0.6066  0.8181 -1.5966
  445TMC3    C7 6690   1.537   2.537  16.986  0.3417  0.6225 -0.4199
  445TMC3    C8 6691   1.058   2.553  16.973  0.1142 -0.0987 -0.6398
  445TMC3    O1 6692   1.521   2.506  16.867 -0.0111 -0.2758  0.2387
  445TMC3    O2 6693   0.966   2.549  17.049 -0.0168  0.4247 -0.6811
  446MPD2     C 6694   0.037   4.266  11.291  0.3470  0.6631 -0.5372
  446MPD2    C1 6695   4.737   4.392  11.250 -0.0851  0.5170 -0.8295
  446MPD2    C2 6696   0.089   4.497  11.251 -0.7765 -0.7397 -0.1812
  446MPD2    C3 6697   0.218   4.471  11.291  0.4146 -0.0883 -0.1167
  446MPD2    C4 6698   0.256   4.341  11.335 -0.8040  0.3165  0.1917
  446MPD2    C5 6699   0.164   4.241  11.329  0.5173 -0.1793  0.2966
  446MPD2     H 6700   0.050   4.597  11.234  1.3126 -0.2805 -2.2672
  446MPD2    H1 6701   0.358   4.321  11.366 -0.8160 -0.8141 -0.5119
  446MPD2    H2 6702   4.705   4.186  11.283 -0.7092  1.5040  0.5607
  446MPD2    H3 6703   0.186   4.138  11.355  0.9870 -0.2255 -0.2913
  446MPD2     N 6704   0.312   4.581  11.279  0.7670 -0.5857 -0.1477
  446MPD2    H5 6705   0.278   4.661  11.226 -1.0637 -2.3505 -1.6420
  446MPD2    N1 6706   4.605   4.414  11.207  0.0245  0.1853  0.1787
  446MPD2    H7 6707   4.584   4.504  11.166  0.9042 -0.3992 -1.5495
  447TMC3    C1 6708   0.513   4.716  11.312 -0.6325 -0.1300 -0.3837
  447TMC3    C2 6709   0.460   0.074  11.231 -0.2855  0.1183  0.5015
  447TMC3    C3 6710   0.538   0.184  11.222  0.4760 -0.4375 -0.0795
  447TMC3    C4 6711   0.632   4.727  11.376 -0.6272 -0.5392 -0.3133
  447TMC3    C5 6712   0.701   0.103  11.354 -0.1671  0.0920 -0.2259
  447TMC3    C6 6713   0.656   0.208  11.280 -0.8649  0.6375 -0.1730
  447TMC3     C 6714   0.438   4.587  11.334 -0.3675  0.2739 -0.2954
  447TMC3     O 6715   0.506   4.499  11.387 -0.0555 -0.4546 -0.1897
  447TMC3     H 6716   0.363   0.081  11.183  0.9290  1.2849 -1.7737
  447TMC3    H1 6717   0.674   4.659  11.449  1.5172  0.8782 -0.2003
  447TMC3    H2 6718   0.708   0.300  11.257  1.7365 -0.2496  2.2360
  447TMC3    C7 6719   0.838   0.095  11.392  0.5473 -0.2463 -0.0714
  447TMC3    C8 6720   0.481   0.279  11.123 -0.0170 -0.1726 -0.4729
  447TMC3    O1 6721   0.887   4.731  11.443 -0.1388  0.6624 -0.1729
  447TMC3    O2 6722   0.450   0.218  11.024 -0.1239 -0.2153  0.1289
  448TMC3    C1 6723   0.366   3.955  17.596 -0.6365 -0.5619 -0.0842
  448TMC3    C2 6724   0.290   3.874  17.516  0.5643  0.4104  0.4632
  448TMC3    C3 6725   0.157   3.857  17.535  1.1532  0.2475 -0.9111
  448TMC3    C4 6726   0.311   4.004  17.715 -0.1991 -0.3980 -0.6884
  448TMC3    C5 6727   0.182   3.969  17.741  0.2674  0.0964 -0.4162
  448TMC3    C6 6728   0.104   3.900  17.655 -0.3114  0.0069 -0.0716
  448TMC3     C 6729   0.514   3.952  17.569  0.6474 -0.3820 -0.0021
  448TMC3     O 6730   0.569   3.856  17.512  0.5251 -0.5254  0.3793
  448TMC3     H 6731   0.326   3.836  17.421 -0.6431 -0.5688  0.3922
  448TMC3    H1 6732   0.360   4.074   0.024 -1.4164  0.3607 -0.5996
  448TMC3    H2 6733   0.002   3.870  17.676  0.3457 -1.0388  1.5835
  448TMC3    C7 6734   0.120   4.002   0.111  0.4318  0.4049  0.5563
  448TMC3    C8 6735   0.077   3.753  17.475 -0.3432  0.4216  0.7128
  448TMC3    O1 6736   0.172   4.094   0.168  0.0715  0.4712 -1.0495
  448TMC3    O2 6737   4.697   3.739  17.505  0.2551 -0.1977 -0.3120
  449MPD2     C 6738   4.667   2.382  14.121  0.0243 -0.2990 -0.0556
  449MPD2    C1 6739   4.618   2.385  13.993  0.4341 -0.4439 -0.0004
  449MPD2    C2 6740   4.521   2.293  13.960 -0.8089  0.7471 -0.4166
  449MPD2    C3 6741   4.455   2.214  14.053 -0.2364  1.0656 -0.2775
  449MPD2    C4 6742   4.515   2.208  14.175  0.0547  0.4940 -0.0513
  449MPD2    C5 6743   4.620   2.286  14.208  0.4465 -0.0933 -0.1068
  449MPD2     H 6744   4.480   2.298  13.859 -0.1638  0.5100 -0.6944
  449MPD2    H1 6745   4.480   2.129  14.241  2.2742 -0.4793 -0.0427
  449MPD2    H2 6746   0.000   2.456  14.153  1.2793 -2.5050  2.1879
  449MPD2    H3 6747   4.646   2.287  14.313 -0.5684  2.2407  0.1129
  449MPD2     N 6748   4.349   2.130  14.014 -0.0129  0.3164 -0.2499
  449MPD2    H5 6749   4.351   2.115  13.913 -2.9693 -1.3991 -0.0552
  449MPD2    N1 6750   4.648   2.488  13.903 -0.4234 -0.3394 -0.3466
  449MPD2    H7 6751   4.579   2.492  13.829  0.4735  2.8342 -1.0297
  450TMC3    C1 6752   4.682   2.705  13.829  0.1644 -0.3976 -0.7372
  450TMC3    C2 6753   0.032   2.738  13.731  0.2960 -0.6431  0.1864
  450TMC3    C3 6754   4.720   2.752  13.606 -0.2148 -0.1710  0.3257
  450TMC3    C4 6755   4.553   2.710  13.813 -0.1745  0.0045 -0.9250
  450TMC3    C5 6756   4.505   2.729  13.683  0.2315 -0.1673 -0.4845
  450TMC3    C6 6757   4.587   2.745  13.576 -0.3312 -0.3641  0.4714
  450TMC3     C 6758   4.730   2.593  13.922 -0.1383 -0.2964 -0.0461
  450TMC3     O 6759   0.098   2.599  13.981  0.0009 -0.3562  0.4375
  450TMC3     H 6760   0.138   2.747  13.751  0.1802  1.7860 -0.2188
  450TMC3    H1 6761   4.481   2.679  13.888  0.8766 -1.2888 -0.4449
  450TMC3    H2 6762   4.551   2.756  13.474  1.8984 -1.4884 -0.4639
  450TMC3    C7 6763   4.424   2.618  13.658 -0.2293  0.2033  0.8080
  450TMC3    C8 6764   0.062   2.815  13.504 -0.3474  1.2568 -0.0195
  450TMC3    O1 6765   4.454   2.520  13.722  0.3686 -0.6015  0.2815
  450TMC3    O2 6766   4.739   2.860  13.408  0.4812 -0.3403  0.8379
  451MPD2     C 6767   1.537   1.472   1.446  0.2130 -0.1444  0.1130
  451MPD2    C1 6768   1.505   1.342   1.400  0.8112 -0.4136 -0.2377
  451MPD2    C2 6769   1.599   1.274   1.331  0.0498  0.2450 -0.7250
  451MPD2    C3 6770   1.719   1.327   1.299 -0.5769  0.0995  0.6128
  451MPD2    C4 6771   1.742   1.462   1.338 -0.4185 -0.4788 -0.5966
  451MPD2    C5 6772   1.652   1.534   1.404  0.8991  0.1329 -0.9075
  451MPD2     H 6773   1.570   1.177   1.291  0.0537  0.3087 -0.8851
  451MPD2    H1 6774   1.828   1.521   1.310  0.7785 -1.5250  0.8543
  451MPD2    H2 6775   1.468   1.519   1.514  0.4190  2.0411 -1.1895
  451MPD2    H3 6776   1.672   1.637   1.430  1.9699 -0.2018 -0.4004
  451MPD2     N 6777   1.829   1.255   1.242 -0.4411 -0.2297 -0.0438
  451MPD2    H5 6778   1.914   1.310   1.234  0.0959 -1.1715 -0.8025
  451MPD2    N1 6779   1.375   1.291   1.431 -0.1903 -0.4156 -0.1848
  451MPD2    H7 6780   1.300   1.349   1.467  0.7924  0.8868 -0.2613
  452TMC3    C1 6781   1.949   1.078   1.146 -0.4017  0.3822  0.1135
  452TMC3    C2 6782   1.966   0.940   1.154  0.6104 -0.2718 -0.5015
  452TMC3    C3 6783   2.021   0.874   1.049 -0.1243  0.3659 -0.1699
  452TMC3    C4 6784   1.995   1.157   1.047  0.2462 -0.0964  0.2235
  452TMC3    C5 6785   2.064   1.093   0.943  0.0487 -0.8063 -0.0391
  452TMC3    C6 6786   2.068   0.955   0.943 -0.0843 -0.7814 -0.5248
  452TMC3     C 6787   1.823   1.123   1.204 -0.7327 -0.6173 -0.1020
  452TMC3     O 6788   1.727   1.044   1.213  0.4092 -0.6213  0.0088
  452TMC3     H 6789   1.919   0.887   1.236  0.7379 -1.4693 -1.2114
  452TMC3    H1 6790   1.980   1.264   1.047  1.0455  0.0228  1.8277
  452TMC3    H2 6791   2.108   0.916   0.851  0.9368 -1.3299  0.1635
  452TMC3    C7 6792   2.152   1.170   0.863 -0.1184  0.2530 -0.2078
  452TMC3    C8 6793   1.953   0.757   1.005 -0.7347 -1.2498  0.3175
  452TMC3    O1 6794   2.202   1.129   0.760  0.1528  0.1336 -0.5171
  452TMC3    O2 6795   1.999   0.689   0.917  1.0901 -0.1352  0.5549
  453TMC3    C1 6796   2.044   3.607  12.247  0.0908 -0.7544 -0.9694
  453TMC3    C2 6797   2.004   3.503  12.172  0.3080  0.0425 -0.1897
  453TMC3    C3 6798   1.982   3.524  12.041 -0.3426 -0.2290  0.2747
  453TMC3    C4 6799   2.038   3.732  12.189 -0.7138  0.3292  0.3470
  453TMC3    C5 6800   2.009   3.755  12.062  0.5534 -0.6706 -0.1415
  453TMC3    C6 6801   1.994   3.647  11.984 -0.1704 -0.2871  0.0850
  453TMC3     C 6802   2.174   3.586  12.295 -0.5921  0.2004  0.8208
  453TMC3     O 6803   2.259   3.646  12.229 -0.1696  0.0293 -0.7193
  453TMC3     H 6804   2.023   3.403  12.210  1.3675  0.9503  1.7013
  453TMC3    H1 6805   2.074   3.813  12.251  0.4993  0.1083 -0.0578
  453TMC3    H2 6806   1.999   3.658  11.876 -0.8285  1.3048  0.2165
  453TMC3    C7 6807   2.087   3.852  11.991  0.0618  0.1854  0.5500
  453TMC3    C8 6808   1.973   3.413  11.956  0.2694 -0.5072 -0.2374
  453TMC3    O1 6809   2.043   3.917  11.900  0.6947 -0.1363 -0.2337
  453TMC3    O2 6810   2.026   3.419  11.847  0.0425  0.2486 -0.3683
  454MPD2     C 6811   1.670   2.329  16.316  0.9595 -0.8564 -0.4007
  454MPD2    C1 6812   1.624   2.416  16.217  0.4566  0.2043 -0.1228
  454MPD2    C2 6813   1.608   2.547  16.249 -0.3398  0.2128  0.1642
  454MPD2    C3 6814   1.614   2.591  16.377  0.0647 -1.0812 -0.4493
  454MPD2    C4 6815   1.657   2.506  16.477  0.2057 -0.0975 -0.1810
  454MPD2    C5 6816   1.689   2.379  16.441  0.1750 -0.0318  0.1423
  454MPD2     H 6817   1.567   2.607  16.169 -1.6031  0.3780  0.9271
  454MPD2    H1 6818   1.676   2.527  16.582 -0.4129 -1.4523  0.2160
  454MPD2    H2 6819   1.701   2.227  16.296  0.3777 -0.6806 -2.1633
  454MPD2    H3 6820   1.727   2.308  16.514 -1.0187 -0.2454  0.5530
  454MPD2     N 6821   1.568   2.721  16.414 -0.0643 -0.1166  0.4905
  454MPD2    H5 6822   1.546   2.728  16.513  1.0766  1.1483  0.6482
  454MPD2    N1 6823   1.580   2.376  16.086 -0.6669  0.0172  0.4179
  454MPD2    H7 6824   1.559   2.445  16.015  0.1750 -0.8674 -0.6861
  455TMC3    C1 6825   1.406   2.872  16.397 -0.6428  0.2293 -0.2087
  455TMC3    C2 6826   1.426   2.896  16.533 -0.1582 -0.1660 -0.1838
  455TMC3    C3 6827   1.325   2.867  16.615 -0.0278 -0.4006  0.0686
  455TMC3    C4 6828   1.293   2.830  16.350  0.5409 -0.1344 -0.7754
  455TMC3    C5 6829   1.194   2.794  16.438 -0.4298  0.4284 -0.1530
  455TMC3    C6 6830   1.201   2.819  16.572  0.0588  0.0519 -0.4166
  455TMC3     C 6831   1.517   2.812  16.333  0.2976 -0.4179 -0.1629
  455TMC3     O 6832   1.519   2.821  16.212  0.1782  0.2882 -0.3240
  455TMC3     H 6833   1.524   2.929  16.567 -0.4744  0.8999 -0.3155
  455TMC3    H1 6834   1.294   2.786  16.251 -0.9110 -1.4621 -0.2145
  455TMC3    H2 6835   1.131   2.774  16.640 -1.6698 -1.1165 -2.9775
  455TMC3    C7 6836   1.124   2.671  16.401  0.0806 -0.5987  0.0410
  455TMC3    C8 6837   1.315   2.953  16.735  0.0744  0.0062 -0.4375
  455TMC3    O1 6838   1.013   2.655  16.445 -0.0221  0.1789  0.1825
  455TMC3    O2 6839   1.417   3.003  16.767  0.7010  0.1675  0.0553
  456MPD2     C 6840   4.053   3.009  16.691  0.2549 -0.0989  0.4544
  456MPD2    C1 6841   4.180   2.972  16.732  0.6253  0.0908 -0.9491
  456MPD2    C2 6842   4.220   2.992  16.863  0.2411  0.3056 -0.0443
  456MPD2    C3 6843   4.130   3.043  16.951 -0.0062  0.1973  0.3588
  456MPD2    C4 6844   3.995   3.081  16.913 -0.6171  0.8555 -0.5605
  456MPD2    C5 6845   3.965   3.065  16.776  0.0777  0.2163  0.5762
  456MPD2     H 6846   4.317   2.956  16.897  0.1509 -0.8051 -0.9276
  456MPD2    H1 6847   3.924   3.131  16.978  0.6673  0.4302  1.1883
  456MPD2    H2 6848   4.012   3.006  16.591  0.1296  2.9446  0.3932
  456MPD2    H3 6849   3.867   3.093  16.737  0.5603 -0.3076 -1.0021
  456MPD2     N 6850   4.175   3.072  17.082  0.1908  0.0171 -0.4815
  456MPD2    H5 6851   4.276   3.078  17.091  0.4173 -2.7874 -1.0733
  456MPD2    N1 6852   4.262   2.912  16.632  0.1060  0.5601 -0.0622
  456MPD2    H7 6853   4.217   2.903  16.541 -0.8343  3.0223  0.1717
  457TMC3    C1 6854   4.173   3.150  17.309 -0.8527 -0.5218 -0.2755
  457TMC3    C2 6855   4.284   3.235  17.285 -0.2228  0.1753  0.1101
  457TMC3    C3 6856   4.346   3.279  17.397 -0.6013 -0.0565 -0.9582
  457TMC3    C4 6857   4.133   3.120  17.433  0.4990 -0.3671 -0.9440
  457TMC3    C5 6858   4.209   3.166  17.542 -0.1124 -0.0855  0.4293
  457TMC3    C6 6859   4.317   3.246  17.527  0.2104 -0.4121 -0.3369
  457TMC3     C 6860   4.102   3.106  17.193 -0.4313  1.0270 -0.3262
  457TMC3     O 6861   3.987   3.082  17.217  0.1123 -0.6189  0.5414
  457TMC3     H 6862   4.301   3.262  17.181  0.2682 -0.4477  0.0260
  457TMC3    H1 6863   4.044   3.059  17.450  1.4221 -1.9965 -1.9194
  457TMC3    H2 6864   4.376   3.297  17.603 -1.5776  0.8913  0.1775
  457TMC3    C7 6865   4.181   3.128  17.684 -0.6547  0.5649 -0.5530
  457TMC3    C8 6866   4.467   3.366  17.384  0.2886 -0.1967 -0.8945
  457TMC3    O1 6867   4.277   3.119   0.002 -0.2315 -0.3672 -0.5958
  457TMC3    O2 6868   4.536   3.373  17.486  0.1087  0.4195  0.2447
  458MPD2     C 6869   0.828   2.731  13.187 -0.0357 -1.3348 -0.0337
  458MPD2    C1 6870   0.918   2.630  13.201 -0.3774  0.3886 -0.3319
  458MPD2    C2 6871   0.887   2.531  13.288  0.0460 -0.5619  0.5061
  458MPD2    C3 6872   0.772   2.533  13.362  0.0706 -0.0592  0.0317
  458MPD2    C4 6873   0.688   2.646  13.351 -0.7492 -0.8365  0.7831
  458MPD2    C5 6874   0.715   2.746  13.259  0.5246  0.4547  0.1674
  458MPD2     H 6875   0.960   2.453  13.306  0.3295 -0.4348 -0.0983
  458MPD2    H1 6876   0.591   2.659  13.398 -0.3428  1.8204  0.8715
  458MPD2    H2 6877   0.851   2.813  13.120  1.6545 -1.0923  0.8513
  458MPD2    H3 6878   0.647   2.829  13.243  0.0655  0.0139 -0.2004
  458MPD2     N 6879   0.749   2.422  13.448  0.6925  0.1136  0.5077
  458MPD2    H5 6880   0.809   2.342  13.432 -0.0601 -0.2800 -0.3536
  458MPD2    N1 6881   1.047   2.630  13.150  0.1523 -0.1738 -0.3957
  458MPD2    H7 6882   1.106   2.549  13.170  0.1522  0.1804  1.0044
  459TMC3    C1 6883   1.247   2.710  13.049 -0.7570 -0.0949  0.6490
  459TMC3    C2 6884   1.296   2.773  12.937  0.1747  0.3890 -0.3187
  459TMC3    C3 6885   1.431   2.794  12.935 -0.3895 -0.5111 -0.2561
  459TMC3    C4 6886   1.322   2.667  13.154 -0.4771  0.1360  0.4318
  459TMC3    C5 6887   1.458   2.685  13.144  0.2427 -0.6859 -0.0255
  459TMC3    C6 6888   1.516   2.749  13.035 -0.1756 -0.4513 -0.7259
  459TMC3     C 6889   1.100   2.716  13.059 -0.9879 -0.4066  0.4635
  459TMC3     O 6890   1.036   2.800  12.995  0.0345  0.1852 -0.0675
  459TMC3     H 6891   1.244   2.777  12.843 -0.7343  0.6537  0.1940
  459TMC3    H1 6892   1.271   2.626  13.241  1.0722 -0.8328  0.8939
  459TMC3    H2 6893   1.623   2.764  13.031 -0.0862 -0.5825  1.1008
  459TMC3    C7 6894   1.535   2.639  13.263  0.1398  0.4343 -0.7099
  459TMC3    C8 6895   1.499   2.841  12.808 -0.6541 -0.0518 -0.5442
  459TMC3    O1 6896   1.469   2.591  13.355  0.0935 -0.2258 -0.1918
  459TMC3    O2 6897   1.624   2.836  12.814 -0.0240  0.6231 -0.0234
  460MPD2     C 6898   0.459   0.645  11.122 -0.3925 -0.3403  0.5243
  460MPD2    C1 6899   0.440   0.514  11.080  0.1083 -0.0118 -0.0126
  460MPD2    C2 6900   0.373   0.488  10.961 -0.0290 -0.2600 -0.0230
  460MPD2    C3 6901   0.334   0.587  10.876 -0.0640  0.7715 -0.5171
  460MPD2    C4 6902   0.350   0.721  10.911 -0.4795  0.0352  0.3564
  460MPD2    C5 6903   0.412   0.743  11.033 -0.0275  0.2235  0.3197
  460MPD2     H 6904   0.342   0.390  10.924  0.1807 -0.3004 -0.0917
  460MPD2    H1 6905   0.316   0.806  10.853  2.3998  0.4699 -0.7358
  460MPD2    H2 6906   0.512   0.676  11.211  2.0750  0.3960 -1.2021
  460MPD2    H3 6907   0.434   0.842  11.073 -0.9684  0.0599  1.2205
  460MPD2     N 6908   0.268   0.536  10.765  0.3839 -0.1591 -0.1969
  460MPD2    H5 6909   0.260   0.436  10.749 -1.5961 -0.0323  0.0288
  460MPD2    N1 6910   0.491   0.414  11.161 -0.3418 -0.7089  0.3727
  460MPD2    H7 6911   0.547   0.442  11.242  1.5865 -0.6252 -0.9796
  461TMC3    C1 6912   0.150   0.529  10.568 -0.2338  0.2543  0.2795
  461TMC3    C2 6913   0.111   0.398  10.590  0.3650  0.2076  0.6915
  461TMC3    C3 6914   0.054   0.336  10.479 -0.2258  0.1894  0.1578
  461TMC3    C4 6915   0.109   0.601  10.458  0.2263  0.7919 -0.4084
  461TMC3    C5 6916   0.035   0.541  10.365  0.6944 -0.6758 -0.2076
  461TMC3    C6 6917   0.016   0.407  10.367 -0.1032 -0.2557 -0.5167
  461TMC3     C 6918   0.214   0.605  10.663 -0.2012  0.9387 -0.1889
  461TMC3     O 6919   0.218   0.728  10.643  0.1656  0.1995  0.3191
  461TMC3     H 6920   0.148   0.333  10.668  1.4039 -0.6170 -0.4873
  461TMC3    H1 6921   0.123   0.708  10.448 -1.6095  1.1265  0.6612
  461TMC3    H2 6922   4.716   0.356  10.280 -1.0623 -0.8049  0.2301
  461TMC3    C7 6923   4.709   0.628  10.266 -1.1030 -0.0642 -0.0687
  461TMC3    C8 6924   0.062   0.187  10.477 -1.0407  0.8864  0.0184
  461TMC3    O1 6925   0.011   0.744  10.259  0.6099 -0.2973 -1.0025
  461TMC3    O2 6926   0.044   0.117  10.580 -0.7360 -0.2220 -0.0445
  462TMC3    C1 6927   1.269   1.069   0.706  0.0363 -0.0426 -0.2021
  462TMC3    C2 6928   1.333   0.947   0.693 -0.3472  0.2161 -0.1512
  462TMC3    C3 6929   1.280   0.842   0.760  0.1853 -0.0374 -0.2318
  462TMC3    C4 6930   1.155   1.094   0.788 -0.3902 -0.1611  0.2273
  462TMC3    C5 6931   1.107   0.979   0.846  0.9002  0.1594 -0.4888
  462TMC3    C6 6932   1.175   0.859   0.845  0.1672 -0.3871 -0.5195
  462TMC3     C 6933   1.326   1.173   0.619  0.1505  0.3014 -0.8190
  462TMC3     O 6934   1.445   1.164   0.591  0.1534  0.3129 -0.1365
  462TMC3     H 6935   1.424   0.941   0.633  0.1403  0.9223  0.5172
  462TMC3    H1 6936   1.101   1.188   0.787  1.1578  0.6919 -2.6706
  462TMC3    H2 6937   1.131   0.772   0.892  0.2132 -0.6324 -0.9340
  462TMC3    C7 6938   0.964   0.986   0.870  1.1436  0.0850 -0.0982
  462TMC3    C8 6939   1.293   0.707   0.708 -0.5660 -0.0852 -0.7174
  462TMC3    O1 6940   0.917   1.090   0.905  0.2550 -0.2884 -0.1220
  462TMC3    O2 6941   1.228   0.622   0.773  0.2928  0.4843  0.2049
  463MPD2     C 6942   1.703   0.132   1.764 -0.0518  0.1812 -0.0220
  463MPD2    C1 6943   1.571   0.104   1.738 -0.0167 -0.3487  0.3865
  463MPD2    C2 6944   1.488   0.207   1.713  0.2833 -0.1290  0.1180
  463MPD2    C3 6945   1.529   0.340   1.699  0.0589 -0.6661 -0.4153
  463MPD2    C4 6946   1.658   0.366   1.736  0.0731  0.0407 -0.1167
  463MPD2    C5 6947   1.741   0.267   1.766 -0.7794  0.3803  0.6843
  463MPD2     H 6948   1.389   0.171   1.689 -0.5030  1.6976  0.6837
  463MPD2    H1 6949   1.693   0.468   1.730 -1.1134  0.5750  2.1291
  463MPD2    H2 6950   1.776   0.062   1.800 -2.1655 -1.9732  0.0774
  463MPD2    H3 6951   1.846   0.291   1.780 -0.0893 -1.1033 -2.0317
  463MPD2     N 6952   1.446   0.456   1.675  0.5407  0.5706 -0.1684
  463MPD2    H5 6953   1.489   0.547   1.663  1.2411  0.2232 -0.2791
  463MPD2    N1 6954   1.514   4.719   1.757  0.0410 -0.3421 -0.3752
  463MPD2    H7 6955   1.412   4.723   1.754  0.0024 -1.1189 -0.3191
  464TMC3    C1 6956   1.470   4.524   1.858  0.0797 -0.1155  0.2899
  464TMC3    C2 6957   1.370   4.503   1.772  0.1300 -0.2161 -0.2588
  464TMC3    C3 6958   1.312   4.382   1.761  0.4678 -0.0226 -1.2988
  464TMC3    C4 6959   1.506   4.421   1.939 -0.5474  0.2250 -0.6606
  464TMC3    C5 6960   1.448   4.294   1.923 -0.3486 -0.2142 -0.2869
  464TMC3    C6 6961   1.344   4.270   1.833  0.6971  0.2318 -0.5474
  464TMC3     C 6962   1.572   4.616   1.821  0.0507 -0.0110  0.3851
  464TMC3     O 6963   1.681   4.614   1.881  0.4198  0.4600 -0.1474
  464TMC3     H 6964   1.339   4.585   1.708 -1.4734 -0.8775 -0.3362
  464TMC3    H1 6965   1.582   4.449   2.012  0.5979 -0.3367 -1.6234
  464TMC3    H2 6966   1.299   4.177   1.801 -0.1531  0.6413 -0.5666
  464TMC3    C7 6967   1.500   4.183   2.001  0.0436 -0.4475  0.3516
  464TMC3    C8 6968   1.190   4.385   1.689  0.0638  0.2942 -0.2478
  464TMC3    O1 6969   1.599   4.204   2.066 -0.1351 -0.0716 -0.2428
  464TMC3    O2 6970   1.170   4.475   1.610  0.0917 -0.0369  0.0883
  465MPD2     C 6971   3.539   2.474  16.776  0.1011  0.3959 -0.1379
  465MPD2    C1 6972   3.447   2.474  16.874  0.1416 -0.3596  0.8597
  465MPD2    C2 6973   3.355   2.573  16.868  0.1193  0.5244  0.3747
  465MPD2    C3 6974   3.358   2.672  16.768  0.1713 -0.2591  0.4974
  465MPD2    C4 6975   3.461   2.672  16.676 -0.2563  0.5636  0.3747
  465MPD2    C5 6976   3.557   2.573  16.682  0.0894  0.0024  0.4680
  465MPD2     H 6977   3.283   2.580  16.949  1.0043  1.8173  1.0395
  465MPD2    H1 6978   3.476   2.758  16.612 -3.1572  0.7739 -0.0408
  465MPD2    H2 6979   3.617   2.399  16.779 -0.5065 -0.1949  0.5845
  465MPD2    H3 6980   3.639   2.573  16.611 -1.8683 -1.9043 -1.7917
  465MPD2     N 6981   3.252   2.763  16.771  0.2925  0.1604 -0.7674
  465MPD2    H5 6982   3.190   2.770  16.851  1.1826  1.3204 -0.1746
  465MPD2    N1 6983   3.447   2.385  16.983  0.3512  0.0927 -0.1229
  465MPD2    H7 6984   3.364   2.402  17.038  0.6716 -0.7867  0.6474
  466TMC3    C1 6985   2.897   2.922  16.822 -0.2556  0.1582 -0.6067
  466TMC3    C2 6986   2.869   3.047  16.774 -0.1603 -0.8081  0.1299
  466TMC3    C3 6987   2.960   3.112  16.698  0.8155 -0.6171  0.4117
  466TMC3    C4 6988   3.019   2.872  16.798  0.3676  0.2002 -0.1551
  466TMC3    C5 6989   3.113   2.936  16.720 -0.0823  0.6276  0.0646
  466TMC3    C6 6990   3.083   3.057  16.666 -0.5413 -0.6821  0.3340
  466TMC3     C 6991   2.810   2.866  16.920 -0.8808 -0.2870 -0.0565
  466TMC3     O 6992   2.861   2.788  16.999 -0.1907 -0.4573  0.1009
  466TMC3     H 6993   2.774   3.097  16.793  0.5816  0.4053  0.6888
  466TMC3    H1 6994   3.027   2.775  16.846  0.8582 -0.8288 -2.3271
  466TMC3    H2 6995   3.150   3.100  16.593 -3.4663 -0.8678 -2.4310
  466TMC3    C7 6996   3.234   2.864  16.679 -0.0435  0.7797  0.5974
  466TMC3    C8 6997   2.936   3.242  16.645  0.6044 -0.5108 -0.0523
  466TMC3    O1 6998   3.307   2.911  16.591 -0.0889  0.1718  0.4682
  466TMC3    O2 6999   2.984   3.272  16.538  0.5386  0.4175  0.3378
  467TMC3    C1 7000   3.661   1.626  14.145 -0.3692 -1.0066  0.5019
  467TMC3    C2 7001   3.597   1.703  14.054 -0.1970 -0.2996 -0.1104
  467TMC3    C3 7002   3.467   1.727  14.073 -0.0813  0.0559 -0.7381
  467TMC3    C4 7003   3.597   1.579  14.258 -0.4808  0.3942  0.5982
  467TMC3    C5 7004   3.457   1.597  14.273  0.1587 -0.7885 -0.5120
  467TMC3    C6 7005   3.394   1.667  14.176  0.2318 -0.3280 -1.0593
  467TMC3     C 7006   3.810   1.624  14.138 -0.1937  0.1101 -0.0549
  467TMC3     O 7007   3.877   1.580  14.232  0.0364  0.0188  0.2375
  467TMC3     H 7008   3.640   1.738  13.960 -3.3377  0.9841 -1.0462
  467TMC3    H1 7009   3.661   1.532  14.332 -0.6833  0.2058  0.6530
  467TMC3    H2 7010   3.287   1.685  14.175 -0.3335 -3.8091 -2.4166
  467TMC3    C7 7011   3.388   1.565  14.402 -0.1760 -0.0122  1.0018
  467TMC3    C8 7012   3.395   1.810  13.978 -0.3775 -0.2233 -0.4375
  467TMC3    O1 7013   3.439   1.488  14.484  0.1175  0.1616  0.0159
  467TMC3    O2 7014   3.273   1.792  13.970 -0.1972 -0.1344 -0.5600
  468MPD2     C 7015   2.434   0.537  10.867  0.2246 -0.1925  0.5063
  468MPD2    C1 7016   2.549   0.459  10.881 -0.2643  1.1025 -0.4306
  468MPD2    C2 7017   2.531   0.323  10.873 -0.1895  0.0245  0.4836
  468MPD2    C3 7018   2.414   0.256  10.869  0.0663  0.4672 -0.1087
  468MPD2    C4 7019   2.305   0.337  10.860 -0.2598 -0.1472 -0.2793
  468MPD2    C5 7020   2.312   0.473  10.855 -0.3325  0.1173 -0.1704
  468MPD2     H 7021   2.622   0.269  10.899  1.1246  2.6115  1.2814
  468MPD2    H1 7022   2.205   0.295  10.856  0.0729 -0.8979 -0.6165
  468MPD2    H2 7023   2.424   0.645  10.868  1.6065 -0.0686  2.2710
  468MPD2    H3 7024   2.222   0.534  10.857  0.4804  1.2478  2.0125
  468MPD2     N 7025   2.405   0.117  10.866  0.1983 -0.6074 -0.3956
  468MPD2    H5 7026   2.317   0.068  10.871 -0.1770 -0.0019 -1.1241
  468MPD2    N1 7027   2.683   0.511  10.903  0.6661  0.0100  0.6464
  468MPD2    H7 7028   2.764   0.450  10.900 -0.5945 -1.6354  0.3730
  469TMC3    C1 7029   2.855   0.653  10.978 -0.2836 -0.1846  0.6491
  469TMC3    C2 7030   2.947   0.558  10.984 -0.0312 -0.0095 -0.5414
  469TMC3    C3 7031   3.064   0.580  11.054  0.4422 -0.0216  0.0667
  469TMC3    C4 7032   2.885   0.776  11.032  0.7937 -0.2942  0.4078
  469TMC3    C5 7033   3.004   0.791  11.099 -0.4831 -0.1855  0.4091
  469TMC3    C6 7034   3.097   0.694  11.110 -0.3776  0.9470 -0.1053
  469TMC3     C 7035   2.718   0.643  10.931  0.3534  0.5267  0.0800
  469TMC3     O 7036   2.639   0.733  10.959  0.2977 -0.6341 -0.4426
  469TMC3     H 7037   2.920   0.455  10.964 -1.6501  0.7871 -2.5093
  469TMC3    H1 7038   2.807   0.852  11.041  0.4194 -0.5653 -0.5941
  469TMC3    H2 7039   3.200   0.723  11.130 -0.1414 -0.0187  0.0489
  469TMC3    C7 7040   3.054   0.925  11.122 -0.2780  0.7377  0.4172
  469TMC3    C8 7041   3.149   0.472  11.075  0.1605 -0.2394 -0.1281
  469TMC3    O1 7042   3.152   0.932  11.197  0.9784 -0.3267 -0.6330
  469TMC3    O2 7043   3.160   0.392  10.983  0.2370 -0.2837  0.3815
  470TMC3    C1 7044   0.185   0.521   0.260  0.2315  0.1544 -0.1537
  470TMC3    C2 7045   0.223   0.650   0.298  0.0173 -0.2785  0.0240
  470TMC3    C3 7046   0.132   0.728   0.374  0.2698 -0.3148  0.0991
  470TMC3    C4 7047   0.067   0.463   0.292 -0.2816  0.2188  0.3860
  470TMC3    C5 7048   4.718   0.542   0.357 -0.0214 -0.2931 -0.0800
  470TMC3    C6 7049   0.011   0.670   0.404 -0.4984 -0.4349 -0.1072
  470TMC3     C 7050   0.285   0.448   0.183 -1.3318 -0.6050 -0.0943
  470TMC3     O 7051   0.398   0.489   0.179  0.5240 -0.1591  0.2167
  470TMC3     H 7052   0.317   0.694   0.266 -0.1968 -0.2933 -0.6307
  470TMC3    H1 7053   0.041   0.359   0.271 -1.2024  0.3571  0.8230
  470TMC3    H2 7054   4.676   0.735   0.449 -1.3670 -0.4415 -1.5046
  470TMC3    C7 7055   4.606   0.480   0.419 -0.0764  0.1242  0.7888
  470TMC3    C8 7056   0.169   0.836   0.460 -0.1107 -0.5630  0.3842
  470TMC3    O1 7057   4.507   0.550   0.416 -0.0308  0.2849  0.0335
  470TMC3    O2 7058   0.102   0.846   0.560 -0.2103 -0.0945  0.6478
  471MPD2     C 7059   0.961   1.994  16.523 -0.5798  0.1150 -0.0630
  471MPD2    C1 7060   1.061   1.906  16.497  0.5097  0.6857  0.2189
  471MPD2    C2 7061   1.145   1.875  16.599  0.1559 -0.0565  0.1723
  471MPD2    C3 7062   1.125   1.924  16.724 -0.2621  0.0366 -0.0229
  471MPD2    C4 7063   1.023   2.023  16.750 -0.4945  0.1464 -0.2370
  471MPD2    C5 7064   0.951   2.059  16.642 -0.1654  0.2146  0.6027
  471MPD2     H 7065   1.226   1.803  16.583  0.2886  0.3829 -1.1422
  471MPD2    H1 7066   1.012   2.080  16.841 -0.6246  1.1367 -0.8806
  471MPD2    H2 7067   0.894   2.016  16.441 -2.2853  1.4910  1.7128
  471MPD2    H3 7068   0.876   2.136  16.655 -0.7867 -1.0646  4.7071
  471MPD2     N 7069   1.181   1.850  16.827 -0.4965 -0.2142 -0.1451
  471MPD2    H5 7070   1.239   1.770  16.807  2.0013  2.0647 -2.0558
  471MPD2    N1 7071   1.060   1.834  16.371  0.1768 -0.4582  0.1547
  471MPD2    H7 7072   0.982   1.848  16.308 -0.8800  1.7976  1.9624
  472TMC3    C1 7073   1.067   1.624  16.256 -0.4808 -0.3950  0.9090
  472TMC3    C2 7074   0.989   1.680  16.155  0.3809  0.6706 -0.2317
  472TMC3    C3 7075   0.898   1.596  16.097 -0.3442  0.5078  0.3524
  472TMC3    C4 7076   1.058   1.494  16.302  0.2513  0.3050 -0.6587
  472TMC3    C5 7077   0.959   1.420  16.248 -0.0644 -0.0826  0.1164
  472TMC3    C6 7078   0.873   1.472  16.146  0.1928  0.2304 -0.2389
  472TMC3     C 7079   1.132   1.715  16.348 -0.2703  0.5417  0.1642
  472TMC3     O 7080   1.210   1.653  16.418 -0.3158 -0.9014 -0.0588
  472TMC3     H 7081   1.006   1.785  16.132  2.1156  0.2211 -1.0059
  472TMC3    H1 7082   1.099   1.461  16.397 -0.2373  0.3105 -0.4456
  472TMC3    H2 7083   0.802   1.406  16.099 -0.4819  0.6011  0.2677
  472TMC3    C7 7084   0.907   1.319  16.334  0.1458  0.2933 -0.3348
  472TMC3    C8 7085   0.778   1.658  16.044 -1.1330  0.1323  0.2048
  472TMC3    O1 7086   0.903   1.346  16.454  0.3226  0.4092  0.1114
  472TMC3    O2 7087   0.779   1.756  15.970  0.2778 -0.5243 -0.2510
  473MPD2     C 7088   0.670   4.001  13.794  0.1584 -0.7600 -0.2420
  473MPD2    C1 7089   0.620   4.121  13.744 -1.0316 -0.9651 -0.1931
  473MPD2    C2 7090   0.655   4.243  13.802  0.3742  0.2607  0.0985
  473MPD2    C3 7091   0.737   4.248  13.914  1.1757  0.2861  0.0105
  473MPD2    C4 7092   0.778   4.126  13.968 -1.0355  0.4136  0.8378
  473MPD2    C5 7093   0.747   4.008  13.906 -0.5719  0.3835 -0.0534
  473MPD2     H 7094   0.624   4.338  13.761 -0.2520  0.0640  0.1230
  473MPD2    H1 7095   0.831   4.126  14.063 -2.1423  2.1345  1.4432
  473MPD2    H2 7096   0.633   3.902  13.767  0.7040 -0.6064 -1.5428
  473MPD2    H3 7097   0.775   3.914  13.952 -1.3635 -0.3462 -1.0950
  473MPD2     N 7098   0.770   4.368  13.976 -0.2127 -0.2692 -0.1584
  473MPD2    H5 7099   0.805   4.358  14.071  0.6311 -0.7916 -0.5327
  473MPD2    N1 7100   0.533   4.125  13.628  0.2697 -0.0630 -0.1465
  473MPD2    H7 7101   0.502   4.215  13.594 -1.2304  0.7570  3.3786
  474TMC3    C1 7102   0.784   4.606  14.023 -0.3556 -0.8716  0.6019
  474TMC3    C2 7103   0.765   4.731  13.976  0.2854 -0.1335 -0.2025
  474TMC3    C3 7104   0.731   0.091  14.066  0.0525 -0.2992  0.1126
  474TMC3    C4 7105   0.778   4.587  14.160  0.5397  0.1339  0.2461
  474TMC3    C5 7106   0.732   4.686  14.245 -0.4414  0.8937  0.3532
  474TMC3    C6 7107   0.700   0.063  14.196 -0.2835  0.4471 -0.3941
  474TMC3     C 7108   0.730   4.501  13.938  0.1627 -0.7421  1.0020
  474TMC3     O 7109   0.663   4.535  13.844 -0.7318 -0.0811 -0.0139
  474TMC3     H 7110   0.762   0.019  13.872  1.8465 -0.2136 -0.2615
  474TMC3    H1 7111   0.793   4.487  14.197 -1.8085 -0.2726  0.0998
  474TMC3    H2 7112   0.656   0.131  14.267  2.1676  0.2373  1.3443
  474TMC3    C7 7113   0.669   4.638  14.365 -0.0899 -0.0363 -0.0058
  474TMC3    C8 7114   0.691   0.206  13.998 -0.3249  0.2963  0.5453
  474TMC3    O1 7115   0.646   4.520  14.364 -0.1161 -0.3447 -0.4129
  474TMC3    O2 7116   0.614   0.197  13.904  0.3835 -0.0637 -0.0346
  475MPD2     C 7117   3.223   2.651  11.087  0.2348 -0.1188  0.2079
  475MPD2    C1 7118   3.230   2.732  11.197 -0.9132  0.0682  0.1738
  475MPD2    C2 7119   3.118   2.792  11.249 -0.3652 -0.3918  1.0242
  475MPD2    C3 7120   2.992   2.770  11.188  0.1858 -0.1761  0.3193
  475MPD2    C4 7121   2.992   2.700  11.069  0.1160  0.1572  0.2977
  475MPD2    C5 7122   3.103   2.636  11.022 -0.1295  0.6457  0.3907
  475MPD2     H 7123   3.116   2.854  11.338 -3.7857  1.1621 -0.1180
  475MPD2    H1 7124   2.907   2.674  11.007  1.4442 -0.3805 -1.3069
  475MPD2    H2 7125   3.310   2.600  11.049 -2.3129 -2.5627 -2.4016
  475MPD2    H3 7126   3.101   2.579  10.930 -0.7974 -0.6766  1.2378
  475MPD2     N 7127   2.875   2.821  11.240 -0.5447 -0.2497  0.0228
  475MPD2    H5 7128   2.885   2.901  11.303  0.3107 -1.6463  1.6684
  475MPD2    N1 7129   3.343   2.742  11.280  0.3965 -0.3073  0.3403
  475MPD2    H7 7130   3.329   2.798  11.364 -0.7855 -0.9703  0.5949
  476TMC3    C1 7131   3.560   2.729  11.360 -0.2724  0.4613 -0.0545
  476TMC3    C2 7132   3.683   2.766  11.305 -0.1257  0.2354 -0.3004
  476TMC3    C3 7133   3.754   2.863  11.374  0.5426  0.2865  0.1336
  476TMC3    C4 7134   3.503   2.790  11.472  0.1148  0.3181  0.6202
  476TMC3    C5 7135   3.578   2.891  11.519  0.0801  0.2508 -0.0814
  476TMC3    C6 7136   3.700   2.930  11.477 -0.3283  0.4715 -0.0973
  476TMC3     C 7137   3.461   2.674  11.271  0.0431 -0.3091  0.5154
  476TMC3     O 7138   3.496   2.609  11.172  0.3595 -0.7351  0.4082
  476TMC3     H 7139   3.715   2.712  11.217  0.9667 -3.1420  2.1777
  476TMC3    H1 7140   3.413   2.752  11.519 -1.3661 -0.6136 -2.9779
  476TMC3    H2 7141   3.749   3.013  11.527  1.8366  0.4174 -2.1545
  476TMC3    C7 7142   3.489   2.988  11.589 -1.5284 -0.2174  0.4538
  476TMC3    C8 7143   3.850   2.942  11.298 -0.3300 -0.5410 -0.4162
  476TMC3    O1 7144   3.389   2.936  11.638  0.4437  0.4957 -0.7527
  476TMC3    O2 7145   3.891   3.041  11.356 -0.3808  0.1815  0.1796
  477MPD2     C 7146   1.258   4.598  11.964 -0.6439 -0.2363 -0.3545
  477MPD2    C1 7147   1.192   4.481  11.968 -0.7051  0.4756 -0.0912
  477MPD2    C2 7148   1.217   4.387  12.063 -0.6642  0.8137  0.5985
  477MPD2    C3 7149   1.321   4.410  12.157 -0.4322 -0.7402 -0.5669
  477MPD2    C4 7150   1.399   4.524  12.145  0.5307 -0.2557 -0.1697
  477MPD2    C5 7151   1.366   4.620  12.054 -0.2891 -0.0619 -0.4619
  477MPD2     H 7152   1.160   4.296  12.073  1.5870 -0.5744  0.6519
  477MPD2    H1 7153   1.486   4.534  12.208  1.8598  1.1647 -2.2358
  477MPD2    H2 7154   1.220   4.677  11.901  0.4681  1.2619  0.8486
  477MPD2    H3 7155   1.418   4.713  12.033 -0.3530  0.4589  1.7522
  477MPD2     N 7156   1.348   4.335  12.268 -0.1028  0.5478 -0.1402
  477MPD2    H5 7157   1.427   4.366  12.324  0.1711 -1.1085  0.3808
  477MPD2    N1 7158   1.092   4.465  11.862 -0.2665  0.4989 -0.2507
  477MPD2    H7 7159   1.092   4.548  11.803 -2.0069  1.4509  1.0726
  478TMC3    C1 7160   0.928   4.369  11.733 -0.5529  0.4337 -0.2293
  478TMC3    C2 7161   0.840   4.473  11.759  0.2602 -0.5534 -0.7125
  478TMC3    C3 7162   0.717   4.464  11.703 -0.2703  0.6607  0.2683
  478TMC3    C4 7163   0.886   4.255  11.661  0.4120  0.0968 -0.2064
  478TMC3    C5 7164   0.767   4.255  11.613 -0.1993  0.3054  0.0333
  478TMC3    C6 7165   0.674   4.359  11.628 -0.3823  0.3874  0.2182
  478TMC3     C 7166   1.036   4.348  11.825  0.3828  0.7193  0.5212
  478TMC3     O 7167   1.063   4.236  11.868 -0.6932 -0.0814  0.0308
  478TMC3     H 7168   0.865   4.561  11.817  0.1761 -0.8520 -0.2142
  478TMC3    H1 7169   0.959   4.175  11.655  1.3488  1.0226 -1.0358
  478TMC3    H2 7170   0.578   4.356  11.578 -0.4380  1.4688  0.2623
  478TMC3    C7 7171   0.728   4.149  11.523  0.2064  0.2526 -0.5729
  478TMC3    C8 7172   0.638   4.584  11.710 -0.4802 -0.1265 -0.2424
  478TMC3    O1 7173   0.783   4.042  11.542 -0.4821  1.0017  0.2037
  478TMC3    O2 7174   0.699   4.693  11.714  0.5974 -0.7543  0.4478
  479MPD2     C 7175   0.321   1.472  15.304 -0.2057 -0.9372  0.2758
  479MPD2    C1 7176   0.309   1.379  15.401  0.0391  0.0277 -0.6593
  479MPD2    C2 7177   0.412   1.340  15.487 -0.4272 -0.0627 -0.2970
  479MPD2    C3 7178   0.523   1.421  15.500  0.0840 -0.1567  0.4358
  479MPD2    C4 7179   0.530   1.526  15.408  0.1007  0.7134 -0.5117
  479MPD2    C5 7180   0.437   1.546  15.311  0.5204 -0.4653 -0.0619
  479MPD2     H 7181   0.400   1.249  15.546 -0.0588  1.2611  1.8355
  479MPD2    H1 7182   0.623   1.580  15.392 -0.1424  1.3122  0.0750
  479MPD2    H2 7183   0.247   1.498  15.229 -0.1103 -0.3961  0.3739
  479MPD2    H3 7184   0.452   1.626  15.240  1.0425  1.0559  1.7506
  479MPD2     N 7185   0.627   1.407  15.593  0.0449 -0.8411  0.7766
  479MPD2    H5 7186   0.708   1.462  15.565 -0.2577 -0.8988 -0.2350
  479MPD2    N1 7187   0.186   1.311  15.395 -1.1210  0.2883 -0.0573
  479MPD2    H7 7188   0.127   1.332  15.315  1.4251  1.8757 -1.5133
  480TMC3    C1 7189   0.391   1.179  15.948  0.0391 -0.4015 -0.8801
  480TMC3    C2 7190   0.307   1.288  15.963  0.0080  0.1257 -0.5851
  480TMC3    C3 7191   0.325   1.395  15.885 -0.4007  0.3166  0.0433
  480TMC3    C4 7192   0.496   1.193  15.859  0.0803  0.1166 -1.0551
  480TMC3    C5 7193   0.508   1.302  15.772 -0.5183 -0.5139  0.0787
  480TMC3    C6 7194   0.418   1.401  15.783 -0.6308 -0.0824  0.1608
  480TMC3     C 7195   0.348   1.047  15.953 -1.0242 -0.2852  0.0264
  480TMC3     O 7196   0.427   0.956  15.972  0.6388  0.3477 -0.1925
  480TMC3     H 7197   0.239   1.291  16.048  0.8599  0.7367  0.0624
  480TMC3    H1 7198   0.569   1.115  15.840  1.1357  0.8208  0.1048
  480TMC3    H2 7199   0.426   1.498  15.735 -3.1662 -1.1528 -2.3616
  480TMC3    C7 7200   0.630   1.314  15.698 -0.3483 -0.1153  0.2477
  480TMC3    C8 7201   0.194   1.428  15.821  0.0134 -0.0696  0.2936
  480TMC3    O1 7202   0.727   1.286  15.765 -0.0454  0.2595  0.2037
  480TMC3    O2 7203   0.112   1.342  15.850 -0.0462  0.4319  0.7385
  481MPD2     C 7204   2.085   1.026  14.520  0.3565 -0.7062  0.8779
  481MPD2    C1 7205   1.956   1.011  14.562  0.4250 -0.4218  0.7291
  481MPD2    C2 7206   1.933   0.937  14.677 -0.2376 -0.5371  0.6635
  481MPD2    C3 7207   2.040   0.871  14.743  0.3005 -0.0624  0.0087
  481MPD2    C4 7208   2.166   0.890  14.691  0.7842 -0.0650  0.1310
  481MPD2    C5 7209   2.191   0.965  14.579 -0.1379 -0.9269  0.4374
  481MPD2     H 7210   1.833   0.930  14.719 -1.4857  4.8579 -1.4024
  481MPD2    H1 7211   2.250   0.835  14.731  0.3372 -1.0830 -0.3031
  481MPD2    H2 7212   2.102   1.087  14.432 -0.4802 -0.2750  1.0187
  481MPD2    H3 7213   2.293   0.975  14.543 -1.1003  0.0969 -1.9418
  481MPD2     N 7214   2.025   0.784  14.849 -0.2619  0.2024 -0.4234
  481MPD2    H5 7215   2.109   0.737  14.884 -2.2378 -1.6099  1.8492
  481MPD2    N1 7216   1.856   1.077  14.490  0.9045  0.2810  0.5159
  481MPD2    H7 7217   1.873   1.123  14.401 -0.6741 -0.1165  0.0070
  482TMC3    C1 7218   1.635   1.143  14.432  0.3338 -0.0761  0.6597
  482TMC3    C2 7219   1.517   1.073  14.426  0.1250 -0.1925 -0.4519
  482TMC3    C3 7220   1.460   1.041  14.306 -0.3390  0.0249 -0.3558
  482TMC3    C4 7221   1.697   1.181  14.317  0.1825 -0.2309 -0.5002
  482TMC3    C5 7222   1.646   1.139  14.197 -0.3673  0.0394  0.0030
  482TMC3    C6 7223   1.527   1.069  14.189  0.2227  1.0421  0.1153
  482TMC3     C 7224   1.721   1.093  14.537 -0.0979 -0.1832 -0.4888
  482TMC3     O 7225   1.664   1.059  14.639  0.2534  0.2835 -0.3284
  482TMC3     H 7226   1.477   1.018  14.510  0.9966 -1.5782 -0.9446
  482TMC3    H1 7227   1.783   1.246  14.317 -0.9408  1.2639 -1.0012
  482TMC3    H2 7228   1.507   1.026  14.091  0.4647  0.4951  0.3068
  482TMC3    C7 7229   1.750   1.123  14.099  0.2828 -0.6403 -0.3572
  482TMC3    C8 7230   1.395   0.915  14.314  0.0396 -0.3709 -0.3262
  482TMC3    O1 7231   1.869   1.116  14.135 -0.0283  0.4363  0.1520
  482TMC3    O2 7232   1.453   0.817  14.364  0.2536 -0.3717 -0.0439
  483TMC3    C1 7233   0.206   3.869   0.542 -0.2171  0.4253  0.3153
  483TMC3    C2 7234   0.247   3.992   0.521 -0.3818 -0.4012 -0.0057
  483TMC3    C3 7235   0.212   4.073   0.631  0.5911  0.3977  0.7920
  483TMC3    C4 7236   0.126   3.823   0.645 -0.7309  0.0359 -0.6590
  483TMC3    C5 7237   0.101   3.905   0.753 -0.0375 -0.4371  0.1838
  483TMC3    C6 7238   0.138   4.036   0.741 -0.5441 -0.1269 -0.2461
  483TMC3     C 7239   0.240   3.783   0.434  0.6066 -0.1008 -0.2289
  483TMC3     O 7240   0.333   3.808   0.355 -0.6300  0.3803 -0.6542
  483TMC3     H 7241   0.284   4.033   0.427  0.2837  0.3004  0.5687
  483TMC3    H1 7242   0.096   3.720   0.659  1.5871 -0.5560 -0.0832
  483TMC3    H2 7243   0.137   4.098   0.830 -3.2744  0.7646 -0.9002
  483TMC3    C7 7244   0.117   3.845   0.892  0.7941 -0.4359 -0.8756
  483TMC3    C8 7245   0.246   4.214   0.631 -0.5430  0.5353  0.0840
  483TMC3    O1 7246   0.159   3.912   0.987  0.3391  0.2825 -0.4353
  483TMC3    O2 7247   0.314   4.249   0.538  0.1618  0.2768 -0.6935
  484MPD2     C 7248   1.364   2.954  12.492 -0.1818 -0.7373  0.5730
  484MPD2    C1 7249   1.467   2.914  12.575  0.0257 -0.2053 -0.1641
  484MPD2    C2 7250   1.594   2.892  12.526  0.3792  0.7051 -0.2549
  484MPD2    C3 7251   1.623   2.931  12.393 -0.1959  0.5890  0.9191
  484MPD2    C4 7252   1.524   2.972  12.308  0.1008 -0.3019  0.2014
  484MPD2    C5 7253   1.394   2.977  12.360 -0.7588 -0.1666 -0.1740
  484MPD2     H 7254   1.670   2.862  12.597  0.9432  0.2547 -1.0459
  484MPD2    H1 7255   1.551   3.007  12.208 -0.8523 -0.9235 -0.2650
  484MPD2    H2 7256   1.264   2.975  12.529 -1.2758  0.8014 -3.2100
  484MPD2    H3 7257   1.317   3.023  12.299  1.8688  0.0296 -3.2891
  484MPD2     N 7258   1.753   2.942  12.344 -0.3687 -0.2756 -1.0667
  484MPD2    H5 7259   1.765   2.983  12.252 -0.1111 -0.0945 -0.9540
  484MPD2    N1 7260   1.425   2.890  12.707 -0.0399 -0.2697 -0.6939
  484MPD2    H7 7261   1.326   2.901  12.724  0.4367  1.6814  0.8984
  485TMC3    C1 7262   1.983   2.966  12.373 -0.7368  0.3509  0.0136
  485TMC3    C2 7263   2.061   3.025  12.461  0.4253 -0.2772 -0.1123
  485TMC3    C3 7264   2.166   3.105  12.423 -0.4247 -0.6610 -0.8270
  485TMC3    C4 7265   2.007   2.975  12.241  0.2455  1.1191 -0.7716
  485TMC3    C5 7266   2.098   3.067  12.200 -0.2168 -0.6166 -0.1009
  485TMC3    C6 7267   2.170   3.146  12.288  0.4517  0.2178 -0.7797
  485TMC3     C 7268   1.862   2.910  12.426  0.4207 -0.5361  0.6020
  485TMC3     O 7269   1.879   2.853  12.533  0.3445  0.4247  0.7852
  485TMC3     H 7270   2.047   3.015  12.568  1.7463  1.2539  0.1952
  485TMC3    H1 7271   1.950   2.927  12.163  2.6976 -1.4004 -1.0325
  485TMC3    H2 7272   2.254   3.209  12.261 -1.1775  1.0656 -3.8482
  485TMC3    C7 7273   2.188   3.007  12.104 -0.6353 -0.3312  0.6162
  485TMC3    C8 7274   2.296   3.059  12.467 -0.2641 -0.4348  0.3338
  485TMC3    O1 7275   2.181   2.884  12.100  0.6355 -0.1893 -0.2685
  485TMC3    O2 7276   2.382   3.082  12.384  0.6437 -0.4191  0.2191
  486MPD2     C 7277   4.610   1.890  13.169 -0.5692 -0.5758  0.4944
  486MPD2    C1 7278   4.498   1.824  13.131 -0.1385  0.4396 -0.1297
  486MPD2    C2 7279   4.369   1.870  13.154 -0.1785  0.3621 -0.4294
  486MPD2    C3 7280   4.351   1.997  13.215  0.0117 -0.3969  0.6411
  486MPD2    C4 7281   4.466   2.069  13.235 -0.1576 -1.2862 -0.3951
  486MPD2    C5 7282   4.594   2.019  13.213  0.0670  0.3132  1.0991
  486MPD2     H 7283   4.274   1.823  13.130  1.1818 -2.6608  0.1735
  486MPD2    H1 7284   4.459   2.168  13.279  1.5660 -0.3076 -2.3605
  486MPD2    H2 7285   4.710   1.848  13.160 -0.7043 -0.6017 -0.8095
  486MPD2    H3 7286   4.680   2.083  13.229  1.0078 -0.6115 -0.3111
  486MPD2     N 7287   4.216   2.040  13.230 -0.0942 -0.8710  0.1609
  486MPD2    H5 7288   4.138   1.979  13.209 -0.8163  0.0489  0.1330
  486MPD2    N1 7289   4.524   1.696  13.080 -0.5657 -0.1493 -0.9508
  486MPD2    H7 7290   4.620   1.665  13.091 -0.1187  0.3832 -3.4046
  487TMC3    C1 7291   4.493   1.462  13.033  0.1458 -1.0229  0.3257
  487TMC3    C2 7292   4.419   1.362  12.989 -1.1216  0.0132 -0.6267
  487TMC3    C3 7293   4.471   1.239  12.972 -0.1643  0.2934  0.5745
  487TMC3    C4 7294   4.626   1.436  13.064 -0.3821 -0.4539  0.5044
  487TMC3    C5 7295   4.678   1.313  13.056 -0.1273  0.0796 -0.5710
  487TMC3    C6 7296   4.602   1.217  12.992  0.4280  0.5129 -0.2971
  487TMC3     C 7297   4.432   1.595  13.056  0.2103 -0.0419 -0.4438
  487TMC3     O 7298   4.310   1.607  13.051  0.0166  0.3302 -0.3205
  487TMC3     H 7299   4.322   1.379  12.946 -0.3972  1.3252 -1.7321
  487TMC3    H1 7300   4.692   1.517  13.092 -2.6297  1.5221  0.1895
  487TMC3    H2 7301   4.636   1.116  12.974  1.4123  0.6922  0.5297
  487TMC3    C7 7302   4.704   1.276  13.194 -0.4505  0.2866 -0.1455
  487TMC3    C8 7303   4.400   1.128  13.026 -0.1321 -0.4124 -0.0120
  487TMC3    O1 7304   4.691   1.367  13.273 -0.0228 -0.2838 -0.3482
  487TMC3    O2 7305   4.432   1.013  12.984 -0.2380  0.8672  0.6166
  488MPD2     C 7306   4.613   3.282  16.556  0.1752 -0.3398  0.4683
  488MPD2    C1 7307   0.001   3.266  16.600  0.0734 -0.4617 -0.9424
  488MPD2    C2 7308   0.019   3.221  16.728 -0.1115  0.2238 -0.5580
  488MPD2    C3 7309   4.655   3.181  16.802 -0.4401  0.2930  0.4525
  488MPD2    C4 7310   4.525   3.211  16.762  0.6016  0.4503 -0.3364
  488MPD2    C5 7311   4.505   3.265  16.639  0.0872  0.4231  0.2601
  488MPD2     H 7312   0.121   3.205  16.760 -0.5816  0.4643  1.0192
  488MPD2    H1 7313   4.433   3.206  16.819  0.4411 -2.4733 -0.8352
  488MPD2    H2 7314   4.582   3.331  16.465  0.3798 -2.4180 -0.7180
  488MPD2    H3 7315   4.407   3.300  16.607 -0.2237 -1.0111 -0.3436
  488MPD2     N 7316   4.680   3.123  16.927 -0.0522  0.0099  0.5648
  488MPD2    H5 7317   0.037   3.095  16.939 -0.0893 -0.3223  0.0692
  488MPD2    N1 7318   0.116   3.312  16.536  0.1243  0.0171  0.1646
  488MPD2    H7 7319   0.198   3.322  16.594  0.5315  1.5578 -0.6716
  489TMC3    C1 7320   4.662   3.077  17.163  0.6844  0.6128 -0.5894
  489TMC3    C2 7321   0.051   3.121  17.172  0.1724 -0.6038  0.1441
  489TMC3    C3 7322   0.097   3.133  17.298  0.2128  0.1538 -0.6794
  489TMC3    C4 7323   4.576   3.042  17.264  0.6784 -0.1315  0.4265
  489TMC3    C5 7324   4.637   3.035  17.386  0.4000 -1.2566 -0.1971
  489TMC3    C6 7325   0.025   3.089  17.406 -0.0780 -0.3216  0.5924
  489TMC3     C 7326   4.592   3.105  17.040  0.6553  0.5278 -0.5203
  489TMC3     O 7327   4.471   3.110  17.042 -0.0691  0.3231 -0.0046
  489TMC3     H 7328   0.108   3.149  17.085 -0.2694  0.2752  0.1381
  489TMC3    H1 7329   4.473   3.010  17.249  0.3421  0.1123  2.1776
  489TMC3    H2 7330   0.068   3.076  17.505 -1.0913 -0.0254  1.0706
  489TMC3    C7 7331   4.577   2.983  17.502 -0.0850  0.0241 -0.3156
  489TMC3    C8 7332   0.206   3.232  17.323 -0.1421  0.0307 -0.0065
  489TMC3    O1 7333   4.632   2.998  17.608 -0.5718 -0.4553  0.4890
  489TMC3    O2 7334   0.297   3.238  17.239  0.1087 -0.0397  0.5404
  490MPD2     C 7335   0.776   2.959   0.099 -0.4945 -0.4637  0.2141
  490MPD2    C1 7336   0.772   2.867   0.200 -0.3278  0.1473 -0.5688
  490MPD2    C2 7337   0.886   2.847   0.276 -0.1221 -0.0696  0.0315
  490MPD2    C3 7338   1.006   2.916   0.242  0.3648  0.2004  0.0272
  490MPD2    C4 7339   1.006   2.998   0.137 -0.1089 -0.4722  0.1838
  490MPD2    C5 7340   0.892   3.019   0.058  0.0267 -0.2367 -0.9268
  490MPD2     H 7341   0.884   2.791   0.368 -0.7025 -1.7735 -1.0082
  490MPD2    H1 7342   1.100   3.046   0.111 -0.6870  0.0241 -0.9887
  490MPD2    H2 7343   0.697   2.963   0.025  0.5601 -2.6501 -1.0432
  490MPD2    H3 7344   0.900   3.074  17.722  1.6111  0.3232 -0.4585
  490MPD2     N 7345   1.126   2.900   0.311  0.0721  0.7733  0.0051
  490MPD2    H5 7346   1.202   2.951   0.268  0.3389  1.0182  0.7706
  490MPD2    N1 7347   0.647   2.812   0.226 -0.6438  0.2295 -0.3307
  490MPD2    H7 7348   0.570   2.823   0.161 -0.0578 -0.6641 -1.1829
  491TMC3    C1 7349   0.527   2.609   0.299 -0.3015 -0.2381 -0.0926
  491TMC3    C2 7350   0.512   2.516   0.401 -0.1275 -0.1769  0.1078
  491TMC3    C3 7351   0.463   2.392   0.356  0.5714  0.2094  0.4017
  491TMC3    C4 7352   0.495   2.586   0.169  0.1283  0.0987  0.1617
  491TMC3    C5 7353   0.445   2.462   0.137  0.0621  0.3552  0.0603
  491TMC3    C6 7354   0.438   2.361   0.226 -0.2697  0.2373  0.7901
  491TMC3     C 7355   0.631   2.715   0.323  0.3338  0.2354 -0.2119
  491TMC3     O 7356   0.704   2.688   0.418 -0.4208  0.7256  0.4150
  491TMC3     H 7357   0.552   2.543   0.498  1.0894 -3.2845  0.4778
  491TMC3    H1 7358   0.483   2.666   0.097  3.7456 -1.1840 -1.8755
  491TMC3    H2 7359   0.412   2.258   0.205  0.3797  0.5225 -1.4269
  491TMC3    C7 7360   0.393   2.447   0.003 -0.1740  0.3550  0.4913
  491TMC3    C8 7361   0.482   2.272   0.436  0.0664 -0.5341  0.3332
  491TMC3    O1 7362   0.424   2.531  17.674  0.5153  0.0491  0.0058
  491TMC3    O2 7363   0.415   2.264   0.539 -0.0296  0.4517  0.2600
  492MPD2     C 7364   0.631   2.712  11.723 -0.0185  0.3920  0.0570
  492MPD2    C1 7365   0.579   2.653  11.606  0.4639 -0.6732  1.2200
  492MPD2    C2 7366   0.473   2.562  11.616  0.1185  0.2573  0.2800
  492MPD2    C3 7367   0.425   2.522  11.739  0.5041  0.6392  0.2066
  492MPD2    C4 7368   0.481   2.573  11.850  0.2094 -0.1957  0.0765
  492MPD2    C5 7369   0.572   2.678  11.843  0.6074 -0.5795  0.3034
  492MPD2     H 7370   0.438   2.512  11.526 -0.8045  1.0667  0.1987
  492MPD2    H1 7371   0.448   2.534  11.946  1.6370  0.2494  0.7549
  492MPD2    H2 7372   0.699   2.795  11.711  0.5716 -0.2091 -0.7396
  492MPD2    H3 7373   0.605   2.723  11.936  0.5792 -0.7876  0.4149
  492MPD2     N 7374   0.340   2.415  11.757 -0.3387 -0.1437 -0.8588
  492MPD2    H5 7375   0.334   2.384  11.854 -1.6333  0.2160 -0.8295
  492MPD2    N1 7376   0.613   2.712  11.479  0.0738 -0.2276  0.1965
  492MPD2    H7 7377   0.670   2.796  11.480  1.4115 -1.1360  1.1769
  493TMC3    C1 7378   0.607   2.781  11.256 -0.5422 -0.5209 -0.6063
  493TMC3    C2 7379   0.652   2.907  11.292  0.4251 -0.4679 -0.3843
  493TMC3    C3 7380   0.615   3.010  11.211 -0.1105 -0.6776  0.4252
  493TMC3    C4 7381   0.550   2.758  11.132  0.2566  0.2600  0.2276
  493TMC3    C5 7382   0.515   2.866  11.051 -0.8415 -0.0102 -0.1355
  493TMC3    C6 7383   0.529   2.993  11.105  0.0726  0.2700 -0.3566
  493TMC3     C 7384   0.560   2.686  11.359  0.7708  0.6617  0.3547
  493TMC3     O 7385   0.468   2.615  11.323 -0.3147 -0.0584  0.0183
  493TMC3     H 7386   0.720   2.920  11.375 -2.1274 -0.4744  1.7208
  493TMC3    H1 7387   0.529   2.654  11.115 -1.8954  0.5215  1.3112
  493TMC3    H2 7388   0.488   3.083  11.061  0.5320  0.5078 -0.2925
  493TMC3    C7 7389   0.387   2.857  10.983 -0.0467 -0.3125 -0.8943
  493TMC3    C8 7390   0.683   3.140  11.225  0.1716  0.5181  0.8148
  493TMC3    O1 7391   0.319   2.960  10.986  0.6188 -0.0633 -0.4431
  493TMC3    O2 7392   0.689   3.212  11.128  0.4687  0.4029 -0.3893
  494TMC3    C1 7393   1.111   4.020   0.406  0.1109 -0.5054 -0.2406
  494TMC3    C2 7394   1.164   3.906   0.468  0.2046  0.3865  0.6740
  494TMC3    C3 7395   1.296   3.876   0.463 -0.4040 -0.1068 -0.3193
  494TMC3    C4 7396   1.200   4.105   0.335 -0.3444 -0.2042  0.3512
  494TMC3    C5 7397   1.333   4.072   0.343 -0.5992  0.0303 -0.0911
  494TMC3    C6 7398   1.386   3.960   0.404  0.5595  0.3990 -0.1282
  494TMC3     C 7399   0.987   4.072   0.468 -0.1939  0.3593 -0.0164
  494TMC3     O 7400   0.972   4.195   0.479  0.1016  0.9918  0.0557
  494TMC3     H 7401   1.105   3.837   0.527 -1.3659  1.2217  0.0838
  494TMC3    H1 7402   1.171   4.205   0.303 -0.7965 -0.9511 -1.5008
  494TMC3    H2 7403   1.493   3.946   0.407  0.2847 -1.6728 -0.0408
  494TMC3    C7 7404   1.430   4.151   0.275 -0.5515 -0.5579  0.7569
  494TMC3    C8 7405   1.342   3.804   0.578  0.0491  0.4014 -0.0906
  494TMC3    O1 7406   1.521   4.088   0.224 -0.4269  0.1352  0.0215
  494TMC3    O2 7407   1.265   3.784   0.669 -0.1365  0.2657 -0.3363
  495TMC3    C1 7408   0.344   2.038  15.084 -0.1187 -0.2199 -0.6262
  495TMC3    C2 7409   0.247   2.034  14.988 -0.1421 -0.3704  0.4570
  495TMC3    C3 7410   0.122   1.989  15.024  0.3248  0.2300  0.3600
  495TMC3    C4 7411   0.317   2.009  15.215  0.2657  0.1739 -0.5166
  495TMC3    C5 7412   0.186   1.983  15.251 -0.9560 -0.1417  0.5373
  495TMC3    C6 7413   0.090   1.978  15.157  0.5865 -0.1992  0.5286
  495TMC3     C 7414   0.472   1.981  15.036  0.4355 -0.3734  0.2710
  495TMC3     O 7415   0.529   2.058  14.959  0.5740 -0.3644 -0.1443
  495TMC3     H 7416   0.267   2.072  14.889  1.3338  1.7649  1.5749
  495TMC3    H1 7417   0.395   2.008  15.290  1.1217  0.5971 -1.3971
  495TMC3    H2 7418   4.730   1.941  15.179 -0.0880  1.1140 -0.3222
  495TMC3    C7 7419   0.190   1.871  15.345  0.7272 -0.1201  0.0597
  495TMC3    C8 7420   0.050   1.906  14.931 -0.0078 -0.0736  0.0531
  495TMC3    O1 7421   0.308   1.837  15.373  0.2070  0.4603 -0.0990
  495TMC3    O2 7422   4.680   1.871  14.973 -0.3309 -0.0119 -0.0405
  496MPD2     C 7423   1.887   1.954  15.982  0.2049  0.4958 -0.0012
  496MPD2    C1 7424   1.952   1.871  15.899 -0.0935  0.3972  0.4856
  496MPD2    C2 7425   1.887   1.763  15.846  0.2788 -0.0167 -0.6516
  496MPD2    C3 7426   1.756   1.733  15.878  0.1958  0.6264 -0.3436
  496MPD2    C4 7427   1.688   1.818  15.966  0.3973  0.5476 -0.5516
  496MPD2    C5 7428   1.755   1.924  16.020 -0.3169 -0.1803 -0.2294
  496MPD2     H 7429   1.948   1.698  15.785 -0.1007 -1.5014  0.5295
  496MPD2    H1 7430   1.587   1.802  16.001 -0.0102  1.0362 -1.4943
  496MPD2    H2 7431   1.935   2.039  16.030  1.2168  1.4742 -2.7787
  496MPD2    H3 7432   1.708   1.984  16.097  0.4212  0.1321 -0.0206
  496MPD2     N 7433   1.681   1.622  15.835 -0.2961 -0.3771  0.0311
  496MPD2    H5 7434   1.609   1.595  15.902 -0.6531  0.1719 -0.1332
  496MPD2    N1 7435   2.093   1.895  15.882 -0.8210  0.2773 -0.5573
  496MPD2    H7 7436   2.129   1.989  15.892 -2.0492  0.6568  0.2431
  497TMC3    C1 7437   1.676   1.416  15.713 -0.8220  0.4140 -0.9234
  497TMC3    C2 7438   1.697   1.345  15.597 -0.3407 -0.2655  0.9083
  497TMC3    C3 7439   1.703   1.211  15.593 -0.6779  0.1868  0.5199
  497TMC3    C4 7440   1.690   1.347  15.833 -0.8187  0.4603 -0.1125
  497TMC3    C5 7441   1.703   1.207  15.825  0.3095 -0.7661  0.0537
  497TMC3    C6 7442   1.696   1.141  15.709  0.1204  0.4549 -0.6169
  497TMC3     C 7443   1.718   1.555  15.722 -0.0589 -0.6585 -0.2744
  497TMC3     O 7444   1.803   1.585  15.638  0.1779 -0.1546 -0.6979
  497TMC3     H 7445   1.705   1.406  15.508 -0.3354 -0.7939  0.5487
  497TMC3    H1 7446   1.676   1.394  15.929 -1.6623  2.7628 -1.3727
  497TMC3    H2 7447   1.681   1.034  15.702  1.3104  0.2454  0.0228
  497TMC3    C7 7448   1.750   1.138  15.940 -0.6672  0.1164  0.9513
  497TMC3    C8 7449   1.721   1.137  15.471 -0.2492  0.2971 -1.4133
  497TMC3    O1 7450   1.734   1.017  15.943  0.1652 -0.1662 -0.3088
  497TMC3    O2 7451   1.658   1.034  15.454  0.3049  0.5477 -0.3547
  498MPD2     C 7452   2.919   3.138   9.769  0.0226 -0.0126 -0.0976
  498MPD2    C1 7453   2.934   3.123   9.907 -0.0477  0.4328 -0.0626
  498MPD2    C2 7454   2.877   3.014   9.969  0.4244  0.0514 -0.3976
  498MPD2    C3 7455   2.814   2.918   9.903  0.3026 -0.4645  0.5783
  498MPD2    C4 7456   2.795   2.940   9.761  0.5013 -0.0853 -0.1845
  498MPD2    C5 7457   2.837   3.049   9.702  0.2906 -0.0620 -0.2008
  498MPD2     H 7458   2.893   3.009  10.076 -0.5781  0.2891 -0.2384
  498MPD2    H1 7459   2.747   2.872   9.691 -2.1751  0.3208  1.2263
  498MPD2    H2 7460   2.966   3.210   9.703  1.4054 -0.3906  0.4694
  498MPD2    H3 7461   2.817   3.074   9.599 -0.0290  0.9278  0.0970
  498MPD2     N 7462   2.759   2.803   9.971 -0.0956 -0.2268 -0.3865
  498MPD2    H5 7463   2.770   2.811  10.071 -1.9920  2.0236 -0.3594
  498MPD2    N1 7464   3.010   3.220   9.972  0.3984 -0.0577 -0.5016
  498MPD2    H7 7465   3.016   3.221  10.073  0.4194  2.3216 -0.5203
  499TMC3    C1 7466   3.128   3.416  10.019  0.3177  0.1972 -0.1021
  499TMC3    C2 7467   3.170   3.365  10.141 -0.0786  0.8131  0.8319
  499TMC3    C3 7468   3.228   3.450  10.226  0.2809 -0.2184  0.0662
  499TMC3    C4 7469   3.144   3.544   9.987 -0.3597 -0.0480  0.2231
  499TMC3    C5 7470   3.199   3.623  10.077 -0.2516 -0.6771 -0.7940
  499TMC3    C6 7471   3.232   3.583  10.203  0.1485 -0.5848 -0.0988
  499TMC3     C 7472   3.058   3.337   9.920  0.3941 -0.1725 -0.6404
  499TMC3     O 7473   3.039   3.390   9.814 -0.3053  0.4266  0.7522
  499TMC3     H 7474   3.169   3.258  10.161  1.4195  0.9261  1.5143
  499TMC3    H1 7475   3.124   3.586   9.889  0.7480 -0.0048  0.0212
  499TMC3    H2 7476   3.291   3.641  10.273  0.3897 -1.4273  0.3951
  499TMC3    C7 7477   3.232   3.754  10.038 -0.2476 -0.0755 -0.3268
  499TMC3    C8 7478   3.291   3.403  10.346 -0.0211  0.1768 -0.4348
  499TMC3    O1 7479   3.333   3.808  10.074  0.4430  0.4189  0.1057
  499TMC3    O2 7480   3.326   3.286  10.346  0.0427  0.7970  0.0984
  500MPD2     C 7481   3.806   3.591  11.255 -0.5415  0.1088 -0.1023
  500MPD2    C1 7482   3.898   3.647  11.176 -0.1309 -0.4570 -0.4656
  500MPD2    C2 7483   3.884   3.636  11.039  0.2179  0.0364  0.5928
  500MPD2    C3 7484   3.781   3.561  10.983 -0.1576 -0.3889  0.3776
  500MPD2    C4 7485   3.690   3.500  11.065  0.6451  0.1405  0.3734
  500MPD2    C5 7486   3.701   3.525  11.202 -0.0812  0.1073  0.3077
  500MPD2     H 7487   3.963   3.676  10.976  0.9939 -2.5785 -0.1124
  500MPD2    H1 7488   3.620   3.433  11.015  0.1299  1.0797 -0.1584
  500MPD2    H2 7489   3.796   3.605  11.363 -0.5722 -1.3793  0.0833
  500MPD2    H3 7490   3.623   3.487  11.267 -0.6389  0.1307 -0.3477
  500MPD2     N 7491   3.750   3.558  10.844  0.2084  1.1905  0.3963
  500MPD2    H5 7492   3.661   3.517  10.818  0.5102  1.1498 -0.5747
  500MPD2    N1 7493   4.010   3.719  11.233  0.3386  0.1003  0.1478
  500MPD2    H7 7494   4.069   3.779  11.175 -0.4866  0.0186 -0.7764
  501TMC3    C1 7495   4.158   3.810  11.381 -0.2584  0.2635 -0.8826
  501TMC3    C2 7496   4.194   3.894  11.278 -0.2046 -0.3914  0.2305
  501TMC3    C3 7497   4.320   3.947  11.284 -0.2861 -0.6048 -0.1956
  501TMC3    C4 7498   4.251   3.766  11.483 -0.1244  0.7534 -0.0759
  501TMC3    C5 7499   4.372   3.831  11.491  0.3782  0.5840  0.3863
  501TMC3    C6 7500   4.406   3.915  11.384  0.3319  0.1269 -0.7590
  501TMC3     C 7501   4.042   3.728  11.372 -0.0704  0.3061  0.0346
  501TMC3     O 7502   4.024   3.640  11.453  0.0687 -0.2624 -0.0625
  501TMC3     H 7503   4.122   3.936  11.208  0.1048 -1.0209 -0.4582
  501TMC3    H1 7504   4.232   3.692  11.559  0.9140  1.8411  1.2442
  501TMC3    H2 7505   4.506   3.958  11.383  0.2167  0.4483  1.2594
  501TMC3    C7 7506   4.486   3.789  11.578  0.0374  0.4594  0.1086
  501TMC3    C8 7507   4.387   3.981  11.160  0.4936 -0.4064  0.1280
  501TMC3    O1 7508   4.598   3.827  11.556  0.4938  0.4071 -0.0107
  501TMC3    O2 7509   4.510   3.959  11.158  0.0843 -0.8033 -0.1387
  502TMC3    C1 7510   4.735   2.734  15.353  0.6468  0.0676  0.4156
  502TMC3    C2 7511   0.023   2.827  15.262  0.0036 -0.6546 -0.6746
  502TMC3    C3 7512   4.660   2.866  15.183 -0.1776 -1.0137 -0.8379
  502TMC3    C4 7513   4.610   2.678  15.362 -0.7647  1.1727  0.5945
  502TMC3    C5 7514   4.506   2.721  15.288 -0.3992 -0.0270  0.4030
  502TMC3    C6 7515   4.531   2.820  15.203  0.2072  0.7392  0.1722
  502TMC3     C 7516   0.098   2.713  15.454  0.4889 -0.0615 -0.3042
  502TMC3     O 7517   0.203   2.765  15.432  0.8707 -0.8594 -0.4564
  502TMC3     H 7518   0.123   2.866  15.249  0.4387 -1.7738 -0.6847
  502TMC3    H1 7519   4.594   2.598  15.432 -1.2421  0.7019 -0.0511
  502TMC3    H2 7520   4.449   2.861  15.144  1.3350  2.2339 -0.3632
  502TMC3    C7 7521   4.372   2.662  15.307 -1.2043 -0.1380 -0.2325
  502TMC3    C8 7522   4.687   2.950  15.068 -0.3498  0.6322  0.5416
  502TMC3    O1 7523   4.281   2.726  15.255  0.4729  0.5584  0.1692
  502TMC3    O2 7524   4.591   3.011  15.016 -0.1924 -0.3756  0.4640
  503MPD2     C 7525   1.855   2.946  17.171 -0.3117 -0.3022 -0.8636
  503MPD2    C1 7526   1.953   3.008  17.243  0.3418 -0.4492 -0.2629
  503MPD2    C2 7527   2.031   2.932  17.326  0.6886 -0.5789  0.1320
  503MPD2    C3 7528   2.007   2.791  17.340 -0.6857  0.3199 -0.0942
  503MPD2    C4 7529   1.899   2.739  17.271  0.1090 -0.5132 -0.5574
  503MPD2    C5 7530   1.818   2.814  17.195 -0.3500  0.5911  0.4933
  503MPD2     H 7531   2.116   2.972  17.380 -0.1902 -2.1296  2.6379
  503MPD2    H1 7532   1.873   2.634  17.287  0.1995 -0.1738  1.8654
  503MPD2    H2 7533   1.782   3.003  17.114 -0.9378 -0.5622 -0.3174
  503MPD2    H3 7534   1.735   2.767  17.141 -1.5164  1.0731  1.8616
  503MPD2     N 7535   2.094   2.714  17.425  0.4753 -0.2753 -0.2235
  503MPD2    H5 7536   2.177   2.758  17.462 -0.0859  1.1088 -0.5988
  503MPD2    N1 7537   1.994   3.145  17.231 -0.1434 -0.4001  0.1932
  503MPD2    H7 7538   2.067   3.174  17.295 -0.5054  0.0916  0.3792
  504TMC3    C1 7539   2.192   2.530  17.529 -0.3243 -0.1556 -0.2064
  504TMC3    C2 7540   2.171   2.414  17.595 -0.5301 -0.1644 -0.0973
  504TMC3    C3 7541   2.278   2.369  17.663 -0.1628 -0.2696 -0.0937
  504TMC3    C4 7542   2.314   2.585  17.509  0.2073 -0.1210  0.2963
  504TMC3    C5 7543   2.425   2.526  17.569  0.8974  0.6455  0.9186
  504TMC3    C6 7544   2.406   2.419  17.657  0.0085 -0.5399  0.6630
  504TMC3     C 7545   2.083   2.576  17.447  0.0608 -0.1549 -0.8491
  504TMC3     O 7546   2.005   2.497  17.410  0.7407  0.7736  0.2809
  504TMC3     H 7547   2.080   2.355  17.597 -0.1632 -0.7870 -1.4059
  504TMC3    H1 7548   2.342   2.665  17.441  1.0676  1.3528  2.3714
  504TMC3    H2 7549   2.492   2.365  17.696  0.3225 -0.0436  0.6592
  504TMC3    C7 7550   2.526   2.514  17.468  0.7675  0.3121  0.0316
  504TMC3    C8 7551   2.251   2.254  17.751 -0.6529  0.5412  0.3729
  504TMC3    O1 7552   2.476   2.511  17.356 -0.1434  0.4047  0.3633
  504TMC3    O2 7553   2.177   2.168  17.708 -0.1329 -0.5601  0.7248
  505MPD2     C 7554   1.757   2.430  10.754 -0.0778 -1.0372  0.0579
  505MPD2    C1 7555   1.833   2.318  10.764 -0.2653 -0.0969 -0.0761
  505MPD2    C2 7556   1.935   2.313  10.858 -0.1335  0.3562 -0.1520
  505MPD2    C3 7557   1.969   2.425  10.933  0.3395  0.5786  0.0973
  505MPD2    C4 7558   1.886   2.532  10.929  0.3358 -0.2638  0.0457
  505MPD2    C5 7559   1.782   2.533  10.843  0.7865  0.4441  0.1674
  505MPD2     H 7560   1.994   2.224  10.875 -2.4923 -1.1267  0.4174
  505MPD2    H1 7561   1.902   2.628  10.978  1.0075 -0.1988 -0.3012
  505MPD2    H2 7562   1.686   2.438  10.672 -1.8567  0.7511  1.7608
  505MPD2    H3 7563   1.729   2.627  10.833  0.6824  0.3999  0.2994
  505MPD2     N 7564   2.076   2.408  11.022  0.6990  0.1709 -0.0449
  505MPD2    H5 7565   2.105   2.311  11.025 -2.2336 -0.6547  1.7372
  505MPD2    N1 7566   1.797   2.211  10.677 -0.2100  0.6050 -0.3848
  505MPD2    H7 7567   1.725   2.225  10.607 -0.0302  0.7469 -0.5427
  506TMC3    C1 7568   1.791   1.989  10.592 -0.2408 -0.8249 -0.0230
  506TMC3    C2 7569   1.813   2.036  10.466 -0.1051  1.1507  0.5284
  506TMC3    C3 7570   1.874   1.972  10.369 -0.4443  0.0645 -0.0777
  506TMC3    C4 7571   1.846   1.862  10.617 -0.5489  0.3103 -0.0056
  506TMC3    C5 7572   1.922   1.800  10.525  0.1059  0.4050  0.0985
  506TMC3    C6 7573   1.924   1.845  10.398  0.2214 -1.0773 -0.5189
  506TMC3     C 7574   1.824   2.079  10.702  0.4418 -0.1663  0.5665
  506TMC3     O 7575   1.897   2.025  10.787  0.1538  0.6220 -0.3819
  506TMC3     H 7576   1.787   2.138  10.442 -0.5654  0.6898 -0.9541
  506TMC3    H1 7577   1.823   1.806  10.708  1.0049 -1.4750 -0.7214
  506TMC3    H2 7578   1.972   1.780  10.326  0.0560  0.1800 -1.7779
  506TMC3    C7 7579   2.051   1.756  10.577 -1.0278 -0.1612  0.0537
  506TMC3    C8 7580   1.971   2.050  10.301 -0.8342  0.0035  0.0894
  506TMC3    O1 7581   2.121   1.688  10.501  0.2977  0.2669  0.0116
  506TMC3    O2 7582   2.034   2.130  10.368 -0.5323 -0.2066  0.2270
  507TMC3    C1 7583   3.215   2.969  15.200  0.3391 -0.0117 -0.2337
  507TMC3    C2 7584   3.232   2.865  15.119 -0.0694  1.0882 -0.1565
  507TMC3    C3 7585   3.278   2.888  14.991 -0.4699 -0.4151  0.5076
  507TMC3    C4 7586   3.219   3.101  15.155  0.5345 -1.1577  0.4588
  507TMC3    C5 7587   3.279   3.122  15.029 -0.0149 -0.3255 -0.0020
  507TMC3    C6 7588   3.312   3.017  14.957 -0.7825  0.0170 -0.0240
  507TMC3     C 7589   3.179   2.950  15.343  0.4528 -0.4424  0.7379
  507TMC3     O 7590   3.202   3.042  15.417 -0.4846 -0.2454 -0.2500
  507TMC3     H 7591   3.209   2.761  15.140  2.0573  0.9340  1.5298
  507TMC3    H1 7592   3.197   3.184  15.221 -0.6727  1.0945 -2.7511
  507TMC3    H2 7593   3.382   3.036  14.877 -0.1660 -2.2508 -0.0183
  507TMC3    C7 7594   3.231   3.236  14.946 -0.1487  0.4138  0.5939
  507TMC3    C8 7595   3.203   2.817  14.897  0.3179  0.2125  0.0468
  507TMC3    O1 7596   3.219   3.207  14.826  0.0921  0.1410 -0.2496
  507TMC3    O2 7597   3.131   2.725  14.933  0.1359  0.2743 -0.1377
  508MPD2     C 7598   3.378   0.211  16.281 -0.3316  0.5307  0.2112
  508MPD2    C1 7599   3.506   0.264  16.257  0.5640  0.0356 -0.0838
  508MPD2    C2 7600   3.535   0.321  16.142 -0.2588 -0.3540 -0.2974
  508MPD2    C3 7601   3.441   0.330  16.031  0.0767  0.1135  1.0818
  508MPD2    C4 7602   3.313   0.281  16.055  0.5972 -0.3769 -0.2286
  508MPD2    C5 7603   3.281   0.225  16.179  0.2260  0.3819  0.2046
  508MPD2     H 7604   3.630   0.368  16.120  0.4470 -1.3108  0.7458
  508MPD2    H1 7605   3.228   0.296  15.989  0.0467 -0.5492  0.4459
  508MPD2    H2 7606   3.358   0.154  16.371 -2.5932  0.9102 -0.0432
  508MPD2    H3 7607   3.180   0.187  16.193  0.0158  1.4680  1.6238
  508MPD2     N 7608   3.476   0.389  15.910  0.2033  0.2441  0.0094
  508MPD2    H5 7609   3.569   0.428  15.901  0.5507 -0.7050 -0.5012
  508MPD2    N1 7610   3.605   0.239  16.352  0.6121  0.1628  0.3366
  508MPD2    H7 7611   3.573   0.204  16.442 -1.7414  3.3942  0.7678
  509TMC3    C1 7612   3.431   0.706  15.557  0.1320  0.1583  0.9340
  509TMC3    C2 7613   3.568   0.718  15.562  0.1132 -0.3332  0.6489
  509TMC3    C3 7614   3.637   0.620  15.636  0.0623  0.7020 -0.2001
  509TMC3    C4 7615   3.366   0.622  15.648 -0.5669  0.3247 -0.2772
  509TMC3    C5 7616   3.441   0.530  15.723 -1.0618  0.2464  0.3559
  509TMC3    C6 7617   3.581   0.527  15.716 -0.2737 -0.4804 -0.0838
  509TMC3     C 7618   3.350   0.799  15.490  0.6027 -0.3067  0.2012
  509TMC3     O 7619   3.228   0.780  15.486  0.4310 -0.4667 -0.6467
  509TMC3     H 7620   3.621   0.782  15.493  1.8715 -3.0281 -0.5182
  509TMC3    H1 7621   3.260   0.625  15.666 -0.4500  3.4395 -0.0423
  509TMC3    H2 7622   3.643   0.465  15.780 -0.3641 -0.4910 -0.0052
  509TMC3    C7 7623   3.378   0.440  15.820 -0.0429  0.1748  0.6295
  509TMC3    C8 7624   3.781   0.635  15.652  0.7146  0.4321 -0.2150
  509TMC3    O1 7625   3.254   0.431  15.815 -0.3263 -0.0702 -0.5327
  509TMC3    O2 7626   3.841   0.533  15.671 -0.1081  0.1946 -0.4495
  510MPD2     C 7627   1.283   2.049  15.051  0.2561  0.6022 -0.0732
  510MPD2    C1 7628   1.324   1.924  15.034 -0.4151 -0.5393 -0.0531
  510MPD2    C2 7629   1.440   1.891  14.969 -0.0744 -0.0361 -0.2342
  510MPD2    C3 7630   1.516   1.992  14.905 -0.7481 -0.1292  0.0487
  510MPD2    C4 7631   1.464   2.121  14.910  0.3629  0.0816 -0.8555
  510MPD2    C5 7632   1.350   2.145  14.988  0.6687  0.0987 -0.0835
  510MPD2     H 7633   1.470   1.787  14.965 -1.3526 -0.4981  2.0959
  510MPD2    H1 7634   1.517   2.207  14.872  1.5258 -1.0448 -1.7780
  510MPD2    H2 7635   1.198   2.067  15.116  0.5610  0.1702  0.4463
  510MPD2    H3 7636   1.326   2.250  15.003  2.1619  0.7116 -1.8642
  510MPD2     N 7637   1.650   1.956  14.854 -0.2716 -0.0611  0.2123
  510MPD2    H5 7638   1.675   1.860  14.876 -1.1846 -0.2204  0.5553
  510MPD2    N1 7639   1.244   1.815  15.086  0.1318  0.5562  0.4739
  510MPD2    H7 7640   1.173   1.842  15.153 -0.8794  0.6177 -0.6462
  511TMC3    C1 7641   1.167   1.584  15.124  0.9684  0.0969 -0.1078
  511TMC3    C2 7642   1.110   1.627  15.242  0.1210  0.7981 -0.2950
  511TMC3    C3 7643   1.054   1.523  15.311  0.3466  0.1199 -0.3483
  511TMC3    C4 7644   1.160   1.458  15.071 -0.1079 -0.5530 -0.2853
  511TMC3    C5 7645   1.102   1.361  15.142  0.6161 -0.1870 -0.3884
  511TMC3    C6 7646   1.041   1.395  15.258 -0.3151  0.1003  0.2309
  511TMC3     C 7647   1.240   1.682  15.035 -0.0431 -0.2738 -1.1549
  511TMC3     O 7648   1.287   1.641  14.933 -0.5022 -0.2337  0.0350
  511TMC3     H 7649   1.145   1.712  15.300 -0.7486 -0.1395  1.6170
  511TMC3    H1 7650   1.221   1.430  14.986 -1.7859 -2.0291 -0.9736
  511TMC3    H2 7651   0.986   1.322  15.317 -0.1555 -0.3228 -0.1520
  511TMC3    C7 7652   1.064   1.246  15.061  0.4339  0.3421 -0.4379
  511TMC3    C8 7653   0.959   1.571  15.411  0.0098  0.3546  0.7961
  511TMC3    O1 7654   1.069   1.261  14.937 -0.3997  0.7463  0.8469
  511TMC3    O2 7655   0.940   1.516  15.520  0.0151 -0.4672  0.3052
  512TMC3    C1 7656   0.273   1.349  13.518  0.2423 -0.3845 -0.7686
  512TMC3    C2 7657   0.331   1.324  13.638  0.3999  0.3579 -0.2277
  512TMC3    C3 7658   0.396   1.204  13.648  0.2522  0.0965  0.0981
  512TMC3    C4 7659   0.284   1.270  13.404 -0.1281 -0.7798 -0.6961
  512TMC3    C5 7660   0.353   1.147  13.422  0.9119 -0.3790  0.1721
  512TMC3    C6 7661   0.412   1.114  13.541  1.0403  0.2056 -0.2222
  512TMC3     C 7662   0.229   1.482  13.496 -0.5942  0.5113  0.0997
  512TMC3     O 7663   0.163   1.532  13.587  0.3167  0.7464 -0.5749
  512TMC3     H 7664   0.321   1.386  13.726  0.2071 -0.3363  0.2447
  512TMC3    H1 7665   0.234   1.286  13.309 -1.1153 -0.8338 -0.1827
  512TMC3    H2 7666   0.473   1.025  13.551 -1.3438 -1.4917 -0.9143
  512TMC3    C7 7667   0.349   1.049  13.316  0.0491  0.2642  0.0087
  512TMC3    C8 7668   0.487   1.181  13.757 -0.0752 -0.1878  0.3496
  512TMC3    O1 7669   0.327   1.094  13.204  0.2180  0.5595 -0.0833
  512TMC3    O2 7670   0.521   1.065  13.776  0.0186 -0.1992 -0.3286
  513MPD2     C 7671   2.415   1.687  13.463 -0.6514 -0.6810 -0.1818
  513MPD2    C1 7672   2.539   1.633  13.429  0.1483  0.8246  0.0419
  513MPD2    C2 7673   2.647   1.644  13.514  0.7983  0.0841 -0.3334
  513MPD2    C3 7674   2.637   1.708  13.636 -0.8921  0.5660 -0.0444
  513MPD2    C4 7675   2.517   1.761  13.674 -0.3579 -0.0216  0.1183
  513MPD2    C5 7676   2.411   1.748  13.585 -0.4672 -0.8356 -0.7755
  513MPD2     H 7677   2.739   1.594  13.487  0.1278 -1.7829  0.8820
  513MPD2    H1 7678   2.502   1.808  13.771  0.9622 -0.6944  0.6520
  513MPD2    H2 7679   2.321   1.671  13.411 -2.0523  2.7810  1.2723
  513MPD2    H3 7680   2.307   1.768  13.609  0.0405  1.6642 -0.6123
  513MPD2     N 7681   2.758   1.714  13.708 -1.1255 -0.2395 -0.5434
  513MPD2    H5 7682   2.843   1.684  13.661  0.3766  0.6087  1.6356
  513MPD2    N1 7683   2.552   1.557  13.316  0.0548  0.3083  0.2323
  513MPD2    H7 7684   2.644   1.517  13.301 -0.9039 -2.5580  2.0360
  514TMC3    C1 7685   2.518   1.423  13.140  0.1670 -0.2560  0.4469
  514TMC3    C2 7686   2.521   1.451  13.009  0.6311  0.0652  0.0390
  514TMC3    C3 7687   2.634   1.411  12.940 -0.4369  0.5721  0.3287
  514TMC3    C4 7688   2.617   1.352  13.201 -0.8555 -0.0435  0.0269
  514TMC3    C5 7689   2.733   1.329  13.135  0.3678 -0.1374 -0.8634
  514TMC3    C6 7690   2.737   1.352  12.997 -0.3274 -0.5060  0.3227
  514TMC3     C 7691   2.461   1.522  13.226  0.0189 -0.3101 -0.0011
  514TMC3     O 7692   2.345   1.553  13.202 -0.5295  0.0360  0.1442
  514TMC3     H 7693   2.451   1.519  12.961 -1.6577 -0.3704  2.7712
  514TMC3    H1 7694   2.617   1.325  13.306 -1.9085  0.6980  0.2177
  514TMC3    H2 7695   2.831   1.331  12.947 -0.4526 -1.3434  0.4336
  514TMC3    C7 7696   2.842   1.385  13.208 -0.3713 -0.1189 -0.4228
  514TMC3    C8 7697   2.628   1.447  12.797 -0.8624  0.0788 -0.3729
  514TMC3    O1 7698   2.808   1.437  13.308 -0.4104  0.6223 -0.2822
  514TMC3    O2 7699   2.535   1.513  12.755 -0.0195  0.6140 -0.3903
  515MPD2     C 7700   0.806   2.858  14.839 -0.1281 -0.1274  0.1143
  515MPD2    C1 7701   0.714   2.956  14.805 -0.1360  0.0881  0.1829
  515MPD2    C2 7702   0.722   3.087  14.851 -0.4456 -0.3985 -0.1141
  515MPD2    C3 7703   0.833   3.123  14.917 -0.3716  0.2081 -1.2205
  515MPD2    C4 7704   0.932   3.028  14.939  0.3414  0.3349  0.0943
  515MPD2    C5 7705   0.911   2.894  14.917 -0.3198 -0.0889 -0.0098
  515MPD2     H 7706   0.650   3.161  14.816  0.1482  0.4456  0.4838
  515MPD2    H1 7707   1.019   3.066  14.992 -0.2973 -0.8526  1.9964
  515MPD2    H2 7708   0.791   2.756  14.806 -0.5406  0.2093 -0.7461
  515MPD2    H3 7709   0.988   2.825  14.950  1.9284  1.6942 -1.5204
  515MPD2     N 7710   0.858   3.258  14.943  0.3196  0.0890  0.3431
  515MPD2    H5 7711   0.943   3.270  14.997  1.2203 -0.3496 -0.9915
  515MPD2    N1 7712   0.608   2.921  14.721 -0.0540 -0.0855  0.3267
  515MPD2    H7 7713   0.605   2.823  14.694  1.6964  0.6681 -2.5793
  516TMC3    C1 7714   0.397   2.925  14.606  0.2172 -0.4032  0.0062
  516TMC3    C2 7715   0.324   2.990  14.504  0.2001 -0.2187  0.1319
  516TMC3    C3 7716   0.193   2.950  14.495 -0.6739  0.3786  0.6738
  516TMC3    C4 7717   0.345   2.845  14.697 -0.0140 -0.4436  0.4360
  516TMC3    C5 7718   0.211   2.809  14.682 -0.1271  0.1681 -0.3584
  516TMC3    C6 7719   0.134   2.869  14.588 -0.4013  0.2406 -0.0229
  516TMC3     C 7720   0.513   2.995  14.657 -0.0892  0.2021 -0.3660
  516TMC3     O 7721   0.526   3.118  14.629  1.0112  0.3927  0.5212
  516TMC3     H 7722   0.357   3.072  14.440  1.2656 -1.0695 -0.4082
  516TMC3    H1 7723   0.403   2.810  14.781 -0.4180 -1.6021  0.2323
  516TMC3    H2 7724   0.033   2.830  14.573 -0.9555  0.8312  2.1942
  516TMC3    C7 7725   0.172   2.703  14.769  0.2635  0.4752 -0.5432
  516TMC3    C8 7726   0.123   2.968  14.372 -0.5550  0.3676 -0.7984
  516TMC3    O1 7727   0.264   2.644  14.831 -1.0139  0.2595  0.3473
  516TMC3    O2 7728   0.009   3.013  14.361 -0.2191 -0.1068 -0.2800
  517MPD2     C 7729   1.142   0.163   0.084  0.1500 -0.1674  0.1462
  517MPD2    C1 7730   1.070   0.058   0.128  0.5362  0.6359  0.6390
  517MPD2    C2 7731   0.956   0.081   0.207 -0.3963  0.6929 -0.3256
  517MPD2    C3 7732   0.920   0.208   0.245 -0.7158  0.3915 -1.0331
  517MPD2    C4 7733   1.009   0.310   0.204 -0.5236 -0.2244 -0.0876
  517MPD2    C5 7734   1.111   0.289   0.123  0.2796 -0.3737  0.4227
  517MPD2     H 7735   0.909   4.734   0.253  0.1190  0.9158  0.6198
  517MPD2    H1 7736   0.995   0.413   0.233  1.1524 -0.0921  0.2455
  517MPD2    H2 7737   1.231   0.159   0.022  0.8970 -1.9425  1.3305
  517MPD2    H3 7738   1.177   0.368   0.089  0.4600 -1.6724 -2.2182
  517MPD2     N 7739   0.816   0.248   0.334 -0.1375  0.3523  0.1205
  517MPD2    H5 7740   0.806   0.349   0.347  0.0045  0.2438  1.0243
  517MPD2    N1 7741   1.100   4.666   0.093 -0.3471  0.9267  0.4280
  517MPD2    H7 7742   1.044   4.597   0.143  0.8138  0.6026  1.2840
  518TMC3    C1 7743   1.210   4.487  17.731 -0.2120 -0.0379  0.1640
  518TMC3    C2 7744   1.137   4.385   0.037 -0.6679 -0.8055  0.2504
  518TMC3    C3 7745   1.159   4.254   0.005  0.6436 -0.5771  0.0958
  518TMC3    C4 7746   1.302   4.449  17.640 -0.2981  0.6921 -0.0613
  518TMC3    C5 7747   1.333   4.315  17.624  0.6730  0.7167  0.0593
  518TMC3    C6 7748   1.259   4.215  17.682  0.1594 -0.2421 -0.1270
  518TMC3     C 7749   1.189   4.627  17.755  0.2839  0.3991 -0.3668
  518TMC3     O 7750   1.260   4.698  17.685  0.5940  0.4730  0.9743
  518TMC3     H 7751   1.070   4.412   0.117  0.2476  0.2333  0.6675
  518TMC3    H1 7752   1.353   4.523  17.579 -0.1376  0.8702  0.2901
  518TMC3    H2 7753   1.280   4.109  17.678  3.6237  0.3942  1.9431
  518TMC3    C7 7754   1.430   4.289  17.518 -0.0527  0.3789  0.5067
  518TMC3    C8 7755   1.074   4.143   0.056  0.1897  0.0731  0.0723
  518TMC3    O1 7756   1.460   4.389  17.449 -0.0128  0.2111  0.2917
  518TMC3    O2 7757   1.122   4.029   0.043  0.4243  0.3037  0.1180
  519MPD2     C 7758   1.821   3.368  14.569  0.6987 -0.1391  0.3818
  519MPD2    C1 7759   1.801   3.306  14.450  0.9911 -0.9263  0.5670
  519MPD2    C2 7760   1.875   3.190  14.425 -0.5381 -0.8830 -0.3991
  519MPD2    C3 7761   1.950   3.129  14.531 -0.0209 -0.4012 -0.1967
  519MPD2    C4 7762   1.965   3.194  14.655  0.5444  0.3093 -0.5413
  519MPD2    C5 7763   1.895   3.309  14.669  0.2811  0.0126  0.0843
  519MPD2     H 7764   1.857   3.130  14.336 -1.3475 -0.7994 -0.2899
  519MPD2    H1 7765   2.022   3.147  14.734  0.2599 -0.9176 -1.0703
  519MPD2    H2 7766   1.779   3.466  14.590 -1.5895 -1.1932  0.8382
  519MPD2    H3 7767   1.895   3.351  14.769  0.1248  1.3709 -0.4832
  519MPD2     N 7768   2.004   3.005  14.497  0.0227 -0.0765  0.0085
  519MPD2    H5 7769   1.985   2.966  14.405  1.4559  1.7168 -1.0549
  519MPD2    N1 7770   1.712   3.355  14.356  0.2134 -0.2662 -0.4092
  519MPD2    H7 7771   1.661   3.438  14.385 -0.0502 -0.1849 -1.1277
  520TMC3    C1 7772   2.136   2.810  14.502 -0.3651  0.2323 -0.2751
  520TMC3    C2 7773   2.068   2.792  14.389 -0.3044  0.4110  0.2483
  520TMC3    C3 7774   2.126   2.739  14.274 -0.1187  0.5063  0.3445
  520TMC3    C4 7775   2.271   2.775  14.505 -0.1949  0.0718 -1.0249
  520TMC3    C5 7776   2.327   2.728  14.385  0.0862 -0.8692  0.6383
  520TMC3    C6 7777   2.260   2.709  14.268 -0.0924 -0.0663  0.3689
  520TMC3     C 7778   2.095   2.932  14.570  0.6634  0.1404 -0.5788
  520TMC3     O 7779   2.144   2.963  14.675 -0.4632 -0.3451 -0.2235
  520TMC3     H 7780   1.961   2.810  14.391 -0.1666  1.2214  0.3298
  520TMC3    H1 7781   2.328   2.795  14.595  0.5574  1.8826 -1.8895
  520TMC3    H2 7782   2.307   2.663  14.183  3.4321 -0.7423  2.6856
  520TMC3    C7 7783   2.463   2.688  14.390 -0.0778 -0.5042 -0.2988
  520TMC3    C8 7784   2.046   2.714  14.154 -0.0126  0.0628  0.6027
  520TMC3    O1 7785   2.510   2.649  14.498  0.3029 -0.6010  0.6578
  520TMC3    O2 7786   2.118   2.699  14.056  0.1206 -0.2843  0.5542
  521MPD2     C 7787   2.663   0.288  17.596  0.0616  0.4164  0.1292
  521MPD2    C1 7788   2.638   0.380  17.503  0.6882 -0.5688  0.8177
  521MPD2    C2 7789   2.744   0.457  17.459  0.1272 -0.4967  0.5653
  521MPD2    C3 7790   2.871   0.448  17.510 -0.3761 -0.2360 -0.6822
  521MPD2    C4 7791   2.890   0.360  17.610  0.3781 -0.2721  0.3372
  521MPD2    C5 7792   2.786   0.280  17.645  0.0904 -0.4725  0.0318
  521MPD2     H 7793   2.727   0.536  17.386  2.0736 -0.5670  0.0524
  521MPD2    H1 7794   2.986   0.341  17.657  0.1306  0.8120  1.2855
  521MPD2    H2 7795   2.587   0.212  17.613 -0.2672  0.2503 -2.0429
  521MPD2    H3 7796   2.818   0.206  17.717 -2.2624  0.2878  1.8574
  521MPD2     N 7797   2.969   0.534  17.459  0.2060  0.0153  0.4036
  521MPD2    H5 7798   2.936   0.603  17.391 -0.1563  1.1621  1.7441
  521MPD2    N1 7799   2.504   0.392  17.462  0.8840 -0.1414  0.0868
  521MPD2    H7 7800   2.433   0.338  17.510  0.7722 -0.0233  0.0544
  522TMC3    C1 7801   3.185   0.647  17.442  0.7622  0.3469  0.1478
  522TMC3    C2 7802   3.317   0.618  17.452  0.4833 -0.5062  0.1174
  522TMC3    C3 7803   3.407   0.644  17.350 -0.4477  0.2300  0.4448
  522TMC3    C4 7804   3.143   0.709  17.332  0.0629  0.6889 -0.6178
  522TMC3    C5 7805   3.233   0.734  17.228 -0.0724 -0.0864  0.2376
  522TMC3    C6 7806   3.366   0.708  17.239  0.4539 -0.2523  0.6239
  522TMC3     C 7807   3.101   0.538  17.498  0.8529 -0.5877  0.6351
  522TMC3     O 7808   3.151   0.476  17.588  0.2381  0.2888 -0.2857
  522TMC3     H 7809   3.355   0.557  17.533 -1.8200 -0.9076  0.8880
  522TMC3    H1 7810   3.040   0.742  17.331 -0.2137 -0.1413  1.0238
  522TMC3    H2 7811   3.434   0.747  17.164 -0.5876  3.4278  1.5969
  522TMC3    C7 7812   3.205   0.843  17.135  0.0929 -0.0933  0.1289
  522TMC3    C8 7813   3.531   0.571  17.351  0.4704  0.3353  0.3674
  522TMC3    O1 7814   3.299   0.906  17.089 -0.3303 -0.6074  0.4036
  522TMC3    O2 7815   3.590   0.571  17.460  0.1964 -0.3642  0.1626
  523MPD2     C 7816   4.474   0.504  10.010 -0.0548 -0.2860  0.7845
  523MPD2    C1 7817   4.528   0.602  10.095  0.1657 -0.2560  0.1506
  523MPD2    C2 7818   4.503   0.737  10.070 -0.1499  0.2400 -0.2288
  523MPD2    C3 7819   4.415   0.767   9.964 -0.6034  0.2214 -0.2341
  523MPD2    C4 7820   4.359   0.673   9.880 -0.0153  0.2911  0.3952
  523MPD2    C5 7821   4.392   0.541   9.905  0.4472  0.5109 -0.0768
  523MPD2     H 7822   4.554   0.809  10.133  1.0670 -1.7283  1.0652
  523MPD2    H1 7823   4.303   0.698   9.791  3.4772  3.4654 -0.9404
  523MPD2    H2 7824   4.473   0.398  10.034 -0.0059 -0.3415  0.5394
  523MPD2    H3 7825   4.354   0.460   9.845 -1.8696  1.9137 -0.4972
  523MPD2     N 7826   4.382   0.903   9.942  0.5037  0.1643  0.5309
  523MPD2    H5 7827   4.299   0.913   9.884  0.0742  0.8826  1.2825
  523MPD2    N1 7828   4.621   0.556  10.184 -0.6163 -0.0121  0.2733
  523MPD2    H7 7829   4.625   0.456  10.197  1.0205  0.0145  0.0097
  524TMC3    C1 7830   4.371   1.129   9.942 -0.2012  0.0640  0.6065
  524TMC3    C2 7831   4.336   1.138   9.808 -0.0219 -0.2368  0.1749
  524TMC3    C3 7832   4.349   1.262   9.748 -0.0647 -0.1859  0.0540
  524TMC3    C4 7833   4.405   1.246  10.011 -0.6741  0.9112  0.3217
  524TMC3    C5 7834   4.403   1.372   9.954 -0.1883 -0.3015 -0.4054
  524TMC3    C6 7835   4.385   1.377   9.817 -0.2489 -0.4111 -0.0740
  524TMC3     C 7836   4.437   1.016   9.989  0.0161  0.3135 -0.0091
  524TMC3     O 7837   4.529   1.033  10.074  0.0418  0.2845 -0.3893
  524TMC3     H 7838   4.313   1.052   9.746 -0.0653 -0.3894  0.4021
  524TMC3    H1 7839   4.438   1.242  10.114  1.2300  1.7810 -0.2529
  524TMC3    H2 7840   4.379   1.472   9.766 -2.6443 -0.8646 -0.6100
  524TMC3    C7 7841   4.449   1.486  10.039 -0.0493  0.1061  0.0351
  524TMC3    C8 7842   4.300   1.271   9.609  0.9288  0.4836 -0.0252
  524TMC3    O1 7843   4.469   1.463  10.156 -0.0789 -0.1810  0.1204
  524TMC3    O2 7844   4.274   1.167   9.558 -0.1791 -0.2000  0.2509
  525MPD2     C 7845   3.350   2.676  14.559  0.2278 -0.2607 -0.5657
  525MPD2    C1 7846   3.449   2.694  14.652 -0.3868  0.2581  0.3971
  525MPD2    C2 7847   3.515   2.813  14.644 -0.7820 -0.8818 -0.0145
  525MPD2    C3 7848   3.487   2.907  14.548 -0.0212 -0.3221  0.8235
  525MPD2    C4 7849   3.395   2.884  14.452 -0.8140 -0.5913  0.8181
  525MPD2    C5 7850   3.329   2.760  14.451  0.1820  0.0514  0.8508
  525MPD2     H 7851   3.596   2.830  14.713 -1.6718 -0.0897  0.8298
  525MPD2    H1 7852   3.370   2.951  14.370 -1.3000  1.6447  2.8049
  525MPD2    H2 7853   3.291   2.585  14.554  1.0983 -0.7477 -1.9838
  525MPD2    H3 7854   3.261   2.726  14.373  0.4848  0.6686  0.3203
  525MPD2     N 7855   3.545   3.030  14.566  0.1227  0.0557  0.0775
  525MPD2    H5 7856   3.589   3.046  14.656 -0.2155 -1.0996  0.4507
  525MPD2    N1 7857   3.486   2.596  14.752  0.2394  0.0194 -0.4600
  525MPD2    H7 7858   3.576   2.604  14.799 -0.2948 -2.1123  0.9309
  526TMC3    C1 7859   3.500   2.371  14.807 -0.6984 -0.1067 -0.0201
  526TMC3    C2 7860   3.438   2.280  14.882  0.7485 -0.1677 -0.1219
  526TMC3    C3 7861   3.498   2.156  14.885 -0.0632 -0.0882 -0.3514
  526TMC3    C4 7862   3.600   2.345  14.718 -0.5747  0.5195 -0.5813
  526TMC3    C5 7863   3.650   2.214  14.716  0.1947 -0.1543  0.0240
  526TMC3    C6 7864   3.599   2.120  14.800 -0.3660  0.7324 -0.1268
  526TMC3     C 7865   3.411   2.478  14.762  0.0238  0.4175  0.2637
  526TMC3     O 7866   3.290   2.458  14.747  0.6258 -0.2356  0.8338
  526TMC3     H 7867   3.357   2.314  14.946  2.4739 -0.0288  1.9934
  526TMC3    H1 7868   3.634   2.418  14.645  2.3397  1.6580  1.8999
  526TMC3    H2 7869   3.640   2.020  14.810  1.2451  1.3554 -0.5109
  526TMC3    C7 7870   3.777   2.193  14.646 -0.1775 -0.2886 -0.1523
  526TMC3    C8 7871   3.437   2.059  14.975 -0.5086  0.6151  0.0928
  526TMC3    O1 7872   3.809   2.277  14.570 -0.3255 -0.2404  0.1882
  526TMC3    O2 7873   3.446   1.944  14.938 -0.3119  0.1309 -0.4507
  527MPD2     C 7874   1.181   0.733   1.257 -0.3181 -0.1090 -0.3980
  527MPD2    C1 7875   1.144   0.606   1.229  0.4833 -0.1566  0.0793
  527MPD2    C2 7876   1.233   0.509   1.259 -0.3157  0.4027 -0.3611
  527MPD2    C3 7877   1.363   0.535   1.301  0.0311  0.4642  0.0922
  527MPD2    C4 7878   1.397   0.660   1.332  0.4161 -0.3675  0.8839
  527MPD2    C5 7879   1.305   0.760   1.308  0.1758  0.0570  0.4876
  527MPD2     H 7880   1.205   0.407   1.236  0.7936 -0.0121  0.1230
  527MPD2    H1 7881   1.498   0.688   1.359 -0.3625  2.2118  1.1166
  527MPD2    H2 7882   1.116   0.819   1.241  0.5916  0.7633  0.6147
  527MPD2    H3 7883   1.347   0.859   1.316 -0.6185  0.5233 -1.0017
  527MPD2     N 7884   1.454   0.427   1.299 -0.0690  0.6924 -0.0621
  527MPD2    H5 7885   1.408   0.341   1.272 -0.8317  0.5247  1.7732
  527MPD2    N1 7886   1.015   0.562   1.185 -0.0630  0.2950 -0.7713
  527MPD2    H7 7887   0.995   0.463   1.181 -2.9689  0.8296  0.5874
  528TMC3    C1 7888   0.798   0.558   1.111  0.0133 -0.8252 -0.2366
  528TMC3    C2 7889   0.824   0.439   1.035  0.1695  0.1717  0.3669
  528TMC3    C3 7890   0.720   0.403   0.953 -0.1855 -0.2025 -0.1828
  528TMC3    C4 7891   0.683   0.633   1.100 -0.2076 -0.4585 -0.0438
  528TMC3    C5 7892   0.590   0.581   1.020  0.3989 -0.0325  0.3570
  528TMC3    C6 7893   0.601   0.469   0.948  0.2418 -0.7030  0.2224
  528TMC3     C 7894   0.910   0.642   1.152 -0.1501 -0.4626  0.1749
  528TMC3     O 7895   0.895   0.766   1.149 -0.2636  0.3199  0.1226
  528TMC3     H 7896   0.917   0.384   1.043 -0.0538 -0.3221 -0.4603
  528TMC3    H1 7897   0.682   0.734   1.140  1.1896 -0.3560 -0.2534
  528TMC3    H2 7898   0.515   0.419   0.905  0.9993 -1.4362 -0.4368
  528TMC3    C7 7899   0.451   0.641   1.040  0.7589 -0.1319 -0.2348
  528TMC3    C8 7900   0.738   0.286   0.850 -1.3419 -0.4756  0.4118
  528TMC3    O1 7901   0.441   0.715   1.138  0.2279 -0.0251 -0.5426
  528TMC3    O2 7902   0.640   0.226   0.806  0.4566 -0.5157  0.1881
  529MPD2     C 7903   3.723   2.972   0.817 -0.2543  0.7509 -0.1045
  529MPD2    C1 7904   3.860   2.984   0.845  0.3516  0.5401 -0.4009
  529MPD2    C2 7905   3.938   3.063   0.762  0.1195  0.2087  0.1644
  529MPD2    C3 7906   3.876   3.128   0.659 -0.0327  0.3717 -0.1766
  529MPD2    C4 7907   3.740   3.127   0.644 -0.1874  0.1543  0.7305
  529MPD2    C5 7908   3.662   3.051   0.726 -0.2802  0.1879 -0.1202
  529MPD2     H 7909   4.045   3.056   0.781 -0.0647  0.0542  1.1655
  529MPD2    H1 7910   3.691   3.183   0.566  1.2399 -0.3591 -0.5242
  529MPD2    H2 7911   3.657   2.901   0.865 -1.3564  3.4132  2.2934
  529MPD2    H3 7912   3.555   3.035   0.715 -0.3480  0.1144  0.6527
  529MPD2     N 7913   3.945   3.209   0.565  0.3505 -0.3106 -0.5970
  529MPD2    H5 7914   3.890   3.240   0.485 -0.0248 -0.5261 -0.4229
  529MPD2    N1 7915   3.923   2.908   0.946 -0.6383  0.4057  0.1385
  529MPD2    H7 7916   4.024   2.910   0.951 -0.5604 -0.2494 -1.1210
  530TMC3    C1 7917   3.942   2.777   1.145  0.1637  0.5555 -0.7684
  530TMC3    C2 7918   4.043   2.847   1.198  0.4386 -0.2475  0.2122
  530TMC3    C3 7919   4.111   2.806   1.310  0.6787 -0.2780  0.1212
  530TMC3    C4 7920   3.885   2.672   1.211 -0.9233 -0.2164  0.2366
  530TMC3    C5 7921   3.955   2.626   1.322  0.3977  0.3457 -0.9541
  530TMC3    C6 7922   4.071   2.685   1.362 -0.0117 -0.3777 -0.1009
  530TMC3     C 7923   3.855   2.836   1.041 -0.4726 -0.8140  0.4095
  530TMC3     O 7924   3.737   2.837   1.080 -0.4373 -0.2261 -0.4173
  530TMC3     H 7925   4.058   2.947   1.160 -2.6468  0.1949  0.1247
  530TMC3    H1 7926   3.804   2.623   1.158 -0.8619  0.3618 -0.3957
  530TMC3    H2 7927   4.124   2.626   1.437 -1.3976  1.5208  2.3740
  530TMC3    C7 7928   3.910   2.503   1.388  0.2005 -0.3776  0.4703
  530TMC3    C8 7929   4.190   2.896   1.387  0.2069  0.0498 -0.0550
  530TMC3    O1 7930   3.985   2.443   1.462  0.3113  0.0256  0.0069
  530TMC3    O2 7931   4.192   3.018   1.352 -0.3544  0.2906 -0.1812
  531MPD2     C 7932   3.317   1.423  13.387 -0.2586 -0.6695 -0.2111
  531MPD2    C1 7933   3.195   1.466  13.439  0.2715 -0.1957 -0.3092
  531MPD2    C2 7934   3.082   1.436  13.371  0.3005 -0.3339 -0.0762
  531MPD2    C3 7935   3.087   1.364  13.248 -1.0651  0.5580  0.0760
  531MPD2    C4 7936   3.210   1.335  13.183  0.6629 -0.3920  0.4214
  531MPD2    C5 7937   3.319   1.356  13.269 -0.5324 -0.1002 -0.0455
  531MPD2     H 7938   2.990   1.446  13.426  0.4950 -0.5132  0.2813
  531MPD2    H1 7939   3.214   1.284  13.087 -0.2332  1.3382 -0.5220
  531MPD2    H2 7940   3.409   1.438  13.443  0.4122 -0.2699 -1.4394
  531MPD2    H3 7941   3.416   1.339  13.224  0.4655 -0.0185  2.0603
  531MPD2     N 7942   2.969   1.339  13.169 -0.2091 -0.3485  0.2963
  531MPD2    H5 7943   2.985   1.302  13.076 -1.9321  0.5758 -0.3735
  531MPD2    N1 7944   3.182   1.535  13.562 -0.4437 -0.1047  0.0733
  531MPD2    H7 7945   3.261   1.529  13.625 -0.2651  1.5341 -0.0045
  532TMC3    C1 7946   3.087   1.654  13.745 -0.2446  0.1590  0.0717
  532TMC3    C2 7947   2.990   1.745  13.763 -0.0507  0.2649 -0.0264
  532TMC3    C3 7948   2.912   1.747  13.878  0.8421  0.0752  0.9094
  532TMC3    C4 7949   3.107   1.554  13.842  0.7765 -0.1421 -0.0947
  532TMC3    C5 7950   3.036   1.572  13.958  0.3521 -0.0562 -0.8150
  532TMC3    C6 7951   2.946   1.668  13.984  0.0588  0.1426 -0.0366
  532TMC3     C 7952   3.075   1.613  13.608  1.2000 -0.5801  1.3365
  532TMC3     O 7953   2.977   1.649  13.546 -0.2597 -0.0188  0.3568
  532TMC3     H 7954   2.965   1.816  13.685  0.3965 -0.3859 -0.7698
  532TMC3    H1 7955   3.186   1.480  13.840 -0.5867 -1.5658 -0.8689
  532TMC3    H2 7956   2.881   1.673  14.071 -0.8583  1.9057 -0.8336
  532TMC3    C7 7957   3.063   1.497  14.077  0.1214 -0.4051  0.3824
  532TMC3    C8 7958   2.771   1.760  13.840 -0.2482 -0.5864  0.2691
  532TMC3    O1 7959   3.087   1.554  14.178  0.2002  0.4857  0.0631
  532TMC3    O2 7960   2.687   1.796  13.918  0.7858  0.3266  0.1145
  533TMC3    C1 7961   3.600   3.253  14.522 -0.2169  0.2193  0.6607
  533TMC3    C2 7962   3.714   3.330  14.485 -0.2650 -0.6117  0.3936
  533TMC3    C3 7963   3.758   3.418  14.581 -0.7427 -0.5697 -0.0613
  533TMC3    C4 7964   3.536   3.265  14.642  0.6928 -0.1465 -0.0245
  533TMC3    C5 7965   3.589   3.344  14.731 -0.0992  0.4678 -0.1426
  533TMC3    C6 7966   3.704   3.421  14.708  0.3701  0.0587  0.2860
  533TMC3     C 7967   3.574   3.122  14.465  0.5049 -0.3029 -0.2201
  533TMC3     O 7968   3.569   3.117  14.344  0.0169 -0.1888  0.3078
  533TMC3     H 7969   3.778   3.302  14.402 -0.1015 -0.2700  0.4049
  533TMC3    H1 7970   3.438   3.218  14.641  1.4839 -1.8131  0.7768
  533TMC3    H2 7971   3.745   3.481  14.789  1.3312 -0.4332  0.1675
  533TMC3    C7 7972   3.590   3.263  14.853  0.0588 -0.2934 -0.6778
  533TMC3    C8 7973   3.885   3.494  14.566 -0.5762 -0.5984  0.6672
  533TMC3    O1 7974   3.577   3.142  14.842 -0.3681  0.7367  0.1500
  533TMC3    O2 7975   3.928   3.551  14.670  0.3247  0.1788 -0.2096
  534MPD2     C 7976   1.613   3.907   2.006  0.1922 -0.4989  0.3436
  534MPD2    C1 7977   1.479   3.944   1.974 -0.5581 -0.2662 -0.8826
  534MPD2    C2 7978   1.390   3.841   1.959 -0.5309  0.3263  0.0946
  534MPD2    C3 7979   1.426   3.709   1.981  0.4996 -0.0460  0.4505
  534MPD2    C4 7980   1.552   3.676   2.023 -0.2243 -0.6843  0.3760
  534MPD2    C5 7981   1.641   3.779   2.032  0.0977  0.1386 -0.2175
  534MPD2     H 7982   1.285   3.853   1.934  0.1162  0.2589 -2.6354
  534MPD2    H1 7983   1.586   3.577   2.050  1.6612 -0.2940 -0.5573
  534MPD2    H2 7984   1.686   3.985   2.020  0.3583 -1.0710  2.6774
  534MPD2    H3 7985   1.740   3.753   2.068 -0.1508  1.1382  1.2059
  534MPD2     N 7986   1.347   3.598   1.947 -0.1914  0.3314  0.2593
  534MPD2    H5 7987   1.401   3.512   1.942  2.1635  1.8320  0.1121
  534MPD2    N1 7988   1.438   4.075   1.959 -0.1590 -0.3132 -0.4012
  534MPD2    H7 7989   1.343   4.095   1.929 -1.2957 -0.9903  2.7263
  535TMC3    C1 7990   1.163   3.478   1.867 -0.0563  0.6390  0.3228
  535TMC3    C2 7991   1.033   3.451   1.884 -0.3498  1.0659  0.2868
  535TMC3    C3 7992   0.973   3.352   1.811  0.4768  0.3621  0.5675
  535TMC3    C4 7993   1.242   3.390   1.785 -0.0068  0.2154 -0.2189
  535TMC3    C5 7994   1.174   3.291   1.710  0.4030  0.1797  0.1838
  535TMC3    C6 7995   1.045   3.267   1.730  0.2130 -0.2322  0.0421
  535TMC3     C 7996   1.216   3.597   1.928  0.2103  0.5514 -0.1286
  535TMC3     O 7997   1.138   3.680   1.971 -0.1644 -0.1246 -0.0263
  535TMC3     H 7998   0.979   3.518   1.951  1.7019  1.0340  1.9920
  535TMC3    H1 7999   1.342   3.422   1.762  1.0093 -2.7060  0.1304
  535TMC3    H2 8000   0.994   3.214   1.650 -0.2798 -0.0303  0.2256
  535TMC3    C7 8001   1.227   3.255   1.582  0.4062  0.3968  0.3872
  535TMC3    C8 8002   0.828   3.363   1.788 -0.8281  0.6198  0.1631
  535TMC3    O1 8003   1.251   3.139   1.550  0.2175 -0.0878 -0.0612
  535TMC3    O2 8004   0.781   3.298   1.689  0.4699  0.4687  0.4347
  536MPD2     C 8005   0.558   1.956  16.484  0.4395  0.0348 -0.0759
  536MPD2    C1 8006   0.466   2.010  16.565 -0.4770  0.0723  0.4248
  536MPD2    C2 8007   0.351   2.046  16.497  0.1146 -1.8263  0.4000
  536MPD2    C3 8008   0.332   2.024  16.361  0.0801  0.5230 -0.0388
  536MPD2    C4 8009   0.428   1.962  16.293  0.2243 -0.5831 -0.3948
  536MPD2    C5 8010   0.545   1.940  16.352 -0.1830 -0.2190  0.1796
  536MPD2     H 8011   0.276   2.091  16.561  2.0125 -0.5280  1.7206
  536MPD2    H1 8012   0.420   1.930  16.189  2.1078  1.2094 -1.1039
  536MPD2    H2 8013   0.654   1.923  16.521  0.6401 -2.4222 -2.8222
  536MPD2    H3 8014   0.622   1.895  16.291  0.5902  0.0798  0.9472
  536MPD2     N 8015   0.207   2.041  16.288  0.4942  0.2207  0.6140
  536MPD2    H5 8016   0.209   2.042  16.186 -0.2335  1.8408  0.6159
  536MPD2    N1 8017   0.502   2.038  16.697 -0.1598 -0.1371 -0.0132
  536MPD2    H7 8018   0.596   2.010  16.723  0.6334  0.1319 -2.6496
  537TMC3    C1 8019   0.501   2.112  16.923  0.7401  0.7500 -0.0410
  537TMC3    C2 8020   0.455   2.194  17.017  0.1304 -0.1502  0.1840
  537TMC3    C3 8021   0.535   2.225  17.123 -0.9476 -0.4935 -0.3334
  537TMC3    C4 8022   0.637   2.076  16.922 -0.1659 -0.3585 -1.1845
  537TMC3    C5 8023   0.713   2.104  17.034  0.8650  0.6994  0.0454
  537TMC3    C6 8024   0.656   2.177  17.137  0.2915 -0.0497 -0.4157
  537TMC3     C 8025   0.430   2.106  16.797  0.8283 -0.2693 -0.3904
  537TMC3     O 8026   0.320   2.164  16.785 -0.4306 -0.2603  0.2614
  537TMC3     H 8027   0.352   2.230  17.015  0.1430 -0.0774  0.9126
  537TMC3    H1 8028   0.683   2.004  16.855  0.3552 -0.3629 -0.8249
  537TMC3    H2 8029   0.707   2.224  17.221 -0.3436 -0.2487  0.0709
  537TMC3    C7 8030   0.780   1.989  17.088 -0.1419  0.2770 -0.0846
  537TMC3    C8 8031   0.470   2.280  17.247 -0.4917  0.0249  0.2609
  537TMC3    O1 8032   0.759   1.880  17.040  0.0335 -0.4652 -0.4780
  537TMC3    O2 8033   0.530   2.352  17.324 -0.4680  0.3761 -0.2509
  538TMC3    C1 8034   0.886   0.708  11.215  0.1298  1.0444 -0.0108
  538TMC3    C2 8035   1.001   0.777  11.228 -0.0916 -0.9963  0.8510
  538TMC3    C3 8036   1.043   0.859  11.118 -0.5895  0.2649  1.0924
  538TMC3    C4 8037   0.810   0.712  11.098  1.2812  0.0946 -0.5900
  538TMC3    C5 8038   0.861   0.792  10.993  0.4909  0.1748 -0.1778
  538TMC3    C6 8039   0.964   0.876  11.009  0.0703 -0.0695  0.2753
  538TMC3     C 8040   0.847   0.609  11.310 -0.4227 -0.0089  0.0203
  538TMC3     O 8041   0.767   0.526  11.268 -0.2099 -0.1873  0.3688
  538TMC3     H 8042   1.075   0.751  11.303  2.2848  0.3889 -1.0041
  538TMC3    H1 8043   0.721   0.653  11.083 -0.0482  1.3469  2.2477
  538TMC3    H2 8044   1.017   0.921  10.926  1.6432 -0.8627  0.8497
  538TMC3    C7 8045   0.763   0.832  10.889  0.7745 -0.0245 -0.4642
  538TMC3    C8 8046   1.184   0.913  11.121 -0.4900 -1.5916 -0.1885
  538TMC3    O1 8047   0.688   0.750  10.840  0.7037 -0.1929 -0.1927
  538TMC3    O2 8048   1.242   0.885  11.226 -0.0144 -0.2249 -0.4464
  539MPD2     C 8049   0.326   4.638  11.885  0.3035 -0.2756  0.4025
  539MPD2    C1 8050   0.423   4.663  11.794  0.0723  0.3699 -0.5754
  539MPD2    C2 8051   0.432   0.051  11.743  0.4494 -0.2818 -0.3246
  539MPD2    C3 8052   0.362   0.153  11.793 -0.7030 -0.1486 -0.0930
  539MPD2    C4 8053   0.277   0.131  11.900 -0.1919  0.1096  0.4340
  539MPD2    C5 8054   0.261   0.001  11.948 -0.1603 -0.4326  0.1502
  539MPD2     H 8055   0.498   0.075  11.660  1.6711 -1.3212  0.3562
  539MPD2    H1 8056   0.225   0.220  11.934  0.3620  1.3363 -1.8602
  539MPD2    H2 8057   0.318   4.541  11.932 -0.7879 -0.5561 -0.3396
  539MPD2    H3 8058   0.182   4.732  12.022  0.4986 -0.9858  0.7812
  539MPD2     N 8059   0.345   0.278  11.738 -0.1512 -0.4061 -0.3338
  539MPD2    H5 8060   0.277   0.341  11.781  0.3815  0.7771 -1.2057
  539MPD2    N1 8061   0.515   4.558  11.762 -0.7279 -0.3394 -0.1896
  539MPD2    H7 8062   0.501   4.469  11.808  2.3559 -1.1349 -0.7565
  540TMC3    C1 8063   0.339   0.436  11.564  0.0146  0.2395  0.4177
  540TMC3    C2 8064   0.300   0.442  11.433 -0.9013 -0.3087 -0.1069
  540TMC3    C3 8065   0.212   0.545  11.402  0.2911  0.4016 -0.4164
  540TMC3    C4 8066   0.306   0.528  11.658 -0.5534  0.0092  0.4492
  540TMC3    C5 8067   0.226   0.633  11.615 -0.0021 -0.8381  0.6943
  540TMC3    C6 8068   0.184   0.649  11.486 -0.1478 -0.1140 -0.6059
  540TMC3     C 8069   0.390   0.309  11.607 -0.1136 -0.5958 -0.7646
  540TMC3     O 8070   0.437   0.235  11.519 -0.2106 -0.2307  0.2327
  540TMC3     H 8071   0.332   0.373  11.355  0.5341  0.1835  0.0461
  540TMC3    H1 8072   0.338   0.520  11.761 -0.5236  1.3553  0.5470
  540TMC3    H2 8073   0.102   0.715  11.458  0.0062  1.5108  2.7714
  540TMC3    C7 8074   0.131   0.665  11.718 -0.0945  0.2437  0.0093
  540TMC3    C8 8075   0.157   0.552  11.271  0.2930 -0.1384  0.5010
  540TMC3    O1 8076   0.115   0.572  11.794  0.2498  0.3268  0.1778
  540TMC3    O2 8077   0.130   0.661  11.225  0.3573  0.1875 -0.4463
  541MPD2     C 8078   3.547   1.698  13.568  0.4619 -0.2436  0.1893
  541MPD2    C1 8079   3.638   1.607  13.509 -0.3756  0.4029  0.3508
  541MPD2    C2 8080   3.641   1.608  13.370 -0.4315 -0.3887 -0.3755
  541MPD2    C3 8081   3.563   1.693  13.297  0.1010 -0.1908  0.1577
  541MPD2    C4 8082   3.486   1.788  13.360 -0.2767 -0.1616  0.0962
  541MPD2    C5 8083   3.479   1.786  13.490 -0.6242 -0.7368 -0.9222
  541MPD2     H 8084   3.709   1.532  13.334  0.4876 -0.9747  2.6253
  541MPD2    H1 8085   3.425   1.864  13.312  0.7146  0.0038 -0.9218
  541MPD2    H2 8086   3.530   1.706  13.674 -1.0114  2.7412 -0.2885
  541MPD2    H3 8087   3.420   1.861  13.542  1.3253  1.8038 -2.3808
  541MPD2     N 8088   3.562   1.697  13.156  0.8420 -0.0469  0.3656
  541MPD2    H5 8089   3.506   1.770  13.113 -0.5760 -0.5899  1.2602
  541MPD2    N1 8090   3.704   1.502  13.576 -0.2501  0.5636  0.3000
  541MPD2    H7 8091   3.734   1.429  13.512 -0.8060 -0.2685  0.9786
  542TMC3    C1 8092   3.616   1.666  12.931 -0.5496  0.6141 -0.0579
  542TMC3    C2 8093   3.697   1.605  12.837  1.2027 -0.1384  0.0951
  542TMC3    C3 8094   3.653   1.628  12.709  0.3946  0.4852 -0.6066
  542TMC3    C4 8095   3.518   1.755  12.903 -0.7061 -0.0652 -0.5797
  542TMC3    C5 8096   3.486   1.774  12.775 -0.0817 -0.1029 -0.3671
  542TMC3    C6 8097   3.555   1.713  12.677 -0.0403  0.3788  0.1483
  542TMC3     C 8098   3.639   1.624  13.069 -0.8702 -0.3971  0.3516
  542TMC3     O 8099   3.735   1.551  13.089 -0.2161 -0.0107  0.1959
  542TMC3     H 8100   3.776   1.534  12.860  0.1918 -1.0204  0.8215
  542TMC3    H1 8101   3.448   1.794  12.977  0.1482  0.2180  0.0805
  542TMC3    H2 8102   3.551   1.739  12.571 -0.9292 -0.2669  0.0191
  542TMC3    C7 8103   3.388   1.870  12.731  0.6973  1.1761 -0.1917
  542TMC3    C8 8104   3.731   1.562  12.608  0.0986 -0.4507  0.0786
  542TMC3    O1 8105   3.375   1.894  12.612 -0.3700  0.2002 -0.7024
  542TMC3    O2 8106   3.728   1.617  12.496 -0.3466 -0.9385 -0.0753
  543TMC3    C1 8107   3.573   2.373  17.615 -0.6257 -0.4261 -0.0695
  543TMC3    C2 8108   3.564   2.263  17.540 -0.0681 -0.0250 -1.2932
  543TMC3    C3 8109   3.540   2.151  17.608  0.2217  0.1621  0.3459
  543TMC3    C4 8110   3.524   2.383  17.741  0.0804 -0.8930 -0.1188
  543TMC3    C5 8111   3.492   2.270   0.045 -0.5189 -0.3652  0.4606
  543TMC3    C6 8112   3.499   2.148  17.741  1.2502 -0.8215  0.7838
  543TMC3     C 8113   3.597   2.497  17.550  0.1134  0.5882 -0.6192
  543TMC3     O 8114   3.663   2.575  17.617 -0.2877  0.3194 -0.3640
  543TMC3     H 8115   3.598   2.254  17.437  0.7119 -0.0063 -1.0381
  543TMC3    H1 8116   3.512   2.481   0.030  0.3296 -0.8443 -0.1561
  543TMC3    H2 8117   3.486   2.051   0.031 -3.1554  0.5190  2.2962
  543TMC3    C7 8118   3.451   2.284   0.177  0.2686  0.0831 -0.0823
  543TMC3    C8 8119   3.548   2.029  17.520 -0.6034 -0.7283  0.3356
  543TMC3    O1 8120   3.471   2.390   0.232 -0.5192 -0.3878 -0.1667
  543TMC3    O2 8121   3.584   2.044  17.405 -0.0697  0.5673 -0.7877
  544MPD2     C 8122   3.512   1.521  17.413 -0.5131  0.3893 -0.7968
  544MPD2    C1 8123   3.569   1.621  17.342  0.6093  0.5749  0.1562
  544MPD2    C2 8124   3.572   1.749  17.391  0.1757  0.6035 -0.2574
  544MPD2    C3 8125   3.522   1.781  17.522 -0.0888  0.4733 -0.1111
  544MPD2    C4 8126   3.481   1.674  17.597  0.3892 -0.4335 -0.3001
  544MPD2    C5 8127   3.470   1.550  17.542  0.2213 -0.8748 -0.3728
  544MPD2     H 8128   3.610   1.833  17.335 -0.6308  1.5640  0.6338
  544MPD2    H1 8129   3.454   1.684  17.701 -1.0587  0.9158 -0.8008
  544MPD2    H2 8130   3.500   1.417  17.385  0.3017 -0.0355  0.4069
  544MPD2    H3 8131   3.428   1.467  17.598  2.4960 -0.7258  1.5642
  544MPD2     N 8132   3.515   1.912  17.580  0.0402  0.2249  0.9388
  544MPD2    H5 8133   3.494   1.924  17.678 -1.1760 -0.7478  0.8097
  544MPD2    N1 8134   3.611   1.591  17.212 -0.1716  0.0183 -0.2134
  544MPD2    H7 8135   3.582   1.500  17.177  3.1503 -0.7307 -1.0224
  545TMC3    C1 8136   3.630   1.640  16.986 -0.0478 -0.0487 -0.1275
  545TMC3    C2 8137   3.686   1.732  16.902 -0.5504  0.0729 -0.6288
  545TMC3    C3 8138   3.647   1.714  16.776  0.1214 -0.3686 -0.0022
  545TMC3    C4 8139   3.541   1.538  16.957 -0.4455  0.5220  0.7557
  545TMC3    C5 8140   3.505   1.531  16.823 -0.3075  0.4105 -0.3126
  545TMC3    C6 8141   3.555   1.614  16.732  0.0112 -0.2122  0.0805
  545TMC3     C 8142   3.645   1.688  17.122  0.4267 -0.2519 -0.0964
  545TMC3     O 8143   3.722   1.779  17.153 -0.4127 -0.1005  0.4303
  545TMC3     H 8144   3.736   1.818  16.944 -0.0399 -0.0424 -1.0043
  545TMC3    H1 8145   3.492   1.478  17.032 -0.2376  0.0523  0.5169
  545TMC3    H2 8146   3.546   1.596  16.626  0.8609  1.6189 -0.2977
  545TMC3    C7 8147   3.464   1.397  16.773  0.3872  0.2700 -0.0006
  545TMC3    C8 8148   3.729   1.780  16.677  0.7185  0.1576 -0.3101
  545TMC3    O1 8149   3.404   1.401  16.666  0.4310 -0.6868 -0.1174
  545TMC3    O2 8150   3.799   1.704  16.608  0.0701 -0.2341 -0.0027
  546MPD2     C 8151   0.305   2.917   0.427 -0.6059 -0.0947 -0.0095
  546MPD2    C1 8152   0.292   2.912   0.290  0.2330 -0.3553 -0.4380
  546MPD2    C2 8153   0.364   3.009   0.216  0.3556 -0.1208  0.1226
  546MPD2    C3 8154   0.454   3.094   0.276 -0.0961 -0.7759 -0.1250
  546MPD2    C4 8155   0.466   3.091   0.412 -0.2182  0.0485  0.2826
  546MPD2    C5 8156   0.388   3.003   0.487 -0.4378 -0.1283 -0.0190
  546MPD2     H 8157   0.371   3.003   0.108  1.8730  1.3690  0.1378
  546MPD2    H1 8158   0.531   3.161   0.461 -0.2154  0.9375 -0.9879
  546MPD2    H2 8159   0.252   2.848   0.492  1.1386 -0.1514  1.3535
  546MPD2    H3 8160   0.405   3.003   0.594 -1.1377 -3.8154  0.0821
  546MPD2     N 8161   0.543   3.176   0.206 -0.0090 -0.4433  0.5463
  546MPD2    H5 8162   0.604   3.227   0.269 -0.2560 -1.9565  2.0175
  546MPD2    N1 8163   0.208   2.816   0.233 -0.0648  0.2785  0.2617
  546MPD2    H7 8164   0.153   2.763   0.299 -0.5746  0.2128 -0.2170
  547TMC3    C1 8165   0.111   2.693   0.058  0.5846 -0.0192 -0.7007
  547TMC3    C2 8166   0.076   2.684  17.680  0.0815  0.3875  0.1928
  547TMC3    C3 8167   4.702   2.621  17.649  0.0775 -0.2818 -0.2417
  547TMC3    C4 8168   0.037   2.631   0.156  0.6934  0.6888  0.2317
  547TMC3    C5 8169   4.663   2.562   0.117 -0.3777 -0.0387  0.7675
  547TMC3    C6 8170   4.622   2.562  17.743  0.2908 -0.5187  0.2461
  547TMC3     C 8171   0.211   2.790   0.095 -0.9885 -0.2359 -0.2109
  547TMC3     O 8172   0.280   2.828   0.006 -0.3322  0.3479  0.0298
  547TMC3     H 8173   0.134   2.747  17.613 -1.4035  0.0137 -1.4366
  547TMC3    H1 8174   0.060   2.644   0.261  1.8509  0.3451  0.0139
  547TMC3    H2 8175   4.522   2.530  17.715  0.8348 -0.6660 -1.4816
  547TMC3    C7 8176   4.642   2.432   0.175  0.0590 -0.5182 -0.0995
  547TMC3    C8 8177   4.651   2.627  17.516  0.9067 -0.2885  0.4646
  547TMC3    O1 8178   4.680   2.403   0.289  0.0605  0.1533  0.6825
  547TMC3    O2 8179   4.540   2.585  17.492 -0.0215 -0.2795  0.1136
  548MPD2     C 8180   4.392   3.308  12.738 -0.5421 -0.0644 -1.3014
  548MPD2    C1 8181   4.327   3.185  12.726 -0.3050  0.1515 -0.0299
  548MPD2    C2 8182   4.409   3.077  12.751  0.4363 -0.5654  0.0322
  548MPD2    C3 8183   4.545   3.087  12.777  0.2022  0.9711 -0.7095
  548MPD2    C4 8184   4.605   3.210  12.789  0.3390 -0.0092 -0.4772
  548MPD2    C5 8185   4.526   3.316  12.761 -0.6283  0.6099 -0.3129
  548MPD2     H 8186   4.369   2.976  12.748 -1.8383  0.3942 -1.9031
  548MPD2    H1 8187   4.711   3.222  12.806 -0.1417  0.1496  2.3329
  548MPD2    H2 8188   4.340   3.402  12.719 -0.1664  0.4913  0.4129
  548MPD2    H3 8189   4.579   3.411  12.756  1.1099 -0.2777  1.1020
  548MPD2     N 8190   4.612   2.962  12.798  0.2986  0.2126 -0.1825
  548MPD2    H5 8191   4.562   2.874  12.805  0.5276  0.2191  1.5232
  548MPD2    N1 8192   4.188   3.174  12.690  0.2074 -0.0991 -0.5342
  548MPD2    H7 8193   4.143   3.250  12.641 -2.8186 -0.6471  1.3950
  549TMC3    C1 8194   4.000   3.061  12.623 -0.1962  0.0250 -0.3597
  549TMC3    C2 8195   3.956   3.180  12.581  0.7143  0.1338  0.4186
  549TMC3    C3 8196   3.840   3.173  12.513  0.6004 -0.0321  0.2419
  549TMC3    C4 8197   3.932   2.939  12.611 -0.4366  0.4111 -0.0235
  549TMC3    C5 8198   3.815   2.937  12.539 -0.5638  0.2422 -0.3252
  549TMC3    C6 8199   3.772   3.055  12.487  0.3917  0.7134  0.1860
  549TMC3     C 8200   4.122   3.056  12.701  0.1095 -0.2014 -0.3403
  549TMC3     O 8201   4.158   2.954  12.759  0.3145  0.1777  0.0846
  549TMC3     H 8202   3.996   3.280  12.582 -1.1358  0.8828  0.6097
  549TMC3    H1 8203   3.973   2.842  12.635  0.9045  1.0392  0.1646
  549TMC3    H2 8204   3.678   3.068  12.434 -0.2989  0.7812  1.4020
  549TMC3    C7 8205   3.721   2.831  12.561  0.4961  0.0158 -0.4164
  549TMC3    C8 8206   3.750   3.275  12.532 -0.4569  0.4601  0.0627
  549TMC3    O1 8207   3.621   2.820  12.491 -0.0642 -0.2280 -0.0309
  549TMC3    O2 8208   3.686   3.303  12.431 -0.4377  0.3720 -0.2619
  550TMC3    C1 8209   3.346   1.405  12.484 -0.2881 -0.1416  0.1928
  550TMC3    C2 8210   3.309   1.430  12.612  0.3998  0.8780 -0.2565
  550TMC3    C3 8211   3.246   1.546  12.631 -0.4666 -0.0837  0.0744
  550TMC3    C4 8212   3.339   1.501  12.385 -0.0740 -0.0323  0.1184
  550TMC3    C5 8213   3.300   1.626  12.420  0.0897  0.1429 -0.0560
  550TMC3    C6 8214   3.230   1.643  12.538 -1.1696 -0.2608  0.4828
  550TMC3     C 8215   3.421   1.278  12.463  0.6204  0.8877 -0.1832
  550TMC3     O 8216   3.411   1.191  12.553  0.3385 -0.0223 -0.4680
  550TMC3     H 8217   3.309   1.357  12.692  1.4571  0.6891 -0.4288
  550TMC3    H1 8218   3.375   1.491  12.283 -2.1018  0.4719 -0.6478
  550TMC3    H2 8219   3.186   1.738  12.564 -0.4791  0.3527 -0.6186
  550TMC3    C7 8220   3.271   1.717  12.312 -0.0895  0.6615 -0.8943
  550TMC3    C8 8221   3.173   1.563  12.753  0.3528  0.2993 -0.1651
  550TMC3    O1 8222   3.234   1.661  12.210  0.0942  0.1520  0.4374
  550TMC3    O2 8223   3.205   1.496  12.847 -0.3962 -0.5593  0.4037
  551TMC3    C1 8224   0.965   3.750  13.606 -0.6067  0.1312 -0.0864
  551TMC3    C2 8225   1.018   3.810  13.492 -0.4469 -0.0715 -0.4843
  551TMC3    C3 8226   1.090   3.921  13.508 -0.1118 -0.3360 -0.1516
  551TMC3    C4 8227   0.980   3.801  13.729 -0.0366  0.9891  0.0004
  551TMC3    C5 8228   1.057   3.922  13.738 -0.8104  0.1645 -0.7161
  551TMC3    C6 8229   1.098   3.988  13.629  0.1604 -0.1764 -0.6592
  551TMC3     C 8230   0.857   3.661  13.576 -0.0643 -0.3449  0.0953
  551TMC3     O 8231   0.798   3.627  13.677  0.2462  0.1876  0.6743
  551TMC3     H 8232   1.019   3.762  13.395 -3.3568  0.1263 -0.6122
  551TMC3    H1 8233   0.921   3.766  13.812 -0.3703  1.7981  0.1125
  551TMC3    H2 8234   1.178   4.062  13.628  0.0237 -0.0301 -0.9771
  551TMC3    C7 8235   1.073   3.978  13.869  0.2057 -0.0174  0.1808
  551TMC3    C8 8236   1.122   3.984  13.384 -0.2248  0.1766  0.0067
  551TMC3    O1 8237   1.072   3.894  13.961  0.1103 -0.3479  0.0884
  551TMC3    O2 8238   1.154   3.910  13.295  0.1627  0.2399 -0.2431
  552MPD2     C 8239   2.960   1.309  14.393  0.1397  0.5953  0.1047
  552MPD2    C1 8240   2.955   1.176  14.395  0.6350  0.8840 -0.1971
  552MPD2    C2 8241   3.025   1.110  14.494 -0.4668  0.2986  0.1856
  552MPD2    C3 8242   3.078   1.172  14.607 -0.3703  0.5993  0.8629
  552MPD2    C4 8243   3.071   1.300  14.608  0.0430 -0.4427 -0.0096
  552MPD2    C5 8244   3.017   1.368  14.504 -0.3505 -0.4108  0.3110
  552MPD2     H 8245   3.031   1.003  14.476 -1.4288  0.2294  0.2857
  552MPD2    H1 8246   3.124   1.358  14.684  0.1211  0.6408 -0.8891
  552MPD2    H2 8247   2.927   1.371  14.311  1.2540 -1.6798 -2.0737
  552MPD2    H3 8248   3.028   1.476  14.498  0.6284 -0.4946  0.6470
  552MPD2     N 8249   3.149   1.109  14.711 -0.1439 -0.3710  0.3074
  552MPD2    H5 8250   3.199   1.169  14.775  2.3032 -0.4736 -1.4866
  552MPD2    N1 8251   2.878   1.100  14.298 -0.0918  0.8169 -0.1711
  552MPD2    H7 8252   2.879   1.001  14.321 -1.8594  1.0957  1.1249
  553TMC3    C1 8253   2.720   1.055  14.129 -0.8967 -0.0623  0.6700
  553TMC3    C2 8254   2.674   1.097  14.005 -0.2132  0.4956 -0.3982
  553TMC3    C3 8255   2.621   1.008  13.916  0.2037 -0.0227 -0.4825
  553TMC3    C4 8256   2.702   0.929  14.168  0.5703  0.1276 -0.5215
  553TMC3    C5 8257   2.617   0.849  14.094  0.7369 -0.2159 -0.0456
  553TMC3    C6 8258   2.590   0.884  13.968  0.1557  0.1460 -0.3759
  553TMC3     C 8259   2.799   1.154  14.198  0.9893  0.2725  0.0922
  553TMC3     O 8260   2.780   1.270  14.155 -0.1390  0.1145 -0.6313
  553TMC3     H 8261   2.703   1.194  13.965 -0.8547  1.1948  0.8115
  553TMC3    H1 8262   2.736   0.896  14.265 -3.7745 -1.9433  0.2750
  553TMC3    H2 8263   2.563   0.804  13.901 -0.9399  1.1640 -1.1609
  553TMC3    C7 8264   2.629   0.707  14.132  0.0385  0.0778 -0.0248
  553TMC3    C8 8265   2.711   0.989  13.804 -0.0644  0.0869  0.1039
  553TMC3    O1 8266   2.531   0.634  14.125  0.4568  0.1548 -0.2041
  553TMC3    O2 8267   2.819   1.040  13.823 -1.0622  0.0922  0.8460
  554TMC3    C1 8268   4.492   0.103  11.424  0.5949  0.1315 -1.0291
  554TMC3    C2 8269   4.382   0.042  11.372 -0.0723  0.3008  0.7070
  554TMC3    C3 8270   4.307   0.110  11.278 -0.0496 -0.0238 -0.3658
  554TMC3    C4 8271   4.514   0.246  11.402 -0.5194  0.1514 -0.3873
  554TMC3    C5 8272   4.428   0.307  11.313  0.2098 -0.3318  0.9570
  554TMC3    C6 8273   4.327   0.242  11.246 -0.2693  0.4507 -0.5646
  554TMC3     C 8274   4.594   0.042  11.513 -0.2869  0.0741 -0.4263
  554TMC3     O 8275   4.684   0.114  11.555 -0.4375  0.0966  0.4156
  554TMC3     H 8276   4.368   4.677  11.393  0.1602  0.8721  3.7699
  554TMC3    H1 8277   4.601   0.300  11.436  0.8681 -0.8304 -2.3453
  554TMC3    H2 8278   4.267   0.295  11.172 -1.0289  1.5732  0.8372
  554TMC3    C7 8279   4.466   0.426  11.252 -0.2004 -0.3806 -0.8003
  554TMC3    C8 8280   4.190   0.046  11.211 -0.2614  0.2059  0.2557
  554TMC3    O1 8281   4.436   0.442  11.134  0.1348 -0.1401 -0.5466
  554TMC3    O2 8282   4.139   4.687  11.264  0.1552  0.2457 -0.5982
  555TMC3    C1 8283   3.923   4.253  15.171  0.6829 -0.7035 -0.3741
  555TMC3    C2 8284   3.890   4.344  15.264  0.1628  0.4075 -0.2126
  555TMC3    C3 8285   3.883   4.305  15.392 -0.2868 -0.4594  0.2707
  555TMC3    C4 8286   3.955   4.124  15.202  0.7359 -0.2338  0.3592
  555TMC3    C5 8287   3.960   4.090  15.335  0.0078 -0.4611  0.0598
  555TMC3    C6 8288   3.919   4.179  15.432  0.2673 -0.0317 -0.0928
  555TMC3     C 8289   3.943   4.300  15.034  0.0686  0.1262  0.0079
  555TMC3     O 8290   4.026   4.245  14.965  0.6377 -0.2730  0.6273
  555TMC3     H 8291   3.879   4.450  15.242 -0.8139  0.4366  0.4188
  555TMC3    H1 8292   3.988   4.062  15.120 -1.2742 -3.7930  2.2018
  555TMC3    H2 8293   3.922   4.152  15.537 -0.8835 -3.3268 -0.8850
  555TMC3    C7 8294   3.955   3.948  15.371  0.1077 -0.3450  0.0331
  555TMC3    C8 8295   3.850   4.407  15.483 -0.0650  0.6924  0.6839
  555TMC3    O1 8296   3.933   3.920  15.486 -0.9919 -0.3793  0.1966
  555TMC3    O2 8297   3.766   4.491  15.443 -0.2807  0.0172  0.7549
  556MPD2     C 8298   1.495   2.097  10.943 -0.1959 -0.7104  0.6458
  556MPD2    C1 8299   1.525   1.975  10.997  0.5266  0.3388 -0.2858
  556MPD2    C2 8300   1.508   1.866  10.917 -0.9538 -0.4748 -0.4403
  556MPD2    C3 8301   1.488   1.879  10.780 -0.5331 -0.2506  0.0836
  556MPD2    C4 8302   1.468   1.999  10.724 -0.6779 -0.4289  0.5599
  556MPD2    C5 8303   1.481   2.105  10.810 -0.0646 -0.1820 -0.2771
  556MPD2     H 8304   1.511   1.766  10.958 -0.1422 -0.1412  0.2870
  556MPD2    H1 8305   1.449   2.019  10.619 -2.3242 -0.5611  0.8341
  556MPD2    H2 8306   1.494   2.183  11.008  0.9568  0.0773 -0.4016
  556MPD2    H3 8307   1.471   2.206  10.772  1.8566  0.2030  0.2713
  556MPD2     N 8308   1.478   1.764  10.701 -0.1217 -0.5603 -0.6692
  556MPD2    H5 8309   1.510   1.680  10.748  1.7961  0.8534  0.5288
  556MPD2    N1 8310   1.556   1.951  11.131 -0.0662  0.3889 -0.0534
  556MPD2    H7 8311   1.548   1.853  11.158 -3.9610  1.2765  2.0120
  557TMC3    C1 8312   1.447   1.623  10.517  0.1623 -0.1864  0.8131
  557TMC3    C2 8313   1.453   1.610  10.382  0.0109 -0.0602 -0.9972
  557TMC3    C3 8314   1.451   1.483  10.326 -0.1093 -0.3081  0.3346
  557TMC3    C4 8315   1.445   1.513  10.599  0.2336 -0.1806 -0.3328
  557TMC3    C5 8316   1.437   1.388  10.538 -0.6516  1.1601  0.0573
  557TMC3    C6 8317   1.438   1.365  10.406  0.6624  0.1653  0.8175
  557TMC3     C 8318   1.445   1.762  10.567  0.9178 -0.3372 -0.2804
  557TMC3     O 8319   1.406   1.842  10.487  0.2188  0.0817 -0.3732
  557TMC3     H 8320   1.455   1.703  10.326 -0.9515 -0.2810 -1.4112
  557TMC3    H1 8321   1.421   1.524  10.704  0.2576 -0.2097 -0.3243
  557TMC3    H2 8322   1.439   1.266  10.361 -1.2452 -0.1558  1.4878
  557TMC3    C7 8323   1.421   1.264  10.626 -0.3773  0.0709  0.0549
  557TMC3    C8 8324   1.407   1.485  10.183  0.3281  0.1544 -0.6405
  557TMC3    O1 8325   1.353   1.168  10.588 -0.5854  0.2014 -0.5234
  557TMC3    O2 8326   1.415   1.591  10.127  0.3638 -0.1343  0.6382
  558TMC3    C1 8327   3.767   3.612  10.620 -0.5473  0.9845 -0.1479
  558TMC3    C2 8328   3.635   3.636  10.634 -0.6535 -0.1429 -0.9936
  558TMC3    C3 8329   3.578   3.714  10.535 -0.7265 -0.6220 -0.4000
  558TMC3    C4 8330   3.845   3.648  10.516  0.2190  0.3590  0.3706
  558TMC3    C5 8331   3.798   3.741  10.434 -0.4024  0.3081  0.3179
  558TMC3    C6 8332   3.660   3.769  10.440  0.1375  0.0757 -0.2033
  558TMC3     C 8333   3.841   3.594  10.747 -0.0180  0.8589 -0.0619
  558TMC3     O 8334   3.963   3.608  10.747 -0.1140  0.4443 -0.0095
  558TMC3     H 8335   3.566   3.609  10.713 -0.7478 -0.3079 -1.1320
  558TMC3    H1 8336   3.950   3.621  10.509 -0.0341 -0.9655  1.6067
  558TMC3    H2 8337   3.613   3.852  10.388 -0.8010 -1.1366 -1.2593
  558TMC3    C7 8338   3.889   3.836  10.384 -0.0008 -0.2711  0.4458
  558TMC3    C8 8339   3.450   3.775  10.561 -0.3919  0.3950 -0.2159
  558TMC3    O1 8340   3.992   3.847  10.448  0.2680  0.5941  0.0578
  558TMC3    O2 8341   3.385   3.812  10.467 -0.2288 -0.4730 -0.1841
  559MPD2     C 8342   4.024   4.580  10.417  0.4775 -0.6570 -0.4245
  559MPD2    C1 8343   3.930   4.517  10.492  0.1875  1.1388 -0.4190
  559MPD2    C2 8344   3.961   4.482  10.624  0.5813  0.3953  0.4858
  559MPD2    C3 8345   4.094   4.497  10.665 -0.5530 -0.6940  0.2021
  559MPD2    C4 8346   4.190   4.549  10.588  0.3018 -0.3568  0.2592
  559MPD2    C5 8347   4.155   4.591  10.456 -0.2501  0.3639  0.1159
  559MPD2     H 8348   3.895   4.440  10.699  0.0820 -1.3563 -0.9474
  559MPD2    H1 8349   4.294   4.557  10.617 -0.1422  3.1940  0.8694
  559MPD2    H2 8350   4.009   4.607  10.313  1.5164  1.3232 -0.0512
  559MPD2    H3 8351   4.232   4.632  10.392 -0.5463  0.4272 -0.2034
  559MPD2     N 8352   4.119   4.465  10.801 -0.0489  0.6634 -0.1551
  559MPD2    H5 8353   4.041   4.415  10.843 -0.0844  1.2440  0.4567
  559MPD2    N1 8354   3.792   4.508  10.451  0.4697 -0.0305  0.0085
  559MPD2    H7 8355   3.762   4.555  10.366 -0.6136 -2.0058 -0.6883
  560TMC3    C1 8356   4.239   4.423  11.003  0.1129  0.2764  0.3627
  560TMC3    C2 8357   4.122   4.376  11.059  0.2872 -0.0713  0.4386
  560TMC3    C3 8358   4.139   4.315  11.180  0.4990  0.4147  0.4679
  560TMC3    C4 8359   4.360   4.431  11.067 -0.3919  0.3800 -0.5606
  560TMC3    C5 8360   4.367   4.379  11.185 -0.2028  0.6139  0.2892
  560TMC3    C6 8361   4.261   4.323  11.247 -0.2685  0.2545  0.3351
  560TMC3     C 8362   4.234   4.496  10.875 -0.4139  0.1933 -0.1254
  560TMC3     O 8363   4.336   4.567  10.849  0.6280 -0.0672 -0.1508
  560TMC3     H 8364   4.025   4.373  11.010 -0.0265  0.2943  1.0472
  560TMC3    H1 8365   4.450   4.445  11.009 -1.3686  1.3410 -1.8432
  560TMC3    H2 8366   4.274   4.284  11.347 -0.0516 -0.1956  0.1339
  560TMC3    C7 8367   4.501   4.329  11.232 -0.5284 -0.3208  0.7803
  560TMC3    C8 8368   4.031   4.246  11.246  0.0509  0.3220  0.2864
  560TMC3    O1 8369   4.500   4.232  11.309  0.5244  0.3172  0.6700
  560TMC3    O2 8370   3.928   4.248  11.186 -0.0199  0.2172 -0.3404
  561TMC3    C1 8371   2.141   3.920  11.554 -0.4528 -0.5744  0.2188
  561TMC3    C2 8372   2.034   3.834  11.566 -0.0145  0.0597  0.0616
  561TMC3    C3 8373   1.910   3.879  11.606  0.0844 -0.6139 -0.1837
  561TMC3    C4 8374   2.119   4.053  11.552  0.1112  0.0312  0.1331
  561TMC3    C5 8375   1.990   4.097  11.571  0.1858  0.0734  0.3928
  561TMC3    C6 8376   1.885   4.012  11.606  0.5187 -0.4964 -0.3500
  561TMC3     C 8377   2.279   3.875  11.574  0.4666  0.3778 -0.1966
  561TMC3     O 8378   2.289   3.763  11.620 -0.2574  0.5435  0.1366
  561TMC3     H 8379   2.070   3.732  11.574  0.0290 -0.1455 -2.6772
  561TMC3    H1 8380   2.191   4.129  11.524  0.7536 -0.7652 -0.3560
  561TMC3    H2 8381   1.788   4.046  11.640 -0.0565 -2.0101 -0.4674
  561TMC3    C7 8382   1.961   4.235  11.540  0.0956  0.2263  0.2005
  561TMC3    C8 8383   1.825   3.786  11.673 -0.3605  0.5454 -0.9054
  561TMC3    O1 8384   1.849   4.271  11.562 -0.3053 -0.1390 -0.2783
  561TMC3    O2 8385   1.850   3.669  11.651 -0.2421 -0.1148  0.4030
  562TMC3    C1 8386   3.329   0.180  16.784  0.5542 -0.1379  0.4375
  562TMC3    C2 8387   3.243   0.265  16.711 -0.0507 -0.3518 -0.0682
  562TMC3    C3 8388   3.168   0.207  16.612  0.0452  0.3253 -0.2553
  562TMC3    C4 8389   3.340   0.044  16.755 -0.0338 -0.9395 -0.2676
  562TMC3    C5 8390   3.271   0.001  16.645  0.1013  0.1935 -0.0246
  562TMC3    C6 8391   3.177   0.072  16.578 -0.3350 -0.2026 -0.1261
  562TMC3     C 8392   3.362   0.229  16.912  0.0919 -0.6097  0.1463
  562TMC3     O 8393   3.303   0.324  16.959 -0.7521 -0.7216 -0.0070
  562TMC3     H 8394   3.235   0.370  16.736 -2.7195 -0.5831  0.0603
  562TMC3    H1 8395   3.397   4.713  16.814  1.1982  0.7210  0.5329
  562TMC3    H2 8396   3.110   0.019  16.511 -2.4694  1.2671  0.8375
  562TMC3    C7 8397   3.269   4.603  16.615 -0.0715  1.0921 -0.0434
  562TMC3    C8 8398   3.096   0.286  16.519  0.2276  0.2847  0.4092
  562TMC3    O1 8399   3.161   4.553  16.573 -0.1644 -0.0927 -0.1578
  562TMC3    O2 8400   3.001   0.229  16.463 -0.4504  0.1613  0.0716
  563MPD2     C 8401   1.234   0.885  15.683 -0.6613 -0.0711  1.0034
  563MPD2    C1 8402   1.242   0.827  15.803  0.4798  0.4783  0.4805
  563MPD2    C2 8403   1.359   0.767  15.837 -0.1724  0.6165 -0.2681
  563MPD2    C3 8404   1.463   0.767  15.746  0.3781  0.4791  1.0912
  563MPD2    C4 8405   1.453   0.825  15.620 -0.5131 -0.1185  0.2929
  563MPD2    C5 8406   1.338   0.890  15.596  0.1360  0.0832 -0.7919
  563MPD2     H 8407   1.369   0.726  15.937  0.1987 -2.1196 -1.4208
  563MPD2    H1 8408   1.529   0.842  15.544 -2.5690  0.6988 -1.5961
  563MPD2    H2 8409   1.140   0.921  15.644 -1.3631 -0.3378  2.4556
  563MPD2    H3 8410   1.331   0.944  15.502 -1.5633  2.2214  0.5756
  563MPD2     N 8411   1.574   0.694  15.786 -0.2761 -0.0232 -0.3127
  563MPD2    H5 8412   1.562   0.635  15.868 -1.6475 -0.8727 -1.1387
  563MPD2    N1 8413   1.141   0.826  15.903  0.4708  0.3951  0.1005
  563MPD2    H7 8414   1.162   0.773  15.988 -0.7729 -1.4032 -0.7160
  564TMC3    C1 8415   0.948   0.871  16.023  0.2184 -0.6009  0.0568
  564TMC3    C2 8416   0.816   0.856  16.012 -0.6894 -0.0534 -0.6860
  564TMC3    C3 8417   0.755   0.806  16.120  0.1292  0.4479 -0.2504
  564TMC3    C4 8418   1.019   0.868  16.141  0.5573 -0.0887 -0.3396
  564TMC3    C5 8419   0.950   0.818  16.249  0.1454 -0.7422  0.3738
  564TMC3    C6 8420   0.814   0.796  16.244  0.3095  0.2884 -0.2329
  564TMC3     C 8421   1.018   0.889  15.899  0.0978 -0.5653 -0.0564
  564TMC3     O 8422   0.968   0.966  15.821  0.6702 -0.7395  0.1697
  564TMC3     H 8423   0.769   0.845  15.915 -0.4331 -0.4010 -0.7709
  564TMC3    H1 8424   1.125   0.884  16.152  0.8933 -2.4598  0.0157
  564TMC3    H2 8425   0.757   0.771  16.334 -0.4885 -0.0566 -0.8290
  564TMC3    C7 8426   1.023   0.730  16.339  0.1606 -0.5749 -0.7116
  564TMC3    C8 8427   0.673   0.693  16.106  0.1364 -0.9787  0.8070
  564TMC3    O1 8428   1.137   0.750  16.375 -0.1220  0.3102 -0.1931
  564TMC3    O2 8429   0.681   0.605  16.188  0.3519  0.4499  0.5179
  565TMC3    C1 8430   0.753   3.315  10.065  0.2347  0.3814  0.6792
  565TMC3    C2 8431   0.861   3.296  10.150 -0.0166 -0.0553 -0.2568
  565TMC3    C3 8432   0.828   3.238  10.270 -0.2977  0.5294 -0.2794
  565TMC3    C4 8433   0.624   3.289  10.101  0.2697  1.2370 -0.3277
  565TMC3    C5 8434   0.600   3.230  10.223  0.5614 -0.6892 -0.2205
  565TMC3    C6 8435   0.701   3.210  10.315  0.3241 -0.6195  0.0457
  565TMC3     C 8436   0.776   3.412   9.962 -0.1801  0.2969  0.3331
  565TMC3     O 8437   0.884   3.467   9.975 -0.2195 -0.4635 -0.6777
  565TMC3     H 8438   0.963   3.304  10.115  0.2210 -0.0535  0.4319
  565TMC3    H1 8439   0.533   3.302  10.043 -0.1439  1.4788  0.3612
  565TMC3    H2 8440   0.686   3.153  10.406 -1.6655 -1.8741 -1.0580
  565TMC3    C7 8441   0.468   3.181  10.254 -0.0146  0.4006  0.7799
  565TMC3    C8 8442   0.944   3.226  10.356 -0.2386  0.1408  0.2085
  565TMC3    O1 8443   0.400   3.155  10.156  0.0501 -0.0085  0.1252
  565TMC3    O2 8444   1.057   3.215  10.300  0.1500  0.1529 -0.5821
  566MPD2     C 8445   2.913   4.275  14.365  0.8735 -0.1347  1.0665
  566MPD2    C1 8446   2.934   4.353  14.255 -0.0970 -1.1102 -0.0988
  566MPD2    C2 8447   2.827   4.397  14.181 -0.1594  0.8682  0.0459
  566MPD2    C3 8448   2.697   4.353  14.201  0.6671 -0.3249 -0.3050
  566MPD2    C4 8449   2.682   4.283  14.316 -0.1459 -0.0399  0.0842
  566MPD2    C5 8450   2.785   4.251  14.406 -0.3097  0.0803 -0.6489
  566MPD2     H 8451   2.851   4.459  14.095  0.1461  0.0052 -0.4836
  566MPD2    H1 8452   2.581   4.261  14.349 -0.5347 -0.5297 -1.4364
  566MPD2    H2 8453   2.986   4.242  14.438  2.2297  0.2768 -0.1017
  566MPD2    H3 8454   2.766   4.211  14.505 -0.2738  0.2077 -0.5905
  566MPD2     N 8455   2.581   4.389  14.126  0.7840 -0.1010 -0.3494
  566MPD2    H5 8456   2.492   4.354  14.162  1.2609 -1.9485 -0.9501
  566MPD2    N1 8457   3.066   4.374  14.219  0.3172  0.2673  0.6760
  566MPD2    H7 8458   3.129   4.322  14.280  0.3235 -1.3970 -0.7720
  567TMC3    C1 8459   3.261   4.480  14.131  0.1820 -0.4101 -0.4413
  567TMC3    C2 8460   3.324   4.512  14.019 -0.1916  0.4604 -0.6681
  567TMC3    C3 8461   3.461   4.526  14.018 -0.0677  0.4359 -0.7462
  567TMC3    C4 8462   3.332   4.472  14.248  0.7064  0.1097 -0.0440
  567TMC3    C5 8463   3.463   4.502  14.253  0.0456 -0.0136 -0.8377
  567TMC3    C6 8464   3.532   4.516  14.135 -0.4994  0.2925  0.1627
  567TMC3     C 8465   3.115   4.462  14.130 -0.0731 -0.1243  0.3580
  567TMC3     O 8466   3.064   4.492  14.023  0.0070 -0.5103 -0.5236
  567TMC3     H 8467   3.264   4.526  13.930 -1.5006 -1.4090 -0.0649
  567TMC3    H1 8468   3.277   4.467  14.340  1.2837  3.0016  0.4557
  567TMC3    H2 8469   3.640   4.519  14.131 -0.6011 -0.0203 -2.5716
  567TMC3    C7 8470   3.538   4.452  14.370  0.6598  0.5475 -1.0471
  567TMC3    C8 8471   3.513   4.594  13.901 -0.8506  0.3696 -0.2863
  567TMC3    O1 8472   3.657   4.439  14.349 -0.6515 -0.0618  0.7646
  567TMC3    O2 8473   3.426   4.626  13.819  0.2098  0.1072 -0.1459
  568MPD2     C 8474   0.693   3.951  16.294 -0.2597 -0.4824 -0.5053
  568MPD2    C1 8475   0.723   4.046  16.383 -0.1090  0.5401  0.5082
  568MPD2    C2 8476   0.674   4.175  16.362 -0.4301 -0.2442  0.3367
  568MPD2    C3 8477   0.589   4.208  16.257  0.3464  0.1820  0.7277
  568MPD2    C4 8478   0.584   4.114  16.155 -0.5605  0.3871  0.0092
  568MPD2    C5 8479   0.628   3.988  16.177  0.3821 -0.0536  0.4480
  568MPD2     H 8480   0.679   4.249  16.442  1.8538  0.1939 -0.2316
  568MPD2    H1 8481   0.536   4.131  16.058 -3.9966 -0.4051  1.5609
  568MPD2    H2 8482   0.727   3.848  16.296  2.0495  0.3118  0.7625
  568MPD2    H3 8483   0.620   3.911  16.101  2.5640  0.5499 -0.3852
  568MPD2     N 8484   0.535   4.333  16.241 -0.1017  0.1194  0.4033
  568MPD2    H5 8485   0.559   4.404  16.309 -1.9969 -2.0313  3.3450
  568MPD2    N1 8486   0.788   4.020  16.504 -0.5150 -0.2512  0.0540
  568MPD2    H7 8487   0.811   3.922  16.518 -2.1440 -0.6909 -0.3102
  569TMC3    C1 8488   0.444   4.525  16.139  0.1197  0.5828 -0.6134
  569TMC3    C2 8489   0.422   4.560  16.269  0.3459  0.8795  0.1070
  569TMC3    C3 8490   0.440   4.697  16.285  0.8582  0.3161 -0.5199
  569TMC3    C4 8491   0.485   4.610  16.038  0.6239 -0.4716  0.3373
  569TMC3    C5 8492   0.510   0.006  16.065 -0.4993 -0.0631  0.0954
  569TMC3    C6 8493   0.485   0.045  16.189  0.2886  0.0572 -0.3024
  569TMC3     C 8494   0.468   4.384  16.124  0.5506  0.2579  0.1529
  569TMC3     O 8495   0.434   4.330  16.019 -0.4743 -0.5424  0.3201
  569TMC3     H 8496   0.378   4.498  16.346  1.1547 -1.2247 -1.1229
  569TMC3    H1 8497   0.489   4.557  15.944 -1.8653 -0.9666  0.5019
  569TMC3    H2 8498   0.493   0.150  16.215 -2.0132  0.0334  0.4970
  569TMC3    C7 8499   0.491   0.099  15.951  0.1247  0.4397 -0.0159
  569TMC3    C8 8500   0.408   0.003  16.422 -0.2027  0.3628  0.6456
  569TMC3    O1 8501   0.433   0.056  15.851 -0.2832  0.6281 -0.6162
  569TMC3    O2 8502   0.362   4.671  16.509  0.2071 -0.3139  0.4513
  570TMC3    C1 8503   0.242   3.431  16.389  0.6214  0.1998  0.1754
  570TMC3    C2 8504   0.285   3.457  16.261 -0.6227  0.0761 -0.4382
  570TMC3    C3 8505   0.391   3.542  16.252  0.3412  0.6489  0.0454
  570TMC3    C4 8506   0.292   3.499  16.496 -1.1545  0.7160  0.0979
  570TMC3    C5 8507   0.374   3.603  16.479 -0.6740  0.2379  0.2133
  570TMC3    C6 8508   0.438   3.614  16.361 -0.2683  0.2548 -0.1656
  570TMC3     C 8509   0.118   3.368  16.413 -0.4652 -0.1623  0.8540
  570TMC3     O 8510   0.045   3.354  16.316 -0.2471  0.5065  0.4684
  570TMC3     H 8511   0.236   3.409  16.177  1.5846 -1.7181 -0.6664
  570TMC3    H1 8512   0.246   3.493  16.594  1.2261 -1.6279  1.0615
  570TMC3    H2 8513   0.518   3.687  16.359  2.0910 -2.3202  0.7344
  570TMC3    C7 8514   0.419   3.670  16.605  0.7757  0.6022 -0.9288
  570TMC3    C8 8515   0.467   3.566  16.127  0.1665 -1.1043  0.1102
  570TMC3    O1 8516   0.388   3.621  16.712  0.1469  0.6859 -0.2686
  570TMC3    O2 8517   0.555   3.653  16.137  0.1996 -0.1952  0.2404
  571MPD2     C 8518   3.093   0.922   1.583  0.0893 -0.2134  0.9323
  571MPD2    C1 8519   3.100   0.849   1.466 -0.3367 -0.0015  0.7549
  571MPD2    C2 8520   2.996   0.860   1.377 -0.2325 -0.6388  0.2508
  571MPD2    C3 8521   2.896   0.960   1.406  1.4443  0.7666  0.0960
  571MPD2    C4 8522   2.892   1.032   1.522 -0.7304  0.1254 -0.4173
  571MPD2    C5 8523   2.984   1.007   1.618 -0.1432  0.0085 -0.9889
  571MPD2     H 8524   2.995   0.812   1.281 -2.6410  0.7478 -0.4327
  571MPD2    H1 8525   2.813   1.101   1.546 -1.0657  0.2099 -1.7798
  571MPD2    H2 8526   3.175   0.915   1.654  0.7393  1.6334  0.3848
  571MPD2    H3 8527   2.972   1.056   1.714 -0.7049 -1.8525 -0.1026
  571MPD2     N 8528   2.793   0.982   1.310 -0.1830  0.3987  0.0801
  571MPD2    H5 8529   2.725   1.049   1.341 -0.2126 -0.5340  2.0231
  571MPD2    N1 8530   3.214   0.769   1.453 -0.1707 -0.2666  0.0692
  571MPD2    H7 8531   3.277   0.761   1.532  1.2897  1.0728 -0.9496
  572TMC3    C1 8532   2.692   1.016   1.108 -0.3684  0.1088  0.2064
  572TMC3    C2 8533   2.582   1.064   1.175  0.4555 -0.2749  0.0603
  572TMC3    C3 8534   2.512   1.169   1.132 -0.2769  0.0858  0.3016
  572TMC3    C4 8535   2.731   1.076   0.986 -0.4629  0.1166  0.9669
  572TMC3    C5 8536   2.663   1.190   0.958 -0.4989  0.7356  0.2545
  572TMC3    C6 8537   2.548   1.237   1.021  0.3247  0.1098  0.0255
  572TMC3     C 8538   2.798   0.948   1.180  0.0561 -0.2905  0.3363
  572TMC3     O 8539   2.898   0.905   1.118 -0.1982 -0.7189  0.2293
  572TMC3     H 8540   2.565   1.029   1.276  0.1124 -1.6293 -0.4676
  572TMC3    H1 8541   2.821   1.039   0.938 -0.3760 -0.3420  1.4842
  572TMC3    H2 8542   2.490   1.320   0.983 -0.4552  0.3328  1.7144
  572TMC3    C7 8543   2.711   1.257   0.841 -0.4533 -0.2010 -0.0618
  572TMC3    C8 8544   2.386   1.187   1.202 -0.1988 -0.3226  0.0389
  572TMC3    O1 8545   2.764   1.192   0.754  0.6094  0.8215 -0.0636
  572TMC3    O2 8546   2.338   1.300   1.213  0.1630  0.4104  0.4273
  573MPD2     C 8547   3.732   0.620   0.200  0.2541 -0.4807 -0.1322
  573MPD2    C1 8548   3.640   0.677   0.114  0.2037  0.0679 -0.1835
  573MPD2    C2 8549   3.686   0.711  17.748 -0.0670  0.6460 -0.0482
  573MPD2    C3 8550   3.815   0.678  17.704  0.4690 -0.2038 -0.4528
  573MPD2    C4 8551   3.908   0.626   0.037 -0.0738 -0.7913  0.0844
  573MPD2    C5 8552   3.862   0.597   0.158  0.0895  0.0465  0.0018
  573MPD2     H 8553   3.613   0.746  17.676 -0.1256  1.8906  0.5982
  573MPD2    H1 8554   4.012   0.615   0.008  0.1170 -0.6658  0.7305
  573MPD2    H2 8555   3.707   0.592   0.302 -0.5890 -2.9470 -1.0267
  573MPD2    H3 8556   3.936   0.571   0.233 -1.0843  1.7019  1.7257
  573MPD2     N 8557   3.831   0.695  17.562 -0.3699 -0.3609  0.8722
  573MPD2    H5 8558   3.746   0.720  17.514  0.4321  2.5310  0.9797
  573MPD2    N1 8559   3.506   0.706   0.155  0.2960 -0.1233  0.1124
  573MPD2    H7 8560   3.488   0.683   0.252 -0.8782  1.5700  0.3116
  574TMC3    C1 8561   3.909   0.691  17.343 -0.5258  1.2236 -0.3892
  574TMC3    C2 8562   3.811   0.767  17.294 -0.2198  1.1642 -0.2222
  574TMC3    C3 8563   3.809   0.784  17.159 -0.0789  0.6007  0.0329
  574TMC3    C4 8564   3.998   0.622  17.267  0.4673 -0.8636 -0.6881
  574TMC3    C5 8565   3.995   0.637  17.129 -0.4795 -0.6151 -0.0947
  574TMC3    C6 8566   3.898   0.717  17.076  0.3649  0.2588 -0.4819
  574TMC3     C 8567   3.942   0.671  17.486  0.0524  1.1886  0.7622
  574TMC3     O 8568   4.048   0.630  17.523 -0.1573  0.1260 -0.1697
  574TMC3     H 8569   3.740   0.821  17.356  0.1901  0.7575  0.6130
  574TMC3    H1 8570   4.077   0.564  17.313  0.7782  0.0764 -0.0410
  574TMC3    H2 8571   3.903   0.747  16.972  0.5643  0.0671 -0.5281
  574TMC3    C7 8572   4.092   0.570  17.040 -0.4134 -0.3860 -0.6910
  574TMC3    C8 8573   3.716   0.882  17.105  0.0570 -0.3755  0.2616
  574TMC3    O1 8574   4.193   0.519  17.090 -0.8967  0.2105 -0.0719
  574TMC3    O2 8575   3.679   0.972  17.177 -0.0452 -0.1808 -0.1343
  575TMC3    C1 8576   1.697   2.882  10.630 -0.2787  0.3661 -0.1691
  575TMC3    C2 8577   1.711   2.769  10.559  0.2988  0.5921 -0.3256
  575TMC3    C3 8578   1.603   2.707  10.498 -0.6151  0.1654 -0.3316
  575TMC3    C4 8579   1.571   2.931  10.650 -0.3577 -0.6089 -0.0110
  575TMC3    C5 8580   1.464   2.862  10.604  0.2091  0.0139  0.0837
  575TMC3    C6 8581   1.474   2.753  10.519 -0.2473  0.3072 -0.1580
  575TMC3     C 8582   1.812   2.966  10.656  0.6791  0.7399  0.0110
  575TMC3     O 8583   1.915   2.949  10.587 -0.3349 -0.3394  0.2452
  575TMC3     H 8584   1.812   2.734  10.544 -0.5910 -2.5033  0.8082
  575TMC3    H1 8585   1.555   3.030  10.692 -0.7389 -0.0950 -1.3854
  575TMC3    H2 8586   1.390   2.696  10.483  1.7071 -3.1816  0.8059
  575TMC3    C7 8587   1.351   2.950  10.582  0.2520 -0.1656  0.1574
  575TMC3    C8 8588   1.623   2.600  10.404  0.1950  0.4696 -0.8777
  575TMC3    O1 8589   1.301   2.930  10.474  0.0442 -0.0164  0.0829
  575TMC3    O2 8590   1.524   2.537  10.378  0.8332  0.1924  0.2028
  576MPD2     C 8591   1.071   3.846  12.912 -0.4993 -0.5021  0.5971
  576MPD2    C1 8592   1.069   3.969  12.851  0.4865 -0.4997 -0.1890
  576MPD2    C2 8593   0.996   4.070  12.906  0.3380 -0.3938 -0.8307
  576MPD2    C3 8594   0.942   4.047  13.031 -0.1061 -0.2298 -0.5340
  576MPD2    C4 8595   0.942   3.921  13.091  0.1074  0.3588  0.3893
  576MPD2    C5 8596   1.004   3.822  13.030  0.1016 -0.3032  0.1788
  576MPD2     H 8597   1.002   4.165  12.855 -2.1187  0.4306  0.4066
  576MPD2    H1 8598   0.894   3.902  13.186 -1.5663  0.0062 -0.5070
  576MPD2    H2 8599   1.132   3.768  12.868 -0.6558 -0.1770 -0.1969
  576MPD2    H3 8600   1.020   3.728  13.081 -2.9478 -0.8563  0.0922
  576MPD2     N 8601   0.896   4.165  13.089 -0.1391  0.6578 -0.4468
  576MPD2    H5 8602   0.928   4.251  13.045 -0.5436  1.3365  0.5889
  576MPD2    N1 8603   1.140   3.996  12.731 -0.7052  0.0890  0.2257
  576MPD2    H7 8604   1.139   4.092  12.696 -0.1626  0.1515  0.3836
  577TMC3    C1 8605   1.278   3.964  12.552 -0.1481 -0.0897  0.1727
  577TMC3    C2 8606   1.382   3.895  12.506 -0.4193  0.1288 -1.0230
  577TMC3    C3 8607   1.460   3.953  12.407  1.1602  0.1797  0.2188
  577TMC3    C4 8608   1.242   4.083  12.493  0.9256 -0.2434 -0.0948
  577TMC3    C5 8609   1.326   4.145  12.403 -0.3984  0.0468 -0.8190
  577TMC3    C6 8610   1.434   4.075  12.352 -0.5524 -0.2389  0.0624
  577TMC3     C 8611   1.216   3.907  12.667 -0.0323  0.2825  0.6421
  577TMC3     O 8612   1.220   3.782  12.670 -0.1994 -0.9578  0.0547
  577TMC3     H 8613   1.396   3.790  12.531 -0.2308  0.3604 -0.1664
  577TMC3    H1 8614   1.150   4.132  12.524  1.6746  0.9194  0.2758
  577TMC3    H2 8615   1.500   4.121  12.279  0.7980 -3.0896 -0.5590
  577TMC3    C7 8616   1.259   4.240  12.315  0.1830 -0.4574 -0.1846
  577TMC3    C8 8617   1.537   3.858  12.333  0.1781  0.0734  0.5142
  577TMC3    O1 8618   1.138   4.227  12.296 -0.0530 -0.6465  0.3737
  577TMC3    O2 8619   1.561   3.757  12.398 -0.0207 -0.2405 -0.0338
  578MPD2     C 8620   4.254   3.304   0.968  0.7483 -0.3154 -0.4741
  578MPD2    C1 8621   4.347   3.207   0.956 -0.0049  0.1315  0.7993
  578MPD2    C2 8622   4.437   3.187   1.062 -0.0348 -0.4273  0.5980
  578MPD2    C3 8623   4.435   3.264   1.178 -0.5513  0.5544 -0.7616
  578MPD2    C4 8624   4.331   3.351   1.185 -0.1348  0.0637 -0.3174
  578MPD2    C5 8625   4.250   3.379   1.081 -0.1999 -0.5952  0.0781
  578MPD2     H 8626   4.507   3.105   1.061  0.7187  0.2461 -2.4890
  578MPD2    H1 8627   4.333   3.420   1.268  0.9068 -2.2468  1.5475
  578MPD2    H2 8628   4.189   3.327   0.885 -0.0832 -0.6021  0.0951
  578MPD2    H3 8629   4.177   3.460   1.080 -0.0516 -0.4534  0.7055
  578MPD2     N 8630   4.536   3.246   1.277  0.2581  0.2623  0.0029
  578MPD2    H5 8631   4.609   3.182   1.247 -0.8577 -0.0586 -2.0558
  578MPD2    N1 8632   4.355   3.136   0.834  0.6782  0.6996 -0.3038
  578MPD2    H7 8633   4.294   3.164   0.757  0.4027  0.1694 -0.2734
  579TMC3    C1 8634   4.682   3.291   1.452  0.4581 -0.0710 -0.1245
  579TMC3    C2 8635   0.021   3.387   1.513  0.0800 -0.0860  0.0198
  579TMC3    C3 8636   0.115   3.350   1.594  0.3709  0.1163  0.3861
  579TMC3    C4 8637   4.695   3.164   1.480  0.0109  0.0664 -0.6498
  579TMC3    C5 8638   0.053   3.128   1.563  0.1610  0.7270  0.3041
  579TMC3    C6 8639   0.131   3.218   1.626  0.3926  0.1234  0.1536
  579TMC3     C 8640   4.559   3.331   1.380  0.0717 -0.0669  0.1167
  579TMC3     O 8641   4.500   3.431   1.419 -0.5642 -0.0481  0.0667
  579TMC3     H 8642   0.001   3.493   1.501  1.4893  0.0671 -0.9909
  579TMC3    H1 8643   4.613   3.098   1.452  0.7613 -0.9998 -0.3229
  579TMC3    H2 8644   0.205   3.193   1.702 -0.0625 -1.5332  0.0478
  579TMC3    C7 8645   0.107   2.997   1.545 -0.0599 -0.5428 -0.0089
  579TMC3    C8 8646   0.185   3.454   1.668 -0.1755  0.5164  0.4295
  579TMC3    O1 8647   0.217   2.981   1.580  0.6681  0.1393 -0.1679
  579TMC3    O2 8648   0.108   3.547   1.703 -0.1631  0.3082 -0.3994
  580TMC3    C1 8649   3.392   2.522  12.389 -0.3207  0.1153 -0.4796
  580TMC3    C2 8650   3.483   2.564  12.301  0.0251  0.3347 -0.0410
  580TMC3    C3 8651   3.615   2.506  12.294 -0.0751 -0.2440  0.7588
  580TMC3    C4 8652   3.428   2.421  12.479  0.1845  0.0519 -0.0094
  580TMC3    C5 8653   3.549   2.356  12.454  0.5033 -0.2723 -0.9435
  580TMC3    C6 8654   3.651   2.398  12.368  0.5453  0.5148 -0.0719
  580TMC3     C 8655   3.298   2.616  12.455  0.5383 -0.4443 -0.5143
  580TMC3     O 8656   3.251   2.590  12.564  0.3462 -0.1882  0.8501
  580TMC3     H 8657   3.452   2.618  12.212  0.8835  2.2062  0.8064
  580TMC3    H1 8658   3.356   2.400  12.557  0.7090  1.1049  0.7480
  580TMC3    H2 8659   3.754   2.364  12.373 -0.3965 -2.6058 -1.5931
  580TMC3    C7 8660   3.578   2.256  12.555  0.4429 -0.0553  0.6158
  580TMC3    C8 8661   3.714   2.594  12.237  0.1858  0.0254  0.6547
  580TMC3    O1 8662   3.498   2.245  12.644  0.3226 -0.1834  0.6250
  580TMC3    O2 8663   3.669   2.643  12.135 -0.0906  0.6397 -0.2790
  581MPD2     C 8664   1.421   2.314  15.279 -0.0129  0.0874 -0.4751
  581MPD2    C1 8665   1.540   2.267  15.212 -0.8067 -0.5539  0.5005
  581MPD2    C2 8666   1.611   2.357  15.131  0.4142 -0.5645 -0.1746
  581MPD2    C3 8667   1.574   2.491  15.114 -0.2571 -0.0771 -0.9243
  581MPD2    C4 8668   1.457   2.528  15.177  0.7778  0.6740  0.2344
  581MPD2    C5 8669   1.381   2.444  15.256 -0.2562 -0.2643  0.7205
  581MPD2     H 8670   1.693   2.316  15.073  1.0355  0.6014 -0.1200
  581MPD2    H1 8671   1.409   2.624  15.167  2.3551  1.2149 -2.1101
  581MPD2    H2 8672   1.361   2.245  15.337  1.4772  0.7327  1.8389
  581MPD2    H3 8673   1.288   2.483  15.295 -1.1917 -1.9428  0.1272
  581MPD2     N 8674   1.642   2.579  15.026  0.8590 -0.4947 -0.2212
  581MPD2    H5 8675   1.712   2.542  14.963  1.0336 -1.1082  0.3317
  581MPD2    N1 8676   1.592   2.137  15.249  0.0933 -0.2571 -0.3058
  581MPD2    H7 8677   1.537   2.082  15.314  0.8605 -2.2622 -1.3543
  582TMC3    C1 8678   1.755   1.999  15.320 -0.4463  0.5489  0.4982
  582TMC3    C2 8679   1.858   2.037  15.403  0.0119  0.1296 -0.0607
  582TMC3    C3 8680   1.846   2.017  15.535  0.1348 -1.3241  0.5523
  582TMC3    C4 8681   1.639   1.934  15.363  0.0855  0.0624 -0.0892
  582TMC3    C5 8682   1.626   1.929  15.499  0.6340  0.6503  0.5602
  582TMC3    C6 8683   1.726   1.965  15.584 -0.0665  0.3440  0.3915
  582TMC3     C 8684   1.724   2.101  15.226 -0.4210  0.0357 -0.1920
  582TMC3     O 8685   1.822   2.160  15.183 -0.0021  0.1506 -0.2491
  582TMC3     H 8686   1.946   2.088  15.365  0.8927  0.4450  2.4467
  582TMC3    H1 8687   1.560   1.886  15.307  1.3093 -0.3473 -1.4566
  582TMC3    H2 8688   1.716   1.968  15.692 -5.2325 -1.3028 -0.0307
  582TMC3    C7 8689   1.498   1.992  15.545 -0.2382 -0.2214 -0.3143
  582TMC3    C8 8690   1.888   2.125  15.612  0.1511  0.4044  0.1071
  582TMC3    O1 8691   1.394   1.940  15.494  0.1822  0.0201  0.6442
  582TMC3    O2 8692   1.797   2.171  15.681  0.0607  0.6300 -0.7240
  583MPD2     C 8693   2.268   3.677  17.051  0.0893 -0.9279  0.5438
  583MPD2    C1 8694   2.243   3.785  16.967  0.1765 -0.1630  0.9345
  583MPD2    C2 8695   2.157   3.883  17.018  0.3534  0.1036 -0.6701
  583MPD2    C3 8696   2.104   3.887  17.144 -0.4138 -0.3234  0.1415
  583MPD2    C4 8697   2.122   3.768  17.218 -0.2564  0.1564  0.2333
  583MPD2    C5 8698   2.207   3.667  17.177 -0.0320  0.4073 -0.0940
  583MPD2     H 8699   2.156   3.972  16.957 -2.3543 -0.0507 -0.8518
  583MPD2    H1 8700   2.080   3.754  17.316  0.5127  0.4600  0.6049
  583MPD2    H2 8701   2.340   3.602  17.021  0.8972 -0.1454  0.5216
  583MPD2    H3 8702   2.226   3.580  17.239 -0.7845  1.2906  1.3831
  583MPD2     N 8703   2.030   4.000  17.191 -0.4569 -0.1762 -0.6114
  583MPD2    H5 8704   2.020   4.076  17.125  1.4941  0.1501 -0.5262
  583MPD2    N1 8705   2.300   3.805  16.838 -0.9233  0.1367  0.4540
  583MPD2    H7 8706   2.274   3.888  16.786  0.0681  0.4207  0.4016
  584TMC3    C1 8707   1.907   4.144  17.339 -0.4249 -0.3217  0.3961
  584TMC3    C2 8708   1.907   4.246  17.247  0.5418 -0.5947 -0.4884
  584TMC3    C3 8709   1.834   4.357  17.288  0.2520 -0.5495  0.8759
  584TMC3    C4 8710   1.857   4.162  17.468  0.4465  0.6648 -0.3482
  584TMC3    C5 8711   1.809   4.276  17.505 -0.1852 -0.2858  0.0526
  584TMC3    C6 8712   1.781   4.377  17.417  0.2742 -0.1740 -0.1548
  584TMC3     C 8713   1.982   4.018  17.319 -0.2592  0.0904  0.5050
  584TMC3     O 8714   1.987   3.936  17.416 -0.1984  0.6058 -0.5775
  584TMC3     H 8715   1.948   4.237  17.147 -0.4407 -1.3416 -0.8251
  584TMC3    H1 8716   1.867   4.076  17.534  0.1394  2.4598  2.0448
  584TMC3    H2 8717   1.718   4.461  17.444  1.0153  0.1686  0.5251
  584TMC3    C7 8718   1.757   4.282  17.640  0.1565  0.7503 -0.3096
  584TMC3    C8 8719   1.797   4.448  17.180  0.6132 -0.3015  0.1849
  584TMC3    O1 8720   1.771   4.177  17.708  0.3145 -0.3448  0.1016
  584TMC3    O2 8721   1.789   4.390  17.072 -0.2070  0.6004 -0.7714
  585MPD2     C 8722   1.539   2.755   1.221 -0.7409  1.0177  0.9110
  585MPD2    C1 8723   1.624   2.805   1.126 -0.1626 -0.1219  0.5369
  585MPD2    C2 8724   1.592   2.790   0.988 -0.2509  1.2898 -0.4455
  585MPD2    C3 8725   1.468   2.750   0.952 -0.2052  0.4531  0.0716
  585MPD2    C4 8726   1.379   2.729   1.053  0.5071 -0.2218 -0.3810
  585MPD2    C5 8727   1.414   2.719   1.181  0.1608 -0.1229  0.1467
  585MPD2     H 8728   1.669   2.792   0.912 -0.5910  2.3273 -0.7529
  585MPD2    H1 8729   1.277   2.711   1.021  0.6151  0.4772 -1.1275
  585MPD2    H2 8730   1.552   2.764   1.328 -1.6974 -2.3574  1.2974
  585MPD2    H3 8731   1.341   2.699   1.259 -0.4543  0.8062 -0.1868
  585MPD2     N 8732   1.426   2.727   0.818  0.2269 -0.4596  0.1997
  585MPD2    H5 8733   1.334   2.683   0.816 -0.4781  1.0373 -0.0189
  585MPD2    N1 8734   1.755   2.853   1.167 -0.2093 -0.2130  0.1581
  585MPD2    H7 8735   1.783   2.828   1.262 -1.5851 -2.6493 -0.0623
  586TMC3    C1 8736   1.445   2.713   0.583 -1.1835  0.0242 -0.0053
  586TMC3    C2 8737   1.534   2.704   0.482 -0.5027 -0.4675 -0.0544
  586TMC3    C3 8738   1.486   2.737   0.360 -0.5925  0.6097  0.2294
  586TMC3    C4 8739   1.314   2.757   0.573 -0.2847 -0.7437  0.0425
  586TMC3    C5 8740   1.282   2.795   0.450  0.5190 -0.4660  0.2784
  586TMC3    C6 8741   1.365   2.792   0.338  0.3151  0.2918  0.1592
  586TMC3     C 8742   1.505   2.757   0.704 -0.2397  0.0306 -0.1516
  586TMC3     O 8743   1.621   2.792   0.695  0.1664 -0.1095  0.0416
  586TMC3     H 8744   1.631   2.655   0.485 -1.3265 -1.9997  1.6825
  586TMC3    H1 8745   1.237   2.771   0.648  0.3021  0.9816  0.3284
  586TMC3    H2 8746   1.326   2.812   0.239  1.0367  0.0029 -0.1801
  586TMC3    C7 8747   1.142   2.813   0.419  0.3086 -0.4012 -0.5210
  586TMC3    C8 8748   1.568   2.693   0.251 -0.3604 -0.7094  0.3284
  586TMC3    O1 8749   1.061   2.762   0.488 -0.1038  0.7802  0.3391
  586TMC3    O2 8750   1.649   2.606   0.276  0.9124  0.5918  0.1937
  587TMC3    C1 8751   3.446   1.561  16.311  0.4049 -0.0615  0.1758
  587TMC3    C2 8752   3.458   1.698  16.292  0.5807  0.3712  0.9938
  587TMC3    C3 8753   3.590   1.745  16.298  0.2183 -0.3414 -0.5510
  587TMC3    C4 8754   3.554   1.481  16.324  0.3618  0.3428  0.2884
  587TMC3    C5 8755   3.681   1.532  16.336  0.2619  0.6798  0.3967
  587TMC3    C6 8756   3.704   1.666  16.314  0.1027 -0.6106  0.1227
  587TMC3     C 8757   3.312   1.510  16.313 -0.3589 -0.0497 -0.8041
  587TMC3     O 8758   3.226   1.596  16.310  0.2856 -0.0404  0.1394
  587TMC3     H 8759   3.374   1.765  16.280  0.3817 -0.2064 -0.8524
  587TMC3    H1 8760   3.548   1.374  16.341  0.9968  0.0830 -1.1319
  587TMC3    H2 8761   3.803   1.707  16.331 -1.1839  2.3519  0.5244
  587TMC3    C7 8762   3.799   1.445  16.354  0.4147 -0.3314  0.7110
  587TMC3    C8 8763   3.616   1.888  16.272 -0.2032 -0.4477 -0.2655
  587TMC3    O1 8764   3.804   1.331  16.304 -0.1179  0.0371  0.2518
  587TMC3    O2 8765   3.726   1.924  16.232 -0.0304  0.4767 -0.0070
  588TMC3    C1 8766   0.628   4.682  10.331  0.4257 -0.4533 -0.5024
  588TMC3    C2 8767   0.643   4.551  10.302 -0.5225  0.3400 -0.0948
  588TMC3    C3 8768   0.743   4.483  10.371  0.1045 -0.3309  0.3466
  588TMC3    C4 8769   0.718   0.006  10.420  0.5876  0.3639  0.3463
  588TMC3    C5 8770   0.817   4.675  10.486  0.5982 -0.1954  0.0961
  588TMC3    C6 8771   0.835   4.541  10.457  0.4306  0.3146 -0.1142
  588TMC3     C 8772   0.540   0.027  10.252  0.1936 -0.1965  0.2589
  588TMC3     O 8773   0.472   4.724  10.162  0.4175 -0.2215  0.2095
  588TMC3     H 8774   0.574   4.493  10.240  1.2656 -2.1092  0.2177
  588TMC3    H1 8775   0.735   0.111  10.401  1.5804  0.0870 -0.2529
  588TMC3    H2 8776   0.921   4.487  10.494 -2.1448 -0.6525  4.5329
  588TMC3    C7 8777   0.923   0.009  10.556 -0.3137 -0.5854  0.3000
  588TMC3    C8 8778   0.721   4.335  10.373 -0.4171 -0.1393  0.0506
  588TMC3    O1 8779   1.041   4.714  10.550 -0.1872  0.2796 -0.5093
  588TMC3    O2 8780   0.635   4.290  10.304  0.2755  0.0071 -0.5187
  589TMC3    C1 8781   4.654   1.480   0.963 -0.5463  0.2130 -0.2954
  589TMC3    C2 8782   4.726   1.485   1.085 -0.0883 -0.4586 -0.7781
  589TMC3    C3 8783   0.119   1.443   1.094 -0.8234  0.3560 -0.7117
  589TMC3    C4 8784   4.720   1.422   0.860  0.1420 -0.1446 -0.3882
  589TMC3    C5 8785   0.102   1.374   0.869  0.3242  1.2512 -1.3023
  589TMC3    C6 8786   0.163   1.372   0.987 -0.7396  0.2440 -0.6172
  589TMC3     C 8787   4.516   1.510   0.942 -0.3929 -0.4272  1.0731
  589TMC3     O 8788   4.474   1.493   0.830 -0.1004 -0.9119 -0.1964
  589TMC3     H 8789   4.681   1.539   1.167  0.3431 -1.6093  0.2310
  589TMC3    H1 8790   4.671   1.401   0.765  0.1913 -2.5886  0.1164
  589TMC3    H2 8791   0.246   1.303   0.995 -0.0081  0.9799 -2.0552
  589TMC3    C7 8792   0.131   1.274   0.767 -0.6699  0.6218  0.5622
  589TMC3    C8 8793   0.191   1.463   1.218 -0.1978  0.6187  0.6764
  589TMC3    O1 8794   0.036   1.212   0.715 -0.1889 -0.4724  0.1273
  589TMC3    O2 8795   0.127   1.514   1.308  0.6988 -0.0963  0.3972
  590MPD2     C 8796   4.447   0.163  16.761  0.1721 -0.4725  0.1407
  590MPD2    C1 8797   4.390   0.190  16.641 -0.0159  0.2244  0.0452
  590MPD2    C2 8798   4.472   0.203  16.530 -0.0847  0.7381 -0.2347
  590MPD2    C3 8799   4.609   0.190  16.542 -0.1922  0.0177  0.6909
  590MPD2    C4 8800   4.661   0.189  16.664 -0.6387 -0.1585  0.2023
  590MPD2    C5 8801   4.585   0.171  16.774  0.1036  0.2785  0.4436
  590MPD2     H 8802   4.430   0.229  16.433 -0.7999 -0.2853 -0.1995
  590MPD2    H1 8803   0.028   0.199  16.682 -0.5402  1.7061 -1.3507
  590MPD2    H2 8804   4.386   0.155  16.850 -0.8500  1.5989 -0.3785
  590MPD2    H3 8805   4.642   0.162  16.866 -0.6103  0.3986  0.8974
  590MPD2     N 8806   4.685   0.197  16.429  0.1669  0.2475 -0.6661
  590MPD2    H5 8807   4.643   0.178  16.339 -1.4373 -0.3409  0.2221
  590MPD2    N1 8808   4.249   0.203  16.636 -0.3473  0.1496  0.3006
  590MPD2    H7 8809   4.196   0.198  16.723 -0.2577 -0.2106  0.3356
  591TMC3    C1 8810   0.120   0.237  16.277 -1.0557 -0.1178  0.5505
  591TMC3    C2 8811   0.108   0.119  16.213 -0.5950 -0.1829  0.2608
  591TMC3    C3 8812   0.126   0.109  16.081 -0.4529 -0.1519  0.2697
  591TMC3    C4 8813   0.151   0.354  16.208 -0.7715 -0.1009 -0.4267
  591TMC3    C5 8814   0.173   0.333  16.074  0.2201 -0.0403  0.3336
  591TMC3    C6 8815   0.158   0.214  16.007  0.2658  0.2860  0.3455
  591TMC3     C 8816   0.075   0.249  16.416  0.0768  0.3219  0.4193
  591TMC3     O 8817   0.146   0.311  16.497 -0.5488 -0.4740  0.0410
  591TMC3     H 8818   0.106   0.024  16.267  0.1546 -0.0385  0.5415
  591TMC3    H1 8819   0.141   0.448  16.261 -1.0378 -0.3605 -0.0090
  591TMC3    H2 8820   0.174   0.210  15.900 -2.0823  1.0228 -0.0328
  591TMC3    C7 8821   0.120   0.441  15.992 -0.3041 -0.4319  0.2707
  591TMC3    C8 8822   0.123   4.713  16.025 -0.4924 -0.9030 -0.3733
  591TMC3    O1 8823   0.047   0.408  15.900 -0.2040 -0.6740  0.4150
  591TMC3    O2 8824   0.133   4.609  16.094 -0.2332  0.1841 -0.3809
  592MPD2     C 8825   4.647   2.528  11.797  0.2348  0.1194 -0.1071
  592MPD2    C1 8826   4.693   2.520  11.927  0.4652 -0.5654  0.0069
  592MPD2    C2 8827   4.624   2.430  12.012  0.3350 -0.0066 -0.8277
  592MPD2    C3 8828   4.524   2.342  11.968  0.8984 -0.4276 -0.0022
  592MPD2    C4 8829   4.490   2.350  11.827  0.3180 -0.1289  0.8801
  592MPD2    C5 8830   4.544   2.449  11.746  0.1964  1.1337 -0.4616
  592MPD2     H 8831   4.639   2.421  12.119  1.6730  0.3325 -0.9875
  592MPD2    H1 8832   4.418   2.282  11.783 -0.9441  0.7779  1.5587
  592MPD2    H2 8833   4.693   2.600  11.731  0.4411 -0.1473 -0.2588
  592MPD2    H3 8834   4.520   2.459  11.641  1.1205 -0.6440 -0.8363
  592MPD2     N 8835   4.459   2.253  12.058 -0.1874 -0.1569  0.0902
  592MPD2    H5 8836   4.486   2.253  12.156 -0.7516 -1.7997  0.2491
  592MPD2    N1 8837   0.046   2.613  11.976 -0.4563 -0.0846  0.2745
  592MPD2    H7 8838   0.066   2.695  11.921  3.4845 -0.4571  1.1722
  593TMC3    C1 8839   0.199   2.711  12.130 -0.2596 -0.2266 -0.5202
  593TMC3    C2 8840   0.250   2.720  12.253  0.1284 -0.2461 -0.1370
  593TMC3    C3 8841   0.322   2.835  12.282  0.7702  0.3004  0.2063
  593TMC3    C4 8842   0.247   2.786  12.027  0.5388 -0.1485  0.3213
  593TMC3    C5 8843   0.345   2.881  12.056 -0.4430  0.2467 -0.0208
  593TMC3    C6 8844   0.380   2.905  12.183 -0.5418  0.0771  0.6600
  593TMC3     C 8845   0.116   2.601  12.102  0.5647 -0.3589  0.9055
  593TMC3     O 8846   0.122   2.508  12.179 -0.5847  0.0548 -0.2330
  593TMC3     H 8847   0.224   2.654  12.335 -0.3507 -0.6317 -0.5982
  593TMC3    H1 8848   0.224   2.766  11.923  0.0537  3.4162 -0.2675
  593TMC3    H2 8849   0.434   2.994  12.213 -1.9843  0.2783  2.6768
  593TMC3    C7 8850   0.395   2.977  11.955  0.2692 -0.2690 -0.0964
  593TMC3    C8 8851   0.329   2.871  12.430 -0.6428 -0.4215  0.4195
  593TMC3    O1 8852   0.476   3.049  11.996 -0.6898  0.2877 -0.7699
  593TMC3    O2 8853   0.233   2.860  12.507 -0.2354 -0.1546 -0.1220
  594MPD2     C 8854   3.810   0.953  15.235 -0.3899 -1.0056  0.1945
  594MPD2    C1 8855   3.758   1.008  15.120  0.1627 -0.1347 -0.6211
  594MPD2    C2 8856   3.830   1.113  15.059 -0.2573 -0.1748 -0.4412
  594MPD2    C3 8857   3.957   1.144  15.098 -0.2576 -0.2606  1.0440
  594MPD2    C4 8858   4.008   1.092  15.215 -0.4907  0.2997 -0.6656
  594MPD2    C5 8859   3.930   1.002  15.283 -0.0352 -0.0722  0.3200
  594MPD2     H 8860   3.791   1.161  14.971 -1.5348  0.1101  0.2788
  594MPD2    H1 8861   4.105   1.111  15.259 -0.6106 -0.7394  0.0503
  594MPD2    H2 8862   3.753   0.890  15.302  0.8001 -0.3400  1.8167
  594MPD2    H3 8863   3.961   0.980  15.384 -0.6027  1.2717  0.7838
  594MPD2     N 8864   4.033   1.234  15.013 -0.1335  0.9399  0.0848
  594MPD2    H5 8865   3.985   1.282  14.938 -2.1839 -2.6764 -0.9367
  594MPD2    N1 8866   3.635   0.958  15.078 -0.5270  0.4466  0.9754
  594MPD2    H7 8867   3.594   0.887  15.138  1.8875 -0.1085  1.9671
  595TMC3    C1 8868   4.403   1.411  14.808 -0.4099 -0.2462  0.0010
  595TMC3    C2 8869   4.353   1.333  14.902 -0.5036  0.9491  0.6832
  595TMC3    C3 8870   4.217   1.338  14.922  0.9015 -0.7009  0.0156
  595TMC3    C4 8871   4.329   1.501  14.740 -0.5627 -0.4521  0.5135
  595TMC3    C5 8872   4.196   1.513  14.766 -0.2273  0.5570  0.1517
  595TMC3    C6 8873   4.139   1.438  14.865  0.3293 -0.7678  0.1156
  595TMC3     C 8874   4.542   1.443  14.825  0.0137 -0.0899  0.2575
  595TMC3     O 8875   4.597   1.451  14.933 -0.2892 -0.6273  0.1378
  595TMC3     H 8876   4.414   1.265  14.960  1.1584  0.3464 -1.7968
  595TMC3    H1 8877   4.364   1.554  14.652  1.4254  1.4657  2.4607
  595TMC3    H2 8878   4.032   1.441  14.880  0.3011 -0.2088 -0.2206
  595TMC3    C7 8879   4.121   1.640  14.735 -0.1341  0.5972 -0.0060
  595TMC3    C8 8880   4.165   1.248  15.019  0.6311  0.5554  0.1296
  595TMC3    O1 8881   4.003   1.641  14.764 -0.1170 -0.2058  0.1757
  595TMC3    O2 8882   4.247   1.189  15.091  0.3574  0.2919  0.2262
  596MPD2     C 8883   3.015   3.819  17.100 -1.0285  0.2046  0.5262
  596MPD2    C1 8884   3.014   3.953  17.051  0.5144  0.1091  0.1811
  596MPD2    C2 8885   3.037   3.964  16.913 -0.1599 -0.3186 -0.3952
  596MPD2    C3 8886   3.064   3.856  16.824 -0.2542 -0.0578 -0.2311
  596MPD2    C4 8887   3.083   3.732  16.881 -0.1676  0.4483 -0.0893
  596MPD2    C5 8888   3.057   3.714  17.018 -0.8445  0.1768  0.5681
  596MPD2     H 8889   3.021   4.058  16.862 -0.8383 -0.6081 -0.7184
  596MPD2    H1 8890   3.099   3.644  16.819  0.3083  1.6659 -1.6926
  596MPD2    H2 8891   2.990   3.792  17.202  1.5619 -1.9827  0.5953
  596MPD2    H3 8892   3.053   3.613  17.055 -1.4370 -0.0529 -0.1179
  596MPD2     N 8893   3.080   3.865  16.683 -0.0549 -0.6162 -0.0989
  596MPD2    H5 8894   3.105   3.779  16.637  1.4595  0.7652 -1.8177
  596MPD2    N1 8895   2.966   4.062  17.118 -0.0206 -0.4064 -0.3910
  596MPD2    H7 8896   2.955   4.144  17.060  1.1169  1.1732  1.6184
  597TMC3    C1 8897   2.866   4.188  17.280 -0.2845 -0.2437  0.7841
  597TMC3    C2 8898   2.921   4.305  17.231 -0.1648  0.0915  0.8573
  597TMC3    C3 8899   2.858   4.422  17.271  0.4220 -0.2336  0.4896
  597TMC3    C4 8900   2.762   4.188  17.365 -0.5684  0.2783 -0.2917
  597TMC3    C5 8901   2.699   4.309  17.386  0.2353 -0.4551  0.6954
  597TMC3    C6 8902   2.756   4.422  17.356  0.4858  1.2126  0.0547
  597TMC3     C 8903   2.908   4.055  17.241  0.1685 -0.0349  0.3295
  597TMC3     O 8904   2.883   3.964  17.318 -0.2633 -0.3720  0.1162
  597TMC3     H 8905   3.006   4.303  17.164 -0.5497  1.2118  0.3322
  597TMC3    H1 8906   2.716   4.102  17.413  0.1349 -1.5137 -2.7794
  597TMC3    H2 8907   2.698   4.513  17.364 -0.7893  0.2416  1.7939
  597TMC3    C7 8908   2.573   4.309  17.465  0.0298  0.1740 -0.0926
  597TMC3    C8 8909   2.889   4.548  17.220  0.7631  0.6827 -0.3070
  597TMC3    O1 8910   2.536   4.209  17.531 -0.2203 -0.3623 -0.0320
  597TMC3    O2 8911   2.883   4.637  17.302  0.1073 -0.2357 -0.4491
  598TMC3    C1 8912   0.632   0.524  15.520 -0.3978  0.7100  0.9527
  598TMC3    C2 8913   0.566   0.406  15.491 -0.7149 -0.2740  0.7649
  598TMC3    C3 8914   0.513   0.399  15.361 -0.0054 -0.1336  0.1912
  598TMC3    C4 8915   0.643   0.625  15.430  0.0639 -0.5476 -0.6259
  598TMC3    C5 8916   0.581   0.604  15.307  0.6444 -0.4774  0.6145
  598TMC3    C6 8917   0.516   0.492  15.273 -0.4333 -0.9125  0.2100
  598TMC3     C 8918   0.720   0.541  15.637 -0.1263  0.4664  0.2299
  598TMC3     O 8919   0.788   0.643  15.648  0.2118  0.2326 -0.3996
  598TMC3     H 8920   0.550   0.326  15.563 -2.2696 -1.1614 -0.5570
  598TMC3    H1 8921   0.690   0.719  15.455 -1.6168  0.3644 -0.8436
  598TMC3    H2 8922   0.480   0.481  15.171  0.0483 -1.6017  0.1136
  598TMC3    C7 8923   0.621   0.683  15.191 -0.5011  0.3942 -0.4298
  598TMC3    C8 8924   0.433   0.282  15.336 -0.0915 -0.1729 -0.1742
  598TMC3    O1 8925   0.577   0.646  15.084  0.4468  0.0615 -0.3374
  598TMC3    O2 8926   0.390   0.220  15.435  0.6656 -0.2131 -0.4258
  599MPD2     C 8927   1.271   2.814  15.953 -0.7847  0.0309 -0.6036
  599MPD2    C1 8928   1.167   2.723  15.968 -0.4335 -0.0263 -0.1932
  599MPD2    C2 8929   1.063   2.754  16.057 -0.8360  0.0693 -0.0432
  599MPD2    C3 8930   1.058   2.886  16.109 -0.4718  0.0086  0.0017
  599MPD2    C4 8931   1.156   2.978  16.070  0.0486 -0.3631 -0.2974
  599MPD2    C5 8932   1.262   2.941  15.997 -0.7057  0.3379 -0.0933
  599MPD2     H 8933   0.991   2.681  16.093 -1.2866 -0.3867 -1.9085
  599MPD2    H1 8934   1.156   3.077  16.115 -1.2430  0.4938 -2.2048
  599MPD2    H2 8935   1.358   2.789  15.894 -0.0781  2.2212 -0.4644
  599MPD2    H3 8936   1.342   3.009  15.970  0.5838 -1.3661 -0.5572
  599MPD2     N 8937   0.962   2.929  16.205 -0.2632  0.2653 -0.4333
  599MPD2    H5 8938   0.966   3.029  16.222 -0.8817  0.7710 -3.2778
  599MPD2    N1 8939   1.201   2.595  15.918  0.4873 -0.1771  0.5398
  599MPD2    H7 8940   1.295   2.589  15.880 -0.2267 -3.0992 -0.7972
  600TMC3    C1 8941   0.778   2.938  16.354 -0.1492 -0.2472 -0.3331
  600TMC3    C2 8942   0.653   2.903  16.371  0.5907  0.8139 -0.0768
  600TMC3    C3 8943   0.596   2.940  16.489  0.1541 -0.3387  0.0793
  600TMC3    C4 8944   0.853   3.008  16.445 -0.2695 -0.0159  0.6096
  600TMC3    C5 8945   0.788   3.054  16.559  0.1016 -0.0323  0.5267
  600TMC3    C6 8946   0.662   3.011  16.584 -0.1710  1.0502 -0.1952
  600TMC3     C 8947   0.850   2.860  16.253  1.1126 -0.3785  0.1436
  600TMC3     O 8948   0.815   2.744  16.226 -0.0345 -0.4189  0.1920
  600TMC3     H 8949   0.611   2.851  16.286 -0.2750 -0.9216  1.4082
  600TMC3    H1 8950   0.958   3.025  16.426 -0.1010 -0.1795  1.3883
  600TMC3    H2 8951   0.607   3.037  16.674  1.2324 -1.2844  1.3497
  600TMC3    C7 8952   0.829   3.166  16.643 -0.5053 -0.0923 -0.5661
  600TMC3    C8 8953   0.482   2.874  16.534  0.3664  0.3207 -0.3837
  600TMC3    O1 8954   0.742   3.226  16.703  0.2762  0.7551  0.6049
  600TMC3    O2 8955   0.385   2.943  16.566 -0.0212  0.0838 -0.0275
  601MPD2     C 8956   2.783   1.677   0.550  0.2716  0.0027 -0.4340
  601MPD2    C1 8957   2.776   1.543   0.517  0.9610 -0.7534  0.6382
  601MPD2    C2 8958   2.754   1.447   0.614 -0.1052 -0.3784  0.1948
  601MPD2    C3 8959   2.733   1.488   0.745  0.5296  0.2747  0.4878
  601MPD2    C4 8960   2.738   1.626   0.778 -0.0037 -0.2422  0.1401
  601MPD2    C5 8961   2.762   1.720   0.680 -0.0371 -0.0843  0.0803
  601MPD2     H 8962   2.746   1.342   0.591  1.1053 -0.6612  1.0612
  601MPD2    H1 8963   2.720   1.649   0.882  1.3981  0.7016  0.1706
  601MPD2    H2 8964   2.795   1.752   0.473 -0.1384  0.6014  0.0881
  601MPD2    H3 8965   2.755   1.826   0.700 -2.4356 -0.3535  0.6333
  601MPD2     N 8966   2.706   1.400   0.851  0.1132 -0.0466  0.3886
  601MPD2    H5 8967   2.686   1.447   0.938 -2.8848 -0.2489 -0.1851
  601MPD2    N1 8968   2.792   1.494   0.391  0.5588 -0.4805 -0.2675
  601MPD2    H7 8969   2.783   1.394   0.380 -0.2116 -0.2823 -1.4802
  602TMC3    C1 8970   2.820   1.493   0.148  0.9415 -0.8709 -0.4369
  602TMC3    C2 8971   2.850   1.592   0.056 -0.2308 -0.0401  0.1728
  602TMC3    C3 8972   2.790   1.599  17.690  0.1536  0.1136 -0.2408
  602TMC3    C4 8973   2.706   1.420   0.129  0.2788 -0.6053 -0.6221
  602TMC3    C5 8974   2.642   1.436   0.011 -0.2624  0.3766 -0.6394
  602TMC3    C6 8975   2.681   1.519  17.667 -0.2705  0.1434 -0.8808
  602TMC3     C 8976   2.834   1.558   0.281  0.3730  0.1047  0.0721
  602TMC3     O 8977   2.882   1.672   0.282  0.0415 -0.3107 -0.4310
  602TMC3     H 8978   2.946   1.644   0.049  0.0175 -0.7421 -1.7039
  602TMC3    H1 8979   2.655   1.370   0.210 -3.4026 -0.3635 -2.7903
  602TMC3    H2 8980   2.618   1.533  17.580 -0.3223  0.6084 -0.7727
  602TMC3    C7 8981   2.556   1.324  17.730  0.5219 -0.3811 -0.0996
  602TMC3    C8 8982   2.860   1.665  17.575  0.7718 -0.1091 -0.3661
  602TMC3    O1 8983   2.490   1.274   0.065 -0.1243 -0.3151  0.6044
  602TMC3    O2 8984   2.931   1.767  17.601  0.3367  0.3115  0.1929
  603TMC3    C1 8985   1.056   2.129  11.215  0.2707 -0.2281 -0.4558
  603TMC3    C2 8986   1.051   2.088  11.346  0.0955 -0.2959  0.3472
  603TMC3    C3 8987   0.991   2.176  11.434 -0.4013  0.1945  0.2324
  603TMC3    C4 8988   1.011   2.251  11.174  0.2708  0.1497 -0.0852
  603TMC3    C5 8989   0.941   2.329  11.260  0.3507  0.3574  0.4979
  603TMC3    C6 8990   0.936   2.297  11.392 -0.1482 -0.0035 -0.1062
  603TMC3     C 8991   1.102   2.031  11.112  0.4269 -0.5681  0.1629
  603TMC3     O 8992   1.084   2.059  10.996 -0.4506  0.5647  0.9463
  603TMC3     H 8993   1.074   1.989  11.384 -2.9170 -0.8314  0.8214
  603TMC3    H1 8994   1.003   2.277  11.068 -1.3065 -2.0545 -0.5134
  603TMC3    H2 8995   0.883   2.367  11.456 -0.7947 -0.0294 -0.6229
  603TMC3    C7 8996   0.903   2.465  11.232  0.2818 -0.0639 -0.5069
  603TMC3    C8 8997   0.934   2.121  11.558  0.0490 -0.8052 -0.1515
  603TMC3    O1 8998   0.926   2.549  11.318  0.3630  0.0226 -0.2216
  603TMC3    O2 8999   0.933   1.998  11.565  0.2743 -0.0965 -0.2194
  604MPD2     C 9000   1.949   0.396  16.668 -0.0034  0.1335 -0.0701
  604MPD2    C1 9001   1.861   0.290  16.651  0.1265  0.1671 -0.0021
  604MPD2    C2 9002   1.878   0.206  16.540 -0.1957  0.2269 -0.1668
  604MPD2    C3 9003   1.981   0.233  16.445 -0.8369 -0.1382  0.1828
  604MPD2    C4 9004   2.074   0.333  16.476 -0.0295  0.4723 -0.3747
  604MPD2    C5 9005   2.055   0.408  16.586 -0.1086 -0.5802  0.1099
  604MPD2     H 9006   1.820   0.116  16.525 -0.3762  0.7522 -2.5993
  604MPD2    H1 9007   2.160   0.364  16.419  0.2556 -1.4573 -0.9837
  604MPD2    H2 9008   1.946   0.466  16.750  1.3892  2.1110 -1.6989
  604MPD2    H3 9009   2.119   0.494  16.602 -1.0886  0.2825 -0.5809
  604MPD2     N 9010   1.994   0.150  16.331  0.3651  0.3778 -0.2729
  604MPD2    H5 9011   1.923   0.080  16.316  2.0024 -1.0225 -1.5197
  604MPD2    N1 9012   1.762   0.274  16.747  0.7260 -0.2450  0.2340
  604MPD2    H7 9013   1.762   0.350  16.814  0.7423 -0.9844  1.0742
  605TMC3    C1 9014   1.554   0.250  16.834  0.2082  0.3472 -0.7409
  605TMC3    C2 9015   1.620   0.310  16.940  0.3189  0.4439 -0.3722
  605TMC3    C3 9016   1.588   0.437  16.967 -0.3573 -0.2316 -0.3900
  605TMC3    C4 9017   1.445   0.306  16.775  0.0938 -0.1076  0.1946
  605TMC3    C5 9018   1.417   0.433  16.803 -0.0204 -0.4300 -0.4949
  605TMC3    C6 9019   1.501   0.506  16.887 -0.0568  0.0846 -0.1806
  605TMC3     C 9020   1.645   0.206  16.733  0.2495 -0.1732  0.4294
  605TMC3     O 9021   1.599   0.157  16.633 -0.0643  0.0997 -0.0196
  605TMC3     H 9022   1.705   0.266  16.991 -0.0983  1.9775  1.6689
  605TMC3    H1 9023   1.401   0.250  16.694  0.9174 -0.2523 -0.1506
  605TMC3    H2 9024   1.474   0.605  16.921 -0.3002 -0.1186  0.2190
  605TMC3    C7 9025   1.314   0.502  16.726  0.7114 -0.8198  0.3609
  605TMC3    C8 9026   1.671   0.512  17.055 -0.2500  0.2627 -0.3943
  605TMC3    O1 9027   1.323   0.619  16.698 -0.4453  0.1018  0.4858
  605TMC3    O2 9028   1.704   0.446  17.151  0.3554 -0.4415 -0.2616
  606TMC3    C1 9029   3.625   3.218  17.146 -0.7240  0.3952 -0.0183
  606TMC3    C2 9030   3.735   3.254  17.220  0.6901 -0.1781 -0.3959
  606TMC3    C3 9031   3.735   3.220  17.352  0.7926 -0.5549  0.0932
  606TMC3    C4 9032   3.515   3.158  17.196  0.0582 -0.6299  0.1822
  606TMC3    C5 9033   3.528   3.118  17.329  0.2048  0.4302 -0.6882
  606TMC3    C6 9034   3.635   3.149  17.408 -0.3949 -0.4877  0.2108
  606TMC3     C 9035   3.629   3.249  17.002 -0.8541 -0.4344  0.1964
  606TMC3     O 9036   3.742   3.262  16.956 -0.0814  0.7132  0.0663
  606TMC3     H 9037   3.822   3.295  17.170 -0.8154  1.7685 -1.4290
  606TMC3    H1 9038   3.448   3.107  17.128  0.0623  0.5845 -0.7373
  606TMC3    H2 9039   3.633   3.123  17.514 -3.4347  0.5517  0.4040
  606TMC3    C7 9040   3.408   3.055  17.388 -0.1620 -0.0502 -0.0617
  606TMC3    C8 9041   3.819   3.283  17.453 -0.7571  0.0183  0.2414
  606TMC3    O1 9042   3.300   3.066  17.331  0.1028  0.5852 -0.8283
  606TMC3    O2 9043   3.825   3.234  17.559  0.3740 -0.3189 -0.3767
  607MPD2     C 9044   4.492   1.759  11.597  0.2611 -0.0185  0.4596
  607MPD2    C1 9045   4.494   1.835  11.712 -0.2308 -0.9064  0.2996
  607MPD2    C2 9046   4.433   1.778  11.828 -0.1251 -1.2277 -0.2020
  607MPD2    C3 9047   4.378   1.649  11.823 -0.2987  0.1699 -0.0653
  607MPD2    C4 9048   4.366   1.583  11.706  0.2552  0.3745 -0.3274
  607MPD2    C5 9049   4.424   1.643  11.592  0.2696 -0.5498 -0.4763
  607MPD2     H 9050   4.430   1.822  11.927 -1.5673 -0.8437 -0.4060
  607MPD2    H1 9051   4.323   1.484  11.700  1.4340 -0.0979 -0.9292
  607MPD2    H2 9052   4.539   1.793  11.506  0.7645 -0.4756  0.5453
  607MPD2    H3 9053   4.417   1.578  11.506  0.6064 -2.9400  1.3126
  607MPD2     N 9054   4.358   1.586  11.952 -0.3005  0.0219 -0.0954
  607MPD2    H5 9055   4.382   1.641  12.034 -0.5917 -0.5104  0.3538
  607MPD2    N1 9056   4.556   1.964  11.718 -0.0042 -0.0046  0.0802
  607MPD2    H7 9057   4.517   2.022  11.792  1.2453  0.7263  0.1780
  608TMC3    C1 9058   4.721   2.132  11.712  0.9417  0.3959  0.3263
  608TMC3    C2 9059   4.727   2.118  11.848  0.5080  0.1691  0.0651
  608TMC3    C3 9060   0.088   2.177  11.920 -0.1922  0.0405  0.1203
  608TMC3    C4 9061   0.092   2.194  11.651  0.6655 -0.5117 -0.6613
  608TMC3    C5 9062   0.194   2.247  11.726 -0.2666  0.2476  0.3547
  608TMC3    C6 9063   0.205   2.238  11.864  0.2004 -1.1335 -0.1377
  608TMC3     C 9064   4.653   2.023  11.643  0.1363 -0.0836 -0.3794
  608TMC3     O 9065   4.697   1.990  11.537 -0.0760  0.1377  0.4253
  608TMC3     H 9066   4.638   2.076  11.895 -1.0883  1.7734 -1.4901
  608TMC3    H1 9067   0.087   2.210  11.544 -1.0647 -0.3214 -0.5463
  608TMC3    H2 9068   0.280   2.277  11.932 -0.2341 -0.6958  0.0925
  608TMC3    C7 9069   0.278   2.343  11.665 -0.1682 -0.1089 -0.5206
  608TMC3    C8 9070   0.091   2.153  12.064 -0.5599  0.0577 -0.2757
  608TMC3    O1 9071   0.254   2.360  11.545  0.0654  0.3551  0.7146
  608TMC3    O2 9072   0.167   2.227  12.127  0.3750  0.2429 -0.2908
  609TMC3    C1 9073   2.935   1.780   9.646  0.4002 -0.6207 -0.4788
  609TMC3    C2 9074   2.868   1.866   9.560 -0.0316  0.1767 -0.1236
  609TMC3    C3 9075   2.946   1.926   9.460 -0.0329  0.5091 -0.0526
  609TMC3    C4 9076   3.059   1.740   9.613  0.1526 -0.3962  0.9219
  609TMC3    C5 9077   3.128   1.804   9.514  0.1674  0.4563  0.2205
  609TMC3    C6 9078   3.073   1.895   9.430 -0.2189  0.1466 -0.2463
  609TMC3     C 9079   2.858   1.695   9.734 -0.4900 -0.4645  0.4323
  609TMC3     O 9080   2.906   1.590   9.778  0.4907  0.3059  0.1807
  609TMC3     H 9081   2.769   1.907   9.575 -0.8174 -1.1509 -1.6901
  609TMC3    H1 9082   3.109   1.667   9.675  0.1403 -1.5139 -0.3906
  609TMC3    H2 9083   3.125   1.955   9.356 -1.2156  1.1202 -0.1542
  609TMC3    C7 9084   3.262   1.759   9.487 -0.2476  0.2536  0.0271
  609TMC3    C8 9085   2.895   2.045   9.396 -0.0946  0.3774 -0.1886
  609TMC3    O1 9086   3.317   1.709   9.585 -0.1090 -0.2205 -0.2772
  609TMC3    O2 9087   2.925   2.066   9.276 -0.7166 -0.6931 -0.1018
  610TMC3    C1 9088   0.427   1.413  12.775 -0.4363 -0.4064 -0.1907
  610TMC3    C2 9089   0.415   1.331  12.662 -0.2524 -0.1023 -0.5306
  610TMC3    C3 9090   0.527   1.268  12.623  0.3761 -0.5579  0.2687
  610TMC3    C4 9091   0.538   1.419  12.847  0.4602 -0.1382  0.3604
  610TMC3    C5 9092   0.656   1.355  12.802 -0.2373  0.1410 -0.0435
  610TMC3    C6 9093   0.647   1.275  12.692 -0.5273  0.4302  0.2358
  610TMC3     C 9094   0.312   1.494  12.821  0.1785 -0.4835  0.3370
  610TMC3     O 9095   0.326   1.570  12.914  0.4180 -0.2454 -0.4071
  610TMC3     H 9096   0.323   1.324  12.605  0.1304  2.0811 -1.3731
  610TMC3    H1 9097   0.534   1.464  12.945  2.8376  1.6789 -0.3899
  610TMC3    H2 9098   0.740   1.238  12.650  0.6429  2.5328  0.9799
  610TMC3    C7 9099   0.769   1.351  12.886  0.8048  0.1078  0.1012
  610TMC3    C8 9100   0.516   1.137  12.550 -0.3794  0.4315  0.6486
  610TMC3    O1 9101   0.862   1.279  12.853  0.2848  0.4197 -0.4417
  610TMC3    O2 9102   0.619   1.077  12.523  0.0793  0.5618  0.3418
  611MPD2     C 9103   0.051   2.165  10.585 -0.0814 -0.3428  0.3005
  611MPD2    C1 9104   4.723   2.284  10.557 -0.2106 -0.1962 -0.1461
  611MPD2    C2 9105   0.057   2.399  10.556 -0.1709  0.3851 -0.4572
  611MPD2    C3 9106   0.193   2.399  10.578  0.4818  0.1093 -0.2892
  611MPD2    C4 9107   0.260   2.281  10.606  0.2284 -0.4669 -0.3622
  611MPD2    C5 9108   0.190   2.164  10.612  0.4267 -0.3174 -0.4942
  611MPD2     H 9109   0.014   2.498  10.545 -2.7922 -0.9264 -2.2837
  611MPD2    H1 9110   0.367   2.282  10.626  0.3027  0.1570 -0.7605
  611MPD2    H2 9111   4.732   2.075  10.594 -1.6483  0.6754  0.2121
  611MPD2    H3 9112   0.241   2.074  10.644  3.3590  0.8509 -1.8678
  611MPD2     N 9113   0.274   2.513  10.565  0.3779 -0.0266  0.0472
  611MPD2    H5 9114   0.367   2.495  10.602  0.6768  1.5191  0.0372
  611MPD2    N1 9115   4.577   2.284  10.541  0.1434  0.3491 -0.3443
  611MPD2    H7 9116   4.529   2.199  10.514  2.1933 -0.6824 -0.7854
  612TMC3    C1 9117   0.351   2.711  10.475 -0.2258 -0.2929  0.8144
  612TMC3    C2 9118   0.446   2.730  10.575  0.3624  0.0850  0.5177
  612TMC3    C3 9119   0.566   2.789  10.534  0.0054 -0.5108  0.1500
  612TMC3    C4 9120   0.368   2.747  10.346  0.5018  0.5019 -0.1390
  612TMC3    C5 9121   0.484   2.813  10.316 -0.5534  0.6466 -0.6787
  612TMC3    C6 9122   0.587   2.837  10.410 -0.3591 -0.2156 -0.8032
  612TMC3     C 9123   0.239   2.626  10.497  0.3384  0.7418 -0.1783
  612TMC3     O 9124   0.142   2.643  10.425  0.2425 -0.3663  0.9150
  612TMC3     H 9125   0.435   2.683  10.672 -2.9608  2.1465  1.1257
  612TMC3    H1 9126   0.307   2.712  10.264  0.6086  0.2990 -0.1317
  612TMC3    H2 9127   0.676   2.895  10.387 -2.5071  2.5848 -1.9946
  612TMC3    C7 9128   0.518   2.840  10.167  0.0848  0.0734  0.7603
  612TMC3    C8 9129   0.669   2.823  10.633  0.4985  0.5460 -0.2160
  612TMC3    O1 9130   0.425   2.855  10.083  0.0579  0.5122  0.2176
  612TMC3    O2 9131   0.723   2.934  10.616  0.0355  0.2800 -0.0277
  613MPD2     C 9132   4.591   4.461  16.812  0.5020  0.0540 -0.5137
  613MPD2    C1 9133   4.475   4.485  16.737  0.8303  0.2972 -0.0612
  613MPD2    C2 9134   4.355   4.426  16.782  0.9547 -0.2432 -1.4587
  613MPD2    C3 9135   4.352   4.336  16.883  0.5214  0.2336 -0.3018
  613MPD2    C4 9136   4.468   4.306  16.955  0.2330 -0.4016  0.2703
  613MPD2    C5 9137   4.588   4.365  16.909  0.1696  0.6783 -0.1072
  613MPD2     H 9138   4.257   4.441  16.738  0.3045  1.4713  0.6127
  613MPD2    H1 9139   4.466   4.233  17.035  0.4152 -0.9261 -0.2042
  613MPD2    H2 9140   4.688   4.490  16.773  1.3185 -2.2486 -0.1787
  613MPD2    H3 9141   4.676   4.329  16.960 -1.6836 -1.7454  1.3730
  613MPD2     N 9142   4.236   4.263  16.923 -0.2489  0.4444  0.3173
  613MPD2    H5 9143   4.244   4.196  16.998  0.7260  1.5046  1.1455
  613MPD2    N1 9144   4.489   4.552  16.615 -1.0402 -0.3076 -0.0854
  613MPD2    H7 9145   4.587   4.573  16.601 -1.0084  0.3156  1.0138
  614TMC3    C1 9146   4.426   4.566  16.384 -0.6153  0.1298  0.6890
  614TMC3    C2 9147   4.483   4.450  16.359  0.0150 -0.2196  0.8003
  614TMC3    C3 9148   4.435   4.374  16.259  0.5457 -0.6748 -0.1949
  614TMC3    C4 9149   4.326   4.613  16.311  0.2399 -1.3819 -0.3828
  614TMC3    C5 9150   4.286   4.551  16.191 -0.7113  0.3366 -0.4226
  614TMC3    C6 9151   4.335   4.422  16.171  0.0367  0.0930 -0.1546
  614TMC3     C 9152   4.381   4.566  16.526 -0.2800 -0.4313  0.0711
  614TMC3     O 9153   4.260   4.542  16.543 -0.1704  0.1089  0.1968
  614TMC3     H 9154   4.555   4.399  16.421 -1.8109 -4.3048 -0.4170
  614TMC3    H1 9155   4.266   4.696  16.348 -0.5625 -1.4217 -1.5930
  614TMC3    H2 9156   4.330   4.366  16.078  1.3650 -3.4372  1.9124
  614TMC3    C7 9157   4.159   4.575  16.126 -0.6002  0.2443 -0.3615
  614TMC3    C8 9158   4.417   4.236  16.295  1.1666 -0.8089 -0.3298
  614TMC3    O1 9159   4.081   4.649  16.184  0.2382 -0.0501 -0.1711
  614TMC3    O2 9160   4.474   4.208  16.401  0.0160  0.3344  0.7808
  615MPD2     C 9161   3.683   0.664  16.033  0.7231 -0.6613  0.3968
  615MPD2    C1 9162   3.756   0.772  15.987  0.5610  0.3487 -0.4192
  615MPD2    C2 9163   3.693   0.880  15.926  0.0667  0.4836  0.3368
  615MPD2    C3 9164   3.557   0.878  15.905 -0.1489 -0.0263  0.2539
  615MPD2    C4 9165   3.483   0.780  15.961 -0.5547  0.3475 -0.6580
  615MPD2    C5 9166   3.547   0.677  16.024 -0.0908 -0.7274  0.1760
  615MPD2     H 9167   3.762   0.955  15.889 -1.1966  1.9433  0.9286
  615MPD2    H1 9168   3.374   0.782  15.954 -0.5953  1.1580  0.1992
  615MPD2    H2 9169   3.724   0.571  16.072 -1.3267 -1.3935  0.7997
  615MPD2    H3 9170   3.483   0.595  16.056  0.5737 -1.0384  0.7038
  615MPD2     N 9171   3.501   0.986  15.836 -0.3940  0.5720  0.1251
  615MPD2    H5 9172   3.566   1.060  15.811  0.6935 -0.9926 -1.6835
  615MPD2    N1 9173   3.896   0.779  15.997 -0.3903 -0.2750 -0.5500
  615MPD2    H7 9174   3.940   0.866  15.971 -0.5142 -0.8084 -2.5583
  616TMC3    C1 9175   4.114   0.742  16.078  0.3761 -0.2434  0.1057
  616TMC3    C2 9176   4.215   0.652  16.046 -0.3120 -0.5177  0.8077
  616TMC3    C3 9177   4.343   0.692  16.044 -0.4737 -0.2605 -0.4756
  616TMC3    C4 9178   4.140   0.873  16.099 -0.5665  0.9368 -0.0678
  616TMC3    C5 9179   4.270   0.909  16.092 -0.1129  0.9132 -0.1863
  616TMC3    C6 9180   4.377   0.824  16.063  0.2876  0.2538  0.6903
  616TMC3     C 9181   3.980   0.689  16.066 -0.5272  0.2656 -0.5659
  616TMC3     O 9182   3.959   0.575  16.107  0.2253  0.0599  0.0082
  616TMC3     H 9183   4.185   0.551  16.019 -1.6588 -0.5637  2.4619
  616TMC3    H1 9184   4.068   0.938  16.146  0.5166  2.7431 -0.8953
  616TMC3    H2 9185   4.478   0.853  16.038 -1.3395  3.3557 -2.2872
  616TMC3    C7 9186   4.314   1.038  16.133  0.0025 -0.1155  0.0297
  616TMC3    C8 9187   4.416   0.603  16.135 -0.0869 -0.3910 -0.8230
  616TMC3    O1 9188   4.426   1.041  16.182  0.5415 -0.5185 -0.0815
  616TMC3    O2 9189   4.368   0.496  16.176 -0.3369 -0.1826  0.3142
  617MPD2     C 9190   1.606   3.959  13.682 -0.0590 -0.2439 -0.1491
  617MPD2    C1 9191   1.650   3.963  13.812 -0.3984  0.1980  0.2928
  617MPD2    C2 9192   1.573   3.899  13.913  0.0450 -0.0720 -0.5132
  617MPD2    C3 9193   1.454   3.833  13.883  0.1882  0.3501  0.1038
  617MPD2    C4 9194   1.421   3.830  13.750 -0.4812 -0.1907  0.1080
  617MPD2    C5 9195   1.497   3.886  13.649 -0.3066  0.0253 -0.2134
  617MPD2     H 9196   1.593   3.922  14.017 -1.7647 -1.1907  0.0824
  617MPD2    H1 9197   1.331   3.776  13.722 -0.5609 -0.4449  0.8722
  617MPD2    H2 9198   1.661   4.006  13.601 -2.2098  0.2941 -1.2996
  617MPD2    H3 9199   1.452   3.881  13.551  3.0238 -2.2445 -1.6162
  617MPD2     N 9200   1.374   3.773  13.979  0.3870 -0.5999 -0.5130
  617MPD2    H5 9201   1.284   3.742  13.943  1.0644 -1.6476 -1.3055
  617MPD2    N1 9202   1.770   4.037  13.841  0.4315  0.6728 -0.6506
  617MPD2    H7 9203   1.821   4.084  13.767 -0.3328  0.1951 -1.4742
  618TMC3    C1 9204   1.933   4.154  13.968  1.1881  0.5716 -0.2436
  618TMC3    C2 9205   2.022   4.143  14.069  0.8066  0.9074  0.0885
  618TMC3    C3 9206   2.150   4.196  14.039  0.3356 -0.5797 -0.0578
  618TMC3    C4 9207   1.961   4.214  13.852 -0.0508  0.0404  0.0783
  618TMC3    C5 9208   2.086   4.257  13.824 -0.0404  0.4812  0.2193
  618TMC3    C6 9209   2.186   4.251  13.919  1.2481  0.3078 -0.3109
  618TMC3     C 9210   1.826   4.052  13.963 -0.1920 -0.5572 -0.3563
  618TMC3     O 9211   1.796   3.997  14.071 -0.0162 -0.2921  0.2070
  618TMC3     H 9212   2.014   4.076  14.154  3.6182 -0.1743 -0.4900
  618TMC3    H1 9213   1.884   4.231  13.778  1.2764 -1.8587 -1.7123
  618TMC3    H2 9214   2.278   4.308  13.914  2.0074 -0.7577  1.6310
  618TMC3    C7 9215   2.135   4.190  13.701  0.0570  0.7131 -0.1140
  618TMC3    C8 9216   2.262   4.153  14.118  0.1330 -0.4632  0.3569
  618TMC3    O1 9217   2.056   4.111  13.651 -0.2082  0.1327  0.2866
  618TMC3    O2 9218   2.253   4.167  14.238 -0.2598 -0.6992  0.6038
  619MPD2     C 9219   3.225   0.189  13.955  0.3536  0.1153  0.1574
  619MPD2    C1 9220   3.157   0.289  13.884  0.0174 -0.1610  0.4794
  619MPD2    C2 9221   3.017   0.283  13.863  1.0104  0.4370 -0.1694
  619MPD2    C3 9222   2.937   0.189  13.924  0.3070  0.5997 -0.7906
  619MPD2    C4 9223   3.005   0.092  13.990  0.1095 -0.5055  0.2974
  619MPD2    C5 9224   3.142   0.096  14.009  1.1223 -0.2237 -0.2823
  619MPD2     H 9225   2.965   0.357  13.803 -0.4646 -1.1892 -0.8856
  619MPD2    H1 9226   2.957   4.739  14.019 -0.1384  0.2823  2.4384
  619MPD2    H2 9227   3.333   0.194  13.970  0.5958  1.0458 -1.8516
  619MPD2    H3 9228   3.192   0.007  14.048 -1.6767 -1.4713  0.4061
  619MPD2     N 9229   2.799   0.203  13.930 -0.1348 -0.0765 -0.0477
  619MPD2    H5 9230   2.755   0.138  13.995  1.0402  1.0446  1.8586
  619MPD2    N1 9231   3.218   0.402  13.828 -0.6405 -0.3615 -0.8768
  619MPD2    H7 9232   3.157   0.470  13.785 -2.5445 -2.7522 -1.9430
  620TMC3    C1 9233   3.368   0.574  13.793  0.1874 -0.3365  0.3836
  620TMC3    C2 9234   3.291   0.623  13.698 -0.4021  0.1033  0.0595
  620TMC3    C3 9235   3.299   0.754  13.679 -0.1337 -0.1676  0.6664
  620TMC3    C4 9236   3.435   0.653  13.876 -0.6054 -0.0919 -0.1348
  620TMC3    C5 9237   3.431   0.794  13.866 -0.1484 -0.1511 -0.1211
  620TMC3    C6 9238   3.370   0.837  13.758 -0.2695  0.0029 -0.1358
  620TMC3     C 9239   3.343   0.439  13.845  0.6945 -0.3816  0.5180
  620TMC3     O 9240   3.440   0.382  13.886 -0.0530 -0.4862  0.5738
  620TMC3     H 9241   3.253   0.549  13.629 -2.4519  1.0338  0.1997
  620TMC3    H1 9242   3.481   0.613  13.965 -1.6690  0.1822  0.5350
  620TMC3    H2 9243   3.361   0.943  13.742 -2.5005 -0.2796 -0.6723
  620TMC3    C7 9244   3.408   0.864  13.987 -0.0363  0.0102  0.0718
  620TMC3    C8 9245   3.165   0.802  13.660 -0.2843 -0.0368  0.2124
  620TMC3    O1 9246   3.480   0.831  14.081  0.4745 -0.3896  0.6944
  620TMC3    O2 9247   3.133   0.909  13.713  0.2289  0.3593  0.1464
  621MPD2     C 9248   2.958   0.568   9.869  0.7808 -0.0516  0.5034
  621MPD2    C1 9249   2.946   0.677   9.786  0.0844 -0.0364  0.2903
  621MPD2    C2 9250   3.023   0.786   9.825 -0.7016 -0.0069 -0.3115
  621MPD2    C3 9251   3.107   0.792   9.936 -0.7230 -0.3824  0.0426
  621MPD2    C4 9252   3.112   0.673  10.014 -0.4953 -0.0412 -0.0048
  621MPD2    C5 9253   3.042   0.560   9.972  0.3335  0.2889  0.7692
  621MPD2     H 9254   3.015   0.879   9.770  0.6239 -0.4406 -1.2611
  621MPD2    H1 9255   3.176   0.672  10.101 -1.7366 -1.3446  0.8806
  621MPD2    H2 9256   2.898   0.479   9.853 -0.2967  0.6087  0.9096
  621MPD2    H3 9257   3.039   0.472  10.035 -1.1465  0.5392  1.0564
  621MPD2     N 9258   3.173   0.919   9.974  0.3241  0.3397 -0.2942
  621MPD2    H5 9259   3.160   0.989   9.902  3.8630  2.0412  0.6852
  621MPD2    N1 9260   2.854   0.697   9.680 -1.0098  0.1798  0.2592
  621MPD2    H7 9261   2.876   0.776   9.620  0.4081  0.3013  0.9411
  622TMC3    C1 9262   2.668   0.655   9.547  0.4196  1.3268 -1.0425
  622TMC3    C2 9263   2.582   0.555   9.515  0.0245 -0.7790  0.4005
  622TMC3    C3 9264   2.452   0.581   9.480 -0.3601  0.1095 -0.1100
  622TMC3    C4 9265   2.630   0.783   9.545  0.1426 -0.3932  0.5962
  622TMC3    C5 9266   2.499   0.810   9.516 -0.2627 -0.0163  0.4053
  622TMC3    C6 9267   2.405   0.714   9.486 -0.0830  0.7927  0.1562
  622TMC3     C 9268   2.752   0.613   9.660 -0.0987  0.2936 -0.0257
  622TMC3     O 9269   2.721   0.512   9.720  0.0127  0.0636 -0.2015
  622TMC3     H 9270   2.626   0.456   9.511  1.2048 -0.2437  0.2927
  622TMC3    H1 9271   2.702   0.863   9.558  2.7769 -2.4479 -1.4241
  622TMC3    H2 9272   2.309   0.752   9.454 -0.6697 -0.5719  0.3244
  622TMC3    C7 9273   2.476   0.940   9.462  0.1572 -0.4104 -0.2195
  622TMC3    C8 9274   2.357   0.487   9.537  0.6246  0.2842  0.2597
  622TMC3    O1 9275   2.573   1.001   9.415 -1.2128 -0.1048  0.9586
  622TMC3    O2 9276   2.237   0.495   9.507  0.3597 -0.1151  0.2690
  623MPD2     C 9277   2.274   0.871  15.882  1.0752  0.7050 -0.2225
  623MPD2    C1 9278   2.222   0.771  15.965  0.5243 -0.0278  0.1544
  623MPD2    C2 9279   2.235   0.779  16.108  0.1618 -0.4409 -1.0899
  623MPD2    C3 9280   2.320   0.871  16.164  0.1747  0.1279  0.0720
  623MPD2    C4 9281   2.385   0.964  16.085 -0.5246 -0.5559 -0.1409
  623MPD2    C5 9282   2.361   0.959  15.947  0.9182  0.7437 -0.1064
  623MPD2     H 9283   2.199   0.701  16.174 -1.3515  0.7561 -0.5123
  623MPD2    H1 9284   2.452   1.037  16.129 -5.6395  2.3752  2.7155
  623MPD2    H2 9285   2.270   0.872  15.774  0.1778  0.8739 -0.1807
  623MPD2    H3 9286   2.405   1.032  15.880 -1.2252  2.7197  0.6200
  623MPD2     N 9287   2.339   0.862  16.305  0.0190 -0.3090 -0.6550
  623MPD2    H5 9288   2.295   0.781  16.349 -0.5027  0.1302 -0.3652
  623MPD2    N1 9289   2.139   0.677  15.898 -0.2220 -0.1392 -0.4380
  623MPD2    H7 9290   2.120   0.691  15.799  1.3012  0.9627 -0.5658
  624TMC3    C1 9291   2.508   0.923  16.729  0.1962  0.8003  0.2950
  624TMC3    C2 9292   2.388   0.872  16.786  0.1522  0.0904 -0.4197
  624TMC3    C3 9293   2.274   0.876  16.709 -0.2246  0.3559  0.5118
  624TMC3    C4 9294   2.516   0.938  16.595  1.0504 -0.7808  0.4407
  624TMC3    C5 9295   2.403   0.916  16.521  0.4594  0.6241  0.1894
  624TMC3    C6 9296   2.286   0.883  16.574  0.1659  0.2760  0.3886
  624TMC3     C 9297   2.623   0.908  16.815  0.7601 -0.0024  0.0510
  624TMC3     O 9298   2.603   0.854  16.924  0.6642  0.1944  0.5213
  624TMC3     H 9299   2.377   0.850  16.892 -1.1694  2.0699 -0.1471
  624TMC3    H1 9300   2.609   0.966  16.546  0.8314  0.1708  0.5694
  624TMC3    H2 9301   2.197   0.875  16.512  0.8484 -2.8933 -0.1625
  624TMC3    C7 9302   2.413   0.948  16.379  0.4933 -0.0082 -0.5844
  624TMC3    C8 9303   2.146   0.830  16.760  0.9374  0.0544  0.2598
  624TMC3    O1 9304   2.504   1.023  16.339  0.5723 -0.0563  0.4243
  624TMC3    O2 9305   2.071   0.765  16.685 -0.2547  0.2867 -0.6459
  625MPD2     C 9306   2.669   1.849   1.097 -0.4749 -0.1365  1.1066
  625MPD2    C1 9307   2.724   1.944   1.017  0.1673  0.4063 -0.2831
  625MPD2    C2 9308   2.854   1.925   0.969  0.2227 -0.0434  0.4949
  625MPD2    C3 9309   2.933   1.820   1.005  0.6915  0.4327  0.1895
  625MPD2    C4 9310   2.882   1.731   1.093  0.0553 -0.7730  0.2336
  625MPD2    C5 9311   2.755   1.750   1.137  0.0924 -0.1688 -0.2655
  625MPD2     H 9312   2.897   1.993   0.896 -1.0936  0.1562 -0.0827
  625MPD2    H1 9313   2.931   1.647   1.140  0.2196 -1.4605 -1.1526
  625MPD2    H2 9314   2.566   1.857   1.129 -1.0277 -1.2234 -0.3872
  625MPD2    H3 9315   2.723   1.686   1.218  0.5846 -0.2615 -0.1423
  625MPD2     N 9316   3.065   1.816   0.957 -0.0921 -0.1112 -0.2139
  625MPD2    H5 9317   3.108   1.905   0.932 -0.4476  0.2775  0.5632
  625MPD2    N1 9318   2.659   2.071   0.984 -0.2856  0.4205 -0.0600
  625MPD2    H7 9319   2.704   2.132   0.917 -0.4353 -1.5594 -1.9565
  626TMC3    C1 9320   2.471   2.208   0.985  0.5424  0.4444  0.7086
  626TMC3    C2 9321   2.450   2.205   0.850 -0.4277 -0.2189  0.9375
  626TMC3    C3 9322   2.373   2.300   0.797  0.5733 -0.0111  0.2668
  626TMC3    C4 9323   2.398   2.294   1.064 -0.5621  0.8335 -0.0346
  626TMC3    C5 9324   2.326   2.385   1.005  0.7028  1.2643 -0.0926
  626TMC3    C6 9325   2.309   2.387   0.869 -0.3815  0.6885 -0.0778
  626TMC3     C 9326   2.548   2.109   1.058  0.2412  0.1398  0.5373
  626TMC3     O 9327   2.507   2.080   1.169  0.3845 -0.1251  0.1057
  626TMC3     H 9328   2.516   2.143   0.789  0.3318  1.8391 -0.3109
  626TMC3    H1 9329   2.397   2.279   1.171 -1.2451  0.8031 -0.0491
  626TMC3    H2 9330   2.258   2.468   0.818 -2.1057  0.4760  1.3209
  626TMC3    C7 9331   2.231   2.455   1.098  0.0608 -0.6184  0.3281
  626TMC3    C8 9332   2.335   2.299   0.658  0.4630 -0.0594 -0.2397
  626TMC3    O1 9333   2.275   2.470   1.211  0.6564 -0.1886  0.1438
  626TMC3    O2 9334   2.291   2.401   0.601 -0.3645  0.0413 -0.2748
  627MPD2     C 9335   1.611   2.583  14.353  0.0108 -0.0166  0.2864
  627MPD2    C1 9336   1.553   2.600  14.473  0.2417 -0.9752 -0.2135
  627MPD2    C2 9337   1.446   2.515  14.502 -0.5687  0.1925 -0.4135
  627MPD2    C3 9338   1.389   2.431  14.410 -0.4516 -0.2115 -0.5643
  627MPD2    C4 9339   1.446   2.420  14.287  0.0776 -0.4312  0.0584
  627MPD2    C5 9340   1.556   2.496  14.261  0.2512 -0.7165  0.4643
  627MPD2     H 9341   1.391   2.524  14.595  3.7671  2.6612  1.9347
  627MPD2    H1 9342   1.406   2.369  14.200 -3.8670  1.6481  0.6477
  627MPD2    H2 9343   1.704   2.634  14.333 -0.9924  0.4398 -3.2155
  627MPD2    H3 9344   1.587   2.494  14.157  0.4093  0.9498  0.4680
  627MPD2     N 9345   1.270   2.361  14.455 -0.0657  0.5536 -0.2722
  627MPD2    H5 9346   1.227   2.369  14.546  1.2255 -0.3018  0.4024
  627MPD2    N1 9347   1.604   2.671  14.582  0.6061  0.2653 -0.7310
  627MPD2    H7 9348   1.559   2.646  14.669  4.2428  0.6701  1.2534
  628TMC3    C1 9349   1.715   2.823  14.710 -0.3582  0.4253 -0.6276
  628TMC3    C2 9350   1.710   2.736  14.812  0.1595  0.0506 -0.0355
  628TMC3    C3 9351   1.703   2.795  14.936 -0.1794  0.2010  0.0244
  628TMC3    C4 9352   1.700   2.958  14.716 -0.1496  0.2251  0.3632
  628TMC3    C5 9353   1.679   3.008  14.843  0.3509 -0.8673 -0.0220
  628TMC3    C6 9354   1.699   2.930  14.960 -0.0899 -0.7762  0.4270
  628TMC3     C 9355   1.681   2.778  14.578  0.0914 -0.1774  0.5265
  628TMC3     O 9356   1.726   2.835  14.485  0.2495  0.1733 -0.2844
  628TMC3     H 9357   1.704   2.628  14.797 -1.8540  0.0210  0.8732
  628TMC3    H1 9358   1.687   3.026  14.633  0.4701  0.0548  0.1237
  628TMC3    H2 9359   1.664   2.969  15.055 -2.3159  1.2951 -1.2686
  628TMC3    C7 9360   1.655   3.150  14.864 -0.7129 -0.1883  0.7281
  628TMC3    C8 9361   1.635   2.715  15.033 -0.6584 -0.2242  0.4513
  628TMC3    O1 9362   1.666   3.187  14.980 -0.4373 -0.1898 -0.5182
  628TMC3    O2 9363   1.590   2.778  15.128  0.5788 -0.0130 -0.2506
  629MPD2     C 9364   0.008   0.655  16.526  0.1467  0.0215 -0.3252
  629MPD2    C1 9365   0.030   0.765  16.436 -0.0941 -0.5791  0.1726
  629MPD2    C2 9366   4.696   0.763  16.321 -0.3321  1.1071  0.2579
  629MPD2    C3 9367   4.608   0.662  16.287 -0.0661 -0.0298  0.1685
  629MPD2    C4 9368   4.601   0.554  16.369 -0.7324 -0.2810 -0.1266
  629MPD2    C5 9369   4.672   0.553  16.485 -0.0230 -0.4642  0.3472
  629MPD2     H 9370   4.686   0.855  16.265 -1.8933 -0.9815 -2.8958
  629MPD2    H1 9371   4.541   0.467  16.347 -0.9653  0.1437 -1.1903
  629MPD2    H2 9372   0.061   0.653  16.620  0.7835  0.9976 -0.6551
  629MPD2    H3 9373   4.668   0.462  16.544 -2.4780 -0.6988 -0.1879
  629MPD2     N 9374   4.525   0.673  16.175  0.4246 -0.4569 -0.0878
  629MPD2    H5 9375   4.548   0.749  16.111 -0.4548 -0.7557 -0.7680
  629MPD2    N1 9376   0.099   0.888  16.482  0.4110 -0.3613 -0.0436
  629MPD2    H7 9377   0.122   0.893  16.581 -0.1028  0.9442 -0.0029
  630TMC3    C1 9378   0.160   1.116  16.455 -1.1101  0.3194  0.2054
  630TMC3    C2 9379   0.180   1.223  16.372 -0.0972  0.4969 -0.0918
  630TMC3    C3 9380   0.168   1.348  16.416  0.3505  0.9953  0.0858
  630TMC3    C4 9381   0.133   1.135  16.588 -0.6793  0.7601 -0.2319
  630TMC3    C5 9382   0.131   1.259  16.639  0.0141 -0.4446 -0.7347
  630TMC3    C6 9383   0.144   1.365  16.552  0.0291 -0.9234 -0.0929
  630TMC3     C 9384   0.134   0.987  16.394 -0.1056  1.1527 -0.3386
  630TMC3     O 9385   0.150   0.973  16.274 -0.2959 -0.1641  0.0656
  630TMC3     H 9386   0.211   1.208  16.269  1.6698 -0.3279  0.5658
  630TMC3    H1 9387   0.153   1.053  16.656  0.0433  1.0135 -0.1282
  630TMC3    H2 9388   0.130   1.469  16.579  1.9924 -0.2881 -1.5113
  630TMC3    C7 9389   0.230   1.260  16.744  0.5913 -0.1682  0.4869
  630TMC3    C8 9390   0.273   1.433  16.369 -0.3028 -0.5895 -0.2560
  630TMC3    O1 9391   0.200   1.225  16.861  0.1775  0.1538  0.3571
  630TMC3    O2 9392   0.362   1.450  16.450 -0.1375  0.6261  0.1245
  631MPD2     C 9393   2.554   1.331  15.752 -0.2679 -0.5248 -0.4601
  631MPD2    C1 9394   2.632   1.444  15.764  0.1846  0.1268  0.0437
  631MPD2    C2 9395   2.769   1.436  15.739 -1.0332  1.0543  0.2552
  631MPD2    C3 9396   2.827   1.319  15.693 -0.5351  0.0798 -0.6841
  631MPD2    C4 9397   2.745   1.210  15.676  0.0120 -0.0852  0.3464
  631MPD2    C5 9398   2.616   1.215  15.709 -0.4612 -0.6202  0.1945
  631MPD2     H 9399   2.836   1.517  15.766 -0.0505  0.8108 -1.4713
  631MPD2    H1 9400   2.787   1.113  15.650  2.0579  0.1945  2.6312
  631MPD2    H2 9401   2.451   1.331  15.784  0.4217  0.1780  1.7500
  631MPD2    H3 9402   2.556   1.128  15.683 -0.9170  0.0628 -1.0699
  631MPD2     N 9403   2.968   1.316  15.688 -0.1383  0.2531  0.1686
  631MPD2    H5 9404   3.016   1.403  15.709  0.2020 -0.0414  0.6008
  631MPD2    N1 9405   2.572   1.566  15.800  0.4760  0.1408 -0.6869
  631MPD2    H7 9406   2.473   1.561  15.822  0.7278  0.7068  0.5514
  632TMC3    C1 9407   2.544   1.798  15.817 -0.0714 -0.0357  0.8921
  632TMC3    C2 9408   2.422   1.771  15.875  0.2794  0.2628  0.5538
  632TMC3    C3 9409   2.314   1.839  15.821 -0.3665  0.2364  0.1451
  632TMC3    C4 9410   2.560   1.899  15.718 -0.4817 -0.1368 -0.2548
  632TMC3    C5 9411   2.446   1.968  15.682  0.2714 -0.6090 -0.2485
  632TMC3    C6 9412   2.325   1.934  15.727 -0.1957 -0.2525  0.3288
  632TMC3     C 9413   2.640   1.688  15.801 -0.8339 -0.6425 -0.2162
  632TMC3     O 9414   2.744   1.716  15.742 -0.0566 -0.5782 -0.6723
  632TMC3     H 9415   2.402   1.682  15.933 -0.1103 -0.2538 -0.3713
  632TMC3    H1 9416   2.659   1.931  15.690  0.0810 -0.8180  0.9624
  632TMC3    H2 9417   2.234   1.982  15.692 -1.2562 -2.2666  0.2982
  632TMC3    C7 9418   2.439   2.014  15.543 -0.4102  0.2815 -0.5353
  632TMC3    C8 9419   2.175   1.795  15.847  0.5888 -0.2981 -0.7704
  632TMC3    O1 9420   2.338   1.992  15.481  0.5593  0.0990 -0.2120
  632TMC3    O2 9421   2.155   1.676  15.876  0.4014 -0.2390  0.2703
  633MPD2     C 9422   2.321   3.657  17.574  0.0830  0.1646 -0.1041
  633MPD2    C1 9423   2.447   3.636  17.544  0.2929  0.5625 -0.0892
  633MPD2    C2 9424   2.513   3.522  17.590  0.1408  0.3147  0.5618
  633MPD2    C3 9425   2.433   3.431  17.663  0.1769  0.0646 -0.1006
  633MPD2    C4 9426   2.301   3.455  17.695 -0.3682 -0.3995 -0.3355
  633MPD2    C5 9427   2.246   3.575  17.657 -0.0643 -0.0488  0.6288
  633MPD2     H 9428   2.617   3.506  17.561 -0.0567 -1.1738  0.7165
  633MPD2    H1 9429   2.248   3.379  17.752  1.0188 -2.0898 -1.2963
  633MPD2    H2 9430   2.257   3.737  17.537 -1.0197 -0.6725 -0.0241
  633MPD2    H3 9431   2.141   3.595  17.678  0.0087 -0.3911  1.3084
  633MPD2     N 9432   2.476   3.302  17.703 -0.0965  0.1818 -0.4781
  633MPD2    H5 9433   2.409   3.252   0.003 -1.5948  2.1873 -0.4857
  633MPD2    N1 9434   2.518   3.725  17.460 -0.0668 -0.8118 -0.5473
  633MPD2    H7 9435   2.605   3.689  17.420  0.2823  0.1886 -0.6991
  634TMC3    C1 9436   2.525   3.894  17.294 -0.1620 -0.2888  0.1625
  634TMC3    C2 9437   2.614   3.820  17.222 -0.4646 -0.0417  0.0909
  634TMC3    C3 9438   2.628   3.835  17.093  0.1574  0.6463  0.4235
  634TMC3    C4 9439   2.440   3.981  17.229 -0.1287  0.3840 -0.5401
  634TMC3    C5 9440   2.463   3.999  17.096  0.1682  0.0065  0.1356
  634TMC3    C6 9441   2.552   3.931  17.026 -0.1712  0.6836  0.4629
  634TMC3     C 9442   2.459   3.839  17.411  0.2080 -0.2648  0.4140
  634TMC3     O 9443   2.372   3.909  17.463 -0.0195 -0.4789  0.3966
  634TMC3     H 9444   2.673   3.746  17.274  1.8265  1.0696 -0.9279
  634TMC3    H1 9445   2.352   4.018  17.281 -1.0706 -3.1700  0.3808
  634TMC3    H2 9446   2.566   3.945  16.919 -0.7603 -1.1891  0.1372
  634TMC3    C7 9447   2.400   4.106  17.025  0.4524 -0.5786 -0.3811
  634TMC3    C8 9448   2.665   3.715  17.018  1.1044  0.8951  0.3999
  634TMC3    O1 9449   2.427   4.108  16.906  0.1106 -0.0113  0.6033
  634TMC3    O2 9450   2.676   3.609  17.072  0.2556  0.3696  0.0364
  635TMC3    C1 9451   3.364   0.608   1.368  0.1873  0.1795 -0.8083
  635TMC3    C2 9452   3.384   0.509   1.272  0.1630  0.6297 -0.2112
  635TMC3    C3 9453   3.505   0.465   1.233  0.1448  0.4175  1.0901
  635TMC3    C4 9454   3.477   0.665   1.431  0.2552  0.4660 -0.0685
  635TMC3    C5 9455   3.598   0.613   1.391 -0.3575 -0.2207  0.0479
  635TMC3    C6 9456   3.618   0.520   1.291 -0.3590  0.3355  0.2020
  635TMC3     C 9457   3.245   0.687   1.348 -0.4960 -0.3686  0.3931
  635TMC3     O 9458   3.189   0.677   1.237 -0.6044 -0.3447  0.3984
  635TMC3     H 9459   3.297   0.472   1.219  0.1866 -1.6588  1.3575
  635TMC3    H1 9460   3.464   0.764   1.474  0.1248  0.5029 -0.1912
  635TMC3    H2 9461   3.716   0.487   1.258 -0.1776  0.0668  1.0227
  635TMC3    C7 9462   3.716   0.661   1.462 -0.0310  0.4709  0.2037
  635TMC3    C8 9463   3.519   0.367   1.124 -0.7423 -0.5141 -0.4105
  635TMC3    O1 9464   3.828   0.628   1.424  0.1351 -0.7667  0.2527
  635TMC3    O2 9465   3.615   0.368   1.054  0.4268  0.1366 -0.3178
  636MPD2     C 9466   3.338   4.310  16.562 -0.5283 -0.6337 -0.7909
  636MPD2    C1 9467   3.414   4.403  16.635 -0.7672 -0.2277 -0.0253
  636MPD2    C2 9468   3.515   4.359  16.708 -1.2705  0.0911  0.6139
  636MPD2    C3 9469   3.555   4.229  16.713  0.6100 -0.1323 -0.1190
  636MPD2    C4 9470   3.479   4.139  16.650 -0.2331  0.5832 -0.4827
  636MPD2    C5 9471   3.369   4.182  16.576  0.3870 -0.6456 -0.3806
  636MPD2     H 9472   3.577   4.427  16.765  2.4401 -1.4782 -1.5047
  636MPD2    H1 9473   3.500   4.033  16.646  4.3015  1.4807 -0.4650
  636MPD2    H2 9474   3.249   4.336  16.505 -0.2238 -2.0893 -1.9280
  636MPD2    H3 9475   3.313   4.117  16.510 -2.3529  1.3509  0.0194
  636MPD2     N 9476   3.653   4.182  16.804  0.0828  0.1215 -0.4378
  636MPD2    H5 9477   3.695   4.246  16.871  1.9695 -1.4154 -0.1549
  636MPD2    N1 9478   3.383   4.540  16.649 -0.3921 -0.0776  0.4895
  636MPD2    H7 9479   3.445   4.596  16.707 -0.0965  2.2599 -2.0703
  637TMC3    C1 9480   3.824   4.053  16.883 -0.0618  0.3963  0.4603
  637TMC3    C2 9481   3.894   4.168  16.897  0.2703  0.6606  0.5430
  637TMC3    C3 9482   4.030   4.152  16.899  0.6065  0.5495 -0.2966
  637TMC3    C4 9483   3.882   3.931  16.856 -0.0651  0.0699 -0.8064
  637TMC3    C5 9484   4.019   3.926  16.846 -0.2581 -0.1791  0.0662
  637TMC3    C6 9485   4.090   4.035  16.882 -0.0080 -0.4398 -0.2677
  637TMC3     C 9486   3.717   4.063  16.795  0.0086 -0.2051 -0.1062
  637TMC3     O 9487   3.706   3.976  16.707 -0.1509 -0.2893 -0.0545
  637TMC3     H 9488   3.855   4.267  16.919 -1.2034  0.1451  0.1859
  637TMC3    H1 9489   3.816   3.846  16.860  0.9548 -0.5864  2.4163
  637TMC3    H2 9490   4.199   4.033  16.879 -0.0270  0.7291 -2.0216
  637TMC3    C7 9491   4.039   3.882  16.702  0.1535  0.4859  0.2435
  637TMC3    C8 9492   4.103   4.273  16.869  0.5139  0.1997 -0.4602
  637TMC3    O1 9493   3.967   3.787  16.670 -0.6640  0.4600 -0.3497
  637TMC3    O2 9494   4.051   4.345  16.784  0.5748 -0.0868 -0.3997
  638MPD2     C 9495   3.581   3.406  15.196 -0.4520  0.3627 -0.0772
  638MPD2    C1 9496   3.558   3.310  15.098  0.2152  0.2982 -0.1882
  638MPD2    C2 9497   3.557   3.175  15.140  0.1011  0.2382  0.3759
  638MPD2    C3 9498   3.584   3.135  15.272 -0.4277 -0.0459  0.0388
  638MPD2    C4 9499   3.615   3.235  15.358  0.3513  0.3539  0.3942
  638MPD2    C5 9500   3.623   3.366  15.323 -0.0296 -0.3094 -0.6556
  638MPD2     H 9501   3.552   3.094  15.069 -3.2167  0.0717  0.7869
  638MPD2    H1 9502   3.646   3.210  15.458  1.5279 -1.0858 -0.3241
  638MPD2    H2 9503   3.568   3.512  15.180  1.2390  0.7269  0.9742
  638MPD2    H3 9504   3.656   3.444  15.391 -3.6015  0.9628 -0.3914
  638MPD2     N 9505   3.587   3.001  15.302  0.5081 -0.0966  0.3490
  638MPD2    H5 9506   3.573   2.936  15.225 -0.3614  2.1777 -1.3859
  638MPD2    N1 9507   3.579   3.347  14.965  0.2905  0.6739 -0.2494
  638MPD2    H7 9508   3.581   3.446  14.947  1.9319  0.3989 -1.5603
  639TMC3    C1 9509   3.602   2.795  15.413  0.7996  0.1584 -0.2474
  639TMC3    C2 9510   3.503   2.748  15.329  0.3748 -0.2873 -0.3789
  639TMC3    C3 9511   3.476   2.616  15.338  0.1491 -0.1547  0.3363
  639TMC3    C4 9512   3.691   2.717  15.481  0.0303 -1.0228  0.5930
  639TMC3    C5 9513   3.660   2.580  15.474 -0.4597 -0.4241  0.3755
  639TMC3    C6 9514   3.553   2.525  15.404  0.0139  0.2849  0.3374
  639TMC3     C 9515   3.621   2.942  15.423 -0.6603 -0.0837  0.8267
  639TMC3     O 9516   3.661   2.991  15.529  0.3788  0.7168  0.0633
  639TMC3     H 9517   3.442   2.816  15.270 -1.2971 -1.0008  0.4959
  639TMC3    H1 9518   3.769   2.755  15.546  0.3181  0.2070 -0.4714
  639TMC3    H2 9519   3.551   2.418  15.386  0.5422  0.6282 -1.8442
  639TMC3    C7 9520   3.762   2.479  15.496  0.4081  0.3862  0.7512
  639TMC3    C8 9521   3.392   2.563  15.234  0.3832 -0.5840 -0.2191
  639TMC3    O1 9522   3.725   2.361  15.517  0.3827 -0.1973  0.2309
  639TMC3    O2 9523   3.412   2.605  15.120  0.1750  0.7005  0.3243
  640MPD2     C 9524   4.344   2.654  10.283 -0.2926 -0.3663  0.3146
  640MPD2    C1 9525   4.240   2.595  10.225 -0.4675 -0.0917  0.4923
  640MPD2    C2 9526   4.107   2.635  10.233 -0.2944  0.5231 -0.0839
  640MPD2    C3 9527   4.089   2.743  10.323 -0.3654  0.4844  0.3245
  640MPD2    C4 9528   4.195   2.793  10.390  1.1022 -0.2141 -0.1511
  640MPD2    C5 9529   4.320   2.750  10.374  0.4785  0.6567 -0.8180
  640MPD2     H 9530   4.022   2.595  10.178 -0.4670  0.4762  0.2199
  640MPD2    H1 9531   4.176   2.884  10.447  0.2420 -0.1708 -0.5006
  640MPD2    H2 9532   4.447   2.626  10.264  0.5520  1.9753  1.4044
  640MPD2    H3 9533   4.402   2.803  10.421  0.3496 -0.1554  0.3412
  640MPD2     N 9534   3.968   2.814  10.352  0.7437 -0.3899  0.9472
  640MPD2    H5 9535   3.970   2.889  10.419  1.9364  0.6869 -0.2967
  640MPD2    N1 9536   4.273   2.490  10.144  0.2354 -0.2878 -0.1286
  640MPD2    H7 9537   4.374   2.489  10.133  0.2890  0.1773  0.3584
  641TMC3    C1 9538   4.256   2.305  10.010 -0.4403 -0.5838  0.2958
  641TMC3    C2 9539   4.231   2.171  10.019 -0.4521 -0.5031 -0.0948
  641TMC3    C3 9540   4.292   2.089   9.928  0.3174  0.2461 -0.0061
  641TMC3    C4 9541   4.347   2.359   9.914  0.1232  0.6572  0.3750
  641TMC3    C5 9542   4.383   2.272   9.813  0.8524 -0.0645 -0.3417
  641TMC3    C6 9543   4.364   2.136   9.824  0.1643  0.2643 -0.1901
  641TMC3     C 9544   4.194   2.392  10.103  0.2002  0.0879 -0.5233
  641TMC3     O 9545   4.085   2.366  10.146 -0.0666  0.5127 -0.2011
  641TMC3     H 9546   4.161   2.128  10.089 -1.4443  0.3096 -0.5872
  641TMC3    H1 9547   4.357   2.466   9.907  1.5393  0.4884 -0.1477
  641TMC3    H2 9548   4.404   2.063   9.755  2.4963  1.0795  0.2966
  641TMC3    C7 9549   4.463   2.309   9.693 -0.1472  0.3045 -0.7505
  641TMC3    C8 9550   4.238   1.954   9.906  0.1005  0.3921  0.2525
  641TMC3    O1 9551   4.468   2.227   9.605 -0.5206 -0.3840 -0.6843
  641TMC3    O2 9552   4.218   1.920   9.794 -0.7386  0.2993  0.1972
  642TMC3    C1 9553   0.045   2.807  12.817  0.0050 -0.7208  0.7820
  642TMC3    C2 9554   0.177   2.789  12.845  0.7286 -0.8474  0.0912
  642TMC3    C3 9555   0.224   2.665  12.855 -0.2396  0.3930 -0.1382
  642TMC3    C4 9556   4.689   2.711  12.804  1.0059 -0.4388 -0.5012
  642TMC3    C5 9557   4.738   2.582  12.818  0.6011  0.3261  0.3007
  642TMC3    C6 9558   0.133   2.559  12.844 -0.2936  0.1257 -0.0555
  642TMC3     C 9559   0.008   2.943  12.806  0.6522  0.3117  0.1715
  642TMC3     O 9560   0.097   3.026  12.794  0.3066 -0.4517  0.1872
  642TMC3     H 9561   0.244   2.870  12.822 -2.0933  1.3316 -0.3592
  642TMC3    H1 9562   4.585   2.706  12.774  0.6040  0.0818  0.7885
  642TMC3    H2 9563   0.166   2.456  12.856 -2.2475 -0.2329  2.1275
  642TMC3    C7 9564   4.654   2.478  12.754 -0.2017  0.1272 -0.0276
  642TMC3    C8 9565   0.359   2.630  12.818 -0.8339  0.6392  0.1580
  642TMC3    O1 9566   4.575   2.517  12.670  0.2163  0.3935  1.0614
  642TMC3    O2 9567   0.379   2.531  12.746 -0.0959 -0.0731  0.5718
  643TMC3    C1 9568   4.417   1.895   0.769 -0.1271  0.2344 -0.5482
  643TMC3    C2 9569   4.292   1.851   0.736  1.2164  0.1292 -0.0941
  643TMC3    C3 9570   4.266   1.831   0.605  0.3230  0.2553 -0.3431
  643TMC3    C4 9571   4.515   1.911   0.683 -0.6864  0.5763  0.0870
  643TMC3    C5 9572   4.491   1.874   0.551  0.2201 -0.0760 -0.6764
  643TMC3    C6 9573   4.368   1.828   0.509 -0.2332  0.4971 -0.1175
  643TMC3     C 9574   4.447   1.885   0.912  0.8024 -0.1510  0.2575
  643TMC3     O 9575   4.348   1.897   0.983  1.0418  0.1788 -0.0788
  643TMC3     H 9576   4.214   1.828   0.807  2.5977  1.2084  1.7647
  643TMC3    H1 9577   4.610   1.959   0.704 -1.0387  0.1554  2.6535
  643TMC3    H2 9578   4.346   1.803   0.406  1.2587 -0.8783 -0.1193
  643TMC3    C7 9579   4.566   1.955   0.454  0.1017  0.2627  0.1731
  643TMC3    C8 9580   4.131   1.791   0.573 -0.2969  0.3055  1.0747
  643TMC3    O1 9581   4.620   2.056   0.499 -0.5127 -0.1596 -0.7714
  643TMC3    O2 9582   4.068   1.737   0.663  0.0098 -0.4357 -0.0752
  644MPD2     C 9583   0.445   2.755   9.593  0.5667  0.5614 -0.6052
  644MPD2    C1 9584   0.338   2.733   9.670  0.1021  0.1814  0.2741
  644MPD2    C2 9585   0.286   2.840   9.747 -0.3614 -0.3335  0.1507
  644MPD2    C3 9586   0.346   2.966   9.737  0.6971 -0.1248  0.3040
  644MPD2    C4 9587   0.460   2.988   9.657  0.4867 -0.1731  0.6209
  644MPD2    C5 9588   0.507   2.877   9.588  0.8199  0.0334 -0.0928
  644MPD2     H 9589   0.197   2.823   9.806  0.3638  0.8857  1.5836
  644MPD2    H1 9590   0.515   3.080   9.644 -0.7497  0.5046  0.2466
  644MPD2    H2 9591   0.494   2.679   9.532 -0.4187  0.1042 -0.8154
  644MPD2    H3 9592   0.592   2.899   9.523 -0.4235 -1.2953 -2.1412
  644MPD2     N 9593   0.285   3.077   9.804  0.0854  0.1468  0.4917
  644MPD2    H5 9594   0.190   3.055   9.833 -0.2153 -1.7004 -1.9433
  644MPD2    N1 9595   0.292   2.596   9.675 -0.5818  0.0981  0.3271
  644MPD2    H7 9596   0.347   2.524   9.629 -0.5760  1.3126 -1.5865
  645TMC3    C1 9597   0.241   3.302   9.878 -0.0278  0.4077  0.6082
  645TMC3    C2 9598   0.264   3.435   9.860  0.2863 -0.3880 -0.6605
  645TMC3    C3 9599   0.180   3.522   9.900 -0.0504 -0.0553 -0.1162
  645TMC3    C4 9600   0.130   3.266   9.943  0.2540  0.2670 -0.5217
  645TMC3    C5 9601   0.037   3.363   9.987  0.3738  0.1362  0.5564
  645TMC3    C6 9602   0.063   3.493   9.968  0.8476 -0.3840 -0.2240
  645TMC3     C 9603   0.330   3.204   9.812  0.2440 -0.2945  0.6904
  645TMC3     O 9604   0.431   3.249   9.762 -0.6885  0.4990 -0.1539
  645TMC3     H 9605   0.355   3.474   9.815  0.7436 -0.6960 -0.0171
  645TMC3    H1 9606   0.106   3.161   9.938  0.2100  0.3812 -2.5226
  645TMC3    H2 9607   4.738   3.570  10.009  1.9289  0.6290 -0.4239
  645TMC3    C7 9608   4.638   3.327  10.018  0.6357 -0.2680  0.3724
  645TMC3    C8 9609   0.221   3.661   9.885 -0.9988  0.2571  0.4039
  645TMC3    O1 9610   4.555   3.415  10.017 -0.1867 -0.1118  0.7124
  645TMC3    O2 9611   0.340   3.685   9.882 -0.5021 -0.8869  0.9441
  646MPD2     C 9612   3.746   1.759  14.543 -0.2232 -0.1166 -0.4397
  646MPD2    C1 9613   3.660   1.738  14.654  0.8135 -0.4531 -0.0116
  646MPD2    C2 9614   3.531   1.792  14.654 -0.3191 -0.0047  0.6996
  646MPD2    C3 9615   3.502   1.883  14.554 -0.1142  0.4522  0.5213
  646MPD2    C4 9616   3.589   1.903  14.443  0.0795  0.0498  0.2652
  646MPD2    C5 9617   3.710   1.839  14.442  0.4047  0.1339 -0.6293
  646MPD2     H 9618   3.464   1.776  14.739 -0.6862  0.6415  0.5305
  646MPD2    H1 9619   3.575   1.984  14.372  0.5161 -0.1832 -0.0869
  646MPD2    H2 9620   3.848   1.722  14.550 -0.6320 -1.1158  0.3147
  646MPD2    H3 9621   3.779   1.865  14.363  0.0822  1.9571 -0.3109
  646MPD2     N 9622   3.382   1.955  14.559  0.9104  0.2242 -0.1758
  646MPD2    H5 9623   3.329   1.931  14.642 -1.5966  3.0756 -0.9374
  646MPD2    N1 9624   3.710   1.659  14.756  0.2303  0.4229  0.5859
  646MPD2    H7 9625   3.810   1.640  14.751 -0.1619 -1.1368 -1.1380
  647TMC3    C1 9626   3.715   1.545  14.959  0.4922  0.3675  0.3457
  647TMC3    C2 9627   3.641   1.458  15.032 -0.4039  0.2046  0.5698
  647TMC3    C3 9628   3.667   1.450  15.165  0.9074  0.2741 -0.1405
  647TMC3    C4 9629   3.816   1.617  15.011  0.1539  1.3162 -0.3811
  647TMC3    C5 9630   3.846   1.598  15.148  0.0702 -0.4476 -0.5308
  647TMC3    C6 9631   3.768   1.520  15.230 -0.1543  0.7794  0.5616
  647TMC3     C 9632   3.631   1.606  14.852  0.2161  0.0116 -0.2036
  647TMC3     O 9633   3.511   1.585  14.863 -0.3820 -0.3427 -0.0371
  647TMC3     H 9634   3.567   1.404  14.973 -0.6998  0.7263  0.4554
  647TMC3    H1 9635   3.865   1.693  14.951 -2.3757  2.7062 -0.6707
  647TMC3    H2 9636   3.782   1.510  15.337 -0.1809 -1.6876  0.3241
  647TMC3    C7 9637   3.982   1.596  15.196  0.2893  0.2438 -0.0721
  647TMC3    C8 9638   3.603   1.342  15.236 -0.3162  0.2619  0.2342
  647TMC3    O1 9639   4.001   1.530  15.295 -0.1423 -0.1562 -0.5875
  647TMC3    O2 9640   3.662   1.309  15.340  0.1824 -0.1275  0.7310
  648TMC3    C1 9641   3.051   3.939  16.459 -0.5299 -0.2375 -0.4233
  648TMC3    C2 9642   3.119   3.826  16.426  0.9229  0.2590 -0.5470
  648TMC3    C3 9643   3.126   3.788  16.292  0.5693  0.1208 -0.2504
  648TMC3    C4 9644   2.990   4.017  16.368  0.5063 -0.0923 -0.2105
  648TMC3    C5 9645   2.991   3.967  16.235  0.6311 -0.3398 -0.8067
  648TMC3    C6 9646   3.068   3.859  16.195 -0.2152 -0.4556  0.0405
  648TMC3     C 9647   3.038   3.969  16.603 -0.4793  0.0519 -0.2929
  648TMC3     O 9648   2.960   4.061  16.623 -0.3623 -0.1417  0.3152
  648TMC3     H 9649   3.183   3.774  16.497 -0.6996 -0.1001  0.6504
  648TMC3    H1 9650   2.946   4.113  16.394 -0.5734 -0.8074  0.6083
  648TMC3    H2 9651   3.068   3.829  16.091 -0.0982 -0.8719  0.1622
  648TMC3    C7 9652   2.930   4.041  16.130  0.6681 -0.4076  0.8165
  648TMC3    C8 9653   3.138   3.644  16.291 -0.8439  0.5965 -0.6156
  648TMC3    O1 9654   2.967   4.027  16.015  0.2458  0.4914  0.0623
  648TMC3    O2 9655   3.086   3.591  16.387 -0.5815 -0.6083  1.0003
  649TMC3    C1 9656   1.654   0.532  13.319  0.3433 -0.4140  0.5792
  649TMC3    C2 9657   1.768   0.502  13.255  0.9429 -0.2226  0.3775
  649TMC3    C3 9658   1.871   0.456  13.333  0.0278  0.0489 -0.3442
  649TMC3    C4 9659   1.631   0.498  13.450 -0.3859 -0.0283  0.2337
  649TMC3    C5 9660   1.732   0.445  13.524  0.3759 -0.6925 -0.2060
  649TMC3    C6 9661   1.855   0.423  13.469 -0.0176  0.4221  0.9144
  649TMC3     C 9662   1.536   0.587  13.249 -0.6554  0.3176  0.1665
  649TMC3     O 9663   1.429   0.571  13.304 -0.2340 -0.4733 -0.2762
  649TMC3     H 9664   1.779   0.504  13.147 -1.5340  0.9831  0.1368
  649TMC3    H1 9665   1.535   0.519  13.496 -0.1202  0.1343  0.7079
  649TMC3    H2 9666   1.937   0.382  13.526 -0.1450 -1.2289 -0.1093
  649TMC3    C7 9667   1.705   0.401  13.658 -0.8593  0.3577  0.3443
  649TMC3    C8 9668   2.011   0.462  13.289  0.5368  0.5498 -0.3525
  649TMC3    O1 9669   1.591   0.423  13.695  0.1938 -0.3400  0.0039
  649TMC3    O2 9670   2.090   0.429  13.375  0.0973  0.2206 -0.0563
  650TMC3    C1 9671   4.036   2.181  13.268 -0.1748  0.1644 -0.0320
  650TMC3    C2 9672   3.996   2.297  13.216 -0.6059  0.8323  0.3486
  650TMC3    C3 9673   3.871   2.309  13.160 -0.7130 -0.4088  0.4013
  650TMC3    C4 9674   3.955   2.070  13.265 -0.0864 -0.1513  0.2972
  650TMC3    C5 9675   3.837   2.073  13.192 -0.3560  0.1919 -0.2988
  650TMC3    C6 9676   3.795   2.198  13.152 -0.2047 -0.3694  0.2621
  650TMC3     C 9677   4.185   2.163  13.275 -0.2051 -0.8983  0.6989
  650TMC3     O 9678   4.250   2.266  13.306 -0.1229 -0.0382  0.0016
  650TMC3     H 9679   4.059   2.384  13.224  0.4110  0.1265 -0.0169
  650TMC3    H1 9680   3.989   1.975  13.303 -1.6500 -1.7597 -2.2939
  650TMC3    H2 9681   3.702   2.205  13.096 -0.5969  1.8057  1.2025
  650TMC3    C7 9682   3.838   1.974  13.083  0.5823  0.4446 -0.6007
  650TMC3    C8 9683   3.848   2.437  13.081 -0.3354 -0.0262  0.0887
  650TMC3    O1 9684   3.934   1.893  13.094  0.2481 -0.1652 -0.0044
  650TMC3    O2 9685   3.943   2.508  13.057 -0.2596 -0.2049 -0.4091
  651MPD2     C 9686   2.751   4.141  10.572  0.5946 -0.5876  0.8201
  651MPD2    C1 9687   2.781   4.268  10.619  0.5922 -0.0643 -0.5186
  651MPD2    C2 9688   2.912   4.311  10.609  0.2522 -0.2262 -0.2115
  651MPD2    C3 9689   3.015   4.241  10.555  0.3506 -0.0399  0.6398
  651MPD2    C4 9690   2.981   4.123  10.490 -0.3124  0.5146 -0.1335
  651MPD2    C5 9691   2.861   4.071  10.514  0.0613  1.0412  0.1610
  651MPD2     H 9692   2.929   4.404  10.662  3.1779 -1.2707  0.6630
  651MPD2    H1 9693   3.054   4.068  10.431  2.3958  1.3008  2.4447
  651MPD2    H2 9694   2.655   4.091  10.584  0.0232  0.3152 -0.0185
  651MPD2    H3 9695   2.835   3.971  10.481  0.2129  1.8418 -2.3812
  651MPD2     N 9696   3.135   4.316  10.552  0.0435 -0.6159 -0.7942
  651MPD2    H5 9697   3.134   4.411  10.588  1.0249 -1.0410  0.3667
  651MPD2    N1 9698   2.690   4.349  10.678 -0.7429  0.5107  0.2333
  651MPD2    H7 9699   2.720   4.441  10.710  2.2611 -0.5580  0.4175
  652TMC3    C1 9700   3.567   4.449  10.448  0.3145 -0.6394  0.6815
  652TMC3    C2 9701   3.486   4.340  10.467  0.1050 -0.8298 -0.2551
  652TMC3    C3 9702   3.356   4.382  10.492  0.1916  0.0831  0.8875
  652TMC3    C4 9703   3.530   4.580  10.458 -0.7680 -0.1807  0.6942
  652TMC3    C5 9704   3.406   4.604  10.503  0.0864 -0.4480  0.0610
  652TMC3    C6 9705   3.312   4.505  10.497 -0.1060  0.2222  0.5446
  652TMC3     C 9706   3.694   4.425  10.508  0.8646 -0.0400  0.4117
  652TMC3     O 9707   3.711   4.339  10.596  0.1093 -0.6660 -0.1865
  652TMC3     H 9708   3.522   4.239  10.477  0.8840 -0.5443 -0.1946
  652TMC3    H1 9709   3.607   4.655  10.469  1.1652 -2.2437  1.2498
  652TMC3    H2 9710   3.211   4.532  10.529 -0.8321 -3.2643  1.2031
  652TMC3    C7 9711   3.385   4.698  10.610  0.2066  0.1693  0.7191
  652TMC3    C8 9712   3.252   4.277  10.492 -0.1443 -0.7891 -0.3942
  652TMC3    O1 9713   3.308   4.652  10.697  0.3982 -0.8314 -0.0279
  652TMC3    O2 9714   3.278   4.170  10.442 -0.2357 -0.0104  0.0134
  653MPD2     C 9715   1.805   3.758   0.169 -0.8548 -0.3902  0.2975
  653MPD2    C1 9716   1.845   3.860   0.083  0.2354 -0.0061 -0.0092
  653MPD2    C2 9717   1.868   3.824  17.703 -0.2440  0.0235 -0.2120
  653MPD2    C3 9718   1.876   3.686  17.668 -0.5553 -0.5183 -0.5801
  653MPD2    C4 9719   1.838   3.589   0.005 -0.7690 -0.2311 -0.9901
  653MPD2    C5 9720   1.795   3.630   0.127 -0.3929 -0.2024  0.1433
  653MPD2     H 9721   1.894   3.893  17.624 -1.1274 -2.2065 -2.4306
  653MPD2    H1 9722   1.822   3.485  17.738  0.2832 -0.9680  1.4801
  653MPD2    H2 9723   1.790   3.778   0.274 -0.8929  0.1494  0.1893
  653MPD2    H3 9724   1.748   3.553   0.188  2.3989 -1.4206  0.7851
  653MPD2     N 9725   1.903   3.648  17.534 -0.5183  0.2003  0.0216
  653MPD2    H5 9726   1.909   3.728  17.472  2.0652 -0.2277 -0.2979
  653MPD2    N1 9727   1.865   3.991   0.127  0.3242  0.2089  0.3930
  653MPD2    H7 9728   1.878   4.064   0.058  1.2758  0.1924  0.5544
  654TMC3    C1 9729   1.930   3.520  17.333 -0.1455  0.6879  0.5618
  654TMC3    C2 9730   1.849   3.595  17.246  0.1596  0.2539 -0.6521
  654TMC3    C3 9731   1.841   3.559  17.109  0.1210  0.1064 -1.0035
  654TMC3    C4 9732   1.988   3.404  17.293  0.5064 -0.0068 -0.1043
  654TMC3    C5 9733   1.976   3.367  17.164  0.2363 -0.5645 -0.2783
  654TMC3    C6 9734   1.908   3.445  17.071 -0.5763  0.3619 -0.0513
  654TMC3     C 9735   1.912   3.522  17.481 -0.0304 -0.1013  0.0073
  654TMC3     O 9736   1.903   3.417  17.538  0.2366  0.2091 -0.1309
  654TMC3     H 9737   1.810   3.691  17.276  0.2547  0.1105 -0.0750
  654TMC3    H1 9738   2.054   3.356  17.365  0.4434  1.3726  0.8599
  654TMC3    H2 9739   1.893   3.406  16.971 -1.0595  0.7630 -0.1376
  654TMC3    C7 9740   1.951   3.229  17.134  0.2921  0.0396  0.3269
  654TMC3    C8 9741   1.720   3.593  17.038  0.2002 -0.8126  0.2599
  654TMC3    O1 9742   1.894   3.197  17.029 -0.2923  0.3913  0.2239
  654TMC3    O2 9743   1.629   3.637  17.107  0.2761 -0.0166 -0.1750
  655MPD2     C 9744   3.486   4.368  15.928 -0.1829 -0.1591  0.2192
  655MPD2    C1 9745   3.413   4.483  15.896  0.8075 -0.7899 -0.2276
  655MPD2    C2 9746   3.401   4.510  15.761 -0.2114 -0.2071  0.4306
  655MPD2    C3 9747   3.448   4.425  15.663  0.2103 -0.2486 -0.1006
  655MPD2    C4 9748   3.538   4.320  15.701  0.1647  0.3384  0.0051
  655MPD2    C5 9749   3.553   4.297  15.831 -0.0084  0.5880 -0.1679
  655MPD2     H 9750   3.337   4.593  15.733 -0.3860 -0.2700  0.6428
  655MPD2    H1 9751   3.579   4.242  15.637 -0.2848  0.3524 -0.2972
  655MPD2    H2 9752   3.519   4.345  16.029 -0.4519  0.2201  0.3918
  655MPD2    H3 9753   3.626   4.225  15.864  0.2165  0.3159 -1.2601
  655MPD2     N 9754   3.423   4.444  15.527  0.0047  0.4538  0.3133
  655MPD2    H5 9755   3.465   4.371  15.470  1.0068  0.4534  1.0579
  655MPD2    N1 9756   3.326   4.554  15.988 -0.6394 -0.0963  0.2292
  655MPD2    H7 9757   3.284   4.636  15.945 -0.3519  0.6002  1.2834
  656TMC3    C1 9758   3.197   4.592  16.177  0.3939  0.6241  0.4946
  656TMC3    C2 9759   3.126   4.513  16.265 -0.5182  0.1042  1.2496
  656TMC3    C3 9760   2.998   4.536  16.282 -0.4525 -0.2653  0.7020
  656TMC3    C4 9761   3.134   4.688  16.104 -0.3930 -0.0266 -0.7258
  656TMC3    C5 9762   2.996   4.703  16.118  0.9148  1.2454  1.3338
  656TMC3    C6 9763   2.933   4.635  16.216 -0.1706 -0.0067 -0.0562
  656TMC3     C 9764   3.316   4.536  16.126 -0.3099  0.0152 -0.3439
  656TMC3     O 9765   3.374   4.445  16.188  0.2647  0.2855 -0.0079
  656TMC3     H 9766   3.169   4.428  16.317 -0.1229 -0.8283 -0.5955
  656TMC3    H1 9767   3.194   4.739  16.030  0.8053 -1.2836 -0.6376
  656TMC3    H2 9768   2.825   4.633  16.213 -0.1431 -1.9185  0.0693
  656TMC3    C7 9769   2.941   4.718  15.991  0.0276  0.8407  0.5438
  656TMC3    C8 9770   2.926   4.444  16.374  0.5996  0.8337 -0.4806
  656TMC3    O1 9771   3.020   4.706  15.898  0.4825 -0.4808  0.2115
  656TMC3    O2 9772   2.967   4.330  16.385 -0.1441 -0.1521  0.5083
  657TMC3    C1 9773   2.657   3.466  14.802 -0.1922  0.5110 -0.8880
  657TMC3    C2 9774   2.644   3.567  14.894  0.6359  0.0473 -0.3626
  657TMC3    C3 9775   2.578   3.682  14.854  0.0329  0.5926 -0.0084
  657TMC3    C4 9776   2.617   3.493  14.671 -0.0147  0.2684  0.5755
  657TMC3    C5 9777   2.570   3.617  14.631 -0.6981  0.4016 -0.1573
  657TMC3    C6 9778   2.541   3.713  14.724 -0.1767 -0.6480 -0.0595
  657TMC3     C 9779   2.723   3.340  14.825 -1.1977 -0.1374  0.7545
  657TMC3     O 9780   2.730   3.256  14.738 -0.0963  0.2448  0.5020
  657TMC3     H 9781   2.684   3.566  14.995 -0.6124  1.1134  0.1425
  657TMC3    H1 9782   2.640   3.416  14.599 -2.5570  0.8627 -0.8427
  657TMC3    H2 9783   2.528   3.815  14.691  2.1065 -0.2005  0.4576
  657TMC3    C7 9784   2.508   3.628  14.500  1.0649 -0.0754  0.2946
  657TMC3    C8 9785   2.533   3.763  14.967  0.3194  0.3714 -0.1955
  657TMC3    O1 9786   2.518   3.531  14.427  0.0585  0.4013  0.2806
  657TMC3    O2 9787   2.563   3.720  15.077 -0.6523 -0.0280  0.4967
  658MPD2     C 9788   3.607   4.255  14.832  0.3923 -0.4950  0.4147
  658MPD2    C1 9789   3.493   4.347  14.839 -0.2234  0.3691  0.1786
  658MPD2    C2 9790   3.442   4.388  14.716 -0.6061 -0.5277 -0.9646
  658MPD2    C3 9791   3.518   4.364  14.601  0.0950 -0.3454 -0.0159
  658MPD2    C4 9792   3.635   4.293  14.601 -0.5969  0.4913  0.0679
  658MPD2    C5 9793   3.673   4.234  14.713 -0.5603 -0.5223  1.2040
  658MPD2     H 9794   3.344   4.435  14.718  0.9579  2.7136 -0.6328
  658MPD2    H1 9795   3.702   4.289  14.516  1.3926 -1.3141  1.6993
  658MPD2    H2 9796   3.649   4.198  14.914 -1.3905 -2.4973 -0.0873
  658MPD2    H3 9797   3.770   4.184  14.712  0.4998  1.4842  3.1368
  658MPD2     N 9798   3.467   4.423  14.484  0.7996  0.4178 -0.1424
  658MPD2    H5 9799   3.368   4.447  14.485  0.7350  0.2506 -1.7219
  658MPD2    N1 9800   3.426   4.367  14.956 -0.6552 -0.2737  0.4927
  658MPD2    H7 9801   3.336   4.411  14.941  0.8081  2.7239  0.4641
  659TMC3    C1 9802   3.380   4.393  15.179 -0.0763 -1.0166  0.4592
  659TMC3    C2 9803   3.435   4.474  15.274 -0.5376 -0.2959 -0.5075
  659TMC3    C3 9804   3.342   4.555  15.333 -0.6381  0.5241 -0.2347
  659TMC3    C4 9805   3.245   4.404  15.142  0.4945 -0.5475  0.5270
  659TMC3    C5 9806   3.158   4.490  15.202  0.6193  1.2553  0.1108
  659TMC3    C6 9807   3.209   4.566  15.302  0.4689 -0.3777  0.1566
  659TMC3     C 9808   3.473   4.340  15.083  0.5958 -0.3450 -0.6123
  659TMC3     O 9809   3.589   4.309  15.114  0.4692  0.6220 -0.2893
  659TMC3     H 9810   3.543   4.481  15.285 -0.7611 -0.5016  1.9811
  659TMC3    H1 9811   3.205   4.338  15.065 -0.0810  0.5034 -0.0671
  659TMC3    H2 9812   3.140   4.632  15.353  2.0360  1.4441 -0.0798
  659TMC3    C7 9813   3.022   4.443  15.212  1.1034  0.0068  0.0038
  659TMC3    C8 9814   3.355   4.551  15.476 -0.0643  0.3286 -0.0219
  659TMC3    O1 9815   3.014   4.322  15.210  0.5013 -0.1069 -0.6194
  659TMC3    O2 9816   3.279   4.636  15.523  0.4006 -0.2816 -0.0930
  660MPD2     C 9817   1.492   3.158  13.083  0.5020 -0.4299 -0.7712
  660MPD2    C1 9818   1.357   3.136  13.062 -0.4411 -0.1672 -0.4289
  660MPD2    C2 9819   1.279   3.081  13.158  0.2277  0.3752  0.5939
  660MPD2    C3 9820   1.331   3.039  13.277 -0.4555  0.4732 -0.0948
  660MPD2    C4 9821   1.469   3.041  13.292  0.0675  0.2492  0.1172
  660MPD2    C5 9822   1.546   3.106  13.198  0.7755  0.5574  0.6035
  660MPD2     H 9823   1.173   3.068  13.142  0.2342  0.3813  0.5452
  660MPD2    H1 9824   1.518   2.990  13.374 -0.6148 -0.8435 -0.1535
  660MPD2    H2 9825   1.560   3.211  13.017 -0.6753  1.2047 -0.6686
  660MPD2    H3 9826   1.651   3.118  13.219  0.6167  0.9500  1.1517
  660MPD2     N 9827   1.255   2.977  13.375 -0.4661 -0.3954  0.2432
  660MPD2    H5 9828   1.304   2.952  13.460 -0.2057 -1.2671 -0.1603
  660MPD2    N1 9829   1.293   3.163  12.943  0.3696  0.0489  0.1109
  660MPD2    H7 9830   1.194   3.142  12.938  0.6030 -0.7910 -1.0601
  661TMC3    C1 9831   1.234   3.266  12.748 -0.3021 -0.7113 -0.1647
  661TMC3    C2 9832   1.264   3.272  12.612 -0.4618  0.3683  0.1479
  661TMC3    C3 9833   1.163   3.294  12.525  0.5001 -0.1084  0.1894
  661TMC3    C4 9834   1.110   3.276  12.797  0.1888  0.1593  0.1691
  661TMC3    C5 9835   1.013   3.293  12.706 -0.3743  0.5625  0.7134
  661TMC3    C6 9836   1.032   3.302  12.570 -0.3436 -0.4902  0.4212
  661TMC3     C 9837   1.345   3.219  12.829 -0.1238  0.1654 -0.6293
  661TMC3     O 9838   1.462   3.234  12.799 -0.1716 -0.5791 -0.0969
  661TMC3     H 9839   1.364   3.263  12.570 -0.5420  0.6496 -0.0981
  661TMC3    H1 9840   1.083   3.272  12.902 -2.1176 -0.3574 -0.4503
  661TMC3    H2 9841   0.952   3.314  12.497  0.3787  0.6076 -0.1878
  661TMC3    C7 9842   0.877   3.260  12.752  0.5813 -0.4045  0.7663
  661TMC3    C8 9843   1.207   3.375  12.412 -0.6924  0.3324  0.0868
  661TMC3    O1 9844   0.845   3.299  12.867  0.3486  0.2645 -0.0105
  661TMC3    O2 9845   1.291   3.332  12.337  0.1095 -0.4812 -0.3684
  662MPD2     C 9846   1.642   2.694  17.497  0.1912 -0.4113 -0.4680
  662MPD2    C1 9847   1.639   2.592  17.583  0.0608 -0.2074 -0.2861
  662MPD2    C2 9848   1.622   2.626  17.716 -0.5079 -1.2204  0.0236
  662MPD2    C3 9849   1.583   2.749   0.002  0.4392 -0.6270  0.2013
  662MPD2    C4 9850   1.588   2.851  17.670  0.6833  0.7184 -0.0019
  662MPD2    C5 9851   1.621   2.823  17.544 -0.7688  1.1235  0.3658
  662MPD2     H 9852   1.625   2.556   0.042 -0.7348 -1.3340 -0.0650
  662MPD2    H1 9853   1.557   2.952  17.694 -0.2117  0.1643  1.1742
  662MPD2    H2 9854   1.656   2.679  17.391  0.3464 -1.8068 -0.2495
  662MPD2    H3 9855   1.638   2.896  17.467 -4.2827  1.4329 -0.0974
  662MPD2     N 9856   1.550   2.773   0.135 -0.1047 -1.0083 -0.6162
  662MPD2    H5 9857   1.499   2.860   0.147 -1.4390 -1.9051  0.2463
  662MPD2    N1 9858   1.660   2.463  17.552  0.1686  0.7082  0.2013
  662MPD2    H7 9859   1.675   2.405  17.634 -3.4544  0.1616  0.4623
  663TMC3    C1 9860   1.704   2.266  17.425 -0.2703 -0.3727  0.7268
  663TMC3    C2 9861   1.769   2.207  17.527  0.3339 -0.0053 -0.5912
  663TMC3    C3 9862   1.830   2.087  17.511 -0.2120  0.0535 -0.5786
  663TMC3    C4 9863   1.682   2.198  17.309 -0.5888 -0.0802 -0.1620
  663TMC3    C5 9864   1.717   2.068  17.307 -0.1947  0.5403  0.5666
  663TMC3    C6 9865   1.784   2.006  17.412 -0.4605  0.4445  0.0728
  663TMC3     C 9866   1.669   2.406  17.428  0.2259  0.6176 -0.1027
  663TMC3     O 9867   1.661   2.466  17.320  0.0067 -0.2523  0.9081
  663TMC3     H 9868   1.797   2.266  17.614 -2.0541  0.0013  0.1897
  663TMC3    H1 9869   1.632   2.255  17.231  1.1434  2.9656  0.9576
  663TMC3    H2 9870   1.836   1.912  17.397  2.9294  2.5160 -1.2449
  663TMC3    C7 9871   1.645   1.981  17.220  0.7285  0.3387 -0.3704
  663TMC3    C8 9872   1.862   2.012  17.631 -0.1584 -0.4651  0.0983
  663TMC3    O1 9873   1.587   2.038  17.123  0.3538 -0.0611 -0.6169
  663TMC3    O2 9874   1.955   1.935  17.631 -0.1727  0.6253  0.4679
  664MPD2     C 9875   0.370   0.880  17.711 -0.0939  0.2028 -0.5894
  664MPD2    C1 9876   0.299   0.990  17.666  0.3461  0.0046  0.9821
  664MPD2    C2 9877   0.161   0.964  17.684 -0.0953 -0.2060  0.0021
  664MPD2    C3 9878   0.101   0.848  17.709 -0.9938 -0.2361 -0.3164
  664MPD2    C4 9879   0.179   0.738  17.730 -0.0609 -0.1619  0.2548
  664MPD2    C5 9880   0.316   0.759  17.730  0.1328  0.3682  0.2146
  664MPD2     H 9881   0.099   1.047  17.649 -1.7346 -1.7424 -0.7478
  664MPD2    H1 9882   0.133   0.641  17.749  1.1617 -0.7323  0.3764
  664MPD2    H2 9883   0.478   0.885  17.722 -0.0764  0.6518 -0.9403
  664MPD2    H3 9884   0.378   0.672  17.748 -0.0045  0.0385 -0.9049
  664MPD2     N 9885   4.697   0.842  17.712 -0.4452 -0.1029 -0.3724
  664MPD2    H5 9886   4.649   0.925  17.679 -0.3187 -0.2027 -0.8025
  664MPD2    N1 9887   0.352   1.115  17.632 -0.1569  0.1050 -0.3676
  664MPD2    H7 9888   0.289   1.187  17.598 -0.5822  1.7951  4.1289
  665TMC3    C1 9889   4.482   0.780  17.734 -0.0332 -0.1239 -0.4739
  665TMC3    C2 9890   4.411   0.763   0.091  0.2580 -0.9091 -1.2486
  665TMC3    C3 9891   4.307   0.848   0.108 -0.1973  0.5954 -0.2755
  665TMC3    C4 9892   4.453   0.875  17.640 -0.4723 -0.0474 -0.2307
  665TMC3    C5 9893   4.368   0.975  17.669  0.2107  0.2751 -0.0379
  665TMC3    C6 9894   4.285   0.948   0.018  0.1767 -0.3473 -0.5699
  665TMC3     C 9895   4.619   0.736  17.737  0.0454  0.0333 -0.2540
  665TMC3     O 9896   4.641   0.629   0.038  0.5894 -1.1402 -0.0540
  665TMC3     H 9897   4.438   0.698   0.174  0.6347  0.5269 -0.2280
  665TMC3    H1 9898   4.512   0.876  17.549 -0.8532  0.3231 -0.4774
  665TMC3    H2 9899   4.217   1.030   0.038  0.7949  0.8121 -3.2241
  665TMC3    C7 9900   4.463   1.080  17.703 -0.1986 -0.1763  0.4374
  665TMC3    C8 9901   4.228   0.833   0.228  0.2893  0.8388  0.5005
  665TMC3    O1 9902   4.571   1.075  17.648  0.0610 -0.1022 -0.1066
  665TMC3    O2 9903   4.266   0.760   0.321 -0.3375 -0.1831 -0.4611
  666TMC3    C1 9904   3.317   1.060  10.068 -0.2986  0.2808  0.3136
  666TMC3    C2 9905   3.456   1.077  10.095 -0.4709  0.1664 -0.3076
  666TMC3    C3 9906   3.498   1.205  10.104 -0.5732 -0.6090 -0.1082
  666TMC3    C4 9907   3.235   1.162  10.036  0.4979 -0.8069 -0.7021
  666TMC3    C5 9908   3.291   1.287  10.035  0.6504  0.0166 -0.2597
  666TMC3    C6 9909   3.422   1.310  10.073  0.3748 -0.9328 -0.5447
  666TMC3     C 9910   3.271   0.922  10.066  0.0959 -0.7338  0.6064
  666TMC3     O 9911   3.307   0.843  10.152 -0.4053 -0.3220 -0.2458
  666TMC3     H 9912   3.525   0.994  10.099  0.5961  1.0590 -0.3553
  666TMC3    H1 9913   3.127   1.151  10.024  0.6453 -0.8531 -2.0399
  666TMC3    H2 9914   3.465   1.409  10.080 -1.8970  0.0885 -1.4882
  666TMC3    C7 9915   3.206   1.394  10.051  0.3495  0.1014 -0.1541
  666TMC3    C8 9916   3.637   1.225  10.153  0.0631 -0.1152 -0.1459
  666TMC3    O1 9917   3.098   1.372  10.093 -0.5056 -0.1940 -0.1161
  666TMC3    O2 9918   3.680   1.332  10.113 -0.4933  0.1626 -0.1407
  667MPD2     C 9919   0.460   0.988  14.596 -0.3513  0.4843 -0.7503
  667MPD2    C1 9920   0.463   0.964  14.732 -1.0663 -0.6263  0.8652
  667MPD2    C2 9921   0.396   0.848  14.784  0.0484 -0.0623  0.3409
  667MPD2    C3 9922   0.337   0.760  14.697 -0.6825 -0.2889  0.5629
  667MPD2    C4 9923   0.345   0.783  14.563  0.3131  0.6343 -0.1400
  667MPD2    C5 9924   0.404   0.894  14.517  0.1022  0.4557  0.1675
  667MPD2     H 9925   0.398   0.824  14.890  1.1326 -0.0577  0.3262
  667MPD2    H1 9926   0.305   0.710  14.493 -0.0177  0.6722  0.0067
  667MPD2    H2 9927   0.507   1.074  14.550  0.7602 -0.4154 -1.2939
  667MPD2    H3 9928   0.382   0.917  14.414 -1.3269 -2.2666 -0.1373
  667MPD2     N 9929   0.260   0.651  14.739  0.1378 -0.1184  0.3172
  667MPD2    H5 9930   0.212   0.601  14.665  0.1378 -0.9056  0.8510
  667MPD2    N1 9931   0.528   1.054  14.822 -0.4986  0.2514  0.1827
  667MPD2    H7 9932   0.530   1.028  14.920  1.2367  2.3383  0.6933
  668TMC3    C1 9933   0.641   1.245  14.913 -0.7550  0.7744 -0.2892
  668TMC3    C2 9934   0.714   1.359  14.885  0.1649 -0.8275 -0.6850
  668TMC3    C3 9935   0.748   1.436  14.998  0.3640 -0.2266 -0.0177
  668TMC3    C4 9936   0.622   1.200  15.041  0.4216  0.9815 -0.1468
  668TMC3    C5 9937   0.655   1.279  15.147  0.0844 -1.2382  0.6971
  668TMC3    C6 9938   0.721   1.396  15.126  0.1610 -0.1331  0.8374
  668TMC3     C 9939   0.598   1.175  14.791  0.0475  1.2575 -1.1529
  668TMC3     O 9940   0.598   1.240  14.687  0.4441  0.3017 -0.4775
  668TMC3     H 9941   0.723   1.396  14.783  2.8942 -0.0246 -0.1515
  668TMC3    H1 9942   0.601   1.095  15.061  1.9266  0.6380 -0.3984
  668TMC3    H2 9943   0.746   1.456  15.213 -1.9205 -0.4117  1.6361
  668TMC3    C7 9944   0.684   1.218  15.270  0.6407 -0.0109 -0.3492
  668TMC3    C8 9945   0.793   1.577  14.989 -0.4667 -0.2551 -0.5968
  668TMC3    O1 9946   0.782   1.243  15.333  0.5135 -0.0111 -0.5473
  668TMC3    O2 9947   0.781   1.641  15.092 -0.0839  0.1904  0.1106
  669TMC3    C1 9948   3.259   0.795  15.038  0.2980 -0.7906  0.0410
  669TMC3    C2 9949   3.173   0.839  14.942 -0.4902 -0.1791 -0.4384
  669TMC3    C3 9950   3.206   0.943  14.859 -0.2189 -0.0773  0.0231
  669TMC3    C4 9951   3.386   0.838  15.047  0.7042  0.2908  0.1876
  669TMC3    C5 9952   3.427   0.928  14.957 -0.0017  0.1171  0.4320
  669TMC3    C6 9953   3.334   0.984  14.865  0.2412  0.7880  0.0120
  669TMC3     C 9954   3.207   0.695  15.134  0.1469  0.6836 -0.8996
  669TMC3     O 9955   3.089   0.680  15.138  0.3619 -0.0892  0.0975
  669TMC3     H 9956   3.083   0.785  14.915 -0.2504 -0.7503 -0.0797
  669TMC3    H1 9957   3.448   0.831  15.136  0.9473  0.2088  0.0121
  669TMC3    H2 9958   3.370   1.068  14.807 -2.4986  1.7781 -0.2686
  669TMC3    C7 9959   3.555   1.005  14.977  0.0365 -0.0402  0.2499
  669TMC3    C8 9960   3.106   0.988  14.764 -0.0626  0.1294  0.6211
  669TMC3    O1 9961   3.575   1.099  14.902 -0.0161  0.0983 -0.1206
  669TMC3    O2 9962   3.015   0.919  14.729 -0.6948 -0.0433 -0.2877
  670MPD2     C 9963   1.906   3.127  13.465 -0.2516 -0.0876 -0.0078
  670MPD2    C1 9964   1.938   3.250  13.507 -0.1264 -0.7677 -0.5527
  670MPD2    C2 9965   1.858   3.303  13.611 -0.3307 -0.2489 -0.2028
  670MPD2    C3 9966   1.746   3.240  13.662 -0.5630  0.5428 -0.3836
  670MPD2    C4 9967   1.712   3.118  13.605  0.1206  0.0047  0.0047
  670MPD2    C5 9968   1.792   3.058  13.514  0.2072  0.4857  0.4776
  670MPD2     H 9969   1.883   3.403  13.644 -2.3123  0.5735 -1.1443
  670MPD2    H1 9970   1.623   3.061  13.629  1.6669 -2.6168 -0.4098
  670MPD2    H2 9971   1.968   3.073  13.394 -0.1567 -1.6335  1.2442
  670MPD2    H3 9972   1.759   2.962  13.476 -0.4294  0.5084  0.9763
  670MPD2     N 9973   1.669   3.296  13.770  0.0752 -0.0099  0.4860
  670MPD2    H5 9974   1.697   3.382  13.817 -3.3706  1.7084 -0.6008
  670MPD2    N1 9975   2.048   3.331  13.459 -0.5052  0.2529  0.4028
  670MPD2    H7 9976   2.075   3.412  13.514 -0.5534  1.5177 -1.4385
  671TMC3    C1 9977   1.522   3.319  13.938  0.6347 -0.3661 -0.3226
  671TMC3    C2 9978   1.619   3.366  14.021  0.7614 -0.0364 -0.0056
  671TMC3    C3 9979   1.589   3.361  14.159  0.3773 -0.1936  0.1236
  671TMC3    C4 9980   1.393   3.301  13.978  0.0168  0.0184  0.0693
  671TMC3    C5 9981   1.369   3.289  14.118 -0.4082  0.5628  0.1015
  671TMC3    C6 9982   1.469   3.319  14.209  0.3495 -0.2240 -0.2795
  671TMC3     C 9983   1.555   3.245  13.820  0.0200 -0.4020 -0.4609
  671TMC3     O 9984   1.493   3.144  13.783 -0.1075 -0.1415  0.2532
  671TMC3     H 9985   1.725   3.377  14.002  0.1794  0.8368 -2.7396
  671TMC3    H1 9986   1.321   3.261  13.908 -0.6517  3.6749 -1.3564
  671TMC3    H2 9987   1.452   3.304  14.315  1.4130 -0.1163 -0.0914
  671TMC3    C7 9988   1.288   3.174  14.152 -0.1011 -0.9815 -0.2356
  671TMC3    C8 9989   1.694   3.306  14.229  0.0446 -0.1489 -0.5553
  671TMC3    O1 9990   1.253   3.095  14.071 -0.5699 -0.1183  0.4592
  671TMC3    O2 9991   1.749   3.224  14.160 -0.0980 -0.0693 -0.2604
  672MPD2     C 9992   1.442   4.077   1.499 -0.1730  0.7120 -0.4692
  672MPD2    C1 9993   1.519   3.972   1.552 -0.5764  0.1277 -0.2271
  672MPD2    C2 9994   1.621   3.994   1.646  0.3165  0.2968 -0.0868
  672MPD2    C3 9995   1.643   4.127   1.672  0.0674  1.0782  0.1264
  672MPD2    C4 9996   1.575   4.231   1.614  0.3304  0.5120 -0.6043
  672MPD2    C5 9997   1.476   4.206   1.524 -0.5496  0.2205 -1.1340
  672MPD2     H 9998   1.663   3.908   1.696  1.3725  0.9593  0.1749
  672MPD2    H1 9999   1.608   4.331   1.643  0.2370  1.1552 -2.7179
  672MPD2    H210000   1.367   4.060   1.422 -0.0582  0.6655 -0.5718
  672MPD2    H310001   1.413   4.280   1.474 -0.1822  1.0497 -0.3585
  672MPD2     N10002   1.746   4.172   1.759  0.2803  0.5758 -0.1838
  672MPD2    H510003   1.769   4.270   1.753 -2.5234  1.2345  0.1736
  672MPD2    N110004   1.496   3.839   1.522  0.3175 -0.3594 -0.4612
  672MPD2    H710005   1.560   3.775   1.568  0.2536 -0.5182 -0.5924
  673TMC3    C110006   1.456   3.652   1.389  0.4080 -0.5021  0.0308
  673TMC3    C210007   1.482   3.554   1.483  0.0444  0.0919  0.1187
  673TMC3    C310008   1.553   3.446   1.444 -0.6067 -0.0156  0.7196
  673TMC3    C410009   1.503   3.637   1.258  0.1348  0.6053  0.0600
  673TMC3    C510010   1.577   3.528   1.225 -0.5584  0.3305  0.3677
  673TMC3    C610011   1.603   3.430   1.318 -0.4523  0.0388 -0.4322
  673TMC3     C10012   1.410   3.787   1.427  0.7201  0.3130  0.9258
  673TMC3     O10013   1.317   3.841   1.361  0.8087  0.1585  0.6002
  673TMC3     H10014   1.442   3.568   1.583  1.9446  0.8862  0.7613
  673TMC3    H110015   1.503   3.723   1.192 -2.2839  0.2219 -0.4274
  673TMC3    H210016   1.650   3.339   1.285 -1.4874  0.1415 -2.1961
  673TMC3    C710017   1.629   3.505   1.090  0.2671  0.3929 -0.2862
  673TMC3    C810018   1.592   3.362   1.544  0.1015  0.3329 -0.4043
  673TMC3    O110019   1.724   3.429   1.083 -0.2433 -0.0606 -0.0778
  673TMC3    O210020   1.516   3.351   1.637 -0.4818  0.1600 -0.0097
  674MPD2     C10021   2.064   2.900   0.260 -0.4639 -0.1358 -0.2115
  674MPD2    C110022   2.003   2.801   0.341  0.2045  0.1606  0.1621
  674MPD2    C210023   1.950   2.830   0.469  0.7220 -0.3796 -0.6247
  674MPD2    C310024   1.944   2.965   0.511  0.5261  0.2726 -0.4396
  674MPD2    C410025   1.997   3.060   0.429 -0.1783 -0.5804  0.8425
  674MPD2    C510026   2.051   3.029   0.307 -0.2222 -0.1747 -0.4630
  674MPD2     H10027   1.899   2.757   0.531 -0.7039  1.1854  0.0451
  674MPD2    H110028   2.003   3.164   0.461 -0.6607  0.0513 -1.1438
  674MPD2    H210029   2.128   2.889   0.173 -2.5707 -2.7432 -1.4212
  674MPD2    H310030   2.087   3.112   0.249  1.5477 -2.9047 -3.2427
  674MPD2     N10031   1.884   3.000   0.627  0.2064 -0.7983  0.3132
  674MPD2    H510032   1.879   2.926   0.696  2.9925 -0.4761  0.8590
  674MPD2    N110033   1.993   2.668   0.296  0.5362  0.2785  0.0972
  674MPD2    H710034   1.961   2.599   0.364  1.3414  0.0630  0.2629
  675TMC3    C110035   2.009   2.483   0.170  0.0687  0.2177 -0.0383
  675TMC3    C210036   1.907   2.422   0.098  0.1214  0.0218  0.2734
  675TMC3    C310037   1.852   2.306   0.156 -0.1546  0.9377  0.0300
  675TMC3    C410038   2.065   2.422   0.278  0.6936 -0.3000  0.4513
  675TMC3    C510039   2.001   2.312   0.333 -0.1612 -0.1440 -0.3204
  675TMC3    C610040   1.904   2.244   0.263  0.1902 -0.8919 -0.0960
  675TMC3     C10041   2.012   2.624   0.165  0.1007  0.5152 -0.8966
  675TMC3     O10042   2.018   2.687   0.061  0.1707 -0.4699 -0.5867
  675TMC3     H10043   1.858   2.486   0.025 -3.4190 -1.1838  1.5775
  675TMC3    H110044   2.146   2.474   0.327  1.2963  0.5384 -1.4375
  675TMC3    H210045   1.865   2.148   0.296 -1.6412  0.3714  1.3919
  675TMC3    C710046   1.938   2.341   0.462 -0.2722  0.0665 -0.4777
  675TMC3    C810047   1.705   2.300   0.142 -0.0615 -0.0198  0.3887
  675TMC3    O110048   1.835   2.281   0.488  0.4014 -0.2923  0.1404
  675TMC3    O210049   1.665   2.332   0.030  0.1157  0.2038  0.0585
  676MPD2     C10050   4.313   2.250  11.508 -0.4414 -0.2909 -0.0789
  676MPD2    C110051   4.219   2.160  11.557 -0.3698 -0.8233 -0.4937
  676MPD2    C210052   4.217   2.038  11.496 -0.0014 -0.1309  0.0248
  676MPD2    C310053   4.311   1.998  11.399 -0.4032  0.1208 -0.5861
  676MPD2    C410054   4.419   2.080  11.378  0.2846  0.1896 -0.1232
  676MPD2    C510055   4.409   2.212  11.427 -0.5260  0.1329 -0.1120
  676MPD2     H10056   4.139   1.973  11.533  0.5108 -0.5227  0.4197
  676MPD2    H110057   4.492   2.067  11.299 -1.5567 -1.8389 -1.5239
  676MPD2    H210058   4.309   2.350  11.550  1.1639 -0.4655  0.5087
  676MPD2    H310059   4.481   2.285  11.391 -0.0996 -0.1872  0.0895
  676MPD2     N10060   4.313   1.866  11.343  0.2491  0.5453  0.3320
  676MPD2    H510061   4.401   1.838  11.300 -0.4562 -0.4044 -0.4993
  676MPD2    N110062   4.119   2.186  11.650  0.4015 -0.1853  0.3415
  676MPD2    H710063   4.046   2.118  11.670  0.3439 -0.4132 -0.6436
  677TMC3    C110064   3.971   2.287  11.797 -0.0862 -0.1312 -0.4471
  677TMC3    C210065   3.865   2.211  11.758 -0.4363  0.3535  0.2813
  677TMC3    C310066   3.771   2.171  11.852  0.7150  0.3614  0.0845
  677TMC3    C410067   3.988   2.335  11.928  0.4529  0.1615  0.6374
  677TMC3    C510068   3.891   2.303  12.018 -0.2024 -0.7627  0.2291
  677TMC3    C610069   3.777   2.231  11.978  0.4677  0.7156 -0.4571
  677TMC3     C10070   4.083   2.308  11.702 -0.2286 -0.3686  0.6004
  677TMC3     O10071   4.157   2.406  11.731  0.0593  0.3086 -0.2027
  677TMC3     H10072   3.859   2.172  11.657 -2.1269 -1.7072  1.1686
  677TMC3    H110073   4.084   2.382  11.944  0.8034 -0.7387  1.1886
  677TMC3    H210074   3.699   2.223  12.052 -0.6245 -1.6638 -1.8611
  677TMC3    C710075   3.931   2.272  12.154  0.2941  0.1427  0.0208
  677TMC3    C810076   3.661   2.094  11.805  0.0512  0.7571  1.3122
  677TMC3    O110077   3.856   2.215  12.232 -0.4776 -0.0431  0.3278
  677TMC3    O210078   3.628   2.113  11.690  0.4787  0.4410 -0.5941
  678MPD2     C10079   0.621   1.422   1.502  0.7291 -0.5919 -1.1291
  678MPD2    C110080   0.640   1.352   1.387 -0.4142 -0.1943  0.1268
  678MPD2    C210081   0.535   1.339   1.294  0.1379 -0.0870  0.8865
  678MPD2    C310082   0.409   1.394   1.318  0.3326 -0.3382  0.6798
  678MPD2    C410083   0.393   1.454   1.443 -0.1085 -0.5368 -0.8208
  678MPD2    C510084   0.495   1.464   1.525  0.0940 -0.1866  0.3297
  678MPD2     H10085   0.547   1.291   1.197  0.6293 -1.5917  1.6928
  678MPD2    H110086   0.305   1.513   1.466 -0.5797 -2.0916  1.2964
  678MPD2    H210087   0.696   1.445   1.577 -0.9926 -2.9251  1.2969
  678MPD2    H310088   0.472   1.518   1.617 -0.7606 -0.5693  0.3435
  678MPD2     N10089   0.316   1.403   1.212 -0.1375 -0.3534  0.3634
  678MPD2    H510090   0.342   1.348   1.132 -1.4818 -1.2367  0.5170
  678MPD2    N110091   0.762   1.306   1.343  0.2071  0.2450 -0.6179
  678MPD2    H710092   0.758   1.263   1.251  0.4936 -1.7527  0.3062
  679TMC3    C110093   1.198   1.155   1.366  0.1821  0.3171 -0.7834
  679TMC3    C210094   1.103   1.233   1.419  0.3074  0.0128 -0.2710
  679TMC3    C310095   0.988   1.269   1.348  0.6277 -0.2251 -0.0679
  679TMC3    C410096   1.198   1.129   1.231  0.3257  0.6272 -0.1904
  679TMC3    C510097   1.104   1.196   1.155 -0.3893 -0.0854  0.2158
  679TMC3    C610098   0.995   1.260   1.210 -0.2318 -0.5313  0.6540
  679TMC3     C10099   1.335   1.162   1.415 -0.3560  0.1362  0.0454
  679TMC3     O10100   1.403   1.060   1.400  0.3472  0.0871 -0.2309
  679TMC3     H10101   1.107   1.243   1.527  2.8454 -2.6693 -0.1168
  679TMC3    H110102   1.280   1.071   1.189  1.4912  3.1827 -1.4260
  679TMC3    H210103   0.924   1.308   1.143  0.0435 -0.0473  0.7080
  679TMC3    C710104   1.159   1.273   1.044 -0.3343  0.1238  0.7262
  679TMC3    C810105   0.875   1.317   1.419 -0.0685 -0.2873  0.0316
  679TMC3    O110106   1.086   1.353   0.989  0.0625  0.3275 -0.6325
  679TMC3    O210107   0.879   1.346   1.536 -0.8661 -0.2810  0.3351
  680MPD2     C10108   1.022   0.608  14.126 -0.1590 -0.1927 -0.1861
  680MPD2    C110109   1.134   0.579  14.204 -0.1972 -0.9551 -0.0171
  680MPD2    C210110   1.223   0.679  14.240 -0.2915  0.4891 -0.5488
  680MPD2    C310111   1.194   0.814  14.212 -0.0265  0.7910 -0.1694
  680MPD2    C410112   1.081   0.845  14.133  0.4596 -0.4167  0.1120
  680MPD2    C510113   1.002   0.740  14.087 -0.5905 -0.1603  0.7839
  680MPD2     H10114   1.315   0.662  14.294 -0.9060  0.5502  0.5126
  680MPD2    H110115   1.063   0.947  14.101  2.6889  0.3781  1.3740
  680MPD2    H210116   0.959   0.528  14.090 -1.1070  1.1683 -1.5269
  680MPD2    H310117   0.928   0.766  14.013 -0.8911 -0.9002  0.8308
  680MPD2     N10118   1.277   0.923  14.241 -0.3361 -0.0600  0.2958
  680MPD2    H510119   1.252   1.015  14.206  1.9452  1.1391  1.7614
  680MPD2    N110120   1.170   0.446  14.231  0.0366  0.1673 -0.1987
  680MPD2    H710121   1.267   0.433  14.258 -0.3235 -0.4205  0.8060
  681TMC3    C110122   1.176   0.223  14.283  0.0716 -0.1057 -0.6999
  681TMC3    C210123   1.115   0.117  14.347 -0.2505  0.2607 -0.1209
  681TMC3    C310124   1.198   0.011  14.378 -0.1151 -0.4956 -0.2052
  681TMC3    C410125   1.309   0.226  14.251  0.2194 -0.2107  0.9078
  681TMC3    C510126   1.387   0.117  14.277  0.6161  0.0951  0.3721
  681TMC3    C610127   1.331   0.006  14.346  0.1169 -0.1202  0.6075
  681TMC3     C10128   1.096   0.334  14.233 -0.0845  0.6878 -0.0608
  681TMC3     O10129   0.973   0.326  14.226  0.1153  0.3175 -0.4149
  681TMC3     H10130   1.017   0.132  14.390  0.0916  0.0168  0.7505
  681TMC3    H110131   1.362   0.310  14.207 -0.0300 -0.3968  0.2515
  681TMC3    H210132   1.404   4.670  14.372  2.0407  1.4032 -0.2666
  681TMC3    C710133   1.530   0.121  14.239  0.2489  0.2934 -0.3633
  681TMC3    C810134   1.147   4.660  14.482  0.0912  0.0418 -0.0828
  681TMC3    O110135   1.598   0.037  14.295 -0.1539 -0.5345  0.5594
  681TMC3    O210136   1.053   4.591  14.445  0.4775 -0.4222  0.1867
  682MPD2     C10137   2.796   2.331  10.737 -0.0294 -0.6124  0.3965
  682MPD2    C110138   2.744   2.202  10.750  0.5333 -1.1804 -0.6900
  682MPD2    C210139   2.737   2.149  10.879 -0.6700 -0.1005  0.4994
  682MPD2    C310140   2.779   2.217  10.987  0.4671 -0.0011 -0.8364
  682MPD2    C410141   2.826   2.353  10.974 -0.2462 -0.1493 -0.0106
  682MPD2    C510142   2.837   2.407  10.849 -0.0636  0.5806  0.6205
  682MPD2     H10143   2.705   2.047  10.894  1.2832 -0.9584 -1.2508
  682MPD2    H110144   2.867   2.411  11.056 -0.3468  1.0539 -0.8024
  682MPD2    H210145   2.803   2.388  10.645  1.3897 -0.3954  0.6452
  682MPD2    H310146   2.870   2.509  10.829  0.7141  0.3530  0.7162
  682MPD2     N10147   2.778   2.178  11.126  0.1353  0.8820  0.1588
  682MPD2    H510148   2.833   2.237  11.188 -1.1297  3.1198 -0.8620
  682MPD2    N110149   2.712   2.117  10.637 -0.0498 -0.7914 -0.4949
  682MPD2    H710150   2.694   2.020  10.658  0.0037 -0.4990  0.9082
  683TMC3    C110151   2.912   2.072  11.480  0.5524 -0.2103  0.0722
  683TMC3    C210152   2.960   1.937  11.479  0.4715 -0.5521  0.3382
  683TMC3    C310153   2.901   1.848  11.390  0.0249 -1.0329 -0.0327
  683TMC3    C410154   2.829   2.119  11.387  0.5535 -0.1127  0.5265
  683TMC3    C510155   2.772   2.022  11.295 -0.0804  0.0212 -1.1389
  683TMC3    C610156   2.799   1.887  11.307  0.1766  0.5271  0.0891
  683TMC3     C10157   2.946   2.166  11.587 -0.6104  1.0729  0.0127
  683TMC3     O10158   2.860   2.253  11.615 -0.1934 -0.1251 -0.4082
  683TMC3     H10159   3.031   1.890  11.546 -0.2276 -1.0610  0.7162
  683TMC3    H110160   2.818   2.227  11.380  3.7279  0.2051  0.3707
  683TMC3    H210161   2.755   1.813  11.241 -0.1809  0.5550  0.2951
  683TMC3    C710162   2.722   2.062  11.168  0.1563 -0.1364 -0.6310
  683TMC3    C810163   2.907   1.708  11.403 -0.6233  0.7749 -0.8537
  683TMC3    O110164   2.665   1.983  11.099  0.0408  0.2942  0.2140
  683TMC3    O210165   2.810   1.641  11.393  1.0094 -0.1324  0.0668
  684MPD2     C10166   1.581   0.507  16.331  0.3190 -0.2913  0.5582
  684MPD2    C110167   1.584   0.570  16.210 -0.1203 -1.2940 -0.1818
  684MPD2    C210168   1.564   0.712  16.210 -0.0563  0.6034  0.1577
  684MPD2    C310169   1.536   0.778  16.328  0.2734  0.5396  0.8889
  684MPD2    C410170   1.533   0.707  16.448 -0.4599 -0.1333  0.3560
  684MPD2    C510171   1.554   0.574  16.449  0.1945 -0.5370 -0.3849
  684MPD2     H10172   1.576   0.756  16.112  1.0417  0.5695  0.2738
  684MPD2    H110173   1.502   0.757  16.539  0.7282  0.7637  0.2754
  684MPD2    H210174   1.611   0.404  16.336 -0.6956 -0.5863  0.6930
  684MPD2    H310175   1.560   0.523  16.544  2.4619  1.1813  0.3844
  684MPD2     N10176   1.508   0.912  16.332 -0.3350  0.2863  0.3235
  684MPD2    H510177   1.501   0.956  16.423  1.8091 -0.0794  0.6885
  684MPD2    N110178   1.636   0.510  16.093 -0.1922 -0.1911  0.2014
  684MPD2    H710179   1.657   0.573  16.017 -0.7541  0.0990  0.2839
  685TMC3    C110180   1.768   0.396  15.949  0.4284  0.1179  0.1081
  685TMC3    C210181   1.700   0.476  15.862  0.2875  0.0314 -0.0891
  685TMC3    C310182   1.773   0.564  15.785  0.2557  0.6240  0.8918
  685TMC3    C410183   1.907   0.406  15.958  0.2485 -0.7355  0.7016
  685TMC3    C510184   1.970   0.506  15.895  0.3377 -0.1199 -0.4632
  685TMC3    C610185   1.910   0.582  15.800  0.0704 -0.6077 -0.2406
  685TMC3     C10186   1.705   0.393  16.079 -0.3645 -0.0921 -0.2028
  685TMC3     O10187   1.730   0.307  16.162 -0.4596  0.0157  0.0319
  685TMC3     H10188   1.598   0.456  15.832  0.0863 -0.0666  0.6749
  685TMC3    H110189   1.964   0.353  16.034  0.7719  0.6044  1.2484
  685TMC3    H210190   1.954   0.676  15.770 -1.9388  0.1539 -0.8385
  685TMC3    C710191   2.086   0.563  15.964 -0.2140 -0.0692  0.1309
  685TMC3    C810192   1.693   0.665  15.718  0.4192  0.2513  0.7912
  685TMC3    O110193   2.128   0.504  16.066  1.0014 -0.4938 -0.2019
  685TMC3    O210194   1.745   0.711  15.618 -0.0453  0.1501 -0.2000
  686MPD2     C10195   2.830   1.510  16.070 -0.2050  0.0803  0.2063
  686MPD2    C110196   2.905   1.396  16.074  0.0992 -0.0464 -0.3850
  686MPD2    C210197   3.035   1.399  16.032 -0.0246 -0.4783  0.4918
  686MPD2    C310198   3.081   1.516  15.971  0.0923 -0.0772  0.3011
  686MPD2    C410199   2.999   1.628  15.965 -0.5782  0.8753  0.6253
  686MPD2    C510200   2.877   1.620  16.019 -0.3725 -0.0314  0.8237
  686MPD2     H10201   3.091   1.306  16.029 -0.8833 -1.0718  2.7386
  686MPD2    H110202   3.021   1.715  15.904  1.3753 -1.2891 -1.7580
  686MPD2    H210203   2.729   1.500  16.107  0.3004  1.0937  1.8711
  686MPD2    H310204   2.825   1.715  16.024  1.7923  0.9943  4.2369
  686MPD2     N10205   3.194   1.507  15.892  0.4929  0.6171  0.1094
  686MPD2    H510206   3.206   1.576  15.818 -2.1972 -1.5865 -2.4004
  686MPD2    N110207   2.844   1.279  16.126 -0.5658  0.2766  0.9764
  686MPD2    H710208   2.744   1.284  16.145 -0.5398 -1.4540  1.5477
  687TMC3    C110209   3.330   1.357  15.768 -0.0001  0.6006 -0.2143
  687TMC3    C210210   3.219   1.349  15.678  0.6935  1.0007 -0.4349
  687TMC3    C310211   3.181   1.233  15.625 -0.0411  1.1372  0.0547
  687TMC3    C410212   3.403   1.245  15.790 -0.1787  0.3797  0.8383
  687TMC3    C510213   3.354   1.128  15.733  0.1282  0.2254  0.1648
  687TMC3    C610214   3.249   1.115  15.647 -0.1524  0.7254  0.4186
  687TMC3     C10215   3.295   1.412  15.899 -0.4767 -0.3349  0.6116
  687TMC3     O10216   3.320   1.346  15.998 -0.1661  0.2407  0.0578
  687TMC3     H10217   3.168   1.440  15.647  0.9418  1.2382 -0.1528
  687TMC3    H110218   3.483   1.262  15.861 -1.1223 -0.1077  2.0191
  687TMC3    H210219   3.203   1.019  15.627 -1.7799  1.3114  1.3155
  687TMC3    C710220   3.367   1.005  15.813 -0.0944  0.4782 -0.0445
  687TMC3    C810221   3.038   1.216  15.628 -0.0278 -0.9195 -0.3062
  687TMC3    O110222   3.274   0.925  15.831  0.0142  0.4047 -0.2437
  687TMC3    O210223   3.002   1.110  15.570 -1.1350 -0.4702 -0.5512
  688MPD2     C10224   2.160   4.561  17.633  0.2930  0.3711 -0.4443
  688MPD2    C110225   2.217   4.451  17.689 -0.4879 -0.4552  0.2603
  688MPD2    C210226   2.331   4.389  17.620 -0.2191 -0.8578 -0.1978
  688MPD2    C310227   2.375   4.444  17.501 -0.3750  0.0836  0.4027
  688MPD2    C410228   2.315   4.556  17.457 -0.1899  0.0045  0.0453
  688MPD2    C510229   2.200   4.606  17.518 -0.0814  0.5381  0.0634
  688MPD2     H10230   2.382   4.305  17.667 -0.4495 -1.1608 -0.4879
  688MPD2    H110231   2.360   4.608  17.373 -1.0699  0.9139  0.1371
  688MPD2    H210232   2.066   4.602  17.668  0.9920  0.5084  1.2912
  688MPD2    H310233   2.149   4.692  17.476  0.5182  0.6640 -0.4116
  688MPD2     N10234   2.493   4.408  17.435 -0.5742  0.4664 -0.3889
  688MPD2    H510235   2.528   4.475  17.367 -1.4180  0.6241 -0.6717
  688MPD2    N110236   2.163   4.392   0.047  0.3817 -0.3248 -0.4413
  688MPD2    H710237   2.210   4.308   0.080 -1.1739 -1.2609 -0.6238
  689TMC3    C110238   2.022   4.345   0.228 -0.2509 -0.5467 -0.0981
  689TMC3    C210239   1.975   4.410   0.336  0.5574 -0.6351 -0.2649
  689TMC3    C310240   1.896   4.355   0.425  0.3957  0.2470 -0.2789
  689TMC3    C410241   1.955   4.235   0.183  0.6744  0.1158  0.7717
  689TMC3    C510242   1.865   4.179   0.270 -0.4210 -0.2977  0.0692
  689TMC3    C610243   1.835   4.237   0.394 -0.5575  0.6854 -0.3317
  689TMC3     C10244   2.077   4.445   0.136  0.0710  0.4072 -0.3591
  689TMC3     O10245   2.027   4.559   0.146 -0.0382  0.8836 -0.0365
  689TMC3     H10246   2.025   4.501   0.369 -3.5108  1.3647  0.4853
  689TMC3    H110247   1.993   4.182   0.097  0.7591  0.2626  0.7190
  689TMC3    H210248   1.756   4.202   0.460 -0.8146  1.5324 -0.1933
  689TMC3    C710249   1.838   4.040   0.252 -0.5068 -0.3737 -0.0115
  689TMC3    C810250   1.847   4.429   0.532  0.3889  0.7299  0.7176
  689TMC3    O110251   1.795   3.988   0.354 -0.7626  0.3905 -0.2179
  689TMC3    O210252   1.931   4.504   0.581  0.3667 -0.3477 -0.1791
  690MPD2     C10253   4.629   1.770  16.010  0.3201 -0.2408 -0.6121
  690MPD2    C110254   4.546   1.794  15.911  0.1975 -0.7813 -0.8322
  690MPD2    C210255   4.575   1.895  15.822 -0.1093  0.2406 -0.3738
  690MPD2    C310256   4.693   1.968  15.831  0.7518  0.0000 -0.6307
  690MPD2    C410257   0.039   1.944  15.935 -0.1119  0.5377  0.4652
  690MPD2    C510258   4.734   1.852  16.030  0.0010  0.5525  0.3579
  690MPD2     H10259   4.508   1.905  15.737  2.9943  0.2466 -2.8253
  690MPD2    H110260   0.120   2.009  15.966 -0.2848  0.9980 -0.0446
  690MPD2    H210261   4.619   1.688  16.080 -0.1276 -1.1455 -1.7377
  690MPD2    H310262   0.056   1.830  16.117  0.9624 -0.2216 -0.5217
  690MPD2     N10263   4.723   2.054  15.728 -0.2689 -0.1438 -0.2359
  690MPD2    H510264   4.646   2.069  15.664 -0.6335  1.0914  0.4827
  690MPD2    N110265   4.441   1.707  15.890  0.4069 -0.2708  0.0612
  690MPD2    H710266   4.376   1.735  15.817  0.4186  0.1285  0.2028
  691TMC3    C110267   4.333   1.506  15.851 -0.4508 -0.0255  0.0851
  691TMC3    C210268   4.203   1.547  15.873  0.1320  0.3355 -0.0303
  691TMC3    C310269   4.101   1.479  15.814 -0.2093 -0.0306 -0.3903
  691TMC3    C410270   4.357   1.393  15.779 -0.7600 -0.7052  0.1418
  691TMC3    C510271   4.256   1.326  15.724 -0.0769 -0.0026  0.6239
  691TMC3    C610272   4.131   1.367  15.743  0.4217  0.7173  0.3474
  691TMC3     C10273   4.442   1.576  15.921 -0.2052 -0.5233 -0.2005
  691TMC3     O10274   4.535   1.502  15.946 -0.3652  0.2343 -0.6268
  691TMC3     H10275   4.183   1.628  15.942 -0.5204  1.1500 -1.1573
  691TMC3    H110276   4.459   1.359  15.765 -0.8418 -0.1298 -1.8557
  691TMC3    H210277   4.049   1.328  15.683  0.7323  0.5180  0.0551
  691TMC3    C710278   4.264   1.182  15.731  0.3060  0.0562  0.1140
  691TMC3    C810279   3.968   1.466  15.859  0.1761  1.0766 -0.1619
  691TMC3    O110280   4.366   1.126  15.762  0.0774  0.6064  0.0582
  691TMC3    O210281   3.912   1.355  15.867  0.5853 -0.0029  0.3858
  692TMC3    C110282   1.210   2.356  15.945 -0.0736 -0.4252  1.3115
  692TMC3    C210283   1.345   2.369  15.959 -0.1768 -0.3062  0.3889
  692TMC3    C310284   1.419   2.250  15.971 -0.1044  0.2747 -0.6155
  692TMC3    C410285   1.136   2.235  15.948  0.3721 -0.0920  0.4258
  692TMC3    C510286   1.210   2.120  15.961  0.0357  0.1528 -0.3465
  692TMC3    C610287   1.351   2.129  15.969 -0.0150 -0.0664  0.1674
  692TMC3     C10288   1.127   2.475  15.947  0.2533 -0.0239  0.0839
  692TMC3     O10289   1.008   2.472  15.974  0.3180  0.5104  0.8024
  692TMC3     H10290   1.383   2.469  15.979 -0.7531 -0.4206  2.1035
  692TMC3    H110291   1.031   2.232  15.924  0.7099  0.5065 -1.1264
  692TMC3    H210292   1.417   2.043  15.970  0.6101  0.4519  2.0729
  692TMC3    C710293   1.153   1.999  15.909 -0.0905  0.0349 -0.0127
  692TMC3    C810294   1.522   2.250  16.075 -0.6396 -0.6411 -0.9368
  692TMC3    O110295   1.062   2.009  15.828 -0.0984  0.0367  0.1874
  692TMC3    O210296   1.543   2.146  16.134 -0.3373  0.3715  0.6255
  693MPD2     C10297   0.505   1.202  10.632  0.3010 -0.3444 -0.5614
  693MPD2    C110298   0.472   1.070  10.661  0.3255  0.6841 -0.3218
  693MPD2    C210299   0.561   0.991  10.731  0.7691 -0.2690  0.4354
  693MPD2    C310300   0.682   1.042  10.785 -0.6108 -0.5766  0.1454
  693MPD2    C410301   0.714   1.167  10.750 -0.1875  0.1821  0.0688
  693MPD2    C510302   0.628   1.248  10.676 -0.0344 -0.2996 -0.2599
  693MPD2     H10303   0.525   0.892  10.759 -1.0318  0.1103 -0.5611
  693MPD2    H110304   0.808   1.208  10.784  0.2805  0.2040 -1.2626
  693MPD2    H210305   0.438   1.273  10.585  0.6205 -0.2695 -0.9035
  693MPD2    H310306   0.652   1.352  10.657 -1.2332 -0.0221 -0.2602
  693MPD2     N10307   0.770   0.967  10.866  0.2803 -0.1413 -0.2077
  693MPD2    H510308   0.839   1.015  10.923  0.6530 -1.5882  0.5568
  693MPD2    N110309   0.348   1.019  10.636 -0.0958  0.5503 -0.0593
  693MPD2    H710310   0.335   0.922  10.661 -0.9705  0.4682 -0.8757
  694TMC3    C110311   0.115   1.038  10.665 -0.2338  0.1370 -0.1157
  694TMC3    C210312   0.028   0.980  10.578 -0.1635  0.1843  0.0555
  694TMC3    C310313   4.684   0.886  10.636 -0.1226  0.4451 -0.0113
  694TMC3    C410314   0.118   1.018  10.801  0.3605 -0.4383 -0.0499
  694TMC3    C510315   0.036   0.921  10.850 -0.7451  0.0031 -0.6526
  694TMC3    C610316   4.685   0.851  10.768  0.3957  0.1074  0.2544
  694TMC3     C10317   0.235   1.095  10.603  0.2672  1.2371 -0.2237
  694TMC3     O10318   0.216   1.206  10.562  0.0889  0.6724  0.1787
  694TMC3     H10319   0.039   0.988  10.470  1.4812  0.3850  0.2440
  694TMC3    H110320   0.195   1.069  10.857  0.3205 -0.2288 -0.1865
  694TMC3    H210321   4.623   0.770  10.804 -0.2643 -0.6542 -2.6553
  694TMC3    C710322   0.010   0.929  10.993  0.2829 -0.4791  0.0617
  694TMC3    C810323   4.587   0.819  10.555  0.4988  0.2563 -0.3233
  694TMC3    O110324   0.067   1.015  11.060  0.0566  0.1658 -0.2472
  694TMC3    O210325   4.566   0.701  10.576 -0.6561 -0.0926 -0.1987
  695MPD2     C10326   1.867   2.774  13.928  0.1122  0.1060 -0.1025
  695MPD2    C110327   1.823   2.772  14.056  0.9279 -0.7515 -0.9204
  695MPD2    C210328   1.693   2.793  14.080 -0.5287  0.6333 -0.3306
  695MPD2    C310329   1.595   2.813  13.981 -0.2284 -0.1054  0.1584
  695MPD2    C410330   1.639   2.816  13.849  0.7997  0.3276 -0.0907
  695MPD2    C510331   1.778   2.800  13.829 -0.1921  0.1517  0.2181
  695MPD2     H10332   1.665   2.789  14.185 -2.4163  2.4809 -0.7661
  695MPD2    H110333   1.575   2.826  13.762  1.1524  1.9941 -0.1509
  695MPD2    H210334   1.967   2.758  13.889 -0.6608 -1.0435 -1.6032
  695MPD2    H310335   1.816   2.804  13.728 -1.2562  2.4501 -0.0968
  695MPD2     N10336   1.458   2.804  14.022  0.0901  0.2354 -0.0677
  695MPD2    H510337   1.447   2.820  14.122 -0.4455 -0.9712  0.0651
  695MPD2    N110338   1.909   2.737  14.167 -0.2245  0.5362 -0.2481
  695MPD2    H710339   1.875   2.740  14.263  0.0007  1.0357 -0.1839
  696TMC3    C110340   1.235   2.742  13.999  0.1149  0.2055 -0.2881
  696TMC3    C210341   1.249   2.642  14.094  0.1743 -0.4291  1.1433
  696TMC3    C310342   1.136   2.614  14.161 -0.3197  0.7902 -0.5896
  696TMC3    C410343   1.121   2.794  13.956  0.3029  0.3773  0.9319
  696TMC3    C510344   1.009   2.740  14.006  0.0641  0.8154 -0.7654
  696TMC3    C610345   1.016   2.650  14.110  0.0215  0.8400  0.3889
  696TMC3     C10346   1.349   2.797  13.937 -0.1090  0.3450 -0.3342
  696TMC3     O10347   1.340   2.809  13.818 -0.4206  0.0110  0.2795
  696TMC3     H10348   1.344   2.614  14.138  1.5766  1.5824 -0.6143
  696TMC3    H110349   1.117   2.869  13.877 -0.5086  1.6099  2.1461
  696TMC3    H210350   0.929   2.616  14.165  1.1304  0.3247  1.8534
  696TMC3    C710351   0.897   2.834  14.032 -0.3842 -0.3154  0.7038
  696TMC3    C810352   1.163   2.682  14.295  0.2174 -0.3599 -0.1085
  696TMC3    O110353   0.800   2.784  14.092 -0.1274 -0.7593 -0.1537
  696TMC3    O210354   1.281   2.708  14.327 -0.3149  0.4562  0.3259
  697MPD2     C10355   0.733   4.468  15.741  0.6238 -0.0182  0.7045
  697MPD2    C110356   0.764   4.417  15.612  0.1993  0.0590  0.5225
  697MPD2    C210357   0.769   4.512  15.509 -0.1871 -0.0792  0.4838
  697MPD2    C310358   0.760   4.647  15.531  0.1426 -0.3515  0.3657
  697MPD2    C410359   0.722   4.689  15.654  0.5578 -0.0426  0.2942
  697MPD2    C510360   0.716   4.600  15.757 -0.0352  0.2060  0.2621
  697MPD2     H10361   0.790   4.484  15.406  1.0673 -1.5600  1.1418
  697MPD2    H110362   0.696   0.049  15.687 -4.5928 -1.3431  0.3105
  697MPD2    H210363   0.727   4.413  15.834 -1.1286  1.2533  1.3259
  697MPD2    H310364   0.685   4.636  15.854 -1.3914 -0.3299  0.0366
  697MPD2     N10365   0.777   4.735  15.426 -0.0554  0.2807  0.2085
  697MPD2    H510366   0.797   4.693  15.336 -0.5085  0.0089  0.2394
  697MPD2    N110367   0.795   4.280  15.584 -0.1268 -0.0306 -0.3928
  697MPD2    H710368   0.793   4.243  15.490 -1.3777 -2.2426  0.4773
  698TMC3    C110369   0.804   0.212  15.312 -0.1839 -0.0696 -0.2748
  698TMC3    C210370   0.846   0.332  15.320 -1.3739  0.0248  0.0987
  698TMC3    C310371   0.905   0.391  15.208  1.0476  0.1977  0.0888
  698TMC3    C410372   0.804   0.143  15.193 -0.5462  0.6973 -0.1915
  698TMC3    C510373   0.851   0.205  15.078  0.6682  0.5617  0.4110
  698TMC3    C610374   0.909   0.330  15.086 -0.1576 -0.2868  0.0334
  698TMC3     C10375   0.774   0.134  15.435 -0.3231  0.5892  0.7242
  698TMC3     O10376   0.771   0.197  15.539  0.6987 -0.3170 -0.0647
  698TMC3     H10377   0.846   0.389  15.412 -1.6823 -2.7519  1.8133
  698TMC3    H110378   0.777   0.038  15.193  1.5924  0.1489 -0.0468
  698TMC3    H210379   0.949   0.382  15.000 -2.9805  0.3692 -0.8914
  698TMC3    C710380   0.827   0.152  14.956 -0.0123  0.0469  0.8337
  698TMC3    C810381   0.971   0.516  15.229  0.0198 -0.0761 -0.0561
  698TMC3    O110382   0.859   0.223  14.860 -0.4661  0.2502  0.1320
  698TMC3    O210383   0.938   0.589  15.321 -0.3872 -0.0602  0.3397
  699TMC3    C110384   1.069   2.904  13.497 -1.0135 -0.7885  0.7593
  699TMC3    C210385   1.114   2.782  13.540  0.0609 -0.2558  0.0174
  699TMC3    C310386   1.024   2.699  13.608  0.3726  0.0896  0.0422
  699TMC3    C410387   0.942   2.942  13.522  0.3888 -0.4435 -0.1261
  699TMC3    C510388   0.857   2.863  13.593  0.7334 -0.2034 -0.4298
  699TMC3    C610389   0.900   2.744  13.643  0.9180 -0.0160 -0.1729
  699TMC3     C10390   1.122   2.967  13.379 -0.3383  0.1488 -0.7624
  699TMC3     O10391   1.037   2.997  13.299  0.2662 -0.2510  0.3511
  699TMC3     H10392   1.213   2.751  13.509 -0.0146 -1.7021  1.2427
  699TMC3    H110393   0.915   3.045  13.503 -1.5351 -1.3767 -2.4926
  699TMC3    H210394   0.832   2.677  13.694 -0.3143  2.0165  0.8333
  699TMC3    C710395   0.709   2.887  13.614  0.4599  0.0445  0.9475
  699TMC3    C810396   1.064   2.580  13.676 -0.3897  0.3072  0.2720
  699TMC3    O110397   0.642   2.811  13.680  0.0993  0.4065  0.3410
  699TMC3    O210398   0.980   2.509  13.729  0.1045  0.0617 -0.8007
  700TMC3    C110399   0.376   0.089  17.369 -0.4863  0.0987  0.7039
  700TMC3    C210400   0.453   4.722  17.334  0.5521 -0.2185  0.4292
  700TMC3    C310401   0.586   4.724  17.357  0.2738  0.8059 -0.0022
  700TMC3    C410402   0.431   0.192  17.434 -0.5406 -0.4608  0.3179
  700TMC3    C510403   0.566   0.189  17.469 -0.2120 -0.0363 -0.1535
  700TMC3    C610404   0.645   0.091  17.424  0.6535  0.1973 -0.2371
  700TMC3     C10405   0.271   0.100  17.275  0.4469 -0.0236 -0.7495
  700TMC3     O10406   0.166   0.043  17.298 -0.2464 -0.2588 -0.0331
  700TMC3     H10407   0.406   4.655  17.263  1.9306 -1.2309  0.4699
  700TMC3    H110408   0.367   0.274  17.465  0.6698  0.4628  0.3408
  700TMC3    H210409   0.752   0.105  17.426  0.8612 -1.4060  0.4175
  700TMC3    C710410   0.625   0.309  17.515  0.2993 -0.7143 -0.1532
  700TMC3    C810411   0.669   4.632  17.283  0.8832 -1.0227 -0.5035
  700TMC3    O110412   0.743   0.288  17.554  0.2436 -0.1667 -0.1077
  700TMC3    O210413   0.609   4.562  17.201 -0.0314 -0.3068  0.1347
  701TMC3    C110414   4.213   3.478  15.880 -0.0703 -0.0003  0.1285
  701TMC3    C210415   4.180   3.561  15.784 -0.0731  0.1454  0.4872
  701TMC3    C310416   4.271   3.581  15.681 -0.5253  0.0412  0.3768
  701TMC3    C410417   4.337   3.417  15.881  0.0981 -0.2561  0.2694
  701TMC3    C510418   4.422   3.436  15.778 -0.2284  0.9634 -0.5025
  701TMC3    C610419   4.390   3.515  15.669  0.8268  0.1567 -0.3477
  701TMC3     C10420   4.139   3.456  16.009  0.3342  0.3346 -0.1769
  701TMC3     O10421   4.205   3.400  16.095 -0.3299 -0.4423  0.7772
  701TMC3     H10422   4.085   3.614  15.786 -0.3737 -0.4260  1.6769
  701TMC3    H110423   4.358   3.343  15.958 -0.6270  1.4776  2.1117
  701TMC3    H210424   4.466   3.539  15.596  1.6891  0.0999  0.5293
  701TMC3    C710425   4.566   3.426  15.810 -0.7933 -0.6732  0.0251
  701TMC3    C810426   4.272   3.702  15.601 -0.2637 -0.0427 -0.4404
  701TMC3    O110427   4.636   3.439  15.713 -0.0676 -0.8166 -0.2659
  701TMC3    O210428   4.246   3.811  15.652  0.1812  0.0892 -0.0373
  702MPD2     C10429   4.337   1.609  10.659  0.1221  0.0447  0.2605
  702MPD2    C110430   4.303   1.702  10.756  0.3158  0.4521 -0.1214
  702MPD2    C210431   4.281   1.833  10.708  0.4847 -0.4045  0.5534
  702MPD2    C310432   4.283   1.873  10.575 -0.4583 -0.2892 -0.4138
  702MPD2    C410433   4.328   1.777  10.489 -0.0240  0.2374 -0.2812
  702MPD2    C510434   4.356   1.648  10.527 -1.0510  0.2360 -0.2131
  702MPD2     H10435   4.245   1.916  10.768  2.6057  1.1498 -0.3384
  702MPD2    H110436   4.338   1.793  10.383  1.1899 -1.4016 -0.4080
  702MPD2    H210437   4.365   1.506  10.682  0.8952  0.4456  1.1236
  702MPD2    H310438   4.400   1.574  10.461  0.6495  2.4421 -1.5670
  702MPD2     N10439   4.248   2.006  10.542 -0.2855  0.0571  0.7346
  702MPD2    H510440   4.228   2.072  10.616  0.8955  2.4856 -1.1012
  702MPD2    N110441   4.289   1.678  10.895  0.4814 -0.0344  0.0385
  702MPD2    H710442   4.251   1.753  10.951  2.0080 -1.2199  2.6658
  703TMC3    C110443   4.224   2.204  10.432  0.2871  0.3834  0.5947
  703TMC3    C210444   4.141   2.231  10.537  0.5795 -0.6219 -0.3027
  703TMC3    C310445   4.174   2.337  10.620 -0.7027 -0.5154 -0.2683
  703TMC3    C410446   4.344   2.269  10.427 -0.0734  0.3234 -0.1443
  703TMC3    C510447   4.371   2.373  10.513 -0.5043 -0.2558 -0.1858
  703TMC3    C610448   4.278   2.414  10.599  0.3653  0.2830 -0.4309
  703TMC3     C10449   4.247   2.055  10.415  0.3774 -0.0566  0.2866
  703TMC3     O10450   4.265   2.009  10.303 -0.3108  0.1995  0.2355
  703TMC3     H10451   4.049   2.177  10.552 -0.3399  0.8825 -0.4842
  703TMC3    H110452   4.424   2.230  10.364  0.4734 -1.0761  1.4066
  703TMC3    H210453   4.306   2.494  10.666 -1.9088 -1.4217  2.5254
  703TMC3    C710454   4.505   2.400  10.535  0.9894 -0.5575  0.4109
  703TMC3    C810455   4.156   2.310  10.759 -0.2758 -0.8377 -0.3082
  703TMC3    O110456   4.533   2.514  10.575 -0.2318  0.2785 -0.2732
  703TMC3    O210457   4.254   2.337  10.826  0.3064  0.6253  0.1362
  704TMC3    C110458   1.786   4.700  12.863 -0.2384 -0.0784 -0.0962
  704TMC3    C210459   1.901   0.006  12.819 -0.0062  0.0385  0.3504
  704TMC3    C310460   2.013   4.716  12.896 -0.0750 -0.0968 -0.1357
  704TMC3    C410461   1.762   4.633  12.988 -0.0066  0.0779 -0.4686
  704TMC3    C510462   1.874   4.588  13.041 -0.0129 -0.2667  0.3555
  704TMC3    C610463   1.999   4.634  13.005 -0.2819 -0.8179 -0.3819
  704TMC3     C10464   1.666   0.010  12.791 -0.3121  0.9543  0.4585
  704TMC3     O10465   1.561   0.000  12.853  0.5001  0.8617 -0.7552
  704TMC3     H10466   1.918   0.057  12.725 -0.2835 -1.6241 -0.5913
  704TMC3    H110467   1.663   4.599  13.014 -0.7259  1.7064 -1.1014
  704TMC3    H210468   2.087   4.588  13.048 -0.0202 -0.3412 -0.4115
  704TMC3    C710469   1.880   4.445  13.057  0.2140  0.9752 -0.3885
  704TMC3    C810470   2.136   4.698  12.821  0.4219  0.2194  0.3820
  704TMC3    O110471   1.985   4.390  13.030  0.3615 -0.1220  0.0403
  704TMC3    O210472   2.122   4.678  12.702  0.0907 -0.8842  0.3818
  705MPD2     C10473   1.996   2.369  16.874 -0.3226 -0.3380  1.2372
  705MPD2    C110474   1.914   2.459  16.805 -0.1469  0.3567  0.1461
  705MPD2    C210475   1.806   2.513  16.875  0.3084  0.8224  0.2931
  705MPD2    C310476   1.781   2.496  17.007 -0.0057  0.0370  0.4743
  705MPD2    C410477   1.869   2.411  17.077  0.1002 -0.4167  0.4400
  705MPD2    C510478   1.976   2.360  17.010 -0.5901 -0.1929 -0.8003
  705MPD2     H10479   1.734   2.572  16.820 -0.7227  1.1708  1.9978
  705MPD2    H110480   1.862   2.392  17.183 -0.2235 -1.5196  0.2259
  705MPD2    H210481   2.087   2.335  16.826  0.0312  0.9089  1.0318
  705MPD2    H310482   2.032   2.292  17.073 -0.9182  1.5472  1.3639
  705MPD2     N10483   1.653   2.528  17.064  0.0772  0.0681  0.1857
  705MPD2    H510484   1.657   2.521  17.165  1.1941 -0.2296  0.1210
  705MPD2    N110485   1.933   2.485  16.668 -0.7216 -0.4259 -0.4952
  705MPD2    H710486   1.881   2.568  16.639  0.7749  1.2310  1.6498
  706TMC3    C110487   1.978   2.465  16.211 -0.0885 -0.3918  0.4291
  706TMC3    C210488   1.932   2.591  16.194 -0.5116  0.8947  0.1593
  706TMC3    C310489   1.935   2.665  16.311 -0.3339 -0.2662  0.3951
  706TMC3    C410490   2.018   2.407  16.332 -0.6547  0.1246 -0.3303
  706TMC3    C510491   2.016   2.486  16.447 -0.1975 -0.4088  0.3223
  706TMC3    C610492   1.980   2.617  16.432  0.1429 -0.2025 -0.4468
  706TMC3     C10493   1.971   2.386  16.095  0.1724 -0.4710  0.9184
  706TMC3     O10494   1.884   2.418  16.016  0.4650  0.3762  0.0116
  706TMC3     H10495   1.897   2.622  16.097 -2.5904 -0.0139  0.5957
  706TMC3    H110496   2.050   2.304  16.340  1.2544  0.7570  0.3369
  706TMC3    H210497   2.002   2.684  16.514  1.8690 -0.4785 -0.6907
  706TMC3    C710498   2.015   2.421  16.580  0.0338  0.9125 -0.1004
  706TMC3    C810499   1.909   2.805  16.295 -0.7283 -0.7972 -0.1511
  706TMC3    O110500   2.053   2.309  16.587  0.6141  0.2085 -0.0677
  706TMC3    O210501   1.908   2.838  16.175  0.5256  0.1277  0.4003
  707TMC3    C110502   3.085   1.268   1.046  0.0954  0.3428 -0.2936
  707TMC3    C210503   3.164   1.187   1.128 -0.4315  0.2911 -0.5424
  707TMC3    C310504   3.141   1.203   1.262 -0.0100  0.2359 -0.1215
  707TMC3    C410505   2.984   1.341   1.096 -0.2868 -0.7997 -0.7389
  707TMC3    C510506   2.962   1.352   1.227  0.5708  0.6285 -0.2668
  707TMC3    C610507   3.038   1.277   1.311  0.2364  0.0642  0.1146
  707TMC3     C10508   3.084   1.245   0.901  0.6194 -0.2139  0.2390
  707TMC3     O10509   3.094   1.130   0.867  0.0725 -0.0271 -0.7429
  707TMC3     H10510   3.248   1.136   1.083  0.8118  1.1029  0.8878
  707TMC3    H110511   2.927   1.409   1.035 -1.1964 -0.4773  0.4627
  707TMC3    H210512   3.012   1.264   1.415  1.1282 -0.6697  0.2454
  707TMC3    C710513   2.833   1.408   1.268 -0.0307  0.3577 -0.5972
  707TMC3    C810514   3.248   1.174   1.356  0.3964 -0.0854  0.4303
  707TMC3    O110515   2.748   1.402   1.178 -0.1910 -0.1895 -0.1598
  707TMC3    O210516   3.251   1.240   1.460  0.1197  0.4436  0.4752
  708MPD2     C10517   0.020   1.530  14.035  0.1429  0.5443 -0.4140
  708MPD2    C110518   4.679   1.443  14.104  0.0926 -0.5094  0.1717
  708MPD2    C210519   4.727   1.368  14.204  1.0009  0.3078 -0.6172
  708MPD2    C310520   0.119   1.356  14.232 -0.5465  0.0020 -0.3254
  708MPD2    C410521   0.206   1.438  14.154 -0.5813  0.7817 -0.2172
  708MPD2    C510522   0.154   1.518  14.053 -0.8317 -0.1159  1.2504
  708MPD2     H10523   4.655   1.308  14.257  0.8935  0.5905 -0.4406
  708MPD2    H110524   0.313   1.437  14.173 -0.4090  3.1930 -1.0969
  708MPD2    H210525   4.721   1.586  13.951 -0.0948 -1.7300 -1.8161
  708MPD2    H310526   0.227   1.565  13.987 -0.3612 -0.7760  1.2894
  708MPD2     N10527   0.181   1.294  14.344  0.0494  0.3316 -0.1891
  708MPD2    H510528   0.280   1.305  14.361  0.3956 -0.3814 -1.7674
  708MPD2    N110529   4.544   1.421  14.069 -0.1125 -0.1975 -0.2058
  708MPD2    H710530   4.488   1.356  14.122 -0.7460 -0.6913 -1.4700
  709TMC3    C110531   4.361   1.374  13.932  0.4377  0.5205 -0.2549
  709TMC3    C210532   4.359   1.304  13.814  0.6793 -0.7300 -0.3765
  709TMC3    C310533   4.333   1.168  13.835 -0.4325 -0.4581 -0.2868
  709TMC3    C410534   4.318   1.325  14.055  0.5373  0.4331 -0.2885
  709TMC3    C510535   4.293   1.191  14.073 -0.4289  0.7156  0.4622
  709TMC3    C610536   4.307   1.114  13.960  0.2184 -0.7948  0.0213
  709TMC3     C10537   4.490   1.442  13.943 -0.4465 -0.1162 -0.1914
  709TMC3     O10538   4.543   1.473  13.836  0.0713 -0.8800 -0.1039
  709TMC3     H10539   4.376   1.354  13.720 -0.5312 -0.0862 -0.2566
  709TMC3    H110540   4.306   1.398  14.134  0.3110 -0.2602  0.3180
  709TMC3    H210541   4.307   1.007  13.980 -1.8191 -0.7068  0.4938
  709TMC3    C710542   4.364   1.141  14.191 -0.4261 -0.2420  0.2016
  709TMC3    C810543   4.381   1.076  13.737 -0.0541 -0.6461  0.0724
  709TMC3    O110544   4.426   1.235  14.239  0.0060 -0.2830 -0.0256
  709TMC3    O210545   4.358   0.959  13.772  0.0522 -0.4702  0.1654
  710TMC3    C110546   1.113   1.993   0.552 -0.0802 -0.7237 -0.1913
  710TMC3    C210547   1.190   2.006   0.438  0.7861 -0.4042  0.0002
  710TMC3    C310548   1.306   1.930   0.440 -0.0295 -0.4780 -0.0170
  710TMC3    C410549   1.129   1.888   0.641 -0.5843  0.6172  0.4160
  710TMC3    C510550   1.240   1.804   0.624 -0.1640 -0.1422 -0.5789
  710TMC3    C610551   1.335   1.826   0.523 -0.3103  0.3845 -0.3927
  710TMC3     C10552   1.012   2.101   0.577 -1.6271  0.2908  0.3134
  710TMC3     O10553   0.976   2.166   0.485 -0.1945  0.2497  0.2974
  710TMC3     H10554   1.175   2.083   0.363  0.0054  0.2649  0.8448
  710TMC3    H110555   1.065   1.888   0.729 -0.3213 -0.2423  0.6110
  710TMC3    H210556   1.416   1.759   0.496  0.9525  1.9974 -0.5992
  710TMC3    C710557   1.239   1.685   0.702 -0.3927 -0.0615 -0.1076
  710TMC3    C810558   1.399   1.964   0.332 -0.7176  0.1671 -0.1223
  710TMC3    O110559   1.133   1.650   0.747 -0.1289  0.2008  0.5236
  710TMC3    O210560   1.367   2.027   0.234  0.3928 -0.1628 -0.5388
  711TMC3    C110561   0.854   3.476  14.984  0.2159  0.2557  0.0893
  711TMC3    C210562   0.810   3.534  15.100  0.7940  0.2878 -0.6795
  711TMC3    C310563   0.908   3.587  15.176 -0.5119 -0.5472  0.1116
  711TMC3    C410564   0.981   3.487  14.933 -0.6822  0.2660 -0.2962
  711TMC3    C510565   1.080   3.543  15.005  0.6518 -0.4792 -0.0004
  711TMC3    C610566   1.041   3.595  15.128  0.0412  0.7291 -0.0390
  711TMC3     C10567   0.776   3.369  14.938  0.5678  0.6493 -0.0260
  711TMC3     O10568   0.662   3.390  14.898 -0.2985 -0.2477  0.1131
  711TMC3     H10569   0.712   3.515  15.141  0.6307  0.0457 -1.1818
  711TMC3    H110570   0.993   3.444  14.834  1.7319 -2.1467  1.0463
  711TMC3    H210571   1.122   3.628  15.191 -0.5932 -0.6283  1.4891
  711TMC3    C710572   1.204   3.470  15.008 -0.2346  0.5969 -1.0168
  711TMC3    C810573   0.897   3.552  15.312 -0.1075 -0.8133  0.6647
  711TMC3    O110574   1.281   3.493  15.100  0.0100  0.2490 -0.4427
  711TMC3    O210575   0.783   3.549  15.361  0.0328  0.1943 -0.7897
  712MPD2     C10576   2.153   4.469  14.317 -0.2807  0.5264  0.0860
  712MPD2    C110577   2.095   4.520  14.198 -1.2506  1.4071  0.6691
  712MPD2    C210578   2.171   4.595  14.114 -0.0570  0.6990 -0.0249
  712MPD2    C310579   2.295   4.643  14.157 -0.5065  0.0974  0.0094
  712MPD2    C410580   2.351   4.593  14.266 -0.1343 -0.0435  0.0494
  712MPD2    C510581   2.281   4.507  14.345 -0.6725 -1.0246 -0.1719
  712MPD2     H10582   2.125   4.643  14.029 -0.8243  1.6076  0.8964
  712MPD2    H110583   2.449   4.629  14.297 -0.4932  2.0027 -1.2126
  712MPD2    H210584   2.103   4.397  14.380  1.9534 -0.2060  1.0028
  712MPD2    H310585   2.322   4.462  14.435 -0.6411 -0.7440 -0.0460
  712MPD2     N10586   2.369   0.010  14.084 -0.3674 -0.3154 -0.4221
  712MPD2    H510587   2.462   0.028  14.121  0.4042 -2.1166 -1.4514
  712MPD2    N110588   1.954   4.505  14.160 -0.5798 -0.4001  0.6862
  712MPD2    H710589   1.921   4.547  14.074  1.3412  0.8206  0.5409
  713TMC3    C110590   2.394   0.211  13.966  0.4399  0.8090 -0.2969
  713TMC3    C210591   2.526   0.193  13.950 -0.2250  0.2509  0.9200
  713TMC3    C310592   2.586   0.304  13.896  0.1276 -0.5807 -0.0316
  713TMC3    C410593   2.317   0.315  13.926 -0.5246  0.0015  0.0212
  713TMC3    C510594   2.387   0.423  13.874 -0.5102 -0.2730 -0.4529
  713TMC3    C610595   2.522   0.415  13.862  0.3778 -0.2654  0.0710
  713TMC3     C10596   2.317   0.086  13.983 -0.5771 -0.0496 -0.2983
  713TMC3     O10597   2.209   0.075  13.927 -0.2305 -0.5235 -0.2753
  713TMC3     H10598   2.573   0.096  13.952 -0.8230 -0.0339  1.2599
  713TMC3    H110599   2.210   0.316  13.942 -0.0348 -0.1136  3.3989
  713TMC3    H210600   2.581   0.487  13.807 -0.3028  0.3647  0.1640
  713TMC3    C710601   2.316   0.530  13.799 -0.7432  0.1132  0.1236
  713TMC3    C810602   2.726   0.306  13.862  0.2364  0.2492  0.5221
  713TMC3    O110603   2.387   0.600  13.726  0.0207 -0.8116 -0.3519
  713TMC3    O210604   2.763   0.389  13.779 -0.0899 -0.0634  0.1156
  714MPD2     C10605   4.534   3.029   1.740  0.8500 -0.5141  0.4105
  714MPD2    C110606   4.538   2.894   1.719 -0.0754  0.0515  0.1365
  714MPD2    C210607   4.449   2.833   1.633 -0.6889  0.0328  0.2216
  714MPD2    C310608   4.355   2.906   1.565 -0.0596  0.6020  1.3189
  714MPD2    C410609   4.343   3.042   1.602 -0.0942  0.6141  0.3784
  714MPD2    C510610   4.430   3.101   1.682 -0.8981  0.1706 -1.0418
  714MPD2     H10611   4.451   2.725   1.622 -1.4801  0.1026 -0.5306
  714MPD2    H110612   4.268   3.100   1.551 -2.6736 -1.7071  1.5032
  714MPD2    H210613   4.600   3.082   1.808  1.5079  1.0975 -1.5104
  714MPD2    H310614   4.420   3.207   1.703 -0.8999 -0.1218  0.4373
  714MPD2     N10615   4.269   2.839   1.479  0.3634 -0.2135  0.8619
  714MPD2    H510616   4.282   2.739   1.475  1.1788 -0.0714 -0.2612
  714MPD2    N110617   4.651   2.827   1.778 -0.5898  0.6993  0.2904
  714MPD2    H710618   4.726   2.882   1.819  0.5214 -0.7426  0.2160
  715TMC3    C110619   0.073   2.659   1.803 -0.1027 -0.1055 -0.7927
  715TMC3    C210620   0.103   2.528   1.780 -0.4198  0.3288 -0.3310
  715TMC3    C310621   0.233   2.492   1.790 -0.2668 -0.1414  0.6193
  715TMC3    C410622   0.168   2.750   1.809  0.0384 -0.3809  0.3016
  715TMC3    C510623   0.298   2.716   1.808  0.6110  0.4057 -0.1756
  715TMC3    C610624   0.337   2.584   1.801  0.2569  0.9297 -0.1391
  715TMC3     C10625   4.672   2.692   1.784 -0.1928  0.0687  0.1960
  715TMC3     O10626   4.600   2.601   1.744 -0.1734 -0.0790 -0.3268
  715TMC3     H10627   0.026   2.455   1.762  0.3889 -0.3554 -1.0116
  715TMC3    H110628   0.142   2.855   1.801  1.9187  0.1188  0.6952
  715TMC3    H210629   0.443   2.559   1.802  0.2904  1.0560 -1.4699
  715TMC3    C710630   0.408   2.816   1.828  0.4436  0.3429 -0.0231
  715TMC3    C810631   0.270   2.351   1.772  0.3695 -0.8510  0.2560
  715TMC3    O110632   0.522   2.793   1.779  0.4634  0.0302  0.2830
  715TMC3    O210633   0.193   2.272   1.718 -0.4303 -0.7887 -0.0889
  716MPD2     C10634   4.172   1.703  10.162  0.0978  0.2826 -0.0486
  716MPD2    C110635   4.168   1.760  10.036 -0.4806 -0.4059  0.8434
  716MPD2    C210636   4.126   1.687   9.930  0.4162 -0.1708 -0.3694
  716MPD2    C310637   4.070   1.562   9.945  0.0695 -0.5265  0.2680
  716MPD2    C410638   4.078   1.498  10.069 -0.1529  0.2135 -0.5299
  716MPD2    C510639   4.124   1.575  10.174 -0.1910  0.7116 -0.2654
  716MPD2     H10640   4.131   1.715   9.825 -3.3675 -0.8344 -0.7242
  716MPD2    H110641   4.061   1.392  10.088 -1.1854  0.5619  0.4946
  716MPD2    H210642   4.190   1.759  10.253 -0.6596  0.3034  0.0916
  716MPD2    H310643   4.122   1.532  10.273  0.1306  1.9882  0.2916
  716MPD2     N10644   4.027   1.497   9.833 -0.0428  0.3171  0.7319
  716MPD2    H510645   4.027   1.562   9.755 -0.6108  0.3795  0.7852
  716MPD2    N110646   4.217   1.890  10.030 -0.3781  0.4277 -0.2297
  716MPD2    H710647   4.234   1.934  10.120 -2.2161 -0.9809  0.8254
  717TMC3    C110648   3.926   1.350   9.696 -0.2093  0.0605 -0.0781
  717TMC3    C210649   3.863   1.451   9.633 -0.1330 -0.3346 -0.3617
  717TMC3    C310650   3.827   1.425   9.504 -0.3795  0.1369  0.5104
  717TMC3    C410651   3.963   1.230   9.639  0.1587 -0.0729 -0.3234
  717TMC3    C510652   3.919   1.217   9.511  0.2873  0.9852 -0.0593
  717TMC3    C610653   3.863   1.311   9.434 -0.2108  0.1141  0.1456
  717TMC3     C10654   3.969   1.376   9.827 -0.1847 -0.9371  0.0161
  717TMC3     O10655   3.989   1.280   9.895  0.4763  0.4078  0.1286
  717TMC3     H10656   3.818   1.530   9.691 -0.1496 -1.9662  1.8399
  717TMC3    H110657   3.997   1.146   9.698 -0.8554 -0.2919 -0.0535
  717TMC3    H210658   3.829   1.277   9.336 -0.5377 -1.1089  0.6845
  717TMC3    C710659   3.932   1.091   9.446  0.0396  0.0397  0.4107
  717TMC3    C810660   3.736   1.528   9.446 -0.6292 -0.5503  0.9532
  717TMC3    O110661   3.843   1.057   9.371  0.0093 -0.0249 -0.2805
  717TMC3    O210662   3.727   1.629   9.506 -0.0291  0.8855 -0.0496
  718MPD2     C10663   3.416   4.283  12.928  0.5347 -1.0364 -0.3833
  718MPD2    C110664   3.380   4.267  12.795  0.2902  0.6405 -0.2962
  718MPD2    C210665   3.255   4.212  12.769  0.6657 -0.0554 -0.6244
  718MPD2    C310666   3.187   4.152  12.875 -0.0424 -0.5037  0.5704
  718MPD2    C410667   3.221   4.170  13.003  0.6827 -0.9205  0.5120
  718MPD2    C510668   3.335   4.243  13.028 -0.0130 -0.1125 -0.2218
  718MPD2     H10669   3.215   4.216  12.669  1.0622 -2.0142 -0.8721
  718MPD2    H110670   3.154   4.139  13.083  0.0365  0.8044  0.6438
  718MPD2    H210671   3.511   4.330  12.954 -0.4282  0.0236  1.2181
  718MPD2    H310672   3.375   4.250  13.129 -2.7806  0.9562  0.8096
  718MPD2     N10673   3.076   4.073  12.833  0.3014  0.2677 -0.4993
  718MPD2    H510674   3.066   4.070  12.733  2.6379  1.1302 -0.7603
  718MPD2    N110675   3.452   4.312  12.690  0.3622 -0.3821  0.3570
  718MPD2    H710676   3.415   4.281  12.600  1.8770  0.5449 -0.5923
  719TMC3    C110677   3.588   4.441  12.557  0.0524 -0.6131 -0.5567
  719TMC3    C210678   3.504   4.372  12.477 -0.0504  0.2978  0.5162
  719TMC3    C310679   3.422   4.437  12.396  0.3655 -0.8765 -0.4414
  719TMC3    C410680   3.591   4.584  12.556 -0.4481 -0.1809  0.2261
  719TMC3    C510681   3.508   4.639  12.465  0.4756  0.3745  0.0691
  719TMC3    C610682   3.413   4.574  12.388 -0.4154 -0.3184 -0.3123
  719TMC3     C10683   3.570   4.387  12.693 -0.3690 -0.3118 -0.1057
  719TMC3     O10684   3.614   4.444  12.791  0.2318 -0.4090 -0.3199
  719TMC3     H10685   3.526   4.268  12.454  2.0152  0.9467 -0.4513
  719TMC3    H110686   3.648   4.650  12.621 -0.3221 -1.0134  0.9649
  719TMC3    H210687   3.337   4.625  12.329  0.9406  2.3598  0.2570
  719TMC3    C710688   3.563   0.024  12.421 -0.4783  1.0654  0.0589
  719TMC3    C810689   3.293   4.366  12.395 -0.4503  0.9088  0.5547
  719TMC3    O110690   3.685   0.021  12.404  0.3048  0.5532 -0.2146
  719TMC3    O210691   3.307   4.255  12.451  0.1682  0.1960 -0.2695
  720MPD2     C10692   1.942   1.795  14.351 -0.0113 -0.2678 -0.2893
  720MPD2    C110693   2.028   1.875  14.276 -0.2206 -0.2278 -0.1486
  720MPD2    C210694   2.160   1.908  14.324 -0.8410  0.5458  0.2947
  720MPD2    C310695   2.202   1.849  14.445  0.5055 -0.2105 -0.4306
  720MPD2    C410696   2.115   1.758  14.508  0.1757  0.7647 -0.0049
  720MPD2    C510697   1.989   1.730  14.458  0.2510 -0.8484  0.6545
  720MPD2     H10698   2.226   1.970  14.264 -0.9054 -0.4528 -0.7970
  720MPD2    H110699   2.138   1.703  14.598  1.7612  1.0152 -0.2603
  720MPD2    H210700   1.847   1.768  14.306  0.6214  2.0770 -3.0097
  720MPD2    H310701   1.927   1.655  14.506 -2.2099  2.2796  2.3718
  720MPD2     N10702   2.334   1.875  14.493 -0.4060  0.1216 -0.1155
  720MPD2    H510703   2.403   1.923  14.435 -0.1995 -2.3553 -1.9176
  720MPD2    N110704   1.971   1.935  14.159 -0.0360 -0.3187 -0.0724
  720MPD2    H710705   1.884   1.890  14.131  0.3302 -0.9139 -0.2561
  721TMC3    C110706   2.510   1.887  14.659 -0.2088  0.0696  0.8079
  721TMC3    C210707   2.522   1.940  14.780  0.2215 -0.3764 -0.1090
  721TMC3    C310708   2.631   2.029  14.796 -0.4250 -0.8074  0.5705
  721TMC3    C410709   2.603   1.906  14.560  0.0645 -0.1093  0.7199
  721TMC3    C510710   2.719   1.970  14.592  0.2519 -0.5863  0.2604
  721TMC3    C610711   2.728   2.043  14.703  0.7908  0.2907 -0.1939
  721TMC3     C10712   2.371   1.854  14.620 -0.0831 -0.3450  0.0944
  721TMC3     O10713   2.304   1.811  14.714 -0.1093 -0.8907 -0.2747
  721TMC3     H10714   2.441   1.946  14.852  0.9374 -1.3489  0.7679
  721TMC3    H110715   2.591   1.857  14.464  0.6151 -1.5747  1.4051
  721TMC3    H210716   2.803   2.121  14.709  0.9550  0.1461 -0.3511
  721TMC3    C710717   2.840   1.915  14.540  0.2911  0.3057 -0.3514
  721TMC3    C810718   2.628   2.135  14.900  0.5176 -0.0710  0.5056
  721TMC3    O110719   2.845   1.874  14.426  0.2570 -0.3142  0.2461
  721TMC3    O210720   2.652   2.245  14.853  0.2960  0.2337  0.8353
  722MPD2     C10721   1.176   0.215  13.880  0.7312  0.0408  0.2025
  722MPD2    C110722   1.137   0.327  13.816  0.4147  0.4893 -0.9931
  722MPD2    C210723   1.023   0.319  13.744  0.2064  0.0684 -0.1812
  722MPD2    C310724   0.951   0.196  13.724 -0.2580  0.1276 -0.3509
  722MPD2    C410725   1.010   0.079  13.775 -0.4527  0.4089  0.9017
  722MPD2    C510726   1.120   0.091  13.859 -0.4097  0.9597  0.2749
  722MPD2     H10727   0.990   0.413  13.702  1.2406  0.7715  0.5980
  722MPD2    H110728   0.975   4.717  13.768  0.7280  0.0467  0.3834
  722MPD2    H210729   1.265   0.207  13.942  0.1042  0.0515  1.1013
  722MPD2    H310730   1.170   0.004  13.899 -1.2171  0.2650 -0.2212
  722MPD2     N10731   0.825   0.198  13.653 -0.4152  0.1576 -1.2221
  722MPD2    H510732   0.799   0.292  13.627 -0.4904  0.6372  0.5574
  722MPD2    N110733   1.204   0.449  13.838  0.4720  0.4451  0.3718
  722MPD2    H710734   1.177   0.534  13.790  2.0990 -1.0934 -3.2731
  723TMC3    C110735   0.638   0.132  13.521 -0.0725  0.1948 -0.2000
  723TMC3    C210736   0.602   0.036  13.430  0.8985 -0.5437 -0.5720
  723TMC3    C310737   0.502   0.068  13.344  1.0812  0.8321 -0.6973
  723TMC3    C410738   0.564   0.247  13.540 -0.7089  0.2174  0.2351
  723TMC3    C510739   0.475   0.277  13.445  0.5526 -0.0922  0.3121
  723TMC3    C610740   0.434   0.188  13.353 -0.6987  1.1691  0.1584
  723TMC3     C10741   0.758   0.095  13.601  0.1553  0.0369 -0.3536
  723TMC3     O10742   0.788   4.716  13.612  0.1112 -0.4524  0.1329
  723TMC3     H10743   0.679   4.707  13.398  1.7180  0.8435 -1.6003
  723TMC3    H110744   0.591   0.309  13.625  1.4512 -1.6600  0.9073
  723TMC3    H210745   0.358   0.217  13.281 -0.0456 -1.3668 -1.5529
  723TMC3    C710746   0.441   0.415  13.425 -0.5835 -0.8478  0.2577
  723TMC3    C810747   0.541   0.040  13.209  0.3397 -0.1205 -0.2212
  723TMC3    O110748   0.450   0.485  13.524  1.2803 -0.1050  0.6121
  723TMC3    O210749   0.521   0.134  13.135 -0.1084  0.0030 -0.3079
  724TMC3    C110750   0.627   3.644  10.200 -0.5528 -0.2148  0.5935
  724TMC3    C210751   0.628   3.741  10.105 -0.1275 -0.6684 -0.4740
  724TMC3    C310752   0.737   3.810  10.062 -0.7448 -0.1007 -0.0434
  724TMC3    C410753   0.735   3.619  10.280 -0.0966 -0.4938  0.4517
  724TMC3    C510754   0.839   3.705  10.252  0.5502  0.2787  0.6857
  724TMC3    C610755   0.846   3.796  10.148  0.0055  0.0649  0.4982
  724TMC3     C10756   0.505   3.607  10.270  0.6483 -0.4438 -0.0933
  724TMC3     O10757   0.516   3.514  10.345  0.1158  0.3164 -0.2222
  724TMC3     H10758   0.539   3.749  10.044  0.8600 -0.0339 -1.8366
  724TMC3    H110759   0.737   3.557  10.369 -4.6773 -2.1664 -0.6155
  724TMC3    H210760   0.929   3.861  10.124 -1.2222  2.0969  1.7174
  724TMC3    C710761   0.963   3.712  10.330  0.0767 -0.1737 -0.3617
  724TMC3    C810762   0.699   3.947  10.020  0.8812  0.4740 -0.0380
  724TMC3    O110763   1.054   3.779  10.284 -0.1748 -0.8566  1.0895
  724TMC3    O210764   0.598   3.957   9.954 -0.0072  0.1137  0.2696
  725TMC3    C110765   2.518   2.167  12.698  0.2359  0.0639  0.3548
  725TMC3    C210766   2.485   2.179  12.568  1.0226 -0.0425 -0.2292
  725TMC3    C310767   2.447   2.067  12.494  0.6276 -0.6042  0.4881
  725TMC3    C410768   2.524   2.048  12.758  0.2784  0.3249 -0.8364
  725TMC3    C510769   2.501   1.939  12.680 -0.7531 -0.1740  0.4388
  725TMC3    C610770   2.454   1.944  12.554  0.2252  0.0523  0.3007
  725TMC3     C10771   2.586   2.280  12.760 -0.2537 -0.1829 -0.4516
  725TMC3     O10772   2.635   2.359  12.678  0.1663  0.3433  0.4657
  725TMC3     H10773   2.481   2.280  12.530  2.0378 -0.0126 -0.2589
  725TMC3    H110774   2.569   2.026  12.854  2.2225  0.7609 -1.6396
  725TMC3    H210775   2.427   1.857  12.496  0.9676 -0.1169  0.2081
  725TMC3    C710776   2.590   1.820  12.699  0.5270  0.0247 -0.6243
  725TMC3    C810777   2.344   2.086  12.395 -0.2124 -0.5548 -0.7252
  725TMC3    O110778   2.637   1.778  12.597  0.1729  0.3582  0.4334
  725TMC3    O210779   2.268   1.993  12.376  0.5388 -0.0309 -0.4597
  726MPD2     C10780   0.497   3.571  10.976  0.3959 -0.1343 -0.0373
  726MPD2    C110781   0.372   3.610  10.951 -0.6942 -0.3118 -0.2861
  726MPD2    C210782   0.274   3.599  11.052  0.3703 -0.2761  0.3256
  726MPD2    C310783   0.308   3.551  11.178 -0.6024  0.0452 -1.1148
  726MPD2    C410784   0.436   3.509  11.196  0.3832  0.0123 -0.8997
  726MPD2    C510785   0.529   3.529  11.101 -0.2601 -0.6551 -0.2487
  726MPD2     H10786   0.173   3.633  11.034  1.2436  2.4731  0.5635
  726MPD2    H110787   0.475   3.478  11.293  1.1846  1.5346 -0.7351
  726MPD2    H210788   0.568   3.567  10.894 -0.1943 -1.6685 -0.4668
  726MPD2    H310789   0.629   3.500  11.131  0.3836 -0.5908 -2.3313
  726MPD2     N10790   0.205   3.547  11.276 -0.5504 -0.5203  0.1647
  726MPD2    H510791   0.114   3.544  11.231 -1.7866  0.3425  2.5941
  726MPD2    N110792   0.319   3.660  10.825  0.5887 -0.1667  0.4163
  726MPD2    H710793   0.221   3.687  10.832 -0.2787 -2.7557 -1.4632
  727TMC3    C110794   0.340   3.809  10.635 -0.6610 -0.1008 -0.1434
  727TMC3    C210795   0.410   3.928  10.647  0.0228 -0.1818  0.5504
  727TMC3    C310796   0.343   4.038  10.613  0.0334  0.5183  0.7382
  727TMC3    C410797   0.210   3.797  10.608 -0.4672  0.1861  0.2489
  727TMC3    C510798   0.140   3.909  10.605  0.1960  0.2416  0.4528
  727TMC3    C610799   0.206   4.034  10.594 -0.5968 -0.0307  0.8611
  727TMC3     C10800   0.394   3.702  10.725 -0.1884  0.4898 -0.7131
  727TMC3     O10801   0.513   3.691  10.706  0.5678 -0.1135 -0.1034
  727TMC3     H10802   0.515   3.931  10.675  0.3074  1.1878 -0.6213
  727TMC3    H110803   0.169   3.697  10.623  1.3813 -0.4794  0.8444
  727TMC3    H210804   0.157   4.130  10.579 -0.6327  0.0285  1.3305
  727TMC3    C710805   4.738   3.904  10.578  0.2984 -0.0260 -0.0667
  727TMC3    C810806   0.406   4.164  10.639  0.0334  0.1914 -0.3657
  727TMC3    O110807   4.683   3.816  10.646  0.3342  0.0182  0.9194
  727TMC3    O210808   0.479   4.166  10.738 -0.4881 -0.3039 -0.2395
  728TMC3    C110809   0.128   2.163  15.570  0.5324  0.8627 -0.2298
  728TMC3    C210810   0.266   2.179  15.539 -0.2933 -0.3731  0.6961
  728TMC3    C310811   0.303   2.266  15.441 -0.3923 -0.2463  0.2072
  728TMC3    C410812   0.038   2.219  15.485 -0.7506  0.2783 -0.1097
  728TMC3    C510813   0.077   2.297  15.385  0.8208 -0.4628 -0.1503
  728TMC3    C610814   0.207   2.323  15.358 -0.3447 -0.1278 -0.1315
  728TMC3     C10815   0.104   2.109  15.705 -0.5221 -0.4665 -0.1655
  728TMC3     O10816   0.205   2.119  15.772  0.6980  0.0094  0.4459
  728TMC3     H10817   0.336   2.117  15.594 -3.2802 -2.9548  1.5778
  728TMC3    H110818   4.674   2.189  15.499 -0.9212  0.3761 -1.2188
  728TMC3    H210819   0.245   2.392  15.283  1.1684 -0.3912  0.3830
  728TMC3    C710820   4.709   2.361  15.303  0.1983 -0.2944 -0.1443
  728TMC3    C810821   0.441   2.295  15.416  0.7880 -0.3472 -0.4537
  728TMC3    O110822   4.590   2.367  15.341  0.5532 -0.2674  0.0752
  728TMC3    O210823   0.474   2.363  15.320  0.3012  0.0600  0.0182
  729MPD2     C10824   2.457   2.861  16.963 -0.6901 -0.3137  0.0596
  729MPD2    C110825   2.586   2.875  17.012 -0.0648  0.0748 -0.1968
  729MPD2    C210826   2.610   2.865  17.145  0.3691 -1.0010  0.1955
  729MPD2    C310827   2.507   2.849  17.240  0.6080 -0.3500  0.0111
  729MPD2    C410828   2.381   2.840  17.189 -0.6804 -0.0486  0.2507
  729MPD2    C510829   2.355   2.846  17.052  0.7664  0.0042  0.3488
  729MPD2     H10830   2.712   2.880  17.179  0.9721 -0.2135 -1.9833
  729MPD2    H110831   2.306   2.827  17.265 -0.4150  0.3178  0.5727
  729MPD2    H210832   2.430   2.878  16.859  1.1326 -2.3905 -0.7670
  729MPD2    H310833   2.252   2.841  17.019  0.4039  0.8707  1.3350
  729MPD2     N10834   2.546   2.861  17.374 -0.0678 -0.0665 -0.0634
  729MPD2    H510835   2.644   2.844  17.392 -0.1955  1.0576  1.7604
  729MPD2    N110836   2.681   2.905  16.914 -0.1301 -0.1596 -0.3534
  729MPD2    H710837   2.644   2.952  16.832 -0.6538  0.4068  0.2056
  730TMC3    C110838   2.536   2.934  17.597 -0.4590 -0.2293  0.4876
  730TMC3    C210839   2.653   2.864  17.610  0.9524  0.2230  0.0267
  730TMC3    C310840   2.753   2.931  17.680 -0.2997  0.0950  0.0787
  730TMC3    C410841   2.514   3.056  17.654 -0.0490  0.3328 -0.4325
  730TMC3    C510842   2.614   3.120  17.723 -0.0950 -0.2995 -0.0425
  730TMC3    C610843   2.737   3.056  17.736 -0.1872 -0.0953 -0.8737
  730TMC3     C10844   2.463   2.910  17.474 -0.9875 -0.3489  0.0432
  730TMC3     O10845   2.347   2.952  17.468 -0.2709 -0.7744  0.3902
  730TMC3     H10846   2.671   2.763  17.575 -1.6795 -0.2664  0.0890
  730TMC3    H110847   2.431   3.109  17.609 -0.4597 -0.2170 -0.3277
  730TMC3    H210848   2.816   3.102   0.036 -0.3724 -1.6803  0.6520
  730TMC3    C710849   2.603   3.262  17.709  0.3287  0.5506  0.1531
  730TMC3    C810850   2.872   2.856  17.704 -0.4462  0.4651 -0.4364
  730TMC3    O110851   2.707   3.317  17.674 -0.1327  0.5500  0.0630
  730TMC3    O210852   2.860   2.738  17.744  0.5305  0.0149 -0.0399
  731MPD2     C10853   2.893   1.456  12.354  0.0925  0.1530 -0.4017
  731MPD2    C110854   2.766   1.501  12.378 -0.5027 -0.4230 -0.0298
  731MPD2    C210855   2.709   1.483  12.494 -0.4213  0.1945  0.0363
  731MPD2    C310856   2.786   1.415  12.594 -0.4844 -0.0557 -0.0701
  731MPD2    C410857   2.911   1.356  12.562  0.0138 -0.1581  0.2043
  731MPD2    C510858   2.965   1.380  12.436  0.5928 -0.4289  0.3501
  731MPD2     H10859   2.613   1.526  12.519  0.1464  0.5941  1.5056
  731MPD2    H110860   2.961   1.286  12.628  1.4358 -1.0518 -1.8266
  731MPD2    H210861   2.937   1.487  12.259 -1.7246  1.8038 -0.7042
  731MPD2    H310862   3.056   1.332  12.401  0.6226  0.2382 -0.4907
  731MPD2     N10863   2.742   1.398  12.727  0.2559  0.3373  0.0804
  731MPD2    H510864   2.805   1.341  12.783 -0.8261  0.7805  1.7512
  731MPD2    N110865   2.706   1.596  12.296  0.2400 -0.5877 -0.0420
  731MPD2    H710866   2.764   1.617  12.215  1.7681  1.8373  1.6712
  732TMC3    C110867   2.562   1.767  12.202  0.0571  0.1325  0.6733
  732TMC3    C210868   2.441   1.792  12.143 -0.0364  0.0958  0.0613
  732TMC3    C310869   2.435   1.902  12.063  0.2616  0.7448  0.5366
  732TMC3    C410870   2.682   1.837  12.185 -0.2827 -0.5887  0.2800
  732TMC3    C510871   2.657   1.950  12.102 -0.5964  0.3856 -0.7082
  732TMC3    C610872   2.543   1.982  12.038  0.7318  0.4315 -0.1314
  732TMC3     C10873   2.576   1.655  12.295  0.6949 -0.2044 -0.2460
  732TMC3     O10874   2.479   1.632  12.360 -0.1417 -0.2625 -0.2926
  732TMC3     H10875   2.356   1.725  12.151  2.2452 -2.8647 -0.4610
  732TMC3    H110876   2.770   1.820  12.246  0.3287 -0.0283 -0.4455
  732TMC3    H210877   2.534   2.072  11.978  1.0251 -0.1420 -1.0359
  732TMC3    C710878   2.771   2.034  12.073  0.1604  0.7410  0.0522
  732TMC3    C810879   2.304   1.934  11.994 -0.2547 -0.6837 -0.6702
  732TMC3    O110880   2.753   2.153  12.047  0.1333  0.2326 -0.2226
  732TMC3    O210881   2.297   2.006  11.895 -0.2877  1.0686 -0.3182
  733TMC3    C110882   2.657   3.891  12.813  0.4955  0.7843 -0.1423
  733TMC3    C210883   2.760   3.946  12.886  0.8021 -0.3103 -0.0432
  733TMC3    C310884   2.879   3.953  12.828  0.0687  0.1562  0.2922
  733TMC3    C410885   2.667   3.887  12.674 -0.2601 -0.3570 -1.3118
  733TMC3    C510886   2.795   3.907  12.622  1.0932  0.3201  1.1957
  733TMC3    C610887   2.909   3.924  12.696 -0.7105  0.0220 -0.0219
  733TMC3     C10888   2.529   3.868  12.880  0.3020 -0.1471  0.6783
  733TMC3     O10889   2.448   3.808  12.815  0.0877 -0.1729  0.1245
  733TMC3     H10890   2.750   3.959  12.994  1.9647 -2.7288  0.3578
  733TMC3    H110891   2.579   3.857  12.617 -0.8236 -1.6868  0.2558
  733TMC3    H210892   3.010   3.919  12.655 -0.5307  0.4070  0.3699
  733TMC3    C710893   2.797   3.968  12.496 -0.1394  0.6334  0.4562
  733TMC3    C810894   2.983   4.012  12.911 -0.0542  0.2696 -0.1759
  733TMC3    O110895   2.703   3.959  12.417 -0.3763 -0.7634  0.5620
  733TMC3    O210896   2.969   4.007  13.033  0.4113 -0.0625 -0.6322
  734MPD2     C10897   4.717   1.854  12.470 -0.2297  0.0674  0.3923
  734MPD2    C110898   4.657   1.801  12.357  0.6336  0.0408  0.9833
  734MPD2    C210899   4.689   1.852  12.234 -0.6392 -0.2519 -0.0425
  734MPD2    C310900   0.016   1.971  12.219  0.2938 -1.0696 -0.1917
  734MPD2    C410901   0.067   2.030  12.333 -0.4277  0.3569  0.1232
  734MPD2    C510902   0.052   1.967  12.456 -0.8517  0.3482  0.6297
  734MPD2     H10903   4.636   1.810  12.149 -0.6457  0.2102 -0.2654
  734MPD2    H110904   0.104   2.132  12.333  2.9116 -0.8723  1.0215
  734MPD2    H210905   4.688   1.820  12.569 -0.6093  0.5638  0.4511
  734MPD2    H310906   0.087   2.020  12.544 -0.2722 -0.0853  0.6622
  734MPD2     N10907   0.028   2.031  12.095 -0.4908  0.4500  0.4953
  734MPD2    H510908   4.723   1.978  12.021 -0.1837 -0.2346  0.8050
  734MPD2    N110909   4.577   1.694  12.375  0.7603  0.2736  0.0669
  734MPD2    H710910   4.559   1.660  12.469  0.1448  0.6041  0.0711
  735TMC3    C110911   4.426   1.520  12.300 -0.6447  0.3020  0.6789
  735TMC3    C210912   4.326   1.501  12.205 -0.0136  0.6471  0.7194
  735TMC3    C310913   4.338   1.408  12.100  0.5462 -0.5152  0.1813
  735TMC3    C410914   4.538   1.442  12.299 -1.2746 -0.6925  0.5916
  735TMC3    C510915   4.540   1.350  12.196 -0.7615  0.7813 -0.0978
  735TMC3    C610916   4.443   1.321  12.109 -0.1711  0.5166  0.3111
  735TMC3     C10917   4.486   1.648  12.280 -0.2172  0.2608  0.3551
  735TMC3     O10918   4.441   1.701  12.178  0.0297 -0.4501 -0.0964
  735TMC3     H10919   4.244   1.571  12.197  0.3231  0.4323 -4.3591
  735TMC3    H110920   4.624   1.447  12.366 -1.3015  2.0816  0.4165
  735TMC3    H210921   4.462   1.253  12.027  0.9919  1.4002 -0.1465
  735TMC3    C710922   4.679   1.335  12.153  0.0204 -0.0712 -0.1732
  735TMC3    C810923   4.327   1.449  11.964 -0.2669 -0.1334  0.4267
  735TMC3    O110924   0.011   1.432  12.186  0.2939  0.3867 -0.6244
  735TMC3    O210925   4.318   1.363  11.878 -0.2337  0.3767 -0.8654
  736MPD2     C10926   0.137   1.041  12.076  0.4145 -0.3437 -0.4374
  736MPD2    C110927   0.112   1.173  12.090  0.1561  0.8141  0.5873
  736MPD2    C210928   0.220   1.263  12.075  0.7142 -0.3440  0.3133
  736MPD2    C310929   0.348   1.218  12.040  0.1344  0.5383 -0.0338
  736MPD2    C410930   0.361   1.081  12.010  0.4183 -0.2322 -1.0359
  736MPD2    C510931   0.264   0.998  12.039  0.1051  0.0542  0.3383
  736MPD2     H10932   0.199   1.369  12.085  0.9900 -0.3783  1.2814
  736MPD2    H110933   0.453   1.034  11.976  1.2718  0.0224  0.9666
  736MPD2    H210934   0.068   0.969  12.120 -0.6139  0.4882 -0.7051
  736MPD2    H310935   0.288   0.892  12.041 -0.5049 -0.1121 -0.9658
  736MPD2     N10936   0.464   1.306  12.030 -0.2264  0.0268 -0.4800
  736MPD2    H510937   0.553   1.268  11.998  1.1248 -0.1715  3.5272
  736MPD2    N110938   4.719   1.206  12.122  0.1040 -0.1599  0.3441
  736MPD2    H710939   4.649   1.134  12.132 -0.9003  0.7416 -0.1388
  737TMC3    C110940   0.581   1.507  12.030  0.0603  0.2566 -0.1728
  737TMC3    C210941   0.590   1.636  12.071  0.2213 -0.7286  0.4563
  737TMC3    C310942   0.711   1.704  12.067 -0.3183 -0.1967 -0.3430
  737TMC3    C410943   0.688   1.432  11.986 -0.1540  0.0902  1.1183
  737TMC3    C510944   0.802   1.505  11.969 -0.0901  0.1765  0.0440
  737TMC3    C610945   0.817   1.640  12.005  0.3160  0.6214 -0.7588
  737TMC3     C10946   0.456   1.437  12.049  0.2806 -0.4049  0.2316
  737TMC3     O10947   0.362   1.501  12.095 -0.0293 -0.4541 -0.0101
  737TMC3     H10948   0.504   1.689  12.110  1.2762  1.6481 -0.4240
  737TMC3    H110949   0.694   1.328  11.957  0.9527  0.6269 -0.5817
  737TMC3    H210950   0.915   1.686  12.013  0.5817 -0.3006  1.1414
  737TMC3    C710951   0.916   1.441  11.912 -0.5153  0.4297 -0.2322
  737TMC3    C810952   0.708   1.852  12.087 -1.1516 -0.3837 -0.2231
  737TMC3    O110953   0.936   1.322  11.948 -0.4207 -0.2443  0.1072
  737TMC3    O210954   0.618   1.902  12.155 -0.2960  0.1441 -0.1412
  738MPD2     C10955   1.176   0.728  15.241  0.0841  0.2751  1.1069
  738MPD2    C110956   1.205   0.599  15.200  0.3494 -0.4903  0.1718
  738MPD2    C210957   1.335   0.562  15.165  0.5915  0.6006  0.1431
  738MPD2    C310958   1.440   0.641  15.195 -0.2515  0.5737  0.1184
  738MPD2    C410959   1.411   0.763  15.250 -0.9404 -0.0574  0.5790
  738MPD2    C510960   1.283   0.803  15.272  0.9182 -0.4708 -0.0460
  738MPD2     H10961   1.355   0.459  15.138 -1.5749  0.0764  0.5576
  738MPD2    H110962   1.489   0.835  15.274 -0.0598 -0.9025  0.2729
  738MPD2    H210963   1.076   0.766  15.258 -0.6782 -1.8247  1.3583
  738MPD2    H310964   1.268   0.903  15.312 -2.6762 -2.1918  2.8878
  738MPD2     N10965   1.577   0.613  15.175  0.0808  0.3021  0.9100
  738MPD2    H510966   1.641   0.673  15.225  2.4905 -0.3770 -1.3535
  738MPD2    N110967   1.096   0.515  15.167 -0.2812 -0.0921 -0.7218
  738MPD2    H710968   1.116   0.435  15.109 -0.4009 -0.6179 -0.0335
  739TMC3    C110969   1.763   0.493  15.080  0.1160 -0.7147 -0.4898
  739TMC3    C210970   1.819   0.611  15.058 -0.0343 -0.1940  0.1666
  739TMC3    C310971   1.928   0.627  14.980  0.5758  0.8726  0.7786
  739TMC3    C410972   1.806   0.381  15.015 -0.2283 -0.0453  0.3787
  739TMC3    C510973   1.907   0.397  14.923  0.1383 -0.7473  0.0351
  739TMC3    C610974   1.978   0.518  14.909  0.5960 -0.8191  0.6844
  739TMC3     C10975   1.618   0.507  15.093  0.5657 -0.4913 -0.9492
  739TMC3     O10976   1.551   0.426  15.031 -0.0835 -0.5408 -0.1361
  739TMC3     H10977   1.796   0.693  15.126  0.7880  0.4634 -0.3516
  739TMC3    H110978   1.750   0.289  15.015  0.1777 -0.2936 -0.7141
  739TMC3    H210979   2.067   0.530  14.849  0.4059  1.5722  0.8646
  739TMC3    C710980   1.910   0.296  14.821 -0.1484  0.7948 -0.6138
  739TMC3    C810981   1.908   0.751  14.905  1.2585 -0.1829  0.0687
  739TMC3    O110982   1.841   0.198  14.847  0.1729 -0.3369 -0.5471
  739TMC3    O210983   1.795   0.793  14.895  0.0531 -0.1293 -0.0588
  740TMC3    C110984   1.859   1.973  14.766  0.2275  0.2574  0.9806
  740TMC3    C210985   1.879   1.867  14.847 -0.4741  0.6466  0.4968
  740TMC3    C310986   2.015   1.858  14.892 -0.4794  1.1382  0.5069
  740TMC3    C410987   1.953   2.061  14.725 -0.7793  0.6258 -0.1371
  740TMC3    C510988   2.079   2.045  14.773  0.1720 -0.8687 -0.1540
  740TMC3    C610989   2.111   1.952  14.869  0.1915  0.6485  0.5476
  740TMC3     C10990   1.739   2.044  14.791 -0.0517  0.3618  0.7608
  740TMC3     O10991   1.712   2.156  14.751 -0.0385  0.2891  0.0673
  740TMC3     H10992   1.814   1.783  14.862  0.6983 -0.1990  0.8377
  740TMC3    H110993   1.931   2.136  14.649 -0.4330  2.4236  1.5366
  740TMC3    H210994   2.215   1.947  14.902  0.5621 -1.2426 -0.9067
  740TMC3    C710995   2.180   2.142  14.730  0.3373  0.3639 -0.9118
  740TMC3    C810996   2.051   1.751  14.988  0.1237 -0.9269  0.2425
  740TMC3    O110997   2.279   2.149  14.801 -0.4762 -0.1857  0.3464
  740TMC3    O210998   1.973   1.728  15.080  0.7023  0.0430 -0.3515
  741TMC3    C110999   1.711   1.451  14.810 -0.2850 -0.2608  0.2371
  741TMC3    C211000   1.621   1.375  14.741 -0.2315 -0.1186  0.8230
  741TMC3    C311001   1.522   1.305  14.813 -0.1352  0.0549 -0.3049
  741TMC3    C411002   1.701   1.452  14.947  1.0592 -0.0104 -0.2334
  741TMC3    C511003   1.598   1.396  15.007  0.3798 -0.0483  0.1356
  741TMC3    C611004   1.509   1.313  14.944 -0.3207  0.2402  0.4514
  741TMC3     C11005   1.849   1.450  14.762 -0.3405  0.6797 -0.9760
  741TMC3     O11006   1.929   1.465  14.852  0.1272 -0.0109 -0.4905
  741TMC3     H11007   1.626   1.357  14.634  0.8276 -0.7401  0.9835
  741TMC3    H111008   1.769   1.511  15.008 -0.0667  0.0903  0.9410
  741TMC3    H211009   1.423   1.267  14.990 -0.3931 -0.1895 -0.1135
  741TMC3    C711010   1.568   1.456  15.132  0.0847 -0.1023 -0.8011
  741TMC3    C811011   1.415   1.243  14.743  0.2973  0.3884 -0.4458
  741TMC3    O111012   1.612   1.569  15.151 -0.2052 -0.1322  0.4648
  741TMC3    O211013   1.390   1.290  14.631 -0.1430  0.5611 -0.1561
  742TMC3    C111014   1.546   4.180  15.795  0.3178  0.4073 -0.7098
  742TMC3    C211015   1.483   4.185  15.672  0.2107 -0.4592  0.6438
  742TMC3    C311016   1.540   4.251  15.571  0.3858  0.1583 -0.3220
  742TMC3    C411017   1.654   4.253  15.819 -0.2039  0.4215 -0.6056
  742TMC3    C511018   1.701   4.326  15.718 -0.1783  0.6541  0.1254
  742TMC3    C611019   1.645   4.330  15.592  0.4696  0.3189 -0.1741
  742TMC3     C11020   1.489   4.097  15.903  0.4291  0.6368 -0.0155
  742TMC3     O11021   1.504   4.118  16.023  0.2972  0.0767 -0.1046
  742TMC3     H11022   1.406   4.113  15.649 -0.5202  0.5747 -0.1274
  742TMC3    H111023   1.700   4.243  15.917  0.3285  1.6773 -0.7281
  742TMC3    H211024   1.692   4.387  15.512  1.6266  0.9853  0.9932
  742TMC3    C711025   1.825   4.385  15.731  0.6105 -0.1707  0.3203
  742TMC3    C811026   1.502   4.220  15.435  0.0259 -0.5687  0.1400
  742TMC3    O111027   1.898   4.403  15.634 -0.3168 -0.3506 -0.1550
  742TMC3    O211028   1.581   4.208  15.343 -0.3212  0.3536 -0.7370
  743MPD2     C11029   4.190   0.633   1.476  0.4220  0.2520  0.6179
  743MPD2    C111030   4.210   0.587   1.353 -0.1495  0.2494 -0.1897
  743MPD2    C211031   4.330   0.522   1.328  0.2831  0.2699 -0.0485
  743MPD2    C311032   4.432   0.517   1.420 -0.0314 -0.1491  0.2331
  743MPD2    C411033   4.410   0.576   1.539  0.3466  0.2798  0.0721
  743MPD2    C511034   4.286   0.623   1.565  1.0495 -0.0535  0.3832
  743MPD2     H11035   4.353   0.474   1.233  3.6600  3.5805 -0.8908
  743MPD2    H111036   4.480   0.577   1.622 -0.7524  2.3241  0.9655
  743MPD2    H211037   4.091   0.670   1.500 -0.4774 -1.7770  0.0820
  743MPD2    H311038   4.271   0.666   1.664 -0.1536  2.6659 -0.9645
  743MPD2     N11039   4.547   0.454   1.385 -0.7265  0.5706  0.2840
  743MPD2    H511040   4.538   0.416   1.291 -2.6961  0.9973  0.2989
  743MPD2    N111041   4.101   0.606   1.261  0.1985 -0.0953 -0.4438
  743MPD2    H711042   4.018   0.655   1.292 -0.0547 -1.0144  0.3432
  744TMC3    C111043   3.996   0.614   1.050  0.1545  1.0630  0.1238
  744TMC3    C211044   3.876   0.657   1.101 -0.7866  0.0533 -0.0485
  744TMC3    C311045   3.776   0.707   1.025 -0.3016 -0.2912 -0.0390
  744TMC3    C411046   4.011   0.614   0.914  0.2201 -0.0794 -0.0621
  744TMC3    C511047   3.908   0.668   0.840  0.1916  0.1770  0.2445
  744TMC3    C611048   3.787   0.710   0.894  0.8879 -0.4429  0.2694
  744TMC3     C11049   4.111   0.578   1.133  0.7392 -0.9319 -0.1479
  744TMC3     O11050   4.204   0.527   1.075 -0.1566 -0.1487 -0.2344
  744TMC3     H11051   3.858   0.659   1.208  0.6776 -1.9510  0.2279
  744TMC3    H111052   4.103   0.588   0.863 -0.5180 -1.9023 -0.4410
  744TMC3    H211053   3.708   0.748   0.831  1.0583 -0.0825  0.2745
  744TMC3    C711054   3.951   0.716   0.707  0.1110 -0.1749 -0.2702
  744TMC3    C811055   3.680   0.789   1.092  0.1303 -0.3185 -0.7951
  744TMC3    O111056   4.070   0.724   0.685  0.4223  0.0184  0.0034
  744TMC3    O211057   3.564   0.793   1.049  0.8706  0.0668 -0.1037
  745TMC3    C111058   1.733   4.409  14.180 -0.0635 -0.8038  0.3764
  745TMC3    C211059   1.655   4.346  14.272 -0.1687 -0.4869  0.0088
  745TMC3    C311060   1.527   4.396  14.286  0.5072  0.4828  0.2919
  745TMC3    C411061   1.670   4.505  14.098  0.6607 -0.6439 -0.4131
  745TMC3    C511062   1.542   4.546  14.104  0.3379  0.3345 -0.4560
  745TMC3    C611063   1.470   4.485  14.198  0.4853  0.1593  0.4987
  745TMC3     C11064   1.866   4.422  14.233  0.0412  1.0292  0.0474
  745TMC3     O11065   1.881   4.383  14.347  0.8078 -0.3184 -0.3633
  745TMC3     H11066   1.697   4.270  14.337 -0.5127 -1.8162 -1.2988
  745TMC3    H111067   1.728   4.564  14.029  0.7986  1.3644  1.4212
  745TMC3    H211068   1.366   4.518  14.195  1.0113  1.9505  1.3198
  745TMC3    C711069   1.471   4.597  13.984  0.7849  0.3082 -0.0126
  745TMC3    C811070   1.490   4.414  14.430  0.1793 -0.4015 -0.7200
  745TMC3    O111071   1.387   4.686  14.000 -0.3311 -0.2148 -0.0264
  745TMC3    O211072   1.372   4.428  14.451 -0.3451 -0.4640 -0.0161
  746TMC3    C111073   4.232   1.649  11.287 -0.6228  0.2318  0.0627
  746TMC3    C211074   4.292   1.644  11.166 -0.7693  0.3506  0.3229
  746TMC3    C311075   4.261   1.535  11.087 -0.8555 -0.3070 -0.3236
  746TMC3    C411076   4.143   1.551  11.327  0.0775  0.2748 -0.2583
  746TMC3    C511077   4.114   1.448  11.239 -0.0488  0.2304  0.9337
  746TMC3    C611078   4.179   1.429  11.125  0.5785 -0.1219  0.2735
  746TMC3     C11079   4.203   1.779  11.345 -0.2564  0.3439 -0.4256
  746TMC3     O11080   4.087   1.791  11.385 -0.5179  0.0610 -0.1289
  746TMC3     H11081   4.351   1.726  11.127 -0.7994 -0.1250 -0.7151
  746TMC3    H111082   4.085   1.566  11.418 -1.5501 -0.7278 -1.1395
  746TMC3    H211083   4.151   1.355  11.050 -0.1335  1.7166 -1.2682
  746TMC3    C711084   3.977   1.410  11.230 -0.0298 -0.1905 -0.9276
  746TMC3    C811085   4.277   1.549  10.946 -0.7672 -0.8719 -1.1492
  746TMC3    O111086   3.955   1.331  11.139  0.0973  0.4489 -0.3057
  746TMC3    O211087   4.270   1.441  10.885 -0.4106  0.2938 -0.5375
  747TMC3    C111088   1.608   1.989  11.349 -0.2388  0.1592 -0.3721
  747TMC3    C211089   1.568   1.864  11.369  0.1279  0.2449 -0.2129
  747TMC3    C311090   1.504   1.836  11.492  0.0866 -0.1992  0.3900
  747TMC3    C411091   1.610   2.080  11.454  0.1428 -0.7723 -0.0501
  747TMC3    C511092   1.564   2.044  11.576 -0.4080 -0.1584  1.1889
  747TMC3    C611093   1.499   1.928  11.600  0.1543  0.2565  0.3112
  747TMC3     C11094   1.582   2.050  11.222 -0.6140  0.8667  0.6053
  747TMC3     O11095   1.593   2.170  11.207  0.0507 -0.1442  0.0385
  747TMC3     H11096   1.600   1.784  11.304  1.5353  0.4253  0.2603
  747TMC3    H111097   1.674   2.164  11.433  1.5983 -1.7647  0.4394
  747TMC3    H211098   1.466   1.905  11.701  0.6682 -1.1717  0.1545
  747TMC3    C711099   1.581   2.133  11.694 -0.3783 -0.2827  0.4911
  747TMC3    C811100   1.451   1.704  11.513  0.2898  0.7193 -0.1570
  747TMC3    O111101   1.591   2.090  11.811 -0.8208 -0.2309  0.0728
  747TMC3    O211102   1.501   1.612  11.448 -0.1113  0.0609 -0.3832
  748MPD2     C11103   2.800   1.935   1.436 -0.6858  0.6233  0.2470
  748MPD2    C111104   2.900   2.002   1.361  0.1166 -0.7090  0.1426
  748MPD2    C211105   3.030   1.945   1.337  0.1779  0.1676 -0.6966
  748MPD2    C311106   3.051   1.818   1.385  0.8762  0.9441  0.1419
  748MPD2    C411107   2.951   1.749   1.453  0.7033 -0.2190 -0.5283
  748MPD2    C511108   2.831   1.812   1.486  0.4448  0.0478  0.4443
  748MPD2     H11109   3.109   2.001   1.290  0.5370  0.7727  0.6352
  748MPD2    H111110   2.961   1.647   1.487  0.0007 -0.3843 -0.8186
  748MPD2    H211111   2.697   1.968   1.437 -1.2345 -1.1202  2.9507
  748MPD2    H311112   2.754   1.763   1.544  1.4087 -0.4345  1.3139
  748MPD2     N11113   3.178   1.774   1.359 -0.7094 -0.1178 -0.3844
  748MPD2    H511114   3.250   1.840   1.333 -1.3431  1.7597  2.5560
  748MPD2    N111115   2.854   2.131   1.310  0.1979  0.3221  0.1594
  748MPD2    H711116   2.760   2.157   1.340  0.8426 -0.0130  2.4734
  749TMC3    C111117   3.349   1.623   1.291  0.8043  0.3068 -0.3595
  749TMC3    C211118   3.362   1.514   1.206  0.2576  0.1303  0.3545
  749TMC3    C311119   3.480   1.494   1.144  0.5385  0.3953 -0.1497
  749TMC3    C411120   3.458   1.691   1.338 -0.1933 -0.2754 -0.7371
  749TMC3    C511121   3.574   1.671   1.269 -0.1436  1.0433 -0.2859
  749TMC3    C611122   3.585   1.567   1.179 -0.0782 -0.5140 -0.6559
  749TMC3     C11123   3.215   1.642   1.355  0.0768 -0.1565  0.2045
  749TMC3     O11124   3.128   1.555   1.360  0.1339 -0.5330 -0.4605
  749TMC3     H11125   3.272   1.458   1.182 -1.1005  2.0536  0.9254
  749TMC3    H111126   3.442   1.765   1.415 -0.8510 -1.5685  0.3764
  749TMC3    H211127   3.679   1.557   1.126 -0.4979 -0.8442 -1.3474
  749TMC3    C711128   3.700   1.737   1.310  0.1274  0.1975  0.3699
  749TMC3    C811129   3.495   1.381   1.059  0.2384 -0.4011  0.2491
  749TMC3    O111130   3.796   1.725   1.239  0.4750 -1.0601  0.1797
  749TMC3    O211131   3.400   1.375   0.979  0.2709 -0.3600  0.2113
  750MPD2     C11132   4.059   3.224  11.852  0.0880 -0.1459 -0.7832
  750MPD2    C111133   3.933   3.171  11.867 -0.3060 -0.1680  1.1267
  750MPD2    C211134   3.916   3.043  11.819 -0.2397  0.1669 -0.2387
  750MPD2    C311135   4.020   2.958  11.773 -0.0565 -0.5214  0.1163
  750MPD2    C411136   4.145   3.013  11.771  0.1773  0.6247 -0.0565
  750MPD2    C511137   4.161   3.144  11.812  0.0872  0.2420  0.3448
  750MPD2     H11138   3.811   3.015  11.823 -0.1438 -0.4780 -2.2179
  750MPD2    H111139   4.227   2.960  11.724 -0.2154  0.1627 -0.2276
  750MPD2    H211140   4.073   3.331  11.865  0.9078 -0.3504  0.0368
  750MPD2    H311141   4.262   3.184  11.803  1.3665 -3.6222 -2.5438
  750MPD2     N11142   4.004   2.830  11.727  0.1055  0.4168 -0.2612
  750MPD2    H511143   4.082   2.768  11.708  1.8889  1.4965  3.6311
  750MPD2    N111144   3.829   3.256  11.908 -0.1762  0.2388 -0.0395
  750MPD2    H711145   3.860   3.346  11.942  0.5300  0.4516 -1.2697
  751TMC3    C111146   3.879   2.648  11.641  0.1007 -0.1985 -1.0513
  751TMC3    C211147   3.767   2.571  11.660 -0.0772 -0.2434 -0.1279
  751TMC3    C311148   3.745   2.472  11.575  0.0324  0.5582  0.1467
  751TMC3    C411149   3.976   2.620  11.549 -0.1930  0.1310 -0.0336
  751TMC3    C511150   3.951   2.518  11.461 -0.3065  0.1024  0.1307
  751TMC3    C611151   3.838   2.448  11.472  1.0732 -0.0127  0.0679
  751TMC3     C11152   3.886   2.766  11.724 -0.5173 -0.0511 -0.3743
  751TMC3     O11153   3.773   2.809  11.729 -0.4085  0.0685  0.8260
  751TMC3     H11154   3.698   2.600  11.739 -0.2405  0.8340 -0.6557
  751TMC3    H111155   4.054   2.689  11.520 -0.2923 -0.0186 -0.6504
  751TMC3    H211156   3.838   2.359  11.411  1.6043  0.1639 -0.1914
  751TMC3    C711157   4.003   2.542  11.328  0.0646  0.1188  0.1405
  751TMC3    C811158   3.608   2.459  11.527  0.5322  0.7159  1.1470
  751TMC3    O111159   4.112   2.603  11.329 -0.7035 -0.0163 -0.0869
  751TMC3    O211160   3.604   2.439  11.402  0.1083  0.2495  0.5387
  752TMC3    C111161   3.477   2.193  17.114  0.4507 -0.0564  0.3468
  752TMC3    C211162   3.461   2.059  17.099 -0.5117  0.2298  0.5090
  752TMC3    C311163   3.351   2.003  17.156  0.0387 -0.3397 -0.1774
  752TMC3    C411164   3.391   2.265  17.199 -0.6411  0.0958 -0.4195
  752TMC3    C511165   3.287   2.193  17.260  0.2164  0.5789 -0.5918
  752TMC3    C611166   3.265   2.058  17.245  1.1771  0.4443  0.2930
  752TMC3     C11167   3.526   2.276  17.003  0.1859  0.4875  0.7079
  752TMC3     O11168   3.602   2.226  16.924  0.0735  0.3469 -0.6243
  752TMC3     H11169   3.528   2.007  17.031  0.3139  2.0349 -0.0788
  752TMC3    H111170   3.417   2.366  17.229  0.1275  0.6655 -2.9902
  752TMC3    H211171   3.183   2.000  17.285 -0.0453  0.8670 -1.6295
  752TMC3    C711172   3.242   2.255  17.381 -0.0788 -0.1997  1.0470
  752TMC3    C811173   3.325   1.866  17.116  0.4430 -0.4868 -1.0790
  752TMC3    O111174   3.278   2.366  17.411 -0.0510  0.1182  0.4164
  752TMC3    O211175   3.366   1.839  17.004  0.4505  0.0184 -0.1436
  753TMC3    C111176   0.290   4.199  13.300 -0.1931 -0.4841 -0.0966
  753TMC3    C211177   0.362   4.179  13.415 -0.9387 -0.7577 -0.6614
  753TMC3    C311178   0.408   4.054  13.444  0.7662 -0.1049 -0.3807
  753TMC3    C411179   0.264   4.095  13.209  0.4835 -0.1846 -1.0883
  753TMC3    C511180   0.313   3.972  13.234  0.1553  0.2992  0.0148
  753TMC3    C611181   0.381   3.950  13.353 -0.3875 -0.3008  1.3859
  753TMC3     C11182   0.263   4.335  13.264  0.1262  0.0596  0.5146
  753TMC3     O11183   0.258   4.415  13.354  0.2570  0.4077 -0.2239
  753TMC3     H11184   0.379   4.264  13.480  0.7908 -2.2276  0.7954
  753TMC3    H111185   0.207   4.118  13.120 -0.1844  1.2172 -0.2940
  753TMC3    H211186   0.418   3.849  13.369  1.4325  0.2592  0.6520
  753TMC3    C711187   0.248   3.874  13.159  0.4445 -0.1233  0.0411
  753TMC3    C811188   0.500   4.020  13.553 -1.3836  0.5972 -0.1078
  753TMC3    O111189   0.210   3.915  13.048 -0.2166  0.2117  0.2288
  753TMC3    O211190   0.525   3.904  13.570 -0.1858  0.0567 -0.2434
  754MPD2     C11191   3.819   2.935  13.185 -0.6705 -0.6664  0.1941
  754MPD2    C111192   3.730   2.837  13.215 -0.1286 -0.1614 -0.1429
  754MPD2    C211193   3.618   2.819  13.135 -0.3689 -0.2448 -0.6015
  754MPD2    C311194   3.596   2.902  13.029 -0.8353 -0.5921 -1.1297
  754MPD2    C411195   3.677   3.004  13.002  0.9830 -0.4402 -0.3417
  754MPD2    C511196   3.789   3.015  13.077  0.2786 -0.2586  0.3698
  754MPD2     H11197   3.545   2.746  13.170  0.2934  0.3573  2.0007
  754MPD2    H111198   3.653   3.073  12.921  5.3314 -0.8873 -2.0097
  754MPD2    H211199   3.901   2.951  13.254 -0.3512 -0.2613 -0.2913
  754MPD2    H311200   3.862   3.091  13.050 -0.1985  0.1508  0.2502
  754MPD2     N11201   3.475   2.903  12.963  0.1524 -0.2202 -0.6114
  754MPD2    H511202   3.463   2.970  12.887 -0.5323  1.5895  1.1158
  754MPD2    N111203   3.732   2.788  13.350 -0.4184  0.0618  0.2808
  754MPD2    H711204   3.801   2.837  13.407 -0.5424  0.4982  0.0571
  755MPD2     C11205   3.262   3.408  13.556  0.2470  0.8520  0.9157
  755MPD2    C111206   3.155   3.446  13.472 -0.7633  0.0808 -0.5383
  755MPD2    C211207   3.135   3.369  13.360  0.1683  0.2352 -0.1749
  755MPD2    C311208   3.217   3.265  13.335 -0.1719 -0.2012 -0.4135
  755MPD2    C411209   3.323   3.233  13.412  0.0295 -1.2750 -0.5870
  755MPD2    C511210   3.345   3.301  13.529 -0.6815 -0.4123 -0.3008
  755MPD2     H11211   3.041   3.392  13.312 -1.4981 -2.0684  2.0616
  755MPD2    H111212   3.395   3.155  13.391 -0.6449 -2.1840  0.4475
  755MPD2    H211213   3.287   3.469  13.642 -2.0798  0.3326  1.9576
  755MPD2    H311214   3.433   3.273  13.586 -1.4993 -0.3321  0.9904
  755MPD2     N11215   3.202   3.179  13.228  0.3506 -0.6610 -0.4531
  755MPD2    H511216   3.258   3.094  13.224 -0.2418 -0.9479 -2.9036
  755MPD2    N111217   3.067   3.554  13.508 -0.3041  0.3205 -0.6782
  755MPD2    H711218   2.996   3.574  13.439 -0.0508  0.0626 -1.0176
  756MPD2     C11219   3.977   4.121  10.322 -0.2461  0.0960  0.3989
  756MPD2    C111220   3.875   4.050  10.261 -0.0565  0.2185 -0.5541
  756MPD2    C211221   3.815   4.107  10.150 -0.7352 -0.5967  0.1674
  756MPD2    C311222   3.840   4.236  10.110  0.3681  0.3014  0.2581
  756MPD2    C411223   3.947   4.303  10.164  0.0095 -0.0978  0.3431
  756MPD2    C511224   4.017   4.243  10.267 -0.2161  0.2451 -0.1542
  756MPD2     H11225   3.750   4.039  10.096 -0.5939  0.1560 -0.9330
  756MPD2    H111226   3.968   4.408  10.146 -1.3809  0.1017 -0.0854
  756MPD2    H211227   4.028   4.087  10.412 -0.4163 -3.3165 -0.8002
  756MPD2    H311228   4.093   4.301  10.318  0.5629 -1.7988  1.0015
  756MPD2     N11229   3.764   4.284  10.003 -0.1912  0.0458  0.0754
  756MPD2    H511230   3.686   4.221   9.984 -1.6797  1.1588  2.5144
  756MPD2    N111231   3.825   3.922  10.300 -0.0860  0.4378  0.2661
  756MPD2    H711232   3.745   3.888  10.248 -0.7515  0.8988  0.9849
  757MPD2     C11233   3.018   3.970   9.844  0.6075  0.0364  0.0127
  757MPD2    C111234   3.136   3.924   9.888  0.6032  0.6333 -0.2438
  757MPD2    C211235   3.254   3.988   9.843 -0.3530 -0.4286 -0.5401
  757MPD2    C311236   3.251   4.104   9.777  0.5098 -0.1226 -0.2308
  757MPD2    C411237   3.133   4.144   9.730  0.9911 -0.0032 -0.3084
  757MPD2    C511238   3.017   4.080   9.767  0.3657  0.1846 -0.2209
  757MPD2     H11239   3.343   3.947   9.889 -0.0547 -0.0545 -0.7890
  757MPD2    H111240   3.129   4.235   9.671 -3.9581  0.0429  0.0594
  757MPD2    H211241   2.922   3.936   9.881  0.2514  1.0408  0.0119
  757MPD2    H311242   2.922   4.131   9.756  0.9092  1.0908 -0.7417
  757MPD2     N11243   3.375   4.172   9.757 -0.1392  0.3506 -0.7412
  757MPD2    H511244   3.454   4.119   9.795 -0.6432  0.5464  0.5505
  757MPD2    N111245   3.128   3.808   9.967  0.1245 -0.1441 -0.6054
  757MPD2    H711246   3.034   3.771   9.969 -0.9344  2.4942 -0.7829
  758MPD2     C11247   4.134   2.475  16.170  0.5974  0.2580  0.3874
  758MPD2    C111248   4.204   2.415  16.281  1.3744 -0.3688 -0.4674
  758MPD2    C211249   4.178   2.450  16.408 -0.3956  0.1715  0.2889
  758MPD2    C311250   4.089   2.551  16.440 -0.1380  0.4079  0.1841
  758MPD2    C411251   4.022   2.612  16.338 -0.7350 -0.2364 -0.7500
  758MPD2    C511252   4.042   2.578  16.204 -0.7932 -1.1249  0.0856
  758MPD2     H11253   4.233   2.398  16.485  1.5482 -0.6791 -1.6769
  758MPD2    H111254   3.966   2.703  16.354 -1.1661 -1.1371  2.8045
  758MPD2    H211255   4.168   2.455  16.068  1.7819  0.5400  0.7258
  758MPD2    H311256   3.990   2.638  16.130 -1.1105 -1.7793 -0.2247
  758MPD2     N11257   4.071   2.604  16.571 -0.4821 -0.9691 -0.3968
  758MPD2    H511258   4.001   2.677  16.573  0.7028  0.2150 -2.7788
  758MPD2    N111259   4.315   2.332  16.247 -0.2302  0.1342  0.0601
  758MPD2    H711260   4.321   2.326  16.146  1.9309 -0.0848  0.2103
  759MPD2     C11261   3.043   0.626  10.370  0.2018  0.1017  0.8621
  759MPD2    C111262   2.922   0.584  10.304  0.1184  0.2390  0.2358
  759MPD2    C211263   2.840   0.680  10.259  0.8915  0.3844  0.2187
  759MPD2    C311264   2.849   0.810  10.300  0.1995 -0.6673  0.5656
  759MPD2    C411265   2.960   0.850  10.373 -0.1974 -0.3012 -0.4256
  759MPD2    C511266   3.053   0.758  10.403  0.5069  0.6074  0.0663
  759MPD2     H11267   2.759   0.651  10.192  2.1970 -1.4649 -0.5670
  759MPD2    H111268   2.982   0.951  10.406 -0.7873 -0.6835  1.1665
  759MPD2    H211269   3.128   0.561  10.385 -0.9875 -1.7695 -0.5169
  759MPD2    H311270   3.139   0.800  10.455  2.5663 -3.2344 -0.2176
  759MPD2     N11271   2.742   0.895  10.270  0.6300 -0.2267  0.2507
  759MPD2    H511272   2.665   0.853  10.218  0.4014 -1.0164  1.2276
  759MPD2    N111273   2.878   0.454  10.279 -0.2175  0.1614 -0.0668
  759MPD2    H711274   2.790   0.443  10.231 -0.7654 -2.3283  1.5322
  760MPD2     C11275   1.735   3.140  11.959 -0.1431 -0.3243  0.0178
  760MPD2    C111276   1.852   3.201  11.931 -0.4049  0.3062  0.2500
  760MPD2    C211277   1.938   3.137  11.846 -0.2612 -0.2285 -0.5215
  760MPD2    C311278   1.904   3.018  11.780  0.0837  0.7019 -0.2905
  760MPD2    C411279   1.778   2.962  11.813  0.1508 -1.1077  0.1619
  760MPD2    C511280   1.698   3.023  11.905 -0.3210  0.2975  0.1500
  760MPD2     H11281   2.037   3.179  11.829 -0.8472  1.4191  0.1198
  760MPD2    H111282   1.757   2.863  11.777 -1.9462 -1.0668  1.2726
  760MPD2    H211283   1.664   3.179  12.031 -0.3774 -1.4215  0.3810
  760MPD2    H311284   1.616   2.967  11.948 -0.7464  0.2083 -0.7747
  760MPD2     N11285   1.993   2.957  11.695 -0.3615  0.7993 -0.4296
  760MPD2    H511286   1.957   2.867  11.667 -2.0904  1.5121 -0.5252
  760MPD2    N111287   1.891   3.314  12.003  0.0001 -0.3640 -0.1754
  760MPD2    H711288   1.839   3.336  12.087  1.7790 -0.2654  0.9158
  761MPD2     C11289   3.094   2.530  11.564 -0.2836 -0.1841 -0.3804
  761MPD2    C111290   3.173   2.470  11.463 -0.1952  0.3260 -0.0898
  761MPD2    C211291   3.318   2.464  11.472 -0.2069  0.6362 -0.4016
  761MPD2    C311292   3.371   2.503  11.593 -0.6707 -0.4672 -0.1711
  761MPD2    C411293   3.293   2.563  11.689 -0.3275  0.2962 -0.3755
  761MPD2    C511294   3.156   2.574  11.675 -0.1601  0.5328 -0.1968
  761MPD2     H11295   3.378   2.427  11.390 -1.6813 -0.4777 -0.9743
  761MPD2    H111296   3.333   2.602  11.782 -1.7846  0.7848  0.0441
  761MPD2    H211297   2.985   2.531  11.557 -0.0965  1.7540 -3.4345
  761MPD2    H311298   3.095   2.620  11.753 -1.3538 -2.1908  0.4891
  761MPD2     N11299   3.513   2.493  11.621  0.0591 -0.2479  0.3472
  761MPD2    H511300   3.530   2.515  11.719 -0.7951 -2.6311  1.0463
  761MPD2    N111301   3.106   2.419  11.341  0.5343 -0.1761  0.3383
  761MPD2    H711302   3.011   2.455  11.336  0.2542 -1.2177 -1.4635
  762MPD2     C11303   3.941   2.140  11.201 -0.2126  0.3096 -0.2351
  762MPD2    C111304   3.846   2.174  11.109  0.0199  0.2996  0.0558
  762MPD2    C211305   3.875   2.203  10.975 -0.1307 -0.0081 -0.4021
  762MPD2    C311306   4.003   2.210  10.930 -0.1765  0.2333 -0.1073
  762MPD2    C411307   4.101   2.176  11.026 -0.1558  0.0822  0.5775
  762MPD2    C511308   4.073   2.141  11.157  0.9154 -0.1171 -0.7937
  762MPD2     H11309   3.795   2.229  10.906  0.6158  0.7881 -0.9724
  762MPD2    H111310   4.204   2.195  10.999 -0.3028 -1.4589 -1.0376
  762MPD2    H211311   3.909   2.110  11.300 -1.2363  0.7570 -0.4321
  762MPD2    H311312   4.158   2.132  11.223 -0.9157  0.2353  1.6027
  762MPD2     N11313   4.029   2.267  10.802  0.1702  0.0423  0.1187
  762MPD2    H511314   3.954   2.284  10.735 -1.2224 -1.1123  1.3777
  762MPD2    N111315   3.712   2.167  11.156 -0.2459 -0.4552  0.0028
  762MPD2    H711316   3.712   2.144  11.255 -1.8176  0.7930  0.2906
  763MPD2     C11317   1.174   2.187  16.276  0.6543  0.5655 -0.1750
  763MPD2    C111318   1.070   2.280  16.248  0.2738 -0.2900  0.3347
  763MPD2    C211319   1.085   2.405  16.295  0.4901  0.1159 -0.4831
  763MPD2    C311320   1.204   2.442  16.349 -0.2373  0.2459  0.2030
  763MPD2    C411321   1.307   2.358  16.374 -0.6313 -0.4484 -0.1273
  763MPD2    C511322   1.293   2.227  16.342 -0.2540  0.3734 -0.3287
  763MPD2     H11323   1.007   2.479  16.279 -0.4958 -0.4504  1.6000
  763MPD2    H111324   1.398   2.388  16.423 -1.4369 -0.8432  1.6147
  763MPD2    H211325   1.177   2.080  16.259  0.7734  0.4962  0.2834
  763MPD2    H311326   1.367   2.153  16.372 -0.9438 -0.8244 -1.5553
  763MPD2     N11327   1.219   2.578  16.395 -0.2154  0.1766  0.1856
  763MPD2    H511328   1.311   2.608  16.426  1.0329 -0.2813 -3.1223
  763MPD2    N111329   0.942   2.244  16.200  0.1969  0.4122 -0.2438
  763MPD2    H711330   0.872   2.317  16.192 -0.2686 -0.0803 -0.6616
  764MPD2     C11331   4.704   3.988   0.370  0.7819  0.0592  0.0364
  764MPD2    C111332   4.688   3.905   0.260 -0.0858  0.1940  0.1525
  764MPD2    C211333   4.591   3.809   0.266  0.0791  0.5562 -0.5232
  764MPD2    C311334   4.513   3.789   0.380 -0.1355 -0.4275 -0.4380
  764MPD2    C411335   4.524   3.875   0.488  0.0853  0.0856  0.5940
  764MPD2    C511336   4.619   3.975   0.481  0.4479  0.1719 -0.6313
  764MPD2     H11337   4.581   3.750   0.176 -0.9702 -0.5986  0.3419
  764MPD2    H111338   4.465   3.865   0.578  0.2474 -0.5618  0.6251
  764MPD2    H211339   0.042   4.063   0.373 -0.5703  1.3552  2.1636
  764MPD2    H311340   4.618   4.046   0.564  1.6271 -0.4174 -0.1184
  764MPD2     N11341   4.416   3.687   0.373 -0.1437  0.2243  0.0200
  764MPD2    H511342   4.392   3.655   0.280 -1.5858 -0.3328  0.5870
  764MPD2    N111343   0.027   3.907   0.148 -0.6002  0.1619  0.2362
  764MPD2    H711344   0.019   3.830   0.082 -0.8033  0.7827 -0.4760
  765MPD2     C11345   3.524   1.697  15.970  0.1413  0.1101  0.3580
  765MPD2    C111346   3.615   1.795  15.938 -0.0648  0.3429 -1.0358
  765MPD2    C211347   3.738   1.751  15.899  0.5155  0.0810 -0.7581
  765MPD2    C311348   3.780   1.620  15.916  0.2192 -0.0894 -0.2614
  765MPD2    C411349   3.694   1.524  15.953 -0.1178 -0.6711 -0.1076
  765MPD2    C511350   3.566   1.566  15.967  1.0820  0.2928 -0.4664
  765MPD2     H11351   3.811   1.820  15.858  0.1705  0.5466 -0.5858
  765MPD2    H111352   3.723   1.425  15.986  0.4860  0.2551  2.1449
  765MPD2    H211353   3.423   1.731  15.992 -0.3343 -0.4322 -0.9766
  765MPD2    H311354   3.498   1.495  16.013  0.0720  0.9999 -0.8504
  765MPD2     N11355   3.913   1.588  15.881 -0.0952  0.4458  0.0404
  765MPD2    H511356   3.981   1.663  15.876  0.1399  0.1558 -1.0720
  765MPD2    N111357   3.566   1.928  15.930 -0.0731  0.2890 -0.4408
  765MPD2    H711358   3.468   1.940  15.954 -0.3667 -2.0071 -0.4545
  766MPD2     C11359   3.228   1.949  15.430  0.1685  0.4207 -0.0708
  766MPD2    C111360   3.304   2.062  15.439  0.9744  0.2350  0.5260
  766MPD2    C211361   3.371   2.113  15.334 -0.1561  0.5950  0.4254
  766MPD2    C311362   3.346   2.048  15.207  0.3170  0.1765 -0.2201
  766MPD2    C411363   3.269   1.932  15.194 -0.3098 -0.0273  1.2578
  766MPD2    C511364   3.207   1.887  15.308  0.3524  0.8745 -0.2997
  766MPD2     H11365   3.429   2.203  15.354 -0.0541  0.8664 -1.0575
  766MPD2    H111366   3.254   1.887  15.097 -1.8383  1.3826  0.8284
  766MPD2    H211367   3.171   1.903  15.509 -0.1011  1.2315  0.2052
  766MPD2    H311368   3.134   1.806  15.311  2.7508 -1.3411 -1.2547
  766MPD2     N11369   3.410   2.115  15.098 -1.0147  0.0699 -0.1456
  766MPD2    H511370   3.454   2.206  15.112 -0.7662  0.0786 -0.9816
  766MPD2    N111371   3.322   2.118  15.572  0.0914  0.1429 -0.0596
  766MPD2    H711372   3.291   2.067  15.655 -3.3945 -1.6065 -2.4330
  767MPD2     C11373   3.125   2.318  15.300  0.5386 -0.3745 -0.3698
  767MPD2    C111374   3.201   2.399  15.220  1.1628  0.1058  0.0421
  767MPD2    C211375   3.176   2.412  15.084 -0.7570  0.2669 -0.6746
  767MPD2    C311376   3.083   2.328  15.025 -0.3642 -0.6500 -0.3706
  767MPD2    C411377   3.004   2.246  15.107  0.9733 -0.2324 -0.2463
  767MPD2    C511378   3.033   2.244  15.243  0.2116 -0.2468 -0.4368
  767MPD2     H11379   3.239   2.475  15.024 -0.3215 -1.4134 -1.9775
  767MPD2    H111380   2.920   2.184  15.078  0.7094 -0.0103  0.0566
  767MPD2    H211381   3.158   2.281  15.396  0.7370  0.7531  0.0001
  767MPD2    H311382   2.985   2.177  15.313  1.2968  1.2226  1.7208
  767MPD2     N11383   3.070   2.328  14.885  0.1675 -0.5216 -0.6159
  767MPD2    H511384   3.124   2.395  14.832  0.3111 -0.8835 -0.9257
  767MPD2    N111385   3.303   2.470  15.291  0.4924 -0.4151  0.7020
  767MPD2    H711386   3.315   2.453  15.390  1.0069 -0.8241  0.5670
  768MPD2     C11387   3.348   0.699  10.835  0.3630 -0.1204  0.0477
  768MPD2    C111388   3.412   0.811  10.877 -1.0187  0.1340 -0.4210
  768MPD2    C211389   3.543   0.804  10.934 -0.1152  0.4948  0.1000
  768MPD2    C311390   3.603   0.680  10.958  0.0279  0.0257 -0.3755
  768MPD2    C411391   3.525   0.569  10.936  0.9831  0.2794 -0.2594
  768MPD2    C511392   3.401   0.578  10.874  0.9868 -0.3365 -0.6707
  768MPD2     H11393   3.594   0.894  10.967  0.7111 -0.2999  0.9910
  768MPD2    H111394   3.561   0.472  10.970  3.5237  0.6913 -1.8101
  768MPD2    H211395   3.251   0.699  10.788 -0.2541  0.1388  1.3073
  768MPD2    H311396   3.354   0.484  10.850  0.6278  0.5165 -3.2608
  768MPD2     N11397   3.736   0.659  10.998  0.4415  0.3459 -1.2869
  768MPD2    H511398   3.771   0.564  11.005  0.3955  0.5511  1.5329
  768MPD2    N111399   3.355   0.943  10.868  0.2000  0.0518 -0.7675
  768MPD2    H711400   3.412   1.011  10.918  1.8126  0.0615 -2.6128
  769MPD2     C11401   4.327   3.940  15.149 -0.1495 -0.9973 -0.0746
  769MPD2    C111402   4.359   3.809  15.135 -0.0330 -0.9947  0.4922
  769MPD2    C211403   4.357   3.728  15.245  0.3934  0.4335  0.2679
  769MPD2    C311404   4.326   3.773  15.368 -0.6704 -0.0994  0.0725
  769MPD2    C411405   4.298   3.909  15.378 -0.2409 -0.1425  0.2952
  769MPD2    C511406   4.291   3.991  15.274  0.1786 -0.7550  0.5549
  769MPD2     H11407   4.375   3.622  15.236  1.3130  0.6061  0.1055
  769MPD2    H111408   4.273   3.938  15.479 -0.1695  0.1895  0.2172
  769MPD2    H211409   4.327   4.011  15.068 -1.2071 -1.2598 -0.3105
  769MPD2    H311410   4.257   4.094  15.283  0.4038 -0.6078 -0.2466
  769MPD2     N11411   4.313   3.675  15.472 -0.0060 -0.2388  0.0283
  769MPD2    H511412   4.327   3.577  15.450  2.2251  0.1723 -0.4076
  769MPD2    N111413   4.424   3.774  15.010 -0.6543 -0.0277  0.2031
  769MPD2    H711414   4.425   3.839  14.932 -2.3404  0.5965  0.6956
  770MPD2     C11415   0.284   3.071  14.957  0.6213  0.1777 -0.0875
  770MPD2    C111416   0.143   3.063  14.957 -0.4860  0.4863 -0.0625
  770MPD2    C211417   0.073   3.159  14.892  0.2978 -0.0571  0.0882
  770MPD2    C311418   0.140   3.266  14.826 -0.6318  0.1127 -0.7940
  770MPD2    C411419   0.280   3.273  14.825  0.1547  0.5257 -0.9077
  770MPD2    C511420   0.348   3.169  14.888  0.0911  0.4853  0.0182
  770MPD2     H11421   4.706   3.156  14.875 -0.1794  0.4290  3.0771
  770MPD2    H111422   0.335   3.362  14.795 -1.8473  1.6732 -1.1739
  770MPD2    H211423   0.346   3.014  15.026 -1.3736 -1.6687  0.1978
  770MPD2    H311424   0.456   3.180  14.893  0.2574 -1.4692  0.5346
  770MPD2     N11425   0.057   3.362  14.775 -0.3340  0.4245 -0.4213
  770MPD2    H511426   4.697   3.349  14.783  0.0315 -1.8402  0.6297
  770MPD2    N111427   0.082   2.961  15.039 -0.2415  1.1400  0.7307
  770MPD2    H711428   0.146   2.898  15.086 -1.3401  1.1520  2.2383
  771MPD2     C11429   0.853   1.388  14.058 -0.0194  0.9471 -0.2451
  771MPD2    C111430   0.780   1.486  13.994  0.7600  0.9784 -0.0669
  771MPD2    C211431   0.671   1.449  13.918  0.3720  0.0014 -0.3198
  771MPD2    C311432   0.646   1.316  13.891 -0.6830 -0.7566  0.4174
  771MPD2    C411433   0.722   1.223  13.959 -0.2348  0.8676 -0.0291
  771MPD2    C511434   0.822   1.256  14.047 -0.4222  0.2026 -0.0207
  771MPD2     H11435   0.616   1.534  13.877  1.7944  2.3384  2.6116
  771MPD2    H111436   0.704   1.118  13.939  0.9804  0.0810  2.9760
  771MPD2    H211437   0.931   1.397  14.133 -1.0760 -2.7032  1.3273
  771MPD2    H311438   0.878   1.176  14.095 -0.7619 -0.6292 -1.0303
  771MPD2     N11439   0.552   1.296  13.795 -0.6947  0.0881 -0.1221
  771MPD2    H511440   0.516   1.386  13.764 -0.3656 -0.5873 -2.4868
  771MPD2    N111441   0.811   1.623  14.004 -0.3252 -0.7614  0.1059
  771MPD2    H711442   0.769   1.702  13.954 -0.3023 -0.5212  0.4649
  772MPD2     C11443   0.460   2.240  13.947 -0.0986 -0.2363  0.2475
  772MPD2    C111444   0.473   2.116  14.014 -0.6282  0.9894  0.2393
  772MPD2    C211445   0.365   2.061  14.068 -0.1481  0.4803 -0.0867
  772MPD2    C311446   0.233   2.109  14.035  0.1782 -0.2056 -1.0253
  772MPD2    C411447   0.224   2.212  13.949 -0.6013  0.2806 -0.4116
  772MPD2    C511448   0.333   2.288  13.917 -0.3311  0.2500  0.4847
  772MPD2     H11449   0.375   1.975  14.133 -0.5295  0.9464  0.5968
  772MPD2    H111450   0.127   2.251  13.923 -1.2311 -0.2455  1.1760
  772MPD2    H211451   0.551   2.288  13.915  0.8018 -1.3931  1.0801
  772MPD2    H311452   0.317   2.386  13.873  3.5588  0.3906 -0.6760
  772MPD2     N11453   0.117   2.052  14.097 -0.0564 -0.4837  0.5033
  772MPD2    H511454   0.022   2.057  14.062  0.4929 -1.1540 -1.1193
  772MPD2    N111455   0.598   2.057  14.036  0.5504 -0.2834 -0.7102
  772MPD2    H711456   0.594   1.957  14.053 -1.2630 -0.4172 -1.8879
  773MPD2     C11457   4.616   2.566   0.958  0.2093  0.0963 -0.0669
  773MPD2    C111458   4.623   2.502   0.837  0.1226 -0.1007  0.1426
  773MPD2    C211459   4.726   2.417   0.815 -0.5335  0.4285  0.1378
  773MPD2    C311460   0.078   2.384   0.908 -0.1992  0.0284  0.1562
  773MPD2    C411461   0.063   2.442   1.034 -0.0229 -0.0628  1.1566
  773MPD2    C511462   4.703   2.531   1.055 -0.6906  0.2130 -0.1550
  773MPD2     H11463   4.734   2.359   0.724  1.7820  2.3149 -0.8480
  773MPD2    H111464   0.126   2.413   1.117  1.2983  2.9577  1.2294
  773MPD2    H211465   4.525   2.622   0.979 -1.3178 -2.5782  0.4204
  773MPD2    H311466   4.688   2.581   1.150 -2.2652 -0.1927 -0.1903
  773MPD2     N11467   0.167   2.278   0.876  0.2384 -0.0972 -0.1205
  773MPD2    H511468   0.152   2.232   0.786 -1.0364 -0.3437  0.2168
  773MPD2    N111469   4.525   2.515   0.727  0.4322 -0.4580 -0.3659
  773MPD2    H711470   4.546   2.452   0.650  1.4138 -0.5462 -0.0292
  774MPD2     C11471   3.289   1.993  13.767  0.1980 -0.7783 -0.1519
  774MPD2    C111472   3.413   2.003  13.827 -0.2057 -0.9616  0.1279
  774MPD2    C211473   3.499   2.111  13.804  0.9869  0.6548 -0.2281
  774MPD2    C311474   3.443   2.220  13.732 -0.3553 -0.3758  0.2284
  774MPD2    C411475   3.312   2.217  13.682 -0.2015 -0.4233  0.4207
  774MPD2    C511476   3.240   2.099  13.696  0.0559 -0.4464 -0.5323
  774MPD2     H11477   3.594   2.116  13.857 -0.8460  1.5164  2.9991
  774MPD2    H111478   3.275   2.290  13.611 -1.0344 -0.8547  0.4174
  774MPD2    H211479   3.230   1.902  13.762 -3.6092  1.6828  0.3520
  774MPD2    H311480   3.140   2.080  13.659 -1.2442  1.8243  1.8250
  774MPD2     N11481   3.506   2.348  13.718  0.9224 -0.2780  0.4594
  774MPD2    H511482   3.459   2.414  13.657 -0.1159  0.1186  1.6756
  774MPD2    N111483   3.469   1.906  13.913 -0.3691  0.0860  0.6318
  774MPD2    H711484   3.564   1.913  13.947  0.2427 -4.0150 -0.2006
  775MPD2     C11485   0.393   3.448  15.787 -0.1762 -0.5548 -0.1924
  775MPD2    C111486   0.466   3.504  15.891 -0.5673 -0.3134 -0.0219
  775MPD2    C211487   0.596   3.556  15.863 -0.2837  0.3175 -0.0557
  775MPD2    C311488   0.637   3.576  15.732  0.3750 -0.1258 -0.0384
  775MPD2    C411489   0.553   3.530  15.633 -0.1839  0.1770 -0.2732
  775MPD2    C511490   0.445   3.458  15.662 -0.0210  0.8115 -0.3548
  775MPD2     H11491   0.662   3.579  15.946 -1.2027 -0.1725  0.8230
  775MPD2    H111492   0.570   3.551  15.528 -0.9192  2.8813  0.1511
  775MPD2    H211493   0.291   3.410  15.793 -1.3234  3.0472  2.8182
  775MPD2    H311494   0.390   3.426  15.575  3.2017 -2.6518 -1.0816
  775MPD2     N11495   0.748   3.657  15.699 -0.1930  0.6869  0.0542
  775MPD2    H511496   0.769   3.666  15.600 -1.2641  1.9332 -0.0540
  775MPD2    N111497   0.411   3.501  16.019  0.0791 -0.1330  0.1493
  775MPD2    H711498   0.341   3.431  16.041 -0.8670  0.7697  0.0128
  776MPD2     C11499   3.232   3.774  11.859  0.4180  0.2820  0.7287
  776MPD2    C111500   3.357   3.783  11.901  0.4488  0.0955 -0.0953
  776MPD2    C211501   3.424   3.903  11.872  0.0959 -0.2260  0.2362
  776MPD2    C311502   3.368   4.003  11.788 -0.4692 -0.0108  0.0490
  776MPD2    C411503   3.236   3.984  11.745 -0.2855 -0.4729 -0.0285
  776MPD2    C511504   3.170   3.865  11.779  0.3187  0.3602  0.2372
  776MPD2     H11505   3.517   3.925  11.923 -0.2216  1.6779  0.0106
  776MPD2    H111506   3.175   4.045  11.679  0.0789  1.1648  1.1271
  776MPD2    H211507   3.163   3.695  11.885 -0.3800  0.8778  0.4374
  776MPD2    H311508   3.070   3.846  11.742  1.1615  0.9372 -2.3385
  776MPD2     N11509   3.431   4.130  11.754  0.2623  0.8988  0.0804
  776MPD2    H511510   3.368   4.193  11.705  0.3197 -0.6321 -1.9641
  776MPD2    N111511   3.413   3.680  11.974  0.4393 -0.7028  0.2220
  776MPD2    H711512   3.340   3.617  12.006 -0.3095  0.9789  1.8044
  777MPD2     C11513   4.701   1.117   0.392 -0.4950 -0.2815  0.8402
  777MPD2    C111514   4.560   1.135   0.413  0.2279 -0.5384 -0.2661
  777MPD2    C211515   4.482   1.146   0.302 -0.1431 -0.3955  0.3849
  777MPD2    C311516   4.539   1.135   0.174  0.4499  0.6747 -0.4062
  777MPD2    C411517   4.675   1.113   0.157 -0.1267  0.9087 -0.1940
  777MPD2    C511518   0.013   1.110   0.269  0.7445  0.5355  0.1998
  777MPD2     H11519   4.373   1.150   0.302 -0.0617  1.9171  1.4883
  777MPD2    H111520   4.721   1.103   0.059  1.1565  0.3340  0.4721
  777MPD2    H211521   0.032   1.113   0.475  0.2701 -0.8463  0.1568
  777MPD2    H311522   0.120   1.092   0.261  0.6017 -0.6027  0.7303
  777MPD2     N11523   4.442   1.123   0.070  0.5754 -0.1133  0.4906
  777MPD2    H511524   4.348   1.131   0.108  0.2678  0.5966 -0.4011
  777MPD2    N111525   4.519   1.160   0.546  0.0721  0.1714  0.3040
  777MPD2    H711526   4.593   1.167   0.615 -0.5231 -1.8931  1.1824
  778MPD2     C11527   0.881   1.837  14.929 -0.4754 -0.0851 -1.3628
  778MPD2    C111528   0.925   1.728  14.861  0.5014 -0.0171  0.0387
  778MPD2    C211529   1.019   1.744  14.767  0.6981  0.2081 -0.1250
  778MPD2    C311530   1.085   1.865  14.748  0.3841 -0.6670  0.1712
  778MPD2    C411531   1.051   1.980  14.817 -0.0566  0.2960 -0.2710
  778MPD2    C511532   0.939   1.962  14.909 -0.3105  0.8919  0.0617
  778MPD2     H11533   1.045   1.651  14.717 -1.2279  0.3277 -1.3626
  778MPD2    H111534   1.106   2.074  14.819  1.4190 -0.5663 -0.3940
  778MPD2    H211535   0.787   1.833  14.983  0.4666 -0.3506  0.2575
  778MPD2    H311536   0.902   2.044  14.968  1.8982  1.6751  0.3569
  778MPD2     N11537   1.195   1.865  14.653 -0.5173 -0.3503  0.4631
  778MPD2    H511538   1.216   1.774  14.614  0.4275 -0.4457  1.2117
  778MPD2    N111539   0.871   1.604  14.880  0.4708 -0.4792  0.5833
  778MPD2    H711540   0.899   1.529  14.818 -2.0776 -1.5087  0.7026
  779MPD2     C11541   0.596   0.478  13.925 -0.1159  0.6219 -0.0745
  779MPD2    C111542   0.665   0.453  14.041 -0.4921 -0.1458  0.6072
  779MPD2    C211543   0.692   0.557  14.130 -0.2521 -0.5432 -0.6304
  779MPD2    C311544   0.659   0.688  14.105 -0.1956 -0.3723 -0.6983
  779MPD2    C411545   0.582   0.714  13.993 -0.6302 -0.0848 -0.5632
  779MPD2    C511546   0.547   0.607  13.918  0.2802 -0.4262  0.3527
  779MPD2     H11547   0.735   0.528  14.224  1.2710  0.0529 -1.1391
  779MPD2    H111548   0.546   0.812  13.965 -2.0645 -0.5311 -0.2872
  779MPD2    H211549   0.566   0.409  13.847 -1.5258  1.0948  0.0413
  779MPD2    H311550   0.471   0.625  13.843  1.7354 -1.9168 -1.4649
  779MPD2     N11551   0.685   0.790  14.200  0.2899  0.2194 -0.0847
  779MPD2    H511552   0.763   0.773  14.261  0.2148  1.1272  0.2616
  779MPD2    N111553   0.723   0.325  14.067 -0.1385  0.3375 -0.0435
  779MPD2    H711554   0.793   0.323  14.139 -0.9004  0.5991  0.7084
  780MPD2     C11555   0.058   4.484   0.797  0.6490 -0.1428  0.7219
  780MPD2    C111556   0.160   4.435   0.720 -0.2040 -0.8146 -0.2020
  780MPD2    C211557   0.254   4.521   0.666  0.8373 -0.8247  0.0097
  780MPD2    C311558   0.228   4.658   0.671  0.2559  0.1262 -0.3192
  780MPD2    C411559   0.130   4.708   0.755  0.8542 -0.0462 -0.3453
  780MPD2    C511560   0.047   4.620   0.820 -0.7062 -0.3773 -0.4035
  780MPD2     H11561   0.346   4.482   0.623 -0.5799 -1.8941 -2.0706
  780MPD2    H111562   0.108   0.074   0.762  1.0215  0.0516 -1.3470
  780MPD2    H211563   4.724   4.422   0.847 -1.1620 -1.7565 -3.9820
  780MPD2    H311564   4.702   4.658   0.876 -0.5448 -0.0862 -0.3560
  780MPD2     N11565   0.299   0.001   0.584 -0.0340 -0.2111  0.2182
  780MPD2    H511566   0.387   4.702   0.551 -1.1262 -2.1730 -0.3737
  780MPD2    N111567   0.162   4.291   0.711  0.0092 -0.3871 -0.0971
  780MPD2    H711568   0.098   4.238   0.770  0.6492  0.3391  1.2599
  781MPD2     C11569   1.285   2.502  12.772 -0.3917  0.2393  0.3020
  781MPD2    C111570   1.408   2.450  12.818  0.3580  0.3522 -0.3817
  781MPD2    C211571   1.516   2.459  12.741  0.7016 -0.2776  0.0868
  781MPD2    C311572   1.517   2.536  12.626 -0.0980  0.3443 -0.6968
  781MPD2    C411573   1.395   2.584  12.584 -0.7283 -0.0543  0.5678
  781MPD2    C511574   1.279   2.566  12.652 -0.7417  0.0086 -0.1204
  781MPD2     H11575   1.606   2.410  12.776 -0.3870 -2.2950  0.0590
  781MPD2    H111576   1.397   2.643  12.493 -0.4483 -0.1445  0.5155
  781MPD2    H211577   1.194   2.490  12.830 -1.1016 -0.5296 -0.9893
  781MPD2    H311578   1.182   2.600  12.617 -0.1376  0.6208 -1.1744
  781MPD2     N11579   1.627   2.555  12.538 -0.7347  0.8053  0.3195
  781MPD2    H511580   1.601   2.602  12.451 -1.5448 -0.1085  0.0681
  781MPD2    N111581   1.422   2.377  12.937 -0.5369 -0.6345 -0.1956
  781MPD2    H711582   1.506   2.328  12.966 -0.6711 -1.5514 -1.3668
  782MPD2     C11583   4.281   3.509  10.944 -0.3552 -0.0276  0.5782
  782MPD2    C111584   4.299   3.395  11.011 -0.2897  0.2276 -0.1633
  782MPD2    C211585   4.359   3.392  11.133 -0.5333  0.0159 -0.6768
  782MPD2    C311586   4.409   3.507  11.186 -0.5751 -1.0067  0.1621
  782MPD2    C411587   4.372   3.626  11.127  0.2482 -0.0050  0.0105
  782MPD2    C511588   4.309   3.622  11.006 -0.4291  0.0747 -0.1597
  782MPD2     H11589   4.386   3.297  11.177 -2.0267  0.2844  0.7911
  782MPD2    H111590   4.403   3.720  11.172  1.1227 -0.6275  0.6988
  782MPD2    H211591   4.219   3.517  10.855  1.1034 -1.6742 -0.5787
  782MPD2    H311592   4.283   3.717  10.963 -0.6379 -0.4126 -1.1053
  782MPD2     N11593   4.475   3.516  11.309  0.4736 -0.1004 -0.7098
  782MPD2    H511594   4.541   3.591  11.324 -2.5047  2.3044  0.2886
  782MPD2    N111595   4.286   3.271  10.950 -0.3202  0.4251  0.0236
  782MPD2    H711596   4.337   3.194  10.994 -0.0807  0.4000 -0.3039
  783MPD2     C11597   3.794   2.525  11.026  0.0603  0.4486  0.0213
  783MPD2    C111598   3.911   2.555  11.100 -0.7717  0.2067 -0.3347
  783MPD2    C211599   4.020   2.623  11.047  0.8734 -0.0064 -0.3376
  783MPD2    C311600   4.005   2.673  10.921  0.1332  0.0857 -0.0809
  783MPD2    C411601   3.895   2.644  10.847 -0.2611 -0.0081  0.8019
  783MPD2    C511602   3.791   2.569  10.899 -0.2446  0.0808 -0.1395
  783MPD2     H11603   4.108   2.648  11.105  0.9084  1.2351 -0.9170
  783MPD2    H111604   3.882   2.679  10.745 -2.3362  0.2440  1.1418
  783MPD2    H211605   3.704   2.473  11.057 -0.7929  1.8037 -0.1826
  783MPD2    H311606   3.704   2.567  10.835  0.4531  2.0440 -1.1387
  783MPD2     N11607   4.109   2.750  10.865 -0.0724 -0.2785  0.1664
  783MPD2    H511608   4.190   2.764  10.923  0.0864  3.9840 -1.0778
  783MPD2    N111609   3.902   2.520  11.235  0.3814 -0.8996  1.0586
  783MPD2    H711610   3.820   2.466  11.259  0.1008 -0.0180  2.0627
  784MPD2     C11611   1.895   3.041   1.805 -0.1052  0.5296 -0.0412
  784MPD2    C111612   1.961   3.137   1.747 -0.6465  0.0612  0.2736
  784MPD2    C211613   1.904   3.218   1.656  0.2630 -0.5067  0.5810
  784MPD2    C311614   1.774   3.219   1.637 -0.0503 -0.0290  0.7026
  784MPD2    C411615   1.693   3.121   1.699 -0.2418  1.0081 -0.5148
  784MPD2    C511616   1.757   3.032   1.779 -0.0368 -0.3531 -1.0203
  784MPD2     H11617   1.966   3.296   1.614  0.5385 -0.6844  0.6554
  784MPD2    H111618   1.586   3.124   1.680 -0.5582 -0.8330  1.0354
  784MPD2    H211619   1.937   2.976   1.881 -0.4029  0.4714  0.0711
  784MPD2    H311620   1.702   2.956   1.833  1.1992 -1.7442 -1.6963
  784MPD2     N11621   1.725   3.328   1.552  0.1919  0.4656 -0.1582
  784MPD2    H511622   1.775   3.383   1.484 -1.4061  1.6967 -0.3394
  784MPD2    N111623   2.099   3.149   1.773  0.2524 -0.1734 -0.3422
  784MPD2    H711624   2.144   3.233   1.737  1.4588 -0.5080  0.3901
  785MPD2     C11625   2.462   1.872  10.846 -0.2717  0.6109  0.1584
  785MPD2    C111626   2.360   1.952  10.897  0.1972 -0.0710  0.0306
  785MPD2    C211627   2.231   1.929  10.849  0.3922 -0.6735 -0.0514
  785MPD2    C311628   2.211   1.835  10.749  0.0240  0.2578  0.1340
  785MPD2    C411629   2.311   1.751  10.709  0.0514 -0.4624  0.3209
  785MPD2    C511630   2.434   1.776  10.759 -0.3579 -0.3398 -0.3268
  785MPD2     H11631   2.150   1.998  10.869  0.8743 -0.7331  2.0836
  785MPD2    H111632   2.299   1.661  10.651 -1.2617  0.9023 -1.5251
  785MPD2    H211633   2.560   1.884  10.890 -1.2157  1.2249  2.0866
  785MPD2    H311634   2.511   1.705  10.731 -1.4857 -0.5725 -2.8846
  785MPD2     N11635   2.081   1.825  10.690  0.5108  0.2346 -0.0393
  785MPD2    H511636   2.010   1.889  10.723  0.4826  0.7167 -1.0150
  785MPD2    N111637   2.390   2.065  10.981  0.2744  0.1479  0.2280
  785MPD2    H711638   2.485   2.082  11.013  0.3311  2.1340 -0.9878
  786MPD2     C11639   1.123   4.250  15.098  0.5064 -0.3505  0.3975
  786MPD2    C111640   1.261   4.228  15.073 -0.5009  0.2177 -0.1753
  786MPD2    C211641   1.345   4.220  15.185 -0.3811 -0.0794 -0.4179
  786MPD2    C311642   1.296   4.240  15.311 -0.5947  0.4509 -0.1896
  786MPD2    C411643   1.162   4.262  15.336 -0.4357 -1.0664 -0.2558
  786MPD2    C511644   1.078   4.271  15.227  0.0813  0.1436  0.1399
  786MPD2     H11645   1.448   4.207  15.155  0.6397  1.5686  2.4035
  786MPD2    H111646   1.126   4.275  15.437  0.2342  0.0850 -0.1631
  786MPD2    H211647   1.053   4.251  15.015  0.9078 -4.2095 -0.0224
  786MPD2    H311648   0.971   4.280  15.242 -0.1962 -2.8928  0.0419
  786MPD2     N11649   1.368   4.232  15.430  0.0920 -0.2543  0.3881
  786MPD2    H511650   1.316   4.247  15.515 -0.1167 -0.3157  0.2713
  786MPD2    N111651   1.325   4.208  14.943  0.1090  0.2970 -0.1895
  786MPD2    H711652   1.421   4.175  14.943  1.3690  3.9084 -1.4507
  787MPD2     C11653   1.892   3.937  14.879  0.5733  0.6425 -0.0299
  787MPD2    C111654   1.823   3.889  14.767 -0.4130  0.3219 -0.3496
  787MPD2    C211655   1.887   3.778  14.706  0.3502 -0.4074  0.1242
  787MPD2    C311656   2.017   3.735  14.737  0.0047 -0.0282  0.8246
  787MPD2    C411657   2.082   3.802  14.832  0.1856 -0.1604 -0.5178
  787MPD2    C511658   2.018   3.893  14.908  1.0166 -0.4729  1.0549
  787MPD2     H11659   1.838   3.736  14.619  1.6536 -0.9556 -0.3364
  787MPD2    H111660   2.186   3.786  14.857  0.2798  0.3104 -0.5989
  787MPD2    H211661   1.856   4.018  14.942  0.9552  0.7607  0.0375
  787MPD2    H311662   2.073   3.921  14.997  1.4379  1.0175  0.3285
  787MPD2     N11663   2.078   3.624  14.674 -0.4754  0.0438 -0.0739
  787MPD2    H511664   2.029   3.578  14.598 -0.0659 -0.6943  0.1057
  787MPD2    N111665   1.702   3.948  14.739  0.4229  0.3883 -0.0857
  787MPD2    H711666   1.677   4.028  14.796  0.6195  1.0089 -0.8747
  788MPD2     C11667   3.592   2.333   0.947 -0.8511  0.1555 -0.0137
  788MPD2    C111668   3.598   2.240   0.843 -0.1675  0.5124 -0.3882
  788MPD2    C211669   3.648   2.290   0.720  0.6761  0.1347 -0.3478
  788MPD2    C311670   3.671   2.423   0.696  0.9926 -0.0345  0.1030
  788MPD2    C411671   3.652   2.507   0.801  0.1805  0.1572 -0.0343
  788MPD2    C511672   3.617   2.466   0.925 -0.5298 -0.2204 -0.2360
  788MPD2     H11673   3.660   2.221   0.637 -1.2400 -1.6657  0.8835
  788MPD2    H111674   3.656   2.615   0.793 -0.5278  0.1279 -0.8365
  788MPD2    H211675   3.553   2.304   1.044  0.6608 -1.8286  0.0122
  788MPD2    H311676   3.607   2.537   1.006  2.0846 -0.2001  0.0737
  788MPD2     N11677   3.719   2.465   0.577  1.0310 -0.4097 -0.4143
  788MPD2    H511678   3.735   2.565   0.570  0.3895 -0.2130  0.9384
  788MPD2    N111679   3.556   2.106   0.852 -0.0922  0.7199  0.4236
  788MPD2    H711680   3.572   2.050   0.769 -0.2694  0.8659  0.2890
  789MPD2     C11681   3.577   2.183  16.254 -0.0633  0.2885  0.8750
  789MPD2    C111682   3.505   2.100  16.331  0.1953  0.0378  0.1173
  789MPD2    C211683   3.410   2.157  16.423 -0.2457 -0.1217 -0.1461
  789MPD2    C311684   3.401   2.292  16.437  0.1020 -0.3443 -0.4209
  789MPD2    C411685   3.470   2.373  16.353  0.5458  0.1089 -0.9447
  789MPD2    C511686   3.560   2.318  16.266  0.3534 -0.2902  0.7204
  789MPD2     H11687   3.348   2.093  16.485  0.7564 -0.5926  0.3707
  789MPD2    H111688   3.468   2.481  16.364  2.2167  0.0371  0.0153
  789MPD2    H211689   3.647   2.143  16.181 -0.9475 -1.6920  1.1253
  789MPD2    H311690   3.626   2.383  16.209 -0.8007 -0.8530 -1.2928
  789MPD2     N11691   3.309   2.358  16.532  0.4759 -0.3987 -0.7026
  789MPD2    H511692   3.293   2.457  16.520  0.1180 -0.2767  0.7035
  789MPD2    N111693   3.510   1.962  16.324 -0.2134 -0.3800 -0.7661
  789MPD2    H711694   3.444   1.911  16.382  0.0476  0.4955  0.2985
  790MPD2     C11695   4.509   4.146  13.810  0.0896 -0.0274  0.6403
  790MPD2    C111696   4.477   4.012  13.796  0.1524  0.2645 -0.3578
  790MPD2    C211697   4.434   3.964  13.669 -0.6343 -0.6810  0.4214
  790MPD2    C311698   4.410   4.050  13.563  0.4842  0.7880  0.3227
  790MPD2    C411699   4.440   4.180  13.584  0.1497  0.2461  0.7890
  790MPD2    C511700   4.489   4.229  13.704 -0.0561 -0.0665 -0.7714
  790MPD2     H11701   4.412   3.860  13.648 -0.8036 -0.7357  0.8705
  790MPD2    H111702   4.427   4.254  13.505  1.8175  0.9065  1.1156
  790MPD2    H211703   4.557   4.178  13.902 -0.8771  0.9745  0.8050
  790MPD2    H311704   4.523   4.331  13.694 -1.3172  0.4033 -0.2652
  790MPD2     N11705   4.374   3.997  13.434  0.0987  0.2218  0.1767
  790MPD2    H511706   4.395   3.899  13.418  0.1259  0.1378  0.7188
  790MPD2    N111707   4.503   3.924  13.908  0.7747 -0.7040  0.1917
  790MPD2    H711708   4.554   3.968  13.984 -1.7519 -0.6875  1.8931
  791MPD2     C11709   3.648   4.082  13.277  0.0534 -0.7935 -0.3071
  791MPD2    C111710   3.694   3.988  13.190  0.2355 -0.0227 -0.1070
  791MPD2    C211711   3.606   3.887  13.146 -0.0037 -0.1128 -0.1210
  791MPD2    C311712   3.473   3.895  13.187  0.4105  0.5119  0.1209
  791MPD2    C411713   3.430   3.989  13.281  0.7208  0.5639  0.1733
  791MPD2    C511714   3.521   4.085  13.321  0.5602  0.0870 -0.2439
  791MPD2     H11715   3.641   3.804  13.085  1.7545 -1.1703  2.3528
  791MPD2    H111716   3.325   4.002  13.304  0.9681  1.2917  0.8894
  791MPD2    H211717   3.716   4.160  13.308 -1.8772 -0.2808  2.6645
  791MPD2    H311718   3.490   4.170  13.381 -1.7021 -1.6526  1.0780
  791MPD2     N11719   3.384   3.800  13.134 -0.9191  0.5244 -0.1921
  791MPD2    H511720   3.424   3.730  13.073  0.8494  0.5575  0.9051
  791MPD2    N111721   3.834   3.986  13.170  0.2465 -0.2140 -0.2862
  791MPD2    H711722   3.888   4.064  13.207 -1.2859 -0.7009  2.9829
  792MPD2     C11723   4.052   4.088  11.585 -0.1703 -0.3497 -0.4392
  792MPD2    C111724   3.989   4.128  11.466 -0.9866  0.5340  0.3413
  792MPD2    C211725   3.862   4.086  11.437  0.4251 -0.0802 -0.1186
  792MPD2    C311726   3.785   4.009  11.524  0.2214 -0.2518 -0.1876
  792MPD2    C411727   3.843   3.984  11.646  0.3654  0.7371  0.0623
  792MPD2    C511728   3.974   4.023  11.674  0.2955 -0.6964  0.4412
  792MPD2     H11729   3.817   4.107  11.341 -0.1312 -1.0997 -0.0821
  792MPD2    H111730   3.801   3.916  11.719  0.7585  2.0300  1.4788
  792MPD2    H211731   4.145   4.132  11.618 -0.0402 -1.9541  1.3172
  792MPD2    H311732   4.007   3.987  11.771 -2.6207 -2.4110  0.7665
  792MPD2     N11733   3.658   3.966  11.499 -0.5699 -0.5581  0.1972
  792MPD2    H511734   3.607   3.917  11.572  0.2545 -0.6061  0.7280
  792MPD2    N111735   4.062   4.203  11.373  0.7975  0.0944  0.4309
  792MPD2    H711736   4.156   4.228  11.405  2.4272 -1.8890 -2.8458
  793MPD2     C11737   3.210   3.870  10.694 -0.4593 -0.6038  0.4460
  793MPD2    C111738   3.335   3.870  10.755  0.0249 -0.1683  0.6554
  793MPD2    C211739   3.350   3.902  10.885 -0.5760 -0.7649  0.6764
  793MPD2    C311740   3.240   3.945  10.959  0.0680 -0.1471 -0.2224
  793MPD2    C411741   3.109   3.953  10.902 -0.4665  0.4198 -0.3280
  793MPD2    C511742   3.101   3.904  10.772 -0.1689 -0.0283 -0.4369
  793MPD2     H11743   3.446   3.904  10.935 -0.8805  2.6088  1.1061
  793MPD2    H111744   3.022   3.981  10.959 -0.0514 -0.0013  0.5140
  793MPD2    H211745   3.196   3.832  10.594 -0.9188  0.7284  0.0089
  793MPD2    H311746   3.003   3.904  10.725 -1.6499 -1.7771  2.6492
  793MPD2     N11747   3.262   3.968  11.098  0.1504  0.1599 -0.3956
  793MPD2    H511748   3.360   3.969  11.123  0.2133  0.5535 -0.6467
  793MPD2    N111749   3.451   3.827  10.688 -0.3163 -1.5278  0.5359
  793MPD2    H711750   3.542   3.821  10.731  0.7828  2.4635 -1.2247
  794MPD2     C11751   3.864   2.986   0.297  0.0174 -0.3986  0.5959
  794MPD2    C111752   3.993   2.955   0.279 -0.4090  0.4601 -0.0878
  794MPD2    C211753   4.063   3.004   0.170  0.6272 -0.0540 -0.3657
  794MPD2    C311754   3.997   3.086   0.083  0.3586  0.3241 -0.5260
  794MPD2    C411755   3.874   3.123   0.115  1.2766  1.1832 -0.1244
  794MPD2    C511756   3.808   3.083   0.224  0.2001 -0.4221 -0.8862
  794MPD2     H11757   4.167   2.980   0.152 -0.3327 -2.6951 -2.3307
  794MPD2    H111758   3.828   3.195   0.048 -0.5700  0.4014  0.3098
  794MPD2    H211759   3.816   2.938   0.382  0.2063 -0.8506  0.4452
  794MPD2    H311760   3.706   3.120   0.233 -0.2917 -2.0671  0.2597
  794MPD2     N11761   4.048   3.136  17.719  0.1188  0.0897 -0.0085
  794MPD2    H511762   3.982   3.181  17.657  0.0782  1.2382  0.8656
  794MPD2    N111763   4.041   2.868   0.380  0.0046  0.1425  0.1994
  794MPD2    H711764   3.963   2.823   0.426 -0.4891  0.3800 -0.4055
  795MPD2     C11765   1.890   0.748  13.637 -0.4570  0.4449  0.1412
  795MPD2    C111766   1.862   0.689  13.766 -0.2936 -0.1406  0.3541
  795MPD2    C211767   1.968   0.624  13.830  0.5524  0.1637  0.0087
  795MPD2    C311768   2.087   0.611  13.765 -0.5350  0.0511 -0.2865
  795MPD2    C411769   2.113   0.668  13.643  0.1159  0.2453  0.1831
  795MPD2    C511770   2.011   0.735  13.575  0.5564  0.5184  0.4375
  795MPD2     H11771   1.947   0.580  13.926 -0.4913 -0.7710 -0.6443
  795MPD2    H111772   2.205   0.653  13.588 -0.4959 -0.9118 -0.5112
  795MPD2    H211773   1.816   0.815  13.596 -0.4230 -0.0608 -0.7589
  795MPD2    H311774   2.035   0.789  13.484  3.2731  0.3656  1.0678
  795MPD2     N11775   2.184   0.529  13.826  0.4045 -0.1975  0.4860
  795MPD2    H511776   2.146   0.482  13.908  1.4837  1.5658  1.9847
  795MPD2    N111777   1.736   0.705  13.830 -0.0226 -0.0702  0.4010
  795MPD2    H711778   1.730   0.667  13.924  1.6681 -2.1131 -0.2879
  796MPD2     C11779   1.155   1.497  15.877 -0.3268  0.0396 -0.6542
  796MPD2    C111780   1.253   1.528  15.961 -0.0282  0.0488  0.3060
  796MPD2    C211781   1.281   1.660  15.974 -0.3614  0.0208  0.2547
  796MPD2    C311782   1.204   1.754  15.915 -0.0136  0.0740 -0.0462
  796MPD2    C411783   1.100   1.722  15.828  0.4811  0.5970  0.3029
  796MPD2    C511784   1.077   1.587  15.801  0.0063 -0.1234  0.3581
  796MPD2     H11785   1.360   1.696  16.038  0.1458  1.1093 -0.9729
  796MPD2    H111786   1.047   1.793  15.766 -1.4428 -0.6159  0.5375
  796MPD2    H211787   1.130   1.393  15.857  2.1515 -0.9240  1.1602
  796MPD2    H311788   0.991   1.552  15.744 -0.4317  0.2515  0.7977
  796MPD2     N11789   1.230   1.888  15.952 -0.2782 -0.0267  0.0214
  796MPD2    H511790   1.296   1.904  16.028 -0.2714 -1.2768  0.2773
  796MPD2    N111791   1.332   1.429  16.024  0.0571  0.3369 -0.4138
  796MPD2    H711792   1.290   1.336  16.020  1.1776 -0.1900  0.0975
  797MPD2     C11793   2.362   1.169  17.555  0.1929  0.6933  0.5955
  797MPD2    C111794   2.487   1.208  17.518 -0.2114 -0.6456 -0.0228
  797MPD2    C211795   2.517   1.180  17.382 -0.3418  0.0052 -0.5805
  797MPD2    C311796   2.429   1.129  17.292 -0.2101  0.0556  0.2343
  797MPD2    C411797   2.311   1.079  17.342  0.0124  0.2009  0.1508
  797MPD2    C511798   2.282   1.100  17.469 -0.2340 -0.4726 -0.0866
  797MPD2     H11799   2.610   1.210  17.335 -0.3804 -0.2426 -0.8128
  797MPD2    H111800   2.233   1.047  17.274  0.7860  0.1001 -0.6802
  797MPD2    H211801   2.318   1.201  17.649 -1.1557  0.2813  0.1019
  797MPD2    H311802   2.178   1.085  17.498 -0.8012 -1.3926 -2.6354
  797MPD2     N11803   2.465   1.145  17.162  0.2141 -0.0928  0.2533
  797MPD2    H511804   2.542   1.208  17.142  0.5603 -0.9793 -1.2660
  797MPD2    N111805   2.573   1.286  17.602 -0.2525  0.1200 -0.2006
  797MPD2    H711806   2.654   1.326  17.555 -0.6480  1.8774  0.5971
  798MPD2     C11807   2.843   1.731  17.065  0.5725 -0.0502  0.0487
  798MPD2    C111808   2.790   1.609  17.104  0.5252 -0.1414 -0.0138
  798MPD2    C211809   2.797   1.575  17.236  0.2231  0.0167  0.6024
  798MPD2    C311810   2.851   1.651  17.332  0.1854  0.0248  0.5139
  798MPD2    C411811   2.904   1.774  17.294 -0.5540  0.3733 -0.2927
  798MPD2    C511812   2.891   1.816  17.162 -0.6068  1.0770  0.0376
  798MPD2     H11813   2.759   1.480  17.271  3.9302 -2.1475 -1.1898
  798MPD2    H111814   2.930   1.847  17.370 -0.3053  0.3270 -0.3342
  798MPD2    H211815   2.811   1.757  16.965 -0.6890  1.4273  0.8375
  798MPD2    H311816   2.916   1.917  17.131  0.6590  0.2537 -1.5992
  798MPD2     N11817   2.823   1.603  17.459 -0.2384 -0.1649 -0.4935
  798MPD2    H511818   2.774   1.514  17.461 -1.3669  0.4444 -0.5590
  798MPD2    N111819   2.725   1.532  17.004 -0.7251 -0.7005  0.2759
  798MPD2    H711820   2.720   1.574  16.912 -0.5779  0.6779  0.9071
  799MPD2     C11821   1.613   3.447  14.857  0.7903  0.1859 -0.2173
  799MPD2    C111822   1.558   3.351  14.772 -0.3155  0.2517  0.4605
  799MPD2    C211823   1.467   3.399  14.674 -0.6550  0.0366  0.3324
  799MPD2    C311824   1.411   3.524  14.684 -0.4443  0.2821 -0.0753
  799MPD2    C411825   1.445   3.611  14.783 -0.0456 -0.2816  0.6574
  799MPD2    C511826   1.548   3.574  14.867  0.3484 -1.0421 -0.2278
  799MPD2     H11827   1.435   3.324  14.603  1.5125 -0.5387 -0.0503
  799MPD2    H111828   1.414   3.714  14.797 -0.6122 -0.2846 -0.5736
  799MPD2    H211829   1.701   3.433  14.918 -0.6966 -3.1271  1.1319
  799MPD2    H311830   1.585   3.648  14.936 -0.5316  0.9807 -1.9151
  799MPD2     N11831   1.328   3.573  14.587  0.3040 -0.1294  0.1836
  799MPD2    H511832   1.302   3.671  14.589  2.7089  0.5051  0.4620
  799MPD2    N111833   1.585   3.213  14.759 -0.5771 -0.2817 -0.3953
  799MPD2    H711834   1.559   3.157  14.679 -0.8518 -0.9350  0.1578
  800MPD2     C11835   1.615   4.564  14.914  0.8028 -0.0459 -0.1898
  800MPD2    C111836   1.730   4.532  14.843  0.3180 -0.1266  0.9693
  800MPD2    C211837   1.723   4.475  14.716 -0.4449  0.1416  0.6915
  800MPD2    C311838   1.598   4.469  14.659 -0.6716 -1.4377 -0.0216
  800MPD2    C411839   1.482   4.491  14.731  0.2106 -0.3398 -0.1948
  800MPD2    C511840   1.492   4.536  14.860 -0.5775  0.2392 -0.4716
  800MPD2     H11841   1.808   4.461  14.650 -1.0524 -0.5925  0.0706
  800MPD2    H111842   1.384   4.462  14.696  0.2136 -0.8937  0.2488
  800MPD2    H211843   1.608   4.607  15.013  1.6702  0.5291 -0.3749
  800MPD2    H311844   1.405   4.536  14.925  1.1526  1.8692  1.8763
  800MPD2     N11845   1.601   4.427  14.520 -0.3242  0.5524  0.4329
  800MPD2    H511846   1.692   4.427  14.475 -1.0644 -0.5024 -1.0713
  800MPD2    N111847   1.847   4.572  14.906  0.0839 -0.0010  0.4574
  800MPD2    H711848   1.845   4.617  14.997  0.0343  0.4963  0.2125
  801MPD2     C11849   1.981   0.357  15.363 -0.3274  0.0043  0.6845
  801MPD2    C111850   1.909   0.258  15.291 -0.3054 -0.2641  0.1095
  801MPD2    C211851   1.777   0.234  15.307  0.1780  0.0868 -0.4029
  801MPD2    C311852   1.701   0.319  15.382  0.5515  0.3739  0.0942
  801MPD2    C411853   1.765   0.427  15.444  0.0320 -0.5939  0.5486
  801MPD2    C511854   1.903   0.440  15.440 -0.3050  0.2284 -0.1757
  801MPD2     H11855   1.740   0.145  15.257  1.1608 -1.2696  1.2860
  801MPD2    H111856   1.713   0.494  15.511  0.2407 -0.8249  0.9456
  801MPD2    H211857   2.089   0.361  15.369 -0.2234  1.5680 -2.1894
  801MPD2    H311858   1.957   0.507  15.505 -1.1700  0.6541  0.0962
  801MPD2     N11859   1.561   0.316  15.390  0.1598  0.6716 -0.5640
  801MPD2    H511860   1.514   0.376  15.458 -1.0985 -0.2749 -0.5963
  801MPD2    N111861   1.981   0.170  15.208 -0.7708 -0.1550  0.1564
  801MPD2    H711862   1.931   0.085  15.185 -0.4576 -0.9541  2.4706
  802MPD2     C11863   1.288   0.470   0.536 -0.1868 -0.3185  0.1547
  802MPD2    C111864   1.355   0.580   0.499  0.4574 -0.1557  0.2429
  802MPD2    C211865   1.434   0.571   0.385 -0.4188 -0.5042  0.0875
  802MPD2    C311866   1.438   0.456   0.311 -0.0875  1.2230  0.2569
  802MPD2    C411867   1.348   0.354   0.340 -0.1535  0.0119 -0.0516
  802MPD2    C511868   1.261   0.376   0.439  0.5195 -0.7876 -0.2430
  802MPD2     H11869   1.509   0.650   0.383  1.5292 -2.3896 -1.0203
  802MPD2    H111870   1.333   0.268   0.275 -0.4899  1.9252 -2.5036
  802MPD2    H211871   1.221   0.463   0.621  0.0043  1.9840  0.4836
  802MPD2    H311872   1.199   0.289   0.456  0.2191 -0.5040  0.1145
  802MPD2     N11873   1.529   0.440   0.202 -0.3100  0.0506  0.2571
  802MPD2    H511874   1.589   0.519   0.182 -0.0970 -0.1330  0.1611
  802MPD2    N111875   1.365   0.691   0.590 -1.0784  0.1436  0.1771
  802MPD2    H711876   1.401   0.777   0.550  1.1559 -1.5127 -1.3559
  803MPD2     C11877   2.045   4.186  12.252 -0.2046  0.2215 -0.7301
  803MPD2    C111878   2.159   4.152  12.317  0.3241  0.0987  0.2961
  803MPD2    C211879   2.147   4.060  12.414  0.2977  0.6415  0.1117
  803MPD2    C311880   2.030   3.998  12.447  0.1247 -0.4842  0.4014
  803MPD2    C411881   1.912   4.037  12.379  0.0567  0.2516 -0.6189
  803MPD2    C511882   1.917   4.132  12.284 -0.2502  0.3247 -0.3417
  803MPD2     H11883   2.244   4.031  12.452  0.0954 -1.6881 -1.1773
  803MPD2    H111884   1.808   4.007  12.390  0.8046 -2.8026 -2.0725
  803MPD2    H211885   2.046   4.269  12.182 -0.5785  2.5772  2.0319
  803MPD2    H311886   1.824   4.177  12.250 -1.2763  0.2962  2.4745
  803MPD2     N11887   2.025   3.896  12.546 -0.1071  0.2643  0.3473
  803MPD2    H511888   1.930   3.862  12.556  0.2242 -0.9691 -0.6255
  803MPD2    N111889   2.285   4.220  12.297  0.3513  0.1752  0.2764
  803MPD2    H711890   2.351   4.203  12.372  1.0268  1.2104 -0.0877
  804MPD2     C11891   1.841   4.676  17.005  1.4024 -0.6509  0.0861
  804MPD2    C111892   1.852   4.686  17.141 -0.5179  0.2809 -0.5129
  804MPD2    C211893   1.901   0.063  17.197 -0.6131 -0.9346 -0.5232
  804MPD2    C311894   1.940   0.166  17.114  0.0690 -0.9755  0.8679
  804MPD2    C411895   1.928   0.154  16.980 -0.7084 -1.2041 -0.1915
  804MPD2    C511896   1.886   0.034  16.931 -0.0677  0.0893 -0.3549
  804MPD2     H11897   1.911   0.063  17.304  0.6914 -3.1288 -0.6579
  804MPD2    H111898   1.964   0.229  16.911  1.0659 -0.3875  1.6058
  804MPD2    H211899   1.797   4.584  16.967 -1.3972  0.6327  0.2395
  804MPD2    H311900   1.882   0.021  16.824 -1.1996  1.1006 -0.4376
  804MPD2     N11901   1.997   0.274  17.177  0.7320  0.2488  0.4126
  804MPD2    H511902   1.998   0.267  17.278  0.6121 -2.1044  0.2385
  804MPD2    N111903   1.823   4.579  17.220  0.1647  0.3976  0.4686
  804MPD2    H711904   1.825   4.594  17.320  1.4424  1.8405  0.2277
  805MPD2     C11905   0.928   3.414  15.576 -0.0187 -0.2434 -0.2314
  805MPD2    C111906   1.035   3.445  15.492 -0.7911 -0.2579  1.2362
  805MPD2    C211907   1.166   3.418  15.544 -0.3834 -0.0922  0.3128
  805MPD2    C311908   1.192   3.378  15.670  0.2297  0.4136  0.2457
  805MPD2    C411909   1.078   3.336  15.741 -0.3710 -0.2360  1.3467
  805MPD2    C511910   0.954   3.352  15.696  0.3360  0.0569  0.0610
  805MPD2     H11911   1.252   3.440  15.482 -0.4313 -1.6709 -0.3191
  805MPD2    H111912   1.083   3.282  15.835  1.4900  3.8957  3.5989
  805MPD2    H211913   0.822   3.418  15.553 -0.1068 -0.2717  0.1769
  805MPD2    H311914   0.869   3.312  15.750  1.6172 -0.0867  1.9612
  805MPD2     N11915   1.324   3.377  15.727  0.0187  0.1804 -0.0095
  805MPD2    H511916   1.403   3.404  15.669  0.8264  0.0201  1.0391
  805MPD2    N111917   1.013   3.495  15.361  0.1998 -0.1093 -0.0243
  805MPD2    H711918   1.091   3.497  15.296  1.7001  0.2496  1.7767
  806MPD2     C11919   1.259   2.374   0.379 -0.1585 -0.6061 -0.3096
  806MPD2    C111920   1.357   2.348   0.472  0.2760 -0.1705 -0.1993
  806MPD2    C211921   1.485   2.299   0.430 -0.0107  0.3576 -0.1938
  806MPD2    C311922   1.522   2.310   0.299  0.0434  0.3516  0.2018
  806MPD2    C411923   1.420   2.340   0.205 -1.0530  0.5840 -0.3294
  806MPD2    C511924   1.292   2.376   0.246  0.0060 -0.1339  0.3504
  806MPD2     H11925   1.563   2.284   0.503  1.7120  2.2162 -1.6382
  806MPD2    H111926   1.449   2.367   0.104  1.3199 -1.6121 -0.2177
  806MPD2    H211927   1.164   2.407   0.419  1.2365  3.0687 -0.0471
  806MPD2    H311928   1.233   2.420   0.167 -0.5161 -0.7208  0.4116
  806MPD2     N11929   1.654   2.288   0.261  0.3430  0.0276 -0.5425
  806MPD2    H511930   1.722   2.277   0.336  1.0323  0.6153 -1.0847
  806MPD2    N111931   1.321   2.357   0.613  0.0457  0.0303  0.0887
  806MPD2    H711932   1.228   2.391   0.636 -0.2482  0.3679 -1.6639
  807MPD2     C11933   1.207   1.790   1.080  0.1027 -0.4286 -1.0128
  807MPD2    C111934   1.207   1.893   1.174  0.3921  0.0260  0.4023
  807MPD2    C211935   1.221   1.863   1.310  0.4388  0.0971 -0.4669
  807MPD2    C311936   1.200   1.732   1.350  0.4253 -0.4176 -0.1960
  807MPD2    C411937   1.201   1.630   1.259 -0.0671 -0.3769  0.0556
  807MPD2    C511938   1.214   1.658   1.121 -0.2474 -0.4335 -0.1298
  807MPD2     H11939   1.215   1.943   1.383  0.2262 -0.1510 -0.2165
  807MPD2    H111940   1.192   1.526   1.286  1.0770 -0.0685  1.6500
  807MPD2    H211941   1.218   1.812   0.975 -1.9316 -0.9406 -1.3256
  807MPD2    H311942   1.213   1.585   1.041 -0.7382 -0.0798 -0.4465
  807MPD2     N11943   1.176   1.718   1.488  0.0700  0.1008 -0.8086
  807MPD2    H511944   1.164   1.806   1.537  0.4238  1.1567 -2.6512
  807MPD2    N111945   1.205   2.032   1.147 -0.2084  0.4372  0.5928
  807MPD2    H711946   1.231   2.091   1.225 -1.1521  1.5006  0.1166
  808MPD2     C11947   1.198   0.482  10.230 -0.3121  0.2709 -0.3025
  808MPD2    C111948   1.310   0.403  10.255 -0.0916 -0.4036  0.1947
  808MPD2    C211949   1.425   0.472  10.292 -0.4368  0.4480  1.0712
  808MPD2    C311950   1.411   0.611  10.327  0.0780  0.2598 -0.6508
  808MPD2    C411951   1.297   0.683  10.313 -0.4602 -0.0488  0.1787
  808MPD2    C511952   1.192   0.617  10.260 -0.4244 -0.4211  0.3946
  808MPD2     H11953   1.516   0.415  10.308 -1.0764 -0.9760 -0.3468
  808MPD2    H111954   1.290   0.790  10.328 -1.9323 -0.3404  1.5298
  808MPD2    H211955   1.103   0.436  10.203 -1.3203  1.4375  1.2848
  808MPD2    H311956   1.101   0.671  10.238 -0.5463 -0.9831 -0.4858
  808MPD2     N11957   1.526   0.673  10.386 -0.1177 -1.2492  0.5263
  808MPD2    H511958   1.515   0.773  10.401  0.4002 -1.2965  1.2372
  808MPD2    N111959   1.315   0.265  10.239 -0.1064 -0.0180  0.7414
  808MPD2    H711960   1.408   0.225  10.252 -0.0469 -0.8463 -2.0628
  809MPD2     C11961   1.782   1.480  10.243 -0.0217  0.2017  0.1813
  809MPD2    C111962   1.732   1.375  10.169 -0.2749  0.9698 -1.0145
  809MPD2    C211963   1.710   1.261  10.242 -0.0897  0.1920  0.2515
  809MPD2    C311964   1.750   1.249  10.372 -0.6781  0.0592  0.0240
  809MPD2    C411965   1.801   1.357  10.444  0.2195 -0.1877 -0.0869
  809MPD2    C511966   1.821   1.475  10.375 -0.3242  0.4889  0.6640
  809MPD2     H11967   1.655   1.178  10.199  2.4416 -2.7012  2.5958
  809MPD2    H111968   1.825   1.363  10.550 -0.1003 -0.7267  0.0139
  809MPD2    H211969   1.805   1.572  10.190 -1.9721 -0.4249 -1.7605
  809MPD2    H311970   1.869   1.564  10.414  0.9063 -0.6218  1.6782
  809MPD2     N11971   1.739   1.118  10.425 -0.3189 -0.4224 -0.7537
  809MPD2    H511972   1.700   1.052  10.359  0.1838 -1.6717  0.1857
  809MPD2    N111973   1.692   1.377  10.037  0.5586  0.2524 -0.2376
  809MPD2    H711974   1.651   1.293   9.998  2.4205  1.1762 -4.1331
  810MPD2     C11975   1.215   4.195  11.393  0.6059 -0.4297 -0.3746
  810MPD2    C111976   1.188   4.197  11.257 -0.0877 -0.3912 -0.1593
  810MPD2    C211977   1.112   4.300  11.206 -0.0186 -0.2943  0.3854
  810MPD2    C311978   1.080   4.411  11.283 -0.1236  0.0816  0.0243
  810MPD2    C411979   1.112   4.406  11.417 -0.6707  0.5292  0.6207
  810MPD2    C511980   1.186   4.304  11.469 -0.6124 -0.4732  0.0910
  810MPD2     H11981   1.095   4.293  11.100 -0.4914  1.5363  0.3413
  810MPD2    H111982   1.086   4.486  11.486 -1.9736  0.7610 -0.1314
  810MPD2    H211983   1.272   4.111  11.432  0.2337 -0.5499 -0.0879
  810MPD2    H311984   1.218   4.297  11.572  2.5264 -0.4914 -0.8956
  810MPD2     N11985   1.007   4.522  11.237  0.1410  0.4083 -0.1940
  810MPD2    H511986   0.983   4.598  11.299  0.1549  1.1650 -1.1250
  810MPD2    N111987   1.207   4.086  11.170 -0.1180 -0.3367  0.1548
  810MPD2    H711988   1.158   4.106  11.083 -0.0711  0.4214  0.2989
  811MPD2     C11989   0.752   3.872  10.597  0.4258 -0.5182 -0.3288
  811MPD2    C111990   0.842   3.960  10.660 -0.3303 -0.3153  0.0856
  811MPD2    C211991   0.855   4.093  10.610 -0.8968  0.0181  0.2257
  811MPD2    C311992   0.778   4.136  10.505  0.6138 -0.3844 -0.0722
  811MPD2    C411993   0.698   4.039  10.436 -0.1019  0.2642 -0.0533
  811MPD2    C511994   0.680   3.914  10.484 -0.0008 -0.1397 -0.2485
  811MPD2     H11995   0.912   4.173  10.657  0.1887 -0.8805  0.4374
  811MPD2    H111996   0.665   4.061  10.336 -2.2521  2.5757  1.1672
  811MPD2    H211997   0.726   3.773  10.634  3.3223 -1.3769 -0.5878
  811MPD2    H311998   0.624   3.840  10.430 -0.7662  0.1245  0.1839
  811MPD2     N11999   0.795   4.273  10.472  0.7153  0.2146 -0.2358
  811MPD2    H512000   0.858   4.329  10.529 -1.4767  0.8360  1.5383
  811MPD2    N112001   0.925   3.905  10.769  0.0062  0.1346  0.8717
  811MPD2    H712002   0.911   3.805  10.780 -0.2373  0.2247  1.3821
  812MPD2     C12003   4.567   3.535  12.294  0.5432  0.1144  0.4967
  812MPD2    C112004   4.663   3.636  12.281 -0.1753 -0.2318 -0.1973
  812MPD2    C212005   0.047   3.615  12.336  0.4872  0.1527 -0.6901
  812MPD2    C312006   0.072   3.507  12.417  0.0383  0.0292  0.3323
  812MPD2    C412007   4.714   3.412  12.427 -0.0409  0.4002  0.3612
  812MPD2    C512008   4.597   3.422  12.362  0.8191 -0.8995  0.8350
  812MPD2     H12009   0.129   3.683  12.317  0.3960 -0.1646 -2.2261
  812MPD2    H112010   4.732   3.320  12.480  0.6586  1.9304  2.7708
  812MPD2    H212011   4.479   3.538  12.231  1.5841 -0.0519 -0.9795
  812MPD2    H312012   4.520   3.346  12.370 -2.2288  2.0674 -0.0948
  812MPD2     N12013   0.201   3.498  12.478 -0.0075 -0.2727 -0.3447
  812MPD2    H512014   0.267   3.573  12.458 -1.7117  1.7410  1.5548
  812MPD2    N112015   4.636   3.736  12.190 -0.0043 -1.3661 -0.3500
  812MPD2    H712016   4.549   3.732  12.136 -0.7853  1.7863  0.7231
  813MPD2     C12017   4.245   0.955  13.223 -0.0423  0.0197  0.2036
  813MPD2    C112018   4.267   1.091  13.237 -0.2351 -0.4064  0.1994
  813MPD2    C212019   4.207   1.153  13.340 -0.4760  0.0642 -0.2438
  813MPD2    C312020   4.140   1.091  13.441  0.5232 -0.0365  0.5375
  813MPD2    C412021   4.133   0.952  13.437 -0.4547 -0.5723 -0.2875
  813MPD2    C512022   4.181   0.890  13.324 -0.9301  0.0733  0.4404
  813MPD2     H12023   4.221   1.259  13.354  0.0390 -0.1766  1.0878
  813MPD2    H112024   4.080   0.893  13.510 -2.6333  0.4079 -1.0861
  813MPD2    H212025   4.269   0.901  13.132  1.1387 -0.4958  0.8208
  813MPD2    H312026   4.165   0.783  13.319 -1.0879  0.0922  0.5328
  813MPD2     N12027   4.088   1.173  13.545  0.0701 -0.3459 -0.5294
  813MPD2    H512028   4.092   1.272  13.526  0.0440 -0.2436 -0.0005
  813MPD2    N112029   4.328   1.173  13.138  0.3225 -0.1934  0.5457
  813MPD2    H712030   4.310   1.272  13.146  0.7017 -0.0081 -0.9110
  814MPD2     C12031   4.428   2.018  12.736  0.2184 -0.4751 -0.6793
  814MPD2    C112032   4.446   2.110  12.637 -0.3677  0.8000  0.1466
  814MPD2    C212033   4.522   2.224  12.671  0.3408 -0.7150 -0.3805
  814MPD2    C312034   4.577   2.235  12.795  0.0393  0.7430 -0.1452
  814MPD2    C412035   4.563   2.136  12.895  0.6284  0.0939  0.3429
  814MPD2    C512036   4.479   2.029  12.860 -1.2497 -0.1215  0.2417
  814MPD2     H12037   4.544   2.300  12.597 -2.0162 -0.0421 -0.3777
  814MPD2    H112038   4.616   2.139  12.989 -1.2735  0.0981  1.4282
  814MPD2    H212039   4.367   1.930  12.719 -0.8919 -0.1318  1.5403
  814MPD2    H312040   4.469   1.954  12.938  0.3399 -0.0312  0.5292
  814MPD2     N12041   4.651   2.355  12.832 -0.1460 -0.0492  0.5869
  814MPD2    H512042   4.706   2.348  12.917  0.5733 -1.0196  0.0372
  814MPD2    N112043   4.405   2.092  12.505  0.1716  0.5399  0.1741
  814MPD2    H712044   4.437   2.162  12.439  0.1313 -0.2061 -0.6269
  815MPD2     C12045   4.672   0.965  11.797 -0.1323  0.0886 -0.8074
  815MPD2    C112046   4.700   0.828  11.802  0.0658 -0.5421  0.0825
  815MPD2    C212047   4.615   0.738  11.864  0.1673  0.5976  0.3401
  815MPD2    C312048   4.515   0.788  11.943  0.1469 -0.3861  0.1440
  815MPD2    C412049   4.498   0.928  11.954 -0.4679  0.2491 -0.3081
  815MPD2    C512050   4.573   1.012  11.875  0.2905 -0.1313  0.7423
  815MPD2     H12051   4.631   0.631  11.863  0.2327  0.6121 -0.0079
  815MPD2    H112052   4.421   0.974  12.016 -1.4878  0.2383 -1.5676
  815MPD2    H212053   4.717   1.037  11.730 -0.4210  0.1242 -0.9642
  815MPD2    H312054   4.548   1.116  11.857  0.4647 -0.7255 -2.8321
  815MPD2     N12055   4.423   0.692  11.995 -0.0196 -0.0446  0.1193
  815MPD2    H512056   4.436   0.597  11.960  1.1418  0.4401 -0.7528
  815MPD2    N112057   0.068   0.787  11.719 -0.6743  0.1075  0.2291
  815MPD2    H712058   0.119   0.854  11.662  1.4228  0.1185  2.1069
  816MPD2     C12059   1.034   4.570  17.339  0.1261 -0.7960 -0.2406
  816MPD2    C112060   0.909   4.555  17.274  0.0769  0.6384 -0.2631
  816MPD2    C212061   0.898   4.462  17.173  0.1960  0.3437  0.0610
  816MPD2    C312062   1.011   4.375  17.138 -0.3224  0.1180  0.3420
  816MPD2    C412063   1.132   4.405  17.193  0.1952 -0.6418  0.1154
  816MPD2    C512064   1.141   4.500  17.299 -1.1553 -0.2064 -0.3121
  816MPD2     H12065   0.806   4.434  17.122 -0.8925 -0.1132  2.2635
  816MPD2    H112066   1.224   4.351  17.173  0.2364 -1.1758  1.8160
  816MPD2    H212067   1.047   4.647  17.414  0.5561  0.3928 -1.5320
  816MPD2    H312068   1.237   4.519  17.344 -1.7456  2.1273 -0.0610
  816MPD2     N12069   1.000   4.283  17.033 -0.1284  0.1596  0.2326
  816MPD2    H512070   0.912   4.267  16.987 -0.8949 -1.5589  2.2960
  816MPD2    N112071   0.798   4.628  17.330  0.8687 -0.2092  0.8677
  816MPD2    H712072   0.820   4.675  17.417  0.1750  0.7133  0.5371
  817MPD2     C12073   4.524   1.737  10.163 -0.3148 -0.6398 -0.5254
  817MPD2    C112074   4.515   1.721  10.027 -0.7152 -0.9104  0.0871
  817MPD2    C212075   4.552   1.825   9.944 -0.8520 -0.7928  0.7294
  817MPD2    C312076   4.610   1.946   9.985  0.6942 -0.8394 -0.0152
  817MPD2    C412077   4.611   1.956  10.121 -0.1563 -0.0711 -0.4314
  817MPD2    C512078   4.571   1.854  10.207  0.3016 -0.1334  0.2047
  817MPD2     H12079   4.547   1.810   9.837  0.6257 -2.3367  0.8681
  817MPD2    H112080   4.643   2.045  10.176 -0.2959 -0.7031  0.6798
  817MPD2    H212081   4.494   1.669  10.241 -1.2988 -0.6838 -0.9406
  817MPD2    H312082   4.566   1.876  10.313  0.1221 -0.9438  0.3576
  817MPD2     N12083   4.680   2.028   9.899 -0.5735 -0.1364 -0.7540
  817MPD2    H512084   4.670   2.013   9.799 -2.4443  0.5690 -0.6629
  817MPD2    N112085   4.462   1.607   9.967  0.3007 -0.0895 -1.0535
  817MPD2    H712086   4.455   1.606   9.866 -2.4668  0.1616 -0.8830
  818MPD2     C12087   3.109   1.896   9.989 -0.3469 -0.0734 -0.0355
  818MPD2    C112088   3.025   1.799  10.042 -0.8914 -0.5711 -0.0126
  818MPD2    C212089   3.073   1.671  10.044  0.1344 -0.4838 -0.6951
  818MPD2    C312090   3.198   1.636  10.005  0.4225  0.0288 -0.5700
  818MPD2    C412091   3.272   1.726   9.944  0.8825 -0.1024 -0.2692
  818MPD2    C512092   3.233   1.857   9.932 -0.1364 -0.1928  0.1304
  818MPD2     H12093   3.010   1.593  10.086  0.9297 -0.1889  1.0448
  818MPD2    H112094   3.366   1.701   9.896  1.1583 -0.1643  0.3005
  818MPD2    H212095   3.081   2.000   9.973  1.4074  0.1966 -1.3551
  818MPD2    H312096   3.297   1.935   9.892  0.1256 -0.6165 -0.2805
  818MPD2     N12097   3.259   1.510   9.997  0.0515 -1.0280 -0.1000
  818MPD2    H512098   3.342   1.491   9.942 -0.1682 -1.0185 -0.4319
  818MPD2    N112099   2.893   1.822  10.090 -0.7313  0.9324 -1.0767
  818MPD2    H712100   2.852   1.758  10.158  1.8845  0.3672 -0.0246
  819MPD2     C12101   1.864   3.318  15.766 -0.7528 -0.0793 -0.2501
  819MPD2    C112102   1.808   3.196  15.797 -0.7127  0.0080  0.2329
  819MPD2    C212103   1.872   3.116  15.894  0.7841  0.2247 -0.7734
  819MPD2    C312104   1.991   3.166  15.954  0.2915 -0.5651  0.1817
  819MPD2    C412105   2.043   3.286  15.916  0.2047 -0.1594  0.0810
  819MPD2    C512106   1.981   3.361  15.819 -0.4599 -1.0945 -0.0670
  819MPD2     H12107   1.845   3.013  15.914  0.7690  0.7406  1.8062
  819MPD2    H112108   2.143   3.316  15.946 -0.6865  3.6536 -0.8315
  819MPD2    H212109   1.821   3.375  15.685  0.5086 -1.2151 -1.7046
  819MPD2    H312110   2.033   3.448  15.779 -2.4127  0.1340  0.1081
  819MPD2     N12111   2.064   3.068  16.032  0.5055  0.2907  0.4534
  819MPD2    H512112   2.027   2.976  16.053 -1.0178  1.2157  1.8553
  819MPD2    N112113   1.695   3.155  15.728 -0.2760 -0.4038  0.2778
  819MPD2    H712114   1.687   3.216  15.647  2.5385 -0.3621  0.0385
  820MPD2     C12115   1.241   3.138  14.837  0.9913 -0.9327  0.0341
  820MPD2    C112116   1.258   3.232  14.934  0.8372 -0.8675 -0.5423
  820MPD2    C212117   1.307   3.193  15.053  0.4328 -0.1399 -0.0073
  820MPD2    C312118   1.336   3.061  15.078 -0.2769  0.2017  0.3667
  820MPD2    C412119   1.309   2.969  14.985 -0.4612 -0.4275 -0.0043
  820MPD2    C512120   1.261   3.004  14.864 -0.0816  0.3619 -0.3626
  820MPD2     H12121   1.332   3.272  15.122  0.5846 -0.8434  0.7481
  820MPD2    H112122   1.324   2.865  15.008 -1.6002 -0.7154 -0.5791
  820MPD2    H212123   1.209   3.177  14.741  1.0713 -0.9328  0.0073
  820MPD2    H312124   1.243   2.926  14.791 -1.5322  0.0446  0.3274
  820MPD2     N12125   1.381   3.015  15.199 -0.2915 -0.8577 -0.7378
  820MPD2    H512126   1.390   2.914  15.199 -0.4903 -0.8762 -1.5684
  820MPD2    N112127   1.202   3.361  14.917  0.0152 -0.3444 -0.4266
  820MPD2    H712128   1.159   3.369  14.826 -4.7692 -1.7528  1.6988
  821MPD2     C12129   1.508   0.025  13.750 -1.1087  0.0194  0.2211
  821MPD2    C112130   1.573   4.647  13.768 -0.0200 -0.0852  0.3146
  821MPD2    C212131   1.682   4.614  13.689 -0.2091 -0.2734 -0.7382
  821MPD2    C312132   1.721   4.696  13.588  0.1133 -0.3206  0.1421
  821MPD2    C412133   1.645   0.069  13.567  0.1844 -0.5805  0.5969
  821MPD2    C512134   1.536   0.101  13.643 -0.6866 -0.3213  0.2767
  821MPD2     H12135   1.734   4.523  13.715 -0.1621 -0.1308 -0.3204
  821MPD2    H112136   1.677   0.129  13.481  1.7200 -1.4465  0.5565
  821MPD2    H212137   1.417   0.058  13.800 -1.6134 -0.7173 -0.2098
  821MPD2    H312138   1.487   0.195  13.620 -0.2433 -0.3943 -0.9404
  821MPD2     N12139   1.829   4.667  13.501  0.6427  0.0442 -0.2236
  821MPD2    H512140   1.839   4.735  13.426  2.3634 -0.4375 -0.4252
  821MPD2    N112141   1.549   4.567  13.878  0.1210  0.7016 -0.6794
  821MPD2    H712142   1.609   4.485  13.876 -1.1970 -0.2980  0.6446
  822MPD2     C12143   2.782   4.273  15.999 -0.1754  0.0491 -0.6226
  822MPD2    C112144   2.748   4.218  16.119 -0.0528 -0.4912 -0.5168
  822MPD2    C212145   2.647   4.286  16.192  0.1921 -0.0766 -0.0073
  822MPD2    C312146   2.583   4.398  16.153 -0.1775 -0.3612 -0.0020
  822MPD2    C412147   2.628   4.461  16.040  0.3449  0.0531  0.3224
  822MPD2    C512148   2.714   4.386  15.967  0.0337  0.5458 -0.2283
  822MPD2     H12149   2.616   4.260  16.293  0.0273 -1.7410 -0.4960
  822MPD2    H112150   2.602   4.560  16.007  2.0894  0.2389 -0.4957
  822MPD2    H212151   2.845   4.216  15.933  0.3601 -1.3368  1.0872
  822MPD2    H312152   2.738   4.428  15.870 -0.2197 -1.9983 -1.3928
  822MPD2     N12153   2.500   4.463  16.242  0.7632 -0.0252 -0.4638
  822MPD2    H512154   2.473   4.406  16.321  1.8309  0.1040 -0.0076
  822MPD2    N112155   2.816   4.103  16.175  0.3293 -0.1214 -0.6826
  822MPD2    H712156   2.793   4.088  16.273  2.8092 -1.1306 -0.2365
  823MPD2     C12157   2.173   4.566  17.013  0.5379  0.0952 -0.2760
  823MPD2    C112158   2.230   4.489  16.913 -0.2668 -0.9094 -0.1027
  823MPD2    C212159   2.267   4.357  16.940  0.1163 -0.3973  0.3126
  823MPD2    C312160   2.271   4.313  17.072  0.1168  0.5803 -0.1697
  823MPD2    C412161   2.216   4.390  17.173  0.6875 -0.3623  0.2477
  823MPD2    C512162   2.159   4.514  17.140  0.2842 -0.2236 -1.0709
  823MPD2     H12163   2.295   4.290  16.860 -0.4779  0.5923 -0.7152
  823MPD2    H112164   2.212   4.355  17.276  1.3904  1.6792  0.9742
  823MPD2    H212165   2.134   4.667  17.002  0.6904 -0.0868 -2.5107
  823MPD2    H312166   2.125   4.581  17.219 -1.1465 -2.4951  0.2117
  823MPD2     N12167   2.316   4.185  17.106  0.3409 -0.5955 -0.1783
  823MPD2    H512168   2.298   4.157  17.202 -1.6341 -0.8246 -0.6144
  823MPD2    N112169   2.242   4.545  16.785 -0.4359 -0.2101 -0.1471
  823MPD2    H712170   2.223   4.644  16.772  1.0311  0.4872  3.0233
  824MPD2     C12171   3.242   3.369  16.286 -0.8088  0.3724 -0.1086
  824MPD2    C112172   3.277   3.465  16.195  0.2487  0.2413 -0.0560
  824MPD2    C212173   3.366   3.441  16.089 -0.3044 -0.0853  0.0675
  824MPD2    C312174   3.434   3.323  16.095  0.4784 -0.1374  0.1973
  824MPD2    C412175   3.400   3.230  16.188  0.3625 -0.8949  0.1664
  824MPD2    C512176   3.309   3.250  16.288  0.0593 -0.6869  0.7716
  824MPD2     H12177   3.383   3.505  16.004 -0.3025  0.4339  0.4595
  824MPD2    H112178   3.446   3.133  16.202  1.4515 -0.0695  2.3652
  824MPD2    H212179   3.174   3.378  16.369 -2.2280  0.2950 -1.2531
  824MPD2    H312180   3.279   3.172  16.357  0.3658 -2.6580 -1.3396
  824MPD2     N12181   3.540   3.312  15.997  0.4857  0.1772 -0.1267
  824MPD2    H512182   3.540   3.382  15.923  0.1933  1.7927  1.4280
  824MPD2    N112183   3.229   3.598  16.202 -0.1974  0.5794 -0.3618
  824MPD2    H712184   3.256   3.664  16.130 -1.7243  1.7859  0.1646
  825MPD2     C12185   3.971   3.433  15.292  0.2156  0.0501  0.2115
  825MPD2    C112186   3.938   3.505  15.403 -0.0412 -0.5613 -1.0808
  825MPD2    C212187   3.930   3.647  15.400  0.4962 -0.0129 -0.3469
  825MPD2    C312188   3.961   3.709  15.279  0.2241  0.2836  0.1038
  825MPD2    C412189   3.982   3.639  15.164  0.4337 -0.3938  0.0688
  825MPD2    C512190   3.986   3.502  15.172 -0.1095  0.0149 -0.0915
  825MPD2     H12191   3.907   3.698  15.493  0.3577  2.2355 -1.6190
  825MPD2    H112192   3.988   3.687  15.067 -0.1575  2.2974  1.3393
  825MPD2    H212193   3.971   3.325  15.292 -0.5331  0.0479  1.5327
  825MPD2    H312194   4.012   3.444  15.084 -1.6295 -1.2216  0.2776
  825MPD2     N12195   3.962   3.856  15.263 -0.0271 -0.7523 -0.0324
  825MPD2    H512196   3.977   3.891  15.169 -0.0620  1.8728  0.9357
  825MPD2    N112197   3.922   3.415  15.516 -0.5167  0.1796  0.1202
  825MPD2    H712198   3.939   3.316  15.503  4.1865  1.0805 -0.6560
  826MPD2     C12199   3.216   3.876  14.097 -0.2655 -0.3333 -0.2307
  826MPD2    C112200   3.221   3.914  13.962 -0.2423  0.4245  0.4358
  826MPD2    C212201   3.146   4.022  13.914  0.3275  0.8360 -0.0470
  826MPD2    C312202   3.062   4.084  14.001 -0.3525  0.0831  0.5298
  826MPD2    C412203   3.042   4.033  14.125  0.0776 -0.1443 -0.1122
  826MPD2    C512204   3.115   3.932  14.176 -0.0393  0.0528 -0.3158
  826MPD2     H12205   3.149   4.063  13.814  0.9864 -1.7780 -1.1075
  826MPD2    H112206   2.973   4.079  14.194  2.1352  0.4197  1.5863
  826MPD2    H212207   3.277   3.796  14.138  1.0734 -0.2599 -2.1060
  826MPD2    H312208   3.105   3.887  14.274 -1.7284  0.6409 -0.2168
  826MPD2     N12209   2.979   4.186  13.959 -0.2877  0.1307 -0.3442
  826MPD2    H512210   2.918   4.215  14.035  0.6128  1.5620 -0.1860
  826MPD2    N112211   3.315   3.842  13.883 -0.8517 -0.8926 -0.4172
  826MPD2    H712212   3.369   3.772  13.933 -0.5034  0.9687  1.8322
  827MPD2     C12213   3.626   0.634   9.998 -0.3949 -0.1279 -0.2642
  827MPD2    C112214   3.640   0.506  10.032  0.4939 -1.2206 -0.5596
  827MPD2    C212215   3.543   0.419   9.979  0.3621  0.6217  0.0305
  827MPD2    C312216   3.445   0.464   9.893  0.0238  0.1461  0.0143
  827MPD2    C412217   3.430   0.599   9.867  1.1521 -0.0017  0.2532
  827MPD2    C512218   3.522   0.680   9.921 -0.4785  0.9321 -0.0349
  827MPD2     H12219   3.543   0.312   9.998  0.9219  0.4981 -0.6830
  827MPD2    H112220   3.350   0.642   9.807 -0.6083 -2.0648  1.1589
  827MPD2    H212221   3.692   0.709  10.041  2.9680 -1.7296 -2.6517
  827MPD2    H312222   3.526   0.788   9.911 -0.3909  0.9999  0.7742
  827MPD2     N12223   3.357   0.367   9.842 -0.3128 -0.0730  0.2965
  827MPD2    H512224   3.357   0.274   9.884  0.9531 -0.5566 -0.7695
  827MPD2    N112225   3.746   0.475  10.122 -0.5694  0.1052 -0.0759
  827MPD2    H712226   3.778   0.560  10.168  0.4887 -0.0954 -0.4430
  828MPD2     C12227   2.663   0.255  12.761  0.1116 -0.3433 -0.4758
  828MPD2    C112228   2.585   0.227  12.654 -0.0068 -0.5646  0.0377
  828MPD2    C212229   2.639   0.203  12.534 -1.0215 -0.0443 -0.3032
  828MPD2    C312230   2.775   0.211  12.515 -0.4722 -0.4323  1.0894
  828MPD2    C412231   2.856   0.230  12.632 -0.3427 -0.1382 -0.3099
  828MPD2    C512232   2.797   0.247  12.752  0.0693 -0.7143 -1.0956
  828MPD2     H12233   2.570   0.166  12.459 -1.1360  0.3936 -0.4136
  828MPD2    H112234   2.964   0.239  12.635 -0.4067  0.5591  0.0513
  828MPD2    H212235   2.625   0.277  12.860  0.7598  1.2024 -0.5641
  828MPD2    H312236   2.864   0.263  12.836 -0.6301 -0.1891 -0.6430
  828MPD2     N12237   2.840   0.194  12.391 -0.3297 -0.6461 -0.2970
  828MPD2    H512238   2.941   0.185  12.386 -0.3472 -1.4770  0.9462
  828MPD2    N112239   2.447   0.230  12.657  0.4250  0.1499  0.6326
  828MPD2    H712240   2.400   0.194  12.574  2.8851  0.7146 -1.0176
  829MPD2     C12241   1.783   0.519  11.995 -0.2320 -0.0604 -0.2179
  829MPD2    C112242   1.705   0.518  12.111 -0.1687  0.1020  0.4058
  829MPD2    C212243   1.773   0.507  12.228 -0.6751 -0.5559 -0.2376
  829MPD2    C312244   1.912   0.503  12.233 -0.2548  0.5560 -0.5085
  829MPD2    C412245   1.982   0.493  12.113 -0.0379 -0.8129  0.3948
  829MPD2    C512246   1.916   0.501  11.997 -0.5940 -0.4234  0.0501
  829MPD2     H12247   1.717   0.527  12.319  0.5595  0.5641  0.2841
  829MPD2    H112248   2.090   0.493  12.127 -0.2405 -1.3142  2.0391
  829MPD2    H212249   1.731   0.522  11.900  0.5776 -0.4950 -0.6698
  829MPD2    H312250   1.971   0.498  11.904 -0.9870  1.2345 -0.2295
  829MPD2     N12251   1.962   0.480  12.364  0.2560  0.2797  0.0842
  829MPD2    H512252   1.883   0.471  12.427  0.1404  0.8272  0.0226
  829MPD2    N112253   1.560   0.514  12.103  0.2574 -0.3379 -0.0538
  829MPD2    H712254   1.521   0.511  12.009 -0.6307  2.1357  0.2326
  830MPD2     C12255   2.327   2.572  15.707 -0.5820 -0.1719 -0.2264
  830MPD2    C112256   2.380   2.617  15.825  0.2761 -0.5491  0.7861
  830MPD2    C212257   2.509   2.677  15.815 -0.4020  0.7234  0.3409
  830MPD2    C312258   2.576   2.705  15.693  0.1017 -0.1103 -0.4039
  830MPD2    C412259   2.521   2.643  15.587  0.0335  0.6683 -0.1168
  830MPD2    C512260   2.401   2.571  15.592  0.5598 -0.0691 -0.2502
  830MPD2     H12261   2.547   2.704  15.913 -1.1018 -0.7533  1.0261
  830MPD2    H112262   2.573   2.653  15.492 -1.1654 -0.9519 -0.9427
  830MPD2    H212263   2.225   2.535  15.700 -0.2578 -0.3830 -4.1307
  830MPD2    H312264   2.370   2.521  15.501 -1.0305 -1.7106  1.1886
  830MPD2     N12265   2.696   2.778  15.684  0.0670  0.4690 -0.7336
  830MPD2    H512266   2.731   2.789  15.590 -1.5739 -0.8249 -1.5062
  830MPD2    N112267   2.302   2.630  15.940 -0.5159 -0.0771  0.5907
  830MPD2    H712268   2.201   2.626  15.925 -0.1813 -4.5875 -0.4720
  831MPD2     C12269   2.711   4.541  16.654 -0.4699  0.0485  0.7276
  831MPD2    C112270   2.754   4.460  16.549  0.1458 -0.2883 -0.8126
  831MPD2    C212271   2.716   4.325  16.540 -0.3350 -0.3241  0.6617
  831MPD2    C312272   2.624   4.274  16.635 -0.6419  0.1602  0.6610
  831MPD2    C412273   2.588   4.358  16.742 -0.1066 -0.2241  0.4093
  831MPD2    C512274   2.632   4.491  16.751 -0.1938 -0.1046  0.0413
  831MPD2     H12275   2.751   4.264  16.458 -2.3243  0.0157 -0.4504
  831MPD2    H112276   2.516   4.329  16.818  1.9022 -0.4228  2.2433
  831MPD2    H212277   2.735   4.646  16.653  1.8925 -0.4540  3.0249
  831MPD2    H312278   2.589   4.549  16.832 -3.6604 -0.5066 -1.5190
  831MPD2     N12279   2.561   4.147  16.614  0.1702  0.1517  0.3453
  831MPD2    H512280   2.503   4.117  16.693 -0.0545 -2.4473 -0.8145
  831MPD2    N112281   2.840   4.516  16.451 -0.4098  0.6287  0.9572
  831MPD2    H712282   2.861   4.615  16.461  0.2257  0.4547  1.3947
  832MPD2     C12283   1.058   0.666  17.376 -0.5318  0.5975  0.7167
  832MPD2    C112284   1.064   0.804  17.345 -0.0937 -0.7877  0.7726
  832MPD2    C212285   0.960   0.858  17.266 -0.3541  0.1934  0.7075
  832MPD2    C312286   0.851   0.775  17.221 -0.1966 -0.7929  0.2943
  832MPD2    C412287   0.856   0.643  17.251 -1.0693  0.1917  0.3668
  832MPD2    C512288   0.959   0.583  17.319  0.2274  0.9892 -0.4012
  832MPD2     H12289   0.953   0.963  17.242  1.8727 -0.1587 -1.4828
  832MPD2    H112290   0.790   0.576  17.197 -1.7986  0.1044  1.3573
  832MPD2    H212291   1.137   0.611  17.428 -1.5915 -1.2586  0.3628
  832MPD2    H312292   0.959   0.476  17.340  0.4211  0.8461 -1.1134
  832MPD2     N12293   0.740   0.825  17.148  0.1984 -0.0604  0.2202
  832MPD2    H512294   0.671   0.753  17.130  0.5412 -0.3405  0.0116
  832MPD2    N112295   1.172   0.878  17.395 -0.0576  0.0250  0.2031
  832MPD2    H712296   1.239   0.836  17.458  1.2482  2.2974  0.3051
  833MPD2     C12297   2.418   2.868  12.744 -0.3331 -0.0127 -0.1020
  833MPD2    C112298   2.400   2.895  12.612 -0.9341  0.5388  0.7505
  833MPD2    C212299   2.484   2.834  12.517  0.2287 -0.0278  0.1126
  833MPD2    C312300   2.586   2.753  12.560  0.8520  0.1040 -0.2353
  833MPD2    C412301   2.616   2.742  12.697  0.6100  0.3257 -0.0374
  833MPD2    C512302   2.526   2.793  12.788  0.4286 -0.2092 -0.1603
  833MPD2     H12303   2.484   2.843  12.409  0.0766 -0.3810  0.0852
  833MPD2    H112304   2.689   2.671  12.734 -1.2895 -1.0570  1.0196
  833MPD2    H212305   2.353   2.918  12.815  0.7923 -0.6496  1.3990
  833MPD2    H312306   2.538   2.771  12.893  0.2302 -1.0406 -0.3125
  833MPD2     N12307   2.656   2.690  12.459 -0.1155  0.6031  0.1173
  833MPD2    H512308   2.627   2.708  12.364  0.9581 -1.2583 -0.5615
  833MPD2    N112309   2.300   2.989  12.587  0.1351  0.4435 -0.4377
  833MPD2    H712310   2.217   2.986  12.647 -0.5373  0.9717 -1.3403
  834MPD2     C12311   3.259   2.191  11.789  0.3456  0.0816  1.0164
  834MPD2    C112312   3.127   2.203  11.762  0.2084 -0.3882 -0.4349
  834MPD2    C212313   3.060   2.309  11.830 -0.2034 -0.0963  0.5637
  834MPD2    C312314   3.118   2.378  11.932  0.6587 -0.2980  0.1265
  834MPD2    C412315   3.245   2.343  11.971  0.1038 -0.0125  0.3672
  834MPD2    C512316   3.320   2.258  11.896  0.9956  0.8714 -0.8220
  834MPD2     H12317   2.955   2.327  11.810  0.2441  0.9073 -0.8602
  834MPD2    H112318   3.290   2.389  12.059  0.2046  3.1984 -1.3891
  834MPD2    H212319   3.327   2.138  11.723 -0.8704 -0.6116  0.3270
  834MPD2    H312320   3.426   2.242  11.909  1.1424  3.0410  0.6271
  834MPD2     N12321   3.042   2.476  11.988 -0.0904  0.2460  0.3895
  834MPD2    H512322   2.954   2.493  11.941  0.0249  0.3963  0.2260
  834MPD2    N112323   3.078   2.145  11.640  0.4485  0.2486  0.3346
  834MPD2    H712324   3.132   2.069  11.600  1.5955  1.1000  0.2710
  835MPD2     C12325   3.345   0.282  11.195 -0.6057  0.8854 -0.8521
  835MPD2    C112326   3.284   0.388  11.265  0.0150  0.0444  0.1637
  835MPD2    C212327   3.323   0.416  11.393  0.2874  0.2236  0.1578
  835MPD2    C312328   3.387   0.318  11.471 -0.2368  0.5152 -0.3974
  835MPD2    C412329   3.437   0.210  11.400  0.2854 -0.2547 -0.0899
  835MPD2    C512330   3.411   0.193  11.265  0.0568 -0.4388 -0.3379
  835MPD2     H12331   3.293   0.512  11.432 -2.1170 -0.1495 -0.7610
  835MPD2    H112332   3.488   0.126  11.447 -0.7406 -0.1737  1.1592
  835MPD2    H212333   3.323   0.263  11.091 -0.7347  0.7031 -0.7907
  835MPD2    H312334   3.440   0.096  11.228  2.1133 -0.5724  1.6127
  835MPD2     N12335   3.420   0.326  11.606  0.0327 -0.5789 -0.3263
  835MPD2    H512336   3.476   0.247  11.638  2.8434  1.1415 -0.9651
  835MPD2    N112337   3.199   0.478  11.204  0.2552 -0.5958  0.2875
  835MPD2    H712338   3.180   0.561  11.260 -0.1458  0.8400 -1.9384
  836MPD2     C12339   3.290   0.765  12.288  0.0386  0.4233 -0.2115
  836MPD2    C112340   3.223   0.645  12.257 -0.1330  0.2506 -0.6105
  836MPD2    C212341   3.115   0.612  12.330  0.1240 -0.2856  0.0092
  836MPD2    C312342   3.075   0.685  12.439  0.6026  0.3217  0.4739
  836MPD2    C412343   3.143   0.800  12.463 -0.7850 -0.1287 -0.0554
  836MPD2    C512344   3.244   0.844  12.383  0.5203  0.1533  0.6780
  836MPD2     H12345   3.065   0.520  12.302 -1.2739  0.8846 -1.3210
  836MPD2    H112346   3.125   0.856  12.554  0.5117  1.4321 -0.7677
  836MPD2    H212347   3.373   0.799  12.228 -0.8867  0.7363 -1.3089
  836MPD2    H312348   3.304   0.931  12.408  2.0291 -0.8710  0.5885
  836MPD2     N12349   2.962   0.645  12.514  0.2513  0.1087 -0.3063
  836MPD2    H512350   2.904   0.582  12.460  0.8458 -0.1296 -0.6705
  836MPD2    N112351   3.286   0.566  12.157 -0.0730 -0.0768  0.6699
  836MPD2    H712352   3.374   0.599  12.119 -0.2914  0.6472  0.7894
  837MPD2     C12353   1.084   0.252  10.589  0.6714  0.2450 -0.5193
  837MPD2    C112354   0.947   0.246  10.604  1.1611  0.0753  0.4877
  837MPD2    C212355   0.882   0.367  10.617  0.0453  0.1667 -0.0787
  837MPD2    C312356   0.942   0.487  10.600 -0.2690 -0.0686 -0.2476
  837MPD2    C412357   1.077   0.496  10.568  0.0098  0.3082 -0.6940
  837MPD2    C512358   1.145   0.376  10.566  0.2227 -0.3883 -0.5258
  837MPD2     H12359   0.775   0.379  10.624  0.2248  1.5867  0.2345
  837MPD2    H112360   1.132   0.583  10.536 -1.3648  2.0462  1.6515
  837MPD2    H212361   1.146   0.164  10.576  0.8984  0.5062 -1.2399
  837MPD2    H312362   1.249   0.378  10.534  0.0719  2.4447 -0.8376
  837MPD2     N12363   0.855   0.601  10.601 -0.1105 -0.7193 -0.2265
  837MPD2    H512364   0.761   0.590  10.638  0.3683  0.1068  1.2408
  837MPD2    N112365   0.872   0.133  10.592  0.6283  0.2264  0.1075
  837MPD2    H712366   0.773   0.135  10.614  0.7331 -1.4848  0.7213
  838MPD2     C12367   4.112   2.911  12.219 -0.1863  1.2157 -0.3668
  838MPD2    C112368   4.132   2.827  12.335 -0.0512  0.7587  0.0069
  838MPD2    C212369   4.051   2.715  12.354 -0.0810 -0.1507  0.6626
  838MPD2    C312370   3.940   2.698  12.268  0.0907 -1.4047  0.4542
  838MPD2    C412371   3.927   2.787  12.163 -0.0998  0.3076  0.4011
  838MPD2    C512372   4.014   2.882  12.125 -0.0639 -1.0181  0.4719
  838MPD2     H12373   4.069   2.645  12.435 -0.0313 -0.1112  0.6852
  838MPD2    H112374   3.843   2.791  12.093  3.2128 -0.9070 -3.6519
  838MPD2    H212375   4.174   2.998  12.199 -0.4900  1.1661 -1.5432
  838MPD2    H312376   3.993   2.948  12.041 -0.7635  0.4514  1.8008
  838MPD2     N12377   3.834   2.601  12.299 -0.2762  0.0812  0.3720
  838MPD2    H512378   3.842   2.549  12.386  2.0762  1.3259  0.8971
  838MPD2    N112379   4.239   2.844  12.422 -0.1538  0.3868 -0.1999
  838MPD2    H712380   4.247   2.780  12.500 -1.9112  3.2948  2.3608
  839MPD2     C12381   4.056   2.275  12.434 -0.1276  0.1345  0.2368
  839MPD2    C112382   4.105   2.345  12.328  0.4148 -0.5199 -0.1464
  839MPD2    C212383   4.221   2.423  12.331 -0.0189 -0.2047  0.2285
  839MPD2    C312384   4.291   2.428  12.446 -0.1524  0.4485 -0.5064
  839MPD2    C412385   4.242   2.358  12.553 -0.0917  0.1744 -0.1372
  839MPD2    C512386   4.131   2.279  12.544 -0.2861  0.1114  0.3428
  839MPD2     H12387   4.249   2.476  12.241  2.7543  0.0797  1.2696
  839MPD2    H112388   4.293   2.344  12.648  1.3170 -0.6873 -1.0355
  839MPD2    H212389   3.973   2.205  12.424  1.0793 -1.0691 -1.1886
  839MPD2    H312390   4.097   2.211  12.621 -0.9448 -0.7438 -0.7147
  839MPD2     N12391   4.402   2.508  12.457  0.0196 -0.0970  0.2973
  839MPD2    H512392   4.434   2.535  12.549 -1.4801 -0.1855  0.8456
  839MPD2    N112393   4.046   2.344  12.194 -0.7985 -0.5842  0.5404
  839MPD2    H712394   4.079   2.412  12.126 -1.8356 -0.2438  0.3766
  840MPD2     C12395   4.183   0.862  10.247  0.0668  0.0214  0.1904
  840MPD2    C112396   4.233   0.753  10.315  0.7305 -0.0924  0.0694
  840MPD2    C212397   4.352   0.762  10.388  0.3209 -1.2483 -0.2464
  840MPD2    C312398   4.410   0.888  10.406  0.0532  0.2831  0.0284
  840MPD2    C412399   4.361   0.998  10.340  0.0028 -0.0966  0.3149
  840MPD2    C512400   4.247   0.980  10.256 -0.2575  0.0489 -0.3176
  840MPD2     H12401   4.413   0.678  10.419  1.0411 -0.2894  0.9407
  840MPD2    H112402   4.410   1.095  10.345 -0.9590  0.3457  1.1613
  840MPD2    H212403   4.096   0.849  10.185 -0.9016 -2.5509  2.0988
  840MPD2    H312404   4.210   1.068  10.204  0.4105  0.5731  0.0921
  840MPD2     N12405   4.526   0.911  10.479  0.0746 -0.1873  0.0690
  840MPD2    H512406   4.559   1.007  10.474  0.6791 -0.2696  2.9437
  840MPD2    N112407   4.160   0.631  10.299 -0.5120 -0.4012 -0.1522
  840MPD2    H712408   4.086   0.635  10.230 -0.4478  0.1523 -0.1876
  841MPD2     C12409   0.233   4.443  14.491 -0.5983 -0.3659  0.3770
  841MPD2    C112410   0.128   4.439  14.580 -0.4434 -0.4782  0.5455
  841MPD2    C212411   0.101   4.554  14.650 -0.0421 -0.3477 -0.9449
  841MPD2    C312412   0.172   4.671  14.625 -1.1328 -0.2318 -0.4836
  841MPD2    C412413   0.272   4.675  14.532 -0.1764 -0.1034 -0.1528
  841MPD2    C512414   0.295   4.559  14.460 -0.0606 -0.0795  0.0563
  841MPD2     H12415   0.023   4.561  14.725  0.7594 -0.3548 -0.1119
  841MPD2    H112416   0.336   0.022  14.519 -0.9477  0.5424  0.4095
  841MPD2    H212417   0.261   4.359  14.428 -3.1203  1.5330 -3.3108
  841MPD2    H312418   0.376   4.555  14.388  0.8096  1.0893  0.9618
  841MPD2     N12419   0.130   0.049  14.692 -0.0650  0.0424  0.3571
  841MPD2    H512420   0.048   0.047  14.752  0.8558  1.0107  1.6715
  841MPD2    N112421   0.039   4.331  14.595  0.8754 -0.0671 -0.4429
  841MPD2    H712422   4.697   4.360  14.647  0.7002  0.6898 -1.1575
  842MPD2     C12423   0.581   1.348  16.690 -0.4818 -0.1982 -0.0046
  842MPD2    C112424   0.467   1.321  16.765 -0.4524 -0.4512 -0.0331
  842MPD2    C212425   0.477   1.305  16.899  0.2325 -0.3219  0.3704
  842MPD2    C312426   0.595   1.320  16.966  0.1203 -0.7413  0.1964
  842MPD2    C412427   0.701   1.358  16.889 -0.4368  0.2908  0.7232
  842MPD2    C512428   0.701   1.368  16.754 -0.3529  0.5188  0.3065
  842MPD2     H12429   0.383   1.301  16.951 -0.3413 -1.5868 -0.7620
  842MPD2    H112430   0.795   1.369  16.943 -0.7190 -0.1567  1.3015
  842MPD2    H212431   0.574   1.362  16.583  1.8970  1.2653  0.0280
  842MPD2    H312432   0.792   1.387  16.699 -0.4448 -3.0426 -1.0663
  842MPD2     N12433   0.608   1.316  17.106 -0.0547 -0.1502 -0.3583
  842MPD2    H512434   0.697   1.346  17.145  0.8688 -3.7901  0.2741
  842MPD2    N112435   0.348   1.305  16.694 -0.2825 -0.2706 -0.1455
  842MPD2    H712436   0.346   1.327  16.596  1.6710 -0.8322 -0.3048
  843MPD2     C12437   2.650   2.041  17.675 -0.3947 -0.8536 -0.0204
  843MPD2    C112438   2.618   2.014   0.049 -0.6203  0.0620 -0.1285
  843MPD2    C212439   2.636   2.113   0.147  0.0157  0.0022  0.2703
  843MPD2    C312440   2.701   2.230   0.122 -0.4228  0.2778 -0.0883
  843MPD2    C412441   2.731   2.255  17.744  0.4923 -0.4978  0.0062
  843MPD2    C512442   2.701   2.163  17.647  1.2722 -0.3530  0.0156
  843MPD2     H12443   2.596   2.095   0.246 -0.6761 -0.8036 -0.1582
  843MPD2    H112444   2.771   2.351  17.714  2.1231 -0.9375  0.7309
  843MPD2    H212445   2.647   1.963  17.600  2.3373  0.2456 -1.2717
  843MPD2    H312446   2.716   2.189  17.542 -2.3632 -2.3854 -1.0154
  843MPD2     N12447   2.724   2.327   0.219  0.6370 -0.5898 -0.6638
  843MPD2    H512448   2.755   2.418   0.187 -0.1055  0.2790  1.0456
  843MPD2    N112449   2.565   1.884   0.075  0.0147 -0.6367 -0.5778
  843MPD2    H712450   2.524   1.842  17.750 -1.2127 -2.6302  1.0337
  844MPD2     C12451   0.390   0.158  16.672 -0.0964 -0.3451 -0.3444
  844MPD2    C112452   0.472   0.195  16.568 -0.2043 -0.2040  0.0240
  844MPD2    C212453   0.566   0.291  16.586  0.5354  0.3928 -0.3828
  844MPD2    C312454   0.587   0.352  16.710 -0.6562  0.2201 -0.2266
  844MPD2    C412455   0.498   0.316  16.806 -0.3222 -0.0362 -0.0089
  844MPD2    C512456   0.408   0.222  16.783 -0.1070  0.2312  0.6513
  844MPD2     H12457   0.634   0.319  16.506 -0.2323 -1.1349 -1.5830
  844MPD2    H112458   0.506   0.367  16.901  0.5345  1.5384 -0.9385
  844MPD2    H212459   0.307   0.088  16.662  0.4448 -1.1332  0.7269
  844MPD2    H312460   0.349   0.190  16.868 -0.4305 -2.4521 -0.5965
  844MPD2     N12461   0.695   0.440  16.723 -0.4544  0.2101  0.6028
  844MPD2    H512462   0.724   0.489  16.640  0.5740 -1.0187  0.2363
  844MPD2    N112463   0.457   0.130  16.441  0.3373 -0.5802  0.4325
  844MPD2    H712464   0.503   0.167  16.358 -1.0201 -0.7715 -0.4081
  845MPD2     C12465   1.218   1.323  16.581  0.2475 -0.6949  0.1333
  845MPD2    C112466   1.145   1.293  16.693  0.3041  0.3350  1.0413
  845MPD2    C212467   1.085   1.167  16.706 -0.3964 -0.1659  0.0620
  845MPD2    C312468   1.123   1.062  16.619  0.2723  0.3075  0.4205
  845MPD2    C412469   1.219   1.088  16.527  0.5687 -0.9212 -0.0629
  845MPD2    C512470   1.265   1.215  16.514 -0.1725 -0.3761 -0.6968
  845MPD2     H12471   1.003   1.162  16.776  0.2224  3.1935  1.0557
  845MPD2    H112472   1.258   1.016  16.456  0.9467 -0.2485 -0.5356
  845MPD2    H212473   1.256   1.424  16.569 -1.8637 -0.0172 -0.8365
  845MPD2    H312474   1.339   1.243  16.440  0.8522 -1.9849 -0.2719
  845MPD2     N12475   1.082   0.930  16.628 -0.6491 -0.5011  0.1758
  845MPD2    H512476   1.142   0.859  16.587  2.4567  0.2212  3.4789
  845MPD2    N112477   1.129   1.399  16.792  0.1411  0.3692 -0.3984
  845MPD2    H712478   1.168   1.489  16.766 -1.4402  0.2013 -3.3295
  846MPD2     C12479   2.441   2.355  14.338 -0.0343  0.1780 -0.0807
  846MPD2    C112480   2.337   2.287  14.283  0.6029 -0.3581 -0.0739
  846MPD2    C212481   2.256   2.218  14.375  0.3538  0.0100  0.3241
  846MPD2    C312482   2.268   2.232  14.510 -0.0774  0.5679  0.2592
  846MPD2    C412483   2.380   2.295  14.559 -0.8013 -0.2900  0.5427
  846MPD2    C512484   2.466   2.358  14.469  0.1248 -0.5789  0.1974
  846MPD2     H12485   2.165   2.170  14.340  0.2616  0.5478 -0.1742
  846MPD2    H112486   2.399   2.304  14.665  0.1681 -2.8410  0.5716
  846MPD2    H212487   2.514   2.401  14.272 -0.3759  1.3508  0.3542
  846MPD2    H312488   2.559   2.403  14.502  0.2926  0.1362 -1.2770
  846MPD2     N12489   2.170   2.164  14.593  0.0279  0.2015  0.1021
  846MPD2    H512490   2.094   2.116  14.548  0.4536 -0.0719 -0.3205
  846MPD2    N112491   2.297   2.300  14.151  0.2422 -0.0980  0.2440
  846MPD2    H712492   2.225   2.237  14.117 -0.0986  1.7526 -2.4425
  847MPD2     C12493   2.885   2.891  14.486 -0.0054  0.0425  0.1071
  847MPD2    C112494   2.968   3.005  14.512  0.2757  0.1739 -0.3944
  847MPD2    C212495   3.063   3.006  14.610  0.2439 -0.5940 -0.0401
  847MPD2    C312496   3.089   2.896  14.684  0.7099  0.5401 -0.2732
  847MPD2    C412497   3.025   2.781  14.652 -0.1559 -0.1663 -0.0728
  847MPD2    C512498   2.914   2.784  14.561 -0.1713  0.4821  0.0522
  847MPD2     H12499   3.114   3.098  14.640 -0.2469 -0.7435  1.2557
  847MPD2    H112500   3.034   2.687  14.705 -1.1791  0.8575  1.9495
  847MPD2    H212501   2.795   2.895  14.426 -0.0172 -0.1980  0.1077
  847MPD2    H312502   2.853   2.696  14.544  0.8196 -0.2052  0.0465
  847MPD2     N12503   3.177   2.907  14.791 -0.1060 -0.2115 -0.1229
  847MPD2    H512504   3.233   2.992  14.788 -2.8879  1.6951  1.7130
  847MPD2    N112505   2.944   3.123  14.446  0.1231 -0.4421 -0.7249
  847MPD2    H712506   3.012   3.195  14.470  0.7597 -1.5763  0.8541
  848MPD2     C12507   0.523   1.007  16.399 -0.0697  0.6629  0.4403
  848MPD2    C112508   0.610   1.048  16.495  0.0443  0.0138 -0.2914
  848MPD2    C212509   0.724   1.114  16.456  0.5974 -0.1516  0.1014
  848MPD2    C312510   0.736   1.143  16.319 -0.5845  0.3465 -0.0017
  848MPD2    C412511   0.649   1.090  16.227  0.8697 -0.8111 -0.1383
  848MPD2    C512512   0.540   1.027  16.266 -0.6020 -0.2357 -0.3374
  848MPD2     H12513   0.803   1.141  16.526  1.4324  0.5212 -1.0945
  848MPD2    H112514   0.658   1.119  16.123  0.7148  0.5221  0.2273
  848MPD2    H212515   0.430   0.959  16.425  0.1701  0.4634  0.9282
  848MPD2    H312516   0.467   0.987  16.197 -2.1874  1.8139  0.1666
  848MPD2     N12517   0.826   1.231  16.261  0.0659 -0.9287  0.4823
  848MPD2    H512518   0.835   1.241  16.161 -1.7808 -0.3517  0.3929
  848MPD2    N112519   0.590   1.025  16.635 -0.0235 -0.2557  0.3389
  848MPD2    H712520   0.669   1.037  16.697  0.3164  1.9504 -0.5182
  849MPD2     C12521   4.265   0.907  14.457 -0.1356 -0.0602 -0.2115
  849MPD2    C112522   4.334   0.999  14.389  0.3154 -0.3830  0.2356
  849MPD2    C212523   4.437   1.060  14.462 -0.1079 -0.0434  1.0093
  849MPD2    C312524   4.472   1.027  14.592 -0.5253 -0.0731  0.7852
  849MPD2    C412525   4.399   0.927  14.656 -0.0232 -0.1380  0.3782
  849MPD2    C512526   4.295   0.873  14.586  0.3564 -0.8090 -0.0196
  849MPD2     H12527   4.496   1.136  14.412 -0.3711  0.3620  1.3028
  849MPD2    H112528   4.434   0.892  14.753  1.1807  1.6006  0.5819
  849MPD2    H212529   4.188   0.854  14.402  0.7011 -1.5111  0.0137
  849MPD2    H312530   4.240   0.792  14.632  1.1131 -2.1335 -1.4143
  849MPD2     N12531   4.595   1.083  14.638  0.2707 -0.4867 -0.1392
  849MPD2    H512532   4.650   1.130  14.567  1.6160 -0.2793  1.0462
  849MPD2    N112533   4.308   1.036  14.256  0.2585  0.2435  0.2914
  849MPD2    H712534   4.231   0.989  14.209  1.7269 -1.7737 -0.1472
  850MPD2     C12535   2.543   4.519  15.368  0.0521  0.6227 -0.1125
  850MPD2    C112536   2.633   4.424  15.398 -0.7534  0.4249 -0.8823
  850MPD2    C212537   2.761   4.426  15.339  1.0147 -0.1249  0.0107
  850MPD2    C312538   2.797   4.529  15.259  0.3114 -0.1973  0.2678
  850MPD2    C412539   2.701   4.630  15.238  0.4183  0.1133  0.6629
  850MPD2    C512540   2.571   4.611  15.283  0.2498 -0.3626  0.0232
  850MPD2     H12541   2.844   4.365  15.371  1.3248  0.0201 -0.5203
  850MPD2    H112542   2.738   4.718  15.185 -0.5184 -0.2420 -0.5861
  850MPD2    H212543   2.441   4.527  15.405  0.3615  0.6148  0.7451
  850MPD2    H312544   2.497   4.684  15.251  0.1656 -0.8554 -0.8773
  850MPD2     N12545   2.932   4.546  15.226  0.1012  0.2532 -0.2504
  850MPD2    H512546   2.960   4.640  15.199  1.0666 -0.7038 -2.6123
  850MPD2    N112547   2.593   4.342  15.497  0.6331 -0.8082 -0.0901
  850MPD2    H712548   2.509   4.368  15.548  0.6648  2.1291 -1.5481
  851MPD2     C12549   2.779   3.721  16.138  0.3688  0.4643 -0.1729
  851MPD2    C112550   2.755   3.727  16.004 -0.2387  0.1791  0.6778
  851MPD2    C212551   2.761   3.610  15.932 -0.0505 -0.7856 -0.3338
  851MPD2    C312552   2.800   3.495  15.983 -0.3292 -0.7478  0.4749
  851MPD2    C412553   2.834   3.491  16.118 -0.2646  0.7991 -0.2504
  851MPD2    C512554   2.813   3.604  16.196  0.3242 -0.8846  0.1501
  851MPD2     H12555   2.756   3.612  15.823 -0.4489  2.4720 -0.2631
  851MPD2    H112556   2.864   3.395  16.158  0.0720  1.6880  1.5811
  851MPD2    H212557   2.765   3.808  16.202 -2.8548  1.3735 -2.0809
  851MPD2    H312558   2.840   3.591  16.300 -0.6373 -2.3723  0.2279
  851MPD2     N12559   2.809   3.392  15.893 -0.2637  0.3952  0.5842
  851MPD2    H512560   2.800   3.410  15.793  1.1824 -0.1828  0.3581
  851MPD2    N112561   2.700   3.841  15.944 -0.4126  0.1263  0.1343
  851MPD2    H712562   2.689   3.923  16.002 -1.3840 -0.7390  1.1637
  852MPD2     C12563   2.088   1.975   9.949 -0.2287 -0.4650  0.4610
  852MPD2    C112564   2.084   2.036  10.076  0.2460  0.9276 -0.0809
  852MPD2    C212565   2.188   2.122  10.104 -0.0877 -0.3130  0.2004
  852MPD2    C312566   2.286   2.150  10.011  0.2132  0.4111  0.2249
  852MPD2    C412567   2.284   2.084   9.890  0.2411 -0.1969  0.4951
  852MPD2    C512568   2.182   2.000   9.861 -0.1185 -0.6623 -0.1906
  852MPD2     H12569   2.195   2.171  10.201 -0.3801 -1.0714  0.6082
  852MPD2    H112570   2.361   2.092   9.814 -0.3715  2.3734  0.1467
  852MPD2    H212571   2.012   1.903   9.921  0.0422 -0.2662 -0.7865
  852MPD2    H312572   2.181   1.948   9.766 -1.6504 -0.9447 -0.0223
  852MPD2     N12573   2.380   2.246  10.050 -0.2079  0.8543 -0.3120
  852MPD2    H512574   2.369   2.288  10.141  1.8803  2.5884 -0.8580
  852MPD2    N112575   1.987   2.000  10.169 -0.0686  0.5539 -0.1153
  852MPD2    H712576   1.910   1.942  10.138 -0.6846  0.9774  0.6132
  853MPD2     C12577   3.850   1.206  12.576 -0.5898 -0.3022 -0.1288
  853MPD2    C112578   3.829   1.338  12.538  0.1849  0.4849 -0.2048
  853MPD2    C212579   3.871   1.374  12.415 -0.5134 -0.6189  0.6051
  853MPD2    C312580   3.919   1.285  12.324 -0.2247 -1.1698  0.3169
  853MPD2    C412581   3.933   1.155  12.363  0.5048 -0.2474 -0.2345
  853MPD2    C512582   3.890   1.120  12.487  0.3498  0.4338  0.4213
  853MPD2     H12583   3.857   1.477  12.383  0.2421 -0.6047  0.3202
  853MPD2    H112584   3.968   1.079  12.293  0.4707  1.1970 -1.8287
  853MPD2    H212585   3.807   1.175  12.671 -3.5076  1.8643 -0.7450
  853MPD2    H312586   3.894   1.013  12.505  0.4529  0.4376  0.4198
  853MPD2     N12587   3.960   1.315  12.196  0.0240 -0.2668 -0.2361
  853MPD2    H512588   3.982   1.234  12.139  1.1477 -0.1510  0.0495
  853MPD2    N112589   3.773   1.433  12.638  0.5710 -0.1066  0.1991
  853MPD2    H712590   3.727   1.386  12.715 -0.8783 -0.2498 -0.7397
  854MPD2     C12591   0.817   1.507  13.221 -0.5932  0.4522  0.3797
  854MPD2    C112592   0.835   1.417  13.121  0.5618  0.1715  0.0510
  854MPD2    C212593   0.947   1.337  13.133  0.1466 -0.3915 -0.5256
  854MPD2    C312594   1.036   1.348  13.235 -0.4663 -0.7440  0.2889
  854MPD2    C412595   1.004   1.433  13.339  0.0017 -0.1441  0.2758
  854MPD2    C512596   0.897   1.514  13.330  0.1662  0.1410 -0.3248
  854MPD2     H12597   0.987   1.280  13.050 -0.0556 -1.1942 -0.0736
  854MPD2    H112598   1.067   1.440  13.428  0.7180  0.6338 -0.2948
  854MPD2    H212599   0.733   1.576  13.226 -0.2346  0.9353 -0.1899
  854MPD2    H312600   0.872   1.583  13.409 -0.0772  1.0886 -1.2314
  854MPD2     N12601   1.150   1.260  13.249  0.7626  0.1272 -0.3597
  854MPD2    H512602   1.209   1.284  13.328  1.6938 -0.7777 -0.7736
  854MPD2    N112603   0.751   1.425  13.005 -0.5091  0.3975 -0.4957
  854MPD2    H712604   0.679   1.496  13.007 -0.7651  0.1086  0.4858
  855MPD2     C12605   1.905   1.061  13.848  0.6161 -0.3589 -0.0696
  855MPD2    C112606   1.774   1.108  13.853  0.0380 -0.2204  0.1269
  855MPD2    C212607   1.709   1.141  13.734  0.0217  0.8729 -0.8862
  855MPD2    C312608   1.765   1.118  13.611  0.4123  0.0650 -0.1111
  855MPD2    C412609   1.891   1.072  13.608  0.3110 -0.5208 -0.1607
  855MPD2    C512610   1.964   1.041  13.724 -0.9398 -0.3447 -0.7129
  855MPD2     H12611   1.608   1.180  13.741  0.2188  1.1251  0.5075
  855MPD2    H112612   1.935   1.052  13.511 -0.3249 -1.6535 -0.2150
  855MPD2    H212613   1.954   1.023  13.937 -2.3186 -0.5260  1.4656
  855MPD2    H312614   2.066   1.008  13.707 -0.4347 -0.1586  1.9575
  855MPD2     N12615   1.692   1.125  13.480  0.4007  0.2181 -0.0560
  855MPD2    H512616   1.747   1.126  13.394  1.4923 -1.4307  0.6201
  855MPD2    N112617   1.706   1.128  13.975  0.0155 -0.4618 -0.2875
  855MPD2    H712618   1.612   1.165  13.974  0.9102  1.7794 -1.5732
  856MPD2     C12619   3.315   2.513  13.986 -0.0102  0.6576 -0.1661
  856MPD2    C112620   3.370   2.639  14.001 -0.1091 -0.3782  0.0606
  856MPD2    C212621   3.341   2.728  13.899  0.0845  0.1897  0.3367
  856MPD2    C312622   3.257   2.688  13.789 -0.8208  0.4076  0.2987
  856MPD2    C412623   3.206   2.564  13.790 -0.2420 -0.2748  0.1220
  856MPD2    C512624   3.237   2.475  13.880  0.6138  0.3315 -0.3448
  856MPD2     H12625   3.382   2.829  13.904  1.0203 -0.1946  0.4302
  856MPD2    H112626   3.132   2.528  13.719  0.4873 -1.3892 -0.0947
  856MPD2    H212627   3.340   2.435  14.057  0.1367 -0.9578 -1.9833
  856MPD2    H312628   3.195   2.375  13.883 -0.9763  1.0044  0.1646
  856MPD2     N12629   3.215   2.792  13.705  0.0572  0.3189  0.1546
  856MPD2    H512630   3.240   2.888  13.729  0.9555 -0.1139  0.9708
  856MPD2    N112631   3.470   2.670  14.098 -0.8297  0.7313 -0.4038
  856MPD2    H712632   3.534   2.743  14.069  1.2827 -1.2808 -0.7432
  857MPD2     C12633   0.666   4.492  12.820  0.3298  0.2030 -0.0078
  857MPD2    C112634   0.617   4.409  12.912  0.3252  0.5385 -0.4426
  857MPD2    C212635   0.592   4.456  13.037  0.0068  0.1129 -0.3513
  857MPD2    C312636   0.598   4.593  13.061  0.0577 -0.6134  0.3966
  857MPD2    C412637   0.650   4.675  12.964  0.2137 -0.7473 -0.3053
  857MPD2    C512638   0.687   4.626  12.845 -1.0001  0.4492 -0.5597
  857MPD2     H12639   0.556   4.393  13.117 -0.5188 -1.5080 -1.8621
  857MPD2    H112640   0.671   0.038  12.987  0.0450 -0.9835  0.9133
  857MPD2    H212641   0.698   4.451  12.726 -2.4500 -0.7005 -0.5586
  857MPD2    H312642   0.730   4.691  12.770 -0.5373  1.4938  0.6075
  857MPD2     N12643   0.569   4.648  13.183  0.9209 -0.5460  0.4043
  857MPD2    H512644   0.550   4.581  13.257 -0.2882 -0.3952  0.2300
  857MPD2    N112645   0.601   4.280  12.859 -0.7610 -0.3224  0.0414
  857MPD2    H712646   0.644   4.269  12.768  0.3739 -0.5404  0.6048
  858MPD2     C12647   1.034   3.050  16.951  0.4894 -0.0668 -0.2459
  858MPD2    C112648   1.161   3.038  16.909  0.6517  0.1391  0.3144
  858MPD2    C212649   1.252   3.103  16.983 -0.1523 -0.3339  0.0360
  858MPD2    C312650   1.215   3.195  17.084 -0.6581 -0.0024  0.4515
  858MPD2    C412651   1.083   3.212  17.113  0.4132  0.1100  0.5539
  858MPD2    C512652   0.989   3.146  17.042 -0.0415 -0.3110 -0.5463
  858MPD2     H12653   1.359   3.093  16.965 -0.0456  1.3045 -0.2606
  858MPD2    H112654   1.046   3.280  17.189  0.2079  0.5650  0.0422
  858MPD2    H212655   0.949   3.006  16.899  0.1957 -1.3466  1.2986
  858MPD2    H312656   0.884   3.158  17.066 -0.1264  0.3827 -1.2643
  858MPD2     N12657   1.306   3.269  17.165  0.3425 -0.0681 -0.0525
  858MPD2    H512658   1.258   3.332  17.228  1.2302 -0.2218  0.7668
  858MPD2    N112659   1.192   2.956  16.800 -0.3580 -0.3986  0.1375
  858MPD2    H712660   1.110   2.913  16.759 -0.3210  0.7146 -1.1247
  859MPD2     C12661   4.222   0.765  15.368 -0.0093  0.2013  0.5483
  859MPD2    C112662   4.341   0.763  15.438  0.5698 -0.0716 -0.0047
  859MPD2    C212663   4.374   0.657  15.521  0.5043 -0.3497 -1.1631
  859MPD2    C312664   4.284   0.555  15.531 -0.3166 -0.1844  0.4290
  859MPD2    C412665   4.172   0.548  15.449 -0.6774 -0.3406  0.4432
  859MPD2    C512666   4.142   0.653  15.368  0.0590 -0.1784 -1.2649
  859MPD2     H12667   4.460   0.663  15.588 -0.5503  1.0135  0.0548
  859MPD2    H112668   4.103   0.464  15.449  0.7921 -1.5322 -3.1286
  859MPD2    H212669   4.208   0.846  15.297  0.6592 -2.4574 -2.6661
  859MPD2    H312670   4.071   0.649  15.287  1.1398  1.1355 -2.2839
  859MPD2     N12671   4.295   0.461  15.632 -0.0817  0.4625 -0.2967
  859MPD2    H512672   4.230   0.383  15.629 -1.0904  1.3408 -1.2540
  859MPD2    N112673   4.409   0.888  15.447  0.3710 -0.2045  0.0275
  859MPD2    H712674   4.373   0.972  15.403  1.8904 -0.2254 -1.2649
  860MPD2     C12675   2.025   1.972  11.900  0.1169 -0.2774 -0.2551
  860MPD2    C112676   2.066   1.903  12.014 -0.2372  0.3791 -0.2415
  860MPD2    C212677   1.972   1.849  12.093 -0.3983  0.2006 -0.6288
  860MPD2    C312678   1.840   1.866  12.072 -0.2180 -0.2233 -0.2968
  860MPD2    C412679   1.793   1.941  11.970 -0.5177  0.0380 -0.2375
  860MPD2    C512680   1.884   1.987  11.881  0.1909 -0.7576  0.9972
  860MPD2     H12681   2.009   1.795  12.180 -2.3271  0.7890  0.5409
  860MPD2    H112682   1.686   1.955  11.958 -0.6053  1.2164  1.8965
  860MPD2    H212683   2.095   2.010  11.827  0.2786  0.1534  0.1248
  860MPD2    H312684   1.852   2.040  11.792 -1.4112 -2.0804  0.7910
  860MPD2     N12685   1.750   1.799  12.159  0.9417  0.3911 -0.8747
  860MPD2    H512686   1.795   1.724  12.211 -0.2416  0.0015 -0.4047
  860MPD2    N112687   2.198   1.872  12.053  0.6016 -0.1902  0.0141
  860MPD2    H712688   2.232   1.819  12.133  1.6349  1.4869  0.6963
  861MPD2     C12689   0.575   3.996  11.311 -0.5209 -0.0501  0.2302
  861MPD2    C112690   0.596   4.134  11.303 -0.3396  0.7657 -0.6961
  861MPD2    C212691   0.535   4.201  11.204 -0.7540 -0.5779  0.3064
  861MPD2    C312692   0.447   4.146  11.113  0.5188  0.5923  0.2280
  861MPD2    C412693   0.413   4.013  11.133 -0.5735  0.4906 -0.7686
  861MPD2    C512694   0.476   3.942  11.232  0.1946 -0.5387 -0.5402
  861MPD2     H12695   0.560   4.305  11.186 -0.5428 -0.8477 -0.9608
  861MPD2    H112696   0.355   3.959  11.059  0.8570 -1.4528 -0.4630
  861MPD2    H212697   0.623   3.932  11.385 -2.9671 -2.3942 -0.1989
  861MPD2    H312698   0.463   3.835  11.234  0.7159 -0.5622  2.7316
  861MPD2     N12699   0.382   4.224  11.015 -0.3283 -0.1073  0.3719
  861MPD2    H512700   0.308   4.178  10.964 -0.0325 -0.0259 -0.1295
  861MPD2    N112701   0.666   4.201  11.409  0.6461 -0.4578 -0.2219
  861MPD2    H712702   0.660   4.302  11.414 -1.4570 -0.6486  1.4249
  862MPD2     C12703   4.445   4.213  10.704 -0.1001 -1.0314 -0.3623
  862MPD2    C112704   4.539   4.184  10.806 -0.5212 -0.1149  0.0312
  862MPD2    C212705   4.493   4.117  10.914  0.3362  0.2489 -0.0241
  862MPD2    C312706   4.359   4.086  10.937  0.0181  0.1716 -0.5546
  862MPD2    C412707   4.277   4.117  10.832  0.2458 -0.1301  0.0376
  862MPD2    C512708   4.316   4.164  10.710  0.2454 -0.1611 -0.9152
  862MPD2     H12709   4.568   4.093  10.990  0.3412  1.2294  0.2842
  862MPD2    H112710   4.171   4.103  10.854  0.5429 -1.0241  0.9024
  862MPD2    H212711   4.457   4.268  10.612  2.0259 -2.1426 -0.7593
  862MPD2    H312712   4.240   4.183  10.635 -0.7859 -0.9764 -0.0687
  862MPD2     N12713   4.308   4.022  11.054  0.1130 -0.2384  0.3117
  862MPD2    H512714   4.207   4.020  11.056  0.2114 -3.0658  2.2933
  862MPD2    N112715   4.673   4.230  10.809  0.3865 -0.0354 -0.6273
  862MPD2    H712716   4.716   4.213  10.899  0.8353 -0.1739 -0.8693
  863MPD2     C12717   4.665   2.725  17.009 -0.2069  0.2967  0.2225
  863MPD2    C112718   4.551   2.719  17.093 -0.5172 -0.1189  1.4808
  863MPD2    C212719   4.572   2.700  17.231  1.2591  0.5924  0.1485
  863MPD2    C312720   4.704   2.693  17.280 -0.7002 -0.1052  0.0437
  863MPD2    C412721   0.073   2.706  17.193  0.2719 -0.3100  0.1158
  863MPD2    C512722   0.052   2.721  17.058 -0.6151  0.1213  0.9373
  863MPD2     H12723   4.488   2.697  17.300  0.5758  0.9868 -0.6722
  863MPD2    H112724   0.176   2.707  17.228  0.4015 -0.9350 -0.2478
  863MPD2    H212725   4.648   2.744  16.904 -0.9994  0.2222  0.3344
  863MPD2    H312726   0.137   2.733  16.991 -2.9273  0.9999 -1.8573
  863MPD2     N12727   0.001   2.673  17.417  0.5158  0.6717 -0.3958
  863MPD2    H512728   0.099   2.682  17.439  0.2776  0.7354  0.6403
  863MPD2    N112729   4.427   2.734  17.031 -1.4647  0.2926 -0.3697
  863MPD2    H712730   4.414   2.734  16.931  0.1502  3.3383 -0.5645
  864MPD2     C12731   0.246   3.456  17.620  0.7321 -0.2043 -0.1842
  864MPD2    C112732   0.282   3.396  17.500  0.0465  0.1824  0.0982
  864MPD2    C212733   0.402   3.433  17.444  0.1419  0.5025 -0.0835
  864MPD2    C312734   0.469   3.537  17.492  0.7736 -0.0355 -0.0964
  864MPD2    C412735   0.426   3.599  17.607  0.1921 -0.1067  0.0076
  864MPD2    C512736   0.315   3.562  17.666  0.2172  0.2764 -0.3451
  864MPD2     H12737   0.433   3.395  17.347  0.1103 -0.4412  0.2733
  864MPD2    H112738   0.484   3.681  17.646  1.4102 -1.1854  0.4915
  864MPD2    H212739   0.157   3.421  17.671  0.5076 -0.5184 -0.8034
  864MPD2    H312740   0.280   3.608  17.757  0.1263 -0.4512 -0.0108
  864MPD2     N12741   0.572   3.599  17.418  0.0171  0.0375 -0.4691
  864MPD2    H512742   0.599   3.688  17.457 -0.9264  0.7442 -1.4129
  864MPD2    N112743   0.191   3.298  17.443  0.6257  0.6272  0.2886
  864MPD2    H712744   0.119   3.272  17.509 -0.0472 -1.6604 -1.3405
  865MPD2     C12745   0.486   4.025  16.660  0.0893  0.2128 -0.1054
  865MPD2    C112746   0.488   3.891  16.681  0.0133  0.4476  0.6378
  865MPD2    C212747   0.565   3.849  16.787  0.3346 -0.1230  0.0351
  865MPD2    C312748   0.609   3.940  16.877  0.4344  0.2088  0.1295
  865MPD2    C412749   0.594   4.080  16.857  0.3968  0.2369 -1.0562
  865MPD2    C512750   0.539   4.115  16.742  0.1421  0.3097 -0.3425
  865MPD2     H12751   0.584   3.743  16.806  0.3272 -0.0565  0.4239
  865MPD2    H112752   0.627   4.152  16.931  0.0779  1.4115 -2.0472
  865MPD2    H212753   0.445   4.064  16.567 -2.1854  1.4433  1.4199
  865MPD2    H312754   0.536   4.221  16.720 -1.0223  0.0835 -1.2809
  865MPD2     N12755   0.668   3.881  16.992 -0.5361 -0.2520 -0.7568
  865MPD2    H512756   0.670   3.781  17.006  0.3620  0.2086  2.4252
  865MPD2    N112757   0.429   3.809  16.582  0.1083  0.1904 -0.5149
  865MPD2    H712758   0.410   3.849  16.490 -0.4594  1.2448  0.0653
  866MPD2     C12759   1.318   0.239  11.308 -0.0883 -0.3878  0.0447
  866MPD2    C112760   1.267   0.123  11.367  0.9393  0.5093  0.0696
  866MPD2    C212761   1.132   0.122  11.400  0.2808 -0.6933 -0.1639
  866MPD2    C312762   1.045   0.225  11.362  0.4456 -0.2482 -0.1589
  866MPD2    C412763   1.106   0.339  11.315  0.7360  0.0988 -0.6555
  866MPD2    C512764   1.237   0.346  11.291  0.6994 -0.0470 -0.1339
  866MPD2     H12765   1.090   0.039  11.455 -0.5636 -1.3023 -1.7332
  866MPD2    H112766   1.048   0.427  11.290  1.2269  1.2212  2.1680
  866MPD2    H212767   1.424   0.260  11.310 -0.5065  1.8537 -0.8776
  866MPD2    H312768   1.278   0.437  11.250  0.3140  0.7884  1.3248
  866MPD2     N12769   0.908   0.215  11.358  0.7789  0.7346  0.3241
  866MPD2    H512770   0.859   0.296  11.321  0.8417  0.4903 -0.2922
  866MPD2    N112771   1.354   0.019  11.400  0.1509 -0.5416  0.4506
  866MPD2    H712772   1.447   0.019  11.360  0.3330  3.5030  0.8154
  867MPD2     C12773   4.667   3.450  17.093 -0.7287 -0.8467  1.1435
  867MPD2    C112774   4.620   3.462  17.222 -0.4548 -1.0845  0.2228
  867MPD2    C212775   4.690   3.537  17.316 -0.1769 -0.1928 -0.1636
  867MPD2    C312776   0.066   3.601  17.288 -0.4149 -0.4175  0.3187
  867MPD2    C412777   0.116   3.578  17.163 -0.5949  0.0586 -0.5028
  867MPD2    C512778   0.047   3.499  17.072  0.1283  0.3714 -0.1413
  867MPD2     H12779   4.640   3.546  17.411 -1.3946  1.0264 -0.9249
  867MPD2    H112780   0.208   3.621  17.125 -1.0681  1.8383  0.4082
  867MPD2    H212781   4.614   3.393  17.017 -0.5480 -0.4791  0.7406
  867MPD2    H312782   0.100   3.482  16.979  0.3096  2.9243 -0.5107
  867MPD2     N12783   0.131   3.698  17.364 -0.4382 -0.2861 -0.2894
  867MPD2    H512784   0.214   3.731  17.316  0.0647 -0.4924  0.4461
  867MPD2    N112785   4.494   3.396  17.256 -0.4690  0.1775 -0.2617
  867MPD2    H712786   4.441   3.358  17.178  1.2657  0.4020 -1.5468
  868MPD2     C12787   0.493   3.091  13.408  0.3085  0.4698  0.1147
  868MPD2    C112788   0.522   2.993  13.496 -0.2169 -0.3537 -0.7152
  868MPD2    C212789   0.416   2.908  13.534  0.4564  0.2046 -0.1436
  868MPD2    C312790   0.288   2.921  13.496  0.8617  0.3260 -0.1900
  868MPD2    C412791   0.261   3.032  13.413 -0.1699  0.0556  0.2300
  868MPD2    C512792   0.363   3.109  13.370 -0.3541  0.6431  1.0064
  868MPD2     H12793   0.436   2.816  13.587 -1.2844  0.5860  1.1728
  868MPD2    H112794   0.165   3.049  13.364  0.3963  1.1952 -0.4725
  868MPD2    H212795   0.568   3.152  13.359  0.1898  0.1877 -0.4220
  868MPD2    H312796   0.332   3.189  13.305 -0.6916 -0.2036  0.1233
  868MPD2     N12797   0.196   2.817  13.531 -0.3630  0.0299  0.0802
  868MPD2    H512798   0.226   2.734  13.581  1.6893  0.2184 -0.8427
  868MPD2    N112799   0.662   2.978  13.524  0.5971 -0.3029 -0.0895
  868MPD2    H712800   0.731   3.034  13.475 -1.0426  0.6404 -1.3152
  869MPD2     C12801   1.490   0.537   0.930  0.3008  0.0931 -0.1976
  869MPD2    C112802   1.613   0.493   0.881  0.4447  0.1215 -0.4466
  869MPD2    C212803   1.732   0.564   0.918 -0.7912  0.3278 -0.2954
  869MPD2    C312804   1.721   0.679   1.000  0.2281  0.2342  0.2788
  869MPD2    C412805   1.597   0.725   1.041  0.0901 -0.1893  0.2506
  869MPD2    C512806   1.482   0.651   1.007  0.6390  0.0141 -1.3443
  869MPD2     H12807   1.829   0.530   0.884 -1.0128 -0.0267 -0.5776
  869MPD2    H112808   1.591   0.810   1.109  2.4002 -0.2141  0.4803
  869MPD2    H212809   1.399   0.488   0.898  1.0591 -0.9108 -0.8424
  869MPD2    H312810   1.384   0.667   1.050  0.4210  0.4786 -2.0076
  869MPD2     N12811   1.825   0.759   1.046  0.0154  0.0684 -0.7361
  869MPD2    H512812   1.805   0.841   1.103 -1.1172  0.3399 -1.5181
  869MPD2    N112813   1.601   0.389   0.783  0.7543  0.3994  0.9535
  869MPD2    H712814   1.505   0.355   0.776  0.6850  0.8273 -0.1702
  870MPD2     C12815   0.892   4.188   1.737  0.2552 -0.3183  0.0912
  870MPD2    C112816   0.985   4.260   1.671 -0.2357  0.0460  0.0974
  870MPD2    C212817   0.969   4.287   1.538  0.0156  0.1917 -0.0031
  870MPD2    C312818   0.847   4.266   1.479  0.0498 -0.2471 -0.3262
  870MPD2    C412819   0.761   4.183   1.550  0.7993 -0.0780 -0.2240
  870MPD2    C512820   0.785   4.138   1.676 -0.1965  0.5666  0.4278
  870MPD2     H12821   1.043   4.335   1.475  0.2475 -0.0555  0.0830
  870MPD2    H112822   0.660   4.167   1.512  0.2061  2.0961  0.4237
  870MPD2    H212823   0.905   4.165   1.842 -0.2208  3.0788  0.8943
  870MPD2    H312824   0.715   4.078   1.733  0.3951  1.2057  1.8223
  870MPD2     N12825   0.810   4.323   1.357 -0.0373  0.7479  0.3868
  870MPD2    H512826   0.882   4.386   1.321 -1.4620  0.9342 -2.1177
  870MPD2    N112827   1.105   4.293   1.735  0.5289  0.3166  0.2836
  870MPD2    H712828   1.128   4.254   1.826 -0.2571 -0.8379 -0.0087
  871MPD2     C12829   2.779   3.724  16.672  0.1916  0.3100 -0.1139
  871MPD2    C112830   2.758   3.663  16.795 -0.5564  0.0951  0.3903
  871MPD2    C212831   2.760   3.520  16.809 -0.0207 -0.5202  0.0261
  871MPD2    C312832   2.808   3.450  16.700  0.2349  0.2716 -0.0970
  871MPD2    C412833   2.831   3.516  16.575 -0.7733  0.2173  0.0656
  871MPD2    C512834   2.807   3.651  16.565  0.7466 -0.4988  0.8772
  871MPD2     H12835   2.748   3.478  16.908  0.3709 -1.1024 -0.1721
  871MPD2    H112836   2.867   3.470  16.484 -2.3981  0.6898 -0.7928
  871MPD2    H212837   2.770   3.832  16.668 -1.2530  0.2347  1.1476
  871MPD2    H312838   2.826   3.705  16.472 -1.5912 -0.1169  0.6042
  871MPD2     N12839   2.857   3.322  16.728  0.2660 -0.1299  0.8401
  871MPD2    H512840   2.846   3.288  16.823  0.0552 -0.4152  0.7132
  871MPD2    N112841   2.708   3.750  16.893 -0.0365 -0.2335  0.7047
  871MPD2    H712842   2.703   3.848  16.867  2.7481  0.2654  2.0242
  872MPD2     C12843   3.248   1.629  14.658  0.0065 -0.2649 -0.0315
  872MPD2    C112844   3.202   1.677  14.534  0.1149 -0.8093  0.2058
  872MPD2    C212845   3.099   1.771  14.529 -0.6502  0.0539 -0.2689
  872MPD2    C312846   3.040   1.814  14.643 -0.1070 -0.8670 -0.6266
  872MPD2    C412847   3.087   1.769  14.762  0.1520 -0.5010 -0.2938
  872MPD2    C512848   3.184   1.677  14.770 -0.7070  0.3899 -0.5641
  872MPD2     H12849   3.067   1.818  14.437 -1.1894  0.1299 -0.0492
  872MPD2    H112850   3.050   1.804  14.858 -0.4459 -3.4168  0.5725
  872MPD2    H212851   3.331   1.559  14.660  0.6614  0.4416 -2.5378
  872MPD2    H312852   3.215   1.643  14.869 -2.0983  1.4283  0.2146
  872MPD2     N12853   2.932   1.904  14.645  0.4642  0.4688 -0.5253
  872MPD2    H512854   2.898   1.928  14.737  0.2946  1.2819 -0.8024
  872MPD2    N112855   3.273   1.643  14.416 -0.3538  0.0283 -0.1886
  872MPD2    H712856   3.235   1.676  14.328 -3.2915  0.5827  1.2855
  873MPD2     C12857   0.436   1.252   0.587 -0.7115  0.8856 -0.6082
  873MPD2    C112858   0.320   1.203   0.638 -0.1757  0.1207  0.7699
  873MPD2    C212859   0.261   1.094   0.575 -0.2771  0.1210  0.1682
  873MPD2    C312860   0.334   1.020   0.486 -0.2986  0.4986  0.5646
  873MPD2    C412861   0.449   1.065   0.437 -0.9354 -0.6406 -0.8597
  873MPD2    C512862   0.498   1.181   0.483  0.5710 -0.4452 -0.5407
  873MPD2     H12863   0.165   1.060   0.613  1.4364 -1.7896  2.7620
  873MPD2    H112864   0.507   1.034   0.350 -0.1514  0.0814 -0.5988
  873MPD2    H212865   0.480   1.339   0.633  0.7889  0.1286 -0.6044
  873MPD2    H312866   0.589   1.218   0.437  1.8049 -0.4322  1.9226
  873MPD2     N12867   0.283   0.900   0.424  0.4121  0.1554 -0.0009
  873MPD2    H512868   0.338   0.847   0.358  0.4664  2.4700 -1.7767
  873MPD2    N112869   0.262   1.284   0.736  0.8150 -0.2274 -0.4133
  873MPD2    H712870   0.320   1.356   0.776 -0.3248  0.1473  0.5471
  874MPD2     C12871   0.267   1.647  16.064  0.0364  0.4062  0.5038
  874MPD2    C112872   0.320   1.574  16.164  0.2674  0.2994  0.3279
  874MPD2    C212873   0.456   1.579  16.180 -0.6852  0.4984  0.7311
  874MPD2    C312874   0.538   1.634  16.087  0.9466  0.0817  0.2910
  874MPD2    C412875   0.484   1.711  15.987  0.0181  0.2146  0.4829
  874MPD2    C512876   0.346   1.730  15.986  0.2589 -0.5551 -0.3599
  874MPD2     H12877   0.504   1.522  16.259 -0.9818 -0.6909  0.0422
  874MPD2    H112878   0.549   1.761  15.916 -1.8667 -1.5094 -2.4744
  874MPD2    H212879   0.161   1.632  16.054 -0.2272  0.7186  2.8622
  874MPD2    H312880   0.314   1.776  15.894  0.6492 -1.2006 -0.8194
  874MPD2     N12881   0.672   1.610  16.108  0.3761 -0.7317 -0.1130
  874MPD2    H512882   0.689   1.560  16.194  1.9264 -1.0033 -0.5767
  874MPD2    N112883   0.239   1.485  16.248  0.3354 -0.2698  0.3300
  874MPD2    H712884   0.147   1.452  16.219 -0.6363  3.0973 -0.3886
  875MPD2     C12885   0.577   4.566  14.637 -0.4994 -0.2269 -0.3341
  875MPD2    C112886   0.660   4.673  14.606  0.7452  0.1526  0.5109
  875MPD2    C212887   0.717   0.009  14.711  0.2904  0.0607  0.3516
  875MPD2    C312888   0.697   4.708  14.837  0.6913  0.3629 -0.3570
  875MPD2    C412889   0.627   4.595  14.866 -0.3000  1.4410 -0.1765
  875MPD2    C512890   0.552   4.528  14.769  0.2552 -0.0146 -0.2924
  875MPD2     H12891   0.785   0.093  14.699  1.4057 -0.6650  1.4619
  875MPD2    H112892   0.618   4.572  14.972  0.8043  3.0279  0.2698
  875MPD2    H212893   0.517   4.508  14.568 -0.2584  0.3481 -1.0156
  875MPD2    H312894   0.486   4.446  14.796 -2.2941  1.5642 -1.7690
  875MPD2     N12895   0.752   0.036  14.954  0.0119  0.0290 -0.4869
  875MPD2    H512896   0.733   4.737  15.046  0.1038  1.5918  0.1997
  875MPD2    N112897   0.689   4.717  14.477  0.2260 -0.3972  0.4049
  875MPD2    H712898   0.728   0.070  14.464 -2.1371  0.7178  1.4282
  876MPD2     C12899   0.021   0.916  15.847 -0.2171 -0.3905  0.3329
  876MPD2    C112900   0.144   0.918  15.905  0.7274  0.6700  0.2883
  876MPD2    C212901   0.182   0.808  15.981 -0.8510  0.3507  0.3251
  876MPD2    C312902   0.101   0.692  15.981 -0.3556 -0.3081  0.4385
  876MPD2    C412903   4.724   0.702  15.919 -0.1108  0.0896 -0.1964
  876MPD2    C512904   4.679   0.809  15.855 -0.2268  0.4006  0.4407
  876MPD2     H12905   0.275   0.803  16.036 -0.1878  1.0595 -0.7147
  876MPD2    H112906   4.662   0.613  15.921  0.2105 -0.1766 -1.7852
  876MPD2    H212907   4.730   0.996  15.781  0.6508 -1.4950 -1.4050
  876MPD2    H312908   4.579   0.807  15.812  0.5218  1.4110 -1.3195
  876MPD2     N12909   0.146   0.571  16.041  0.1737 -0.0690 -0.0442
  876MPD2    H512910   0.220   0.579  16.110  0.2304 -1.0215  0.0109
  876MPD2    N112911   0.220   1.037  15.902 -0.4080 -0.8749 -0.4042
  876MPD2    H712912   0.178   1.112  15.848 -0.9658  0.3124  1.6765
  877MPD2     C12913   4.706   1.542  15.662  0.0550 -0.4360 -0.1096
  877MPD2    C112914   0.100   1.584  15.659  0.3479  0.8647 -0.0980
  877MPD2    C212915   0.140   1.682  15.565  0.6199  0.1896 -0.3697
  877MPD2    C312916   0.040   1.742  15.495  0.0123 -0.2571 -0.3031
  877MPD2    C412917   4.650   1.701  15.503  0.2726 -0.0702  0.2363
  877MPD2    C512918   4.609   1.603  15.587  0.1631 -0.3596 -0.2300
  877MPD2     H12919   0.240   1.722  15.553 -0.0550  1.2784 -2.4431
  877MPD2    H112920   4.572   1.732  15.434  0.5401  0.7069  0.2818
  877MPD2    H212921   4.677   1.470  15.738  1.2182 -1.4306 -0.6126
  877MPD2    H312922   4.502   1.585  15.588  0.6195 -2.8631  2.2192
  877MPD2     N12923   0.066   1.840  15.400 -0.2339 -0.4746  0.0871
  877MPD2    H512924   4.724   1.881  15.357  0.0773 -1.0149 -1.0221
  877MPD2    N112925   0.204   1.529  15.727 -0.0622  0.5251 -0.4664
  877MPD2    H712926   0.296   1.573  15.722 -1.0460  2.6092 -0.1379
  878MPD2     C12927   4.666   0.936  13.332 -0.6206 -0.5950  0.3420
  878MPD2    C112928   4.654   1.074  13.329 -0.3886  0.3016  0.5971
  878MPD2    C212929   4.581   1.140  13.434 -0.7254  0.1191 -0.1171
  878MPD2    C312930   4.515   1.062  13.531 -0.0887  0.3409  0.3904
  878MPD2    C412931   4.524   0.924  13.529 -0.5517 -0.7979 -0.2955
  878MPD2    C512932   4.596   0.863  13.429 -0.0624  0.4050  0.1458
  878MPD2     H12933   4.568   1.247  13.441  1.4282  0.4221 -0.9493
  878MPD2    H112934   4.487   0.862  13.611  1.2472 -0.5722  0.6707
  878MPD2    H212935   4.708   0.896  13.240 -0.5570 -0.6182  0.3808
  878MPD2    H312936   4.612   0.756  13.426 -1.5583  0.1917 -0.1555
  878MPD2     N12937   4.449   1.136  13.633 -0.6800 -0.1052 -0.1798
  878MPD2    H512938   4.450   1.238  13.635 -1.0600 -0.0973 -0.3860
  878MPD2    N112939   4.714   1.143  13.217 -0.6247 -0.2259  0.1046
  878MPD2    H712940   0.012   1.081  13.147  1.9808  0.5489  0.8059
  879MPD2     C12941   0.143   2.201  17.647 -0.1640  0.2645 -0.2801
  879MPD2    C112942   0.254   2.289  17.635 -0.2807  0.4329  0.3608
  879MPD2    C212943   0.323   2.295  17.521 -0.3232 -0.1418  0.4425
  879MPD2    C312944   0.284   2.230  17.400  0.1841 -0.0289 -0.6390
  879MPD2    C412945   0.167   2.149  17.414 -0.0004 -0.3877 -0.9089
  879MPD2    C512946   0.100   2.141  17.531  0.0998  0.4797  0.3295
  879MPD2     H12947   0.411   2.358  17.523  1.2499 -2.3496  1.1761
  879MPD2    H112948   0.116   2.097  17.333  1.4436 -1.6207 -1.0147
  879MPD2    H212949   0.076   2.199  17.733 -0.4277 -0.1390 -0.4936
  879MPD2    H312950   0.012   2.080  17.545 -0.8035  1.3402 -1.6046
  879MPD2     N12951   0.358   2.209  17.276  0.6597 -0.2123  0.5351
  879MPD2    H512952   0.326   2.147  17.202 -0.7086  1.0897  0.0269
  879MPD2    N112953   0.299   2.345  17.757  0.1126 -0.5452  0.3702
  879MPD2    H712954   0.266   2.303   0.086  0.1624 -1.0416  0.1503
  880MPD2     C12955   1.662   3.622   0.594  0.1290  0.3402  0.2421
  880MPD2    C112956   1.539   3.663   0.642  0.4670 -0.3815  0.6186
  880MPD2    C212957   1.502   3.646   0.773  0.1564 -0.7970  0.6066
  880MPD2    C312958   1.584   3.570   0.856  0.2215  0.4608 -0.1561
  880MPD2    C412959   1.707   3.525   0.807 -0.0032 -0.5445 -0.4285
  880MPD2    C512960   1.744   3.549   0.676 -0.2250  0.7288 -0.2127
  880MPD2     H12961   1.405   3.677   0.809 -0.5837  0.0470 -2.1702
  880MPD2    H112962   1.776   3.474   0.873  1.4401  0.3052 -1.2808
  880MPD2    H212963   1.696   3.636   0.492  0.4748 -1.2095  0.1406
  880MPD2    H312964   1.837   3.507   0.638 -0.9717 -0.3280 -0.8877
  880MPD2     N12965   1.547   3.565   0.993  0.2669  0.0393 -0.0639
  880MPD2    H512966   1.464   3.617   1.020 -1.5384 -1.9729 -1.7229
  880MPD2    N112967   1.462   3.738   0.554 -0.3681  0.2632  0.2538
  880MPD2    H712968   1.491   3.749   0.457  0.6653 -1.2855  0.3763
  881MPD2     C12969   1.591   4.577   0.039 -0.6174 -0.1582 -0.2224
  881MPD2    C112970   1.648   4.447   0.033  0.3491 -0.5536 -0.2983
  881MPD2    C212971   1.574   4.352   0.102 -0.6157  0.2845  0.2682
  881MPD2    C312972   1.489   4.386   0.209 -0.3725 -0.0797  0.0499
  881MPD2    C412973   1.445   4.518   0.217 -0.2204 -0.2780  0.2472
  881MPD2    C512974   1.506   4.611   0.134 -0.5013  0.1536 -0.4663
  881MPD2     H12975   1.588   4.246   0.086  0.7619  0.3610  0.9302
  881MPD2    H112976   1.357   4.540   0.276  0.7481  1.6935  0.9942
  881MPD2    H212977   1.624   4.656  17.730 -1.4150 -0.1455 -0.6035
  881MPD2    H312978   1.460   4.709   0.127 -1.3413 -0.2890 -1.0550
  881MPD2     N12979   1.418   4.286   0.280 -0.1910 -0.2819 -0.2565
  881MPD2    H512980   1.355   4.329   0.346  0.1681  0.9678 -0.7222
  881MPD2    N112981   1.719   4.412  17.673 -0.2695  0.0829  0.1369
  881MPD2    H712982   1.731   4.496  17.618  2.6021  0.3194  1.1595
  882MPD2     C12983   0.162   1.734  14.631 -0.3601 -0.3195  0.4593
  882MPD2    C112984   0.098   1.749  14.749  0.2515  0.6790 -0.8893
  882MPD2    C212985   0.002   1.659  14.792 -0.2291  0.1782  0.0000
  882MPD2    C312986   4.715   1.559  14.698 -0.2036 -0.3624 -0.2599
  882MPD2    C412987   0.036   1.547  14.577  0.4883 -0.1170 -0.8564
  882MPD2    C512988   0.134   1.632  14.547 -0.3802  0.2896 -0.4033
  882MPD2     H12989   4.681   1.665  14.881 -2.8475  2.1332 -1.9255
  882MPD2    H112990   0.013   1.469  14.505  2.4596 -0.8171 -0.7375
  882MPD2    H212991   0.236   1.806  14.597 -0.1508 -1.2022 -0.9992
  882MPD2    H312992   0.180   1.636  14.450  0.2926  2.0591 -0.0096
  882MPD2     N12993   4.599   1.480  14.708  0.6226  0.2448  0.0463
  882MPD2    H512994   4.551   1.449  14.625  0.3425  2.9125 -0.7946
  882MPD2    N112995   0.121   1.866  14.823 -0.3609  0.3174 -0.0990
  882MPD2    H712996   0.199   1.923  14.793 -0.9719  0.7815 -0.8171
  883MPD2     C12997   1.886   1.044  16.186 -0.4585 -0.5216  0.3166
  883MPD2    C112998   1.916   1.162  16.121 -0.5682 -0.7517  0.9409
  883MPD2    C212999   2.017   1.245  16.178  0.8833 -0.2843  0.5525
  883MPD2    C313000   2.090   1.205  16.289 -1.0227 -0.0228 -0.0633
  883MPD2    C413001   2.057   1.085  16.350 -0.3757  0.2055  0.1853
  883MPD2    C513002   1.956   1.011  16.293  0.2277  0.0588 -0.0058
  883MPD2     H13003   2.030   1.340  16.128  0.9838 -0.6218 -0.0621
  883MPD2    H113004   2.113   1.042  16.431  0.8474  0.8882 -0.3026
  883MPD2    H213005   1.803   0.977  16.169 -1.6819  0.4967  2.2843
  883MPD2    H313006   1.929   0.916  16.336 -0.3133 -0.0763 -0.6388
  883MPD2     N13007   2.185   1.298  16.336 -0.4412  0.3615  0.1609
  883MPD2    H513008   2.210   1.369  16.269  0.8569 -2.1869 -2.0708
  883MPD2    N113009   1.841   1.212  16.012 -0.2594 -0.6927 -0.2684
  883MPD2    H713010   1.875   1.293  15.961 -0.7594 -1.8952 -2.5077
  884MPD2     C13011   4.247   2.335  15.429  0.1032 -0.4246  0.2023
  884MPD2    C113012   4.245   2.468  15.402 -0.0863 -0.1142  0.2350
  884MPD2    C213013   4.120   2.534  15.416 -0.2071 -0.4800  1.2877
  884MPD2    C313014   4.011   2.469  15.456  0.1038 -0.4866 -0.5411
  884MPD2    C413015   4.022   2.337  15.488 -0.1494 -0.4010 -0.9959
  884MPD2    C513016   4.139   2.273  15.474 -0.6140  0.6042 -0.3181
  884MPD2     H13017   4.111   2.640  15.398 -0.2278 -1.0286 -1.8703
  884MPD2    H113018   3.944   2.278  15.535  1.4939 -0.3895  1.7676
  884MPD2    H213019   4.339   2.279  15.418 -0.5996 -1.6865  0.7398
  884MPD2    H313020   4.154   2.168  15.496 -0.0002  0.3322 -2.0306
  884MPD2     N13021   3.886   2.536  15.456 -0.0591 -0.4345  1.0448
  884MPD2    H513022   3.886   2.633  15.425  0.6264  0.0222  2.4930
  884MPD2    N113023   4.365   2.528  15.355 -0.2718  0.4500 -0.1387
  884MPD2    H713024   4.449   2.472  15.353  1.3562  2.8954  1.2940
  885MPD2     C13025   2.290   2.013   0.438  0.3537  0.1822  0.0463
  885MPD2    C113026   2.335   2.142   0.465 -0.4842  0.1604 -0.6507
  885MPD2    C213027   2.338   2.226   0.355 -0.5298 -0.3839 -0.4590
  885MPD2    C313028   2.304   2.176   0.232 -0.2335 -0.7679  0.6162
  885MPD2    C413029   2.249   2.048   0.207  0.0138 -0.5377  0.3325
  885MPD2    C513030   2.245   1.968   0.315 -0.9242 -0.3554 -0.1310
  885MPD2     H13031   2.373   2.328   0.363 -1.3560  0.0607 -2.3927
  885MPD2    H113032   2.206   2.016   0.113 -0.0594 -0.9256  0.4968
  885MPD2    H213033   2.278   1.954   0.528 -0.3743 -0.6765 -0.6227
  885MPD2    H313034   2.202   1.869   0.305  1.3173 -1.3523  0.0886
  885MPD2     N13035   2.305   2.264   0.121 -0.3648 -0.1453 -0.0434
  885MPD2    H513036   2.346   2.353   0.149 -1.2435  1.0734 -2.6004
  885MPD2    N113037   2.365   2.176   0.601 -0.6524 -0.2726 -0.3617
  885MPD2    H713038   2.404   2.104   0.661 -0.6348 -0.2069 -0.2932
  886MPD2     C13039   3.223   1.005  15.313  0.0904 -0.0247  0.8070
  886MPD2    C113040   3.355   1.006  15.360  0.2106 -0.0451 -0.5436
  886MPD2    C213041   3.440   1.110  15.324 -0.0180  0.6594  0.4819
  886MPD2    C313042   3.392   1.208  15.242 -0.6101  0.5154 -0.0972
  886MPD2    C413043   3.258   1.213  15.211 -0.0674 -0.1515 -0.0106
  886MPD2    C513044   3.176   1.115  15.242 -0.1826 -0.9014  0.8002
  886MPD2     H13045   3.543   1.106  15.355  0.0829 -0.9176 -0.0543
  886MPD2    H113046   3.223   1.289  15.141  0.9786  0.6323  0.3260
  886MPD2    H213047   3.164   0.915  15.305  0.0684  0.0112  0.5554
  886MPD2    H313048   3.079   1.125  15.195  1.1536 -1.6079 -2.1090
  886MPD2     N13049   3.474   1.313  15.195 -0.4245  0.3850  0.0882
  886MPD2    H513050   3.435   1.379  15.129  1.8630  0.8097 -0.8627
  886MPD2    N113051   3.416   0.902  15.434  0.4786  0.3527  0.1225
  886MPD2    H713052   3.516   0.916  15.449  0.7672 -1.6659  0.1068
  887MPD2     C13053   4.055   0.717  15.723 -0.1542 -0.1604 -0.4598
  887MPD2    C113054   3.958   0.805  15.688  0.1829 -0.3527  0.3998
  887MPD2    C213055   3.989   0.940  15.696 -0.6227 -0.6495  0.0822
  887MPD2    C313056   4.119   0.984  15.721  0.8183  0.0143 -1.0564
  887MPD2    C413057   4.214   0.892  15.768  0.3553  0.5134  0.8749
  887MPD2    C513058   4.182   0.761  15.753 -0.5564  0.3676 -0.5097
  887MPD2     H13059   3.916   1.013  15.662 -0.2275 -0.2569  0.0896
  887MPD2    H113060   4.319   0.915  15.773  0.3969  1.0635 -2.2011
  887MPD2    H213061   4.041   0.610  15.727  3.3492 -0.6154 -0.5680
  887MPD2    H313062   4.258   0.684  15.761 -2.5569 -1.3727  1.8054
  887MPD2     N13063   4.146   1.121  15.706 -0.3293  0.2300 -0.4222
  887MPD2    H513064   4.069   1.175  15.667 -1.9776 -1.2372  0.8075
  887MPD2    N113065   3.825   0.764  15.660 -0.7211 -0.7739  0.8775
  887MPD2    H713066   3.754   0.834  15.642  2.2863  1.7513 -1.0722
  888MPD2     C13067   0.762   0.840  14.972  0.1092 -0.2619 -0.8360
  888MPD2    C113068   0.781   0.852  15.111  0.7923 -0.6903 -0.3391
  888MPD2    C213069   0.872   0.945  15.152  0.1055 -0.4190 -0.6301
  888MPD2    C313070   0.943   1.029  15.067  0.1194 -0.5398  0.0904
  888MPD2    C413071   0.919   1.019  14.930  0.2963  0.2024 -0.1742
  888MPD2    C513072   0.832   0.923  14.887 -0.7038 -0.0994  0.0043
  888MPD2     H13073   0.883   0.960  15.259  0.6101  0.5579 -0.8226
  888MPD2    H113074   0.966   1.079  14.854  0.5153 -0.0750 -0.2589
  888MPD2    H213075   0.687   0.777  14.925  0.9474 -0.7890 -1.4554
  888MPD2    H313076   0.812   0.912  14.781 -0.2692 -0.7227 -0.0132
  888MPD2     N13077   1.019   1.135  15.130 -0.2710 -0.1641  0.5691
  888MPD2    H513078   1.018   1.142  15.231 -2.1175 -0.7403  0.5931
  888MPD2    N113079   0.724   0.771  15.212 -0.4456  0.0264 -0.0459
  888MPD2    H713080   0.773   0.772  15.301 -0.5046  0.1729 -0.0145
  889MPD2     C13081   0.395   0.591  13.109 -0.1749  0.0064 -0.0508
  889MPD2    C113082   0.419   0.584  13.245  0.2524  0.7113  0.0688
  889MPD2    C213083   0.377   0.691  13.323 -0.7629  0.5199  0.6292
  889MPD2    C313084   0.351   0.808  13.269  1.0122  0.1897 -0.1877
  889MPD2    C413085   0.326   0.822  13.136 -0.9467  0.3220  0.6927
  889MPD2    C513086   0.342   0.710  13.058  0.4128  0.0457  0.0886
  889MPD2     H13087   0.392   0.681  13.430 -1.3604  2.4939  0.9005
  889MPD2    H113088   0.306   0.914  13.082  0.9197 -1.1001 -2.4579
  889MPD2    H213089   0.406   0.507  13.041 -0.2199  1.4040 -1.7942
  889MPD2    H313090   0.332   0.707  12.950  0.6995  0.2244  0.0585
  889MPD2     N13091   0.349   0.920  13.355 -0.0423 -0.4025 -0.1531
  889MPD2    H513092   0.367   0.911  13.454  0.2305 -1.1018 -0.2684
  889MPD2    N113093   0.431   0.454  13.294  0.4106  0.2582  0.0216
  889MPD2    H713094   0.460   0.387  13.224 -0.6473  0.8999 -1.0100
  890MPD2     C13095   4.575   2.621  14.886 -0.6575 -0.2764 -0.1526
  890MPD2    C113096   4.708   2.624  14.892 -0.3607 -0.3377  0.4518
  890MPD2    C213097   0.034   2.549  14.990  0.2828  0.2260 -1.0334
  890MPD2    C313098   4.701   2.482  15.087  0.4864 -0.9100  0.2097
  890MPD2    C413099   4.568   2.468  15.068  0.2045 -0.2189  0.4429
  890MPD2    C513100   4.507   2.537  14.965  0.0615  0.5534  0.8136
  890MPD2     H13101   0.142   2.551  14.995  0.3950 -2.6381 -2.5893
  890MPD2    H113102   4.499   2.411  15.130  0.2036  0.7584  1.3374
  890MPD2    H213103   4.521   2.669  14.806  0.8326 -0.9292 -1.5630
  890MPD2    H313104   4.399   2.530  14.966 -0.1157  3.4872 -0.5381
  890MPD2     N13105   0.028   2.413  15.185 -0.0801  0.2762 -0.4314
  890MPD2    H513106   0.129   2.401  15.178 -0.0016 -0.1916  1.4259
  890MPD2    N113107   0.035   2.705  14.795  0.1343 -0.0615 -0.2847
  890MPD2    H713108   4.713   2.767  14.744 -0.2291  1.3599  1.8615
  891MPD2     C13109   2.916   1.118  16.830 -0.1294  1.1414  0.5587
  891MPD2    C113110   2.853   1.003  16.854 -0.1476 -0.1702  0.2043
  891MPD2    C213111   2.899   0.915  16.947 -0.2021  0.2043 -0.4345
  891MPD2    C313112   3.017   0.944  17.012  0.3572  0.4643 -0.1798
  891MPD2    C413113   3.087   1.063  16.987  0.1789  0.4181 -0.0597
  891MPD2    C513114   3.029   1.154  16.903  0.4969  0.1386 -0.3825
  891MPD2     H13115   2.849   0.824  16.977 -0.1724  0.6907  1.1175
  891MPD2    H113116   3.188   1.085  17.021 -0.4374  0.8036  1.5219
  891MPD2    H213117   2.876   1.192  16.761  0.5614 -0.0519 -1.1312
  891MPD2    H313118   3.090   1.239  16.874 -0.2450 -0.1295 -2.7486
  891MPD2     N13119   3.075   0.849  17.095  0.4260  0.2114  0.2445
  891MPD2    H513120   3.019   0.772  17.129 -1.4500  2.0850  1.3655
  891MPD2    N113121   2.735   0.979  16.778 -0.2814 -0.0532 -0.6522
  891MPD2    H713122   2.724   1.034  16.694  1.6173  1.0262 -0.1797
  892MPD2     C13123   4.050   2.136  14.610  0.0868  0.2332  0.2227
  892MPD2    C113124   3.968   2.039  14.653  0.2486 -0.1361  0.4582
  892MPD2    C213125   4.007   1.911  14.674 -0.3755 -0.2711 -0.3704
  892MPD2    C313126   4.142   1.875  14.661 -0.9673  0.6510 -1.0596
  892MPD2    C413127   4.224   1.977  14.627  0.0328  0.4948  0.2291
  892MPD2    C513128   4.186   2.106  14.601  0.0045 -0.2558 -0.3596
  892MPD2     H13129   3.928   1.842  14.705 -0.0280 -0.2202  0.6351
  892MPD2    H113130   4.330   1.958  14.637 -0.3732 -0.7747  2.1674
  892MPD2    H213131   4.026   2.240  14.588 -0.5419  0.4943  2.0999
  892MPD2    H313132   4.259   2.179  14.567 -0.2109  1.0152  1.9411
  892MPD2     N13133   4.190   1.746  14.691  0.1345  0.5031  0.9616
  892MPD2    H513134   4.291   1.734  14.686  0.5724  3.6518  2.0690
  892MPD2    N113135   3.835   2.073  14.673  0.2142  0.2025  0.0251
  892MPD2    H713136   3.775   2.004  14.717  0.0932 -0.4304 -1.1175
  893MPD2     C13137   0.157   0.612   0.826 -0.1752 -0.2058 -0.4560
  893MPD2    C113138   0.222   0.624   0.944 -0.6488  1.0983  0.5521
  893MPD2    C213139   0.151   0.657   1.058  0.0398 -0.2502 -0.1319
  893MPD2    C313140   0.012   0.671   1.055  0.1038 -0.2152 -0.0441
  893MPD2    C413141   4.693   0.645   0.928  0.1658 -0.3316  0.1377
  893MPD2    C513142   0.025   0.621   0.820 -0.3768 -1.4950 -0.0850
  893MPD2     H13143   0.208   0.694   1.142  0.7801  2.9204 -2.0110
  893MPD2    H113144   4.586   0.635   0.909 -0.4849  2.9109  2.1995
  893MPD2    H213145   0.199   0.585   0.729 -3.4047 -1.6178 -1.4799
  893MPD2    H313146   4.717   0.619   0.723 -1.3895 -1.4445  0.4201
  893MPD2     N13147   4.677   0.719   1.162  0.1056  0.2211 -0.0694
  893MPD2    H513148   4.581   0.742   1.139 -0.5564 -1.2505  1.2575
  893MPD2    N113149   0.362   0.608   0.939  0.1010 -0.5865  0.2787
  893MPD2    H713150   0.409   0.564   0.860 -0.0966 -0.7328  0.2424
  894MPD2     C13151   3.528   2.182   1.513 -0.0663 -0.9448 -1.5197
  894MPD2    C113152   3.469   2.287   1.449 -0.3875 -0.6127  0.2918
  894MPD2    C213153   3.551   2.387   1.394  1.0379 -0.2075 -0.3453
  894MPD2    C313154   3.689   2.377   1.410  0.1164 -0.2056  0.0043
  894MPD2    C413155   3.740   2.279   1.480 -0.0724 -0.5075 -1.0612
  894MPD2    C513156   3.663   2.181   1.530  0.2382 -0.2573  0.0318
  894MPD2     H13157   3.514   2.482   1.358  2.5038  1.0364  1.4107
  894MPD2    H113158   3.848   2.271   1.489 -0.2293 -1.6539 -0.2696
  894MPD2    H213159   3.477   2.109   1.574 -1.0404  0.3476 -0.7811
  894MPD2    H313160   3.708   2.102   1.589  0.0432  0.0352  0.5714
  894MPD2     N13161   3.774   2.479   1.364 -0.3018  0.1328 -0.1691
  894MPD2    H513162   3.735   2.565   1.326 -0.0740  0.5151  0.4697
  894MPD2    N113163   3.329   2.322   1.461 -0.2665 -0.1791 -0.3417
  894MPD2    H713164   3.306   2.412   1.419 -2.0342 -0.6929 -0.4499
  895MPD2     C13165   3.254   1.297  14.205  0.1739 -0.1179  0.7982
  895MPD2    C113166   3.187   1.276  14.084  0.2589  0.2175 -0.2736
  895MPD2    C213167   3.215   1.166  14.013 -0.1515 -0.1150  0.3730
  895MPD2    C313168   3.317   1.080  14.050  0.0583 -0.7757  0.3213
  895MPD2    C413169   3.388   1.104  14.168  0.8240 -0.9182 -0.3321
  895MPD2    C513170   3.354   1.213  14.243 -0.5744  0.3900  0.4044
  895MPD2     H13171   3.173   1.162  13.913 -2.3627  0.6920  1.2949
  895MPD2    H113172   3.469   1.037  14.194 -0.2532 -1.7667  0.8420
  895MPD2    H213173   3.244   1.386  14.265 -0.6379 -0.0765  0.5909
  895MPD2    H313174   3.411   1.244  14.329 -1.9380 -0.0909  1.4812
  895MPD2     N13175   3.332   0.976  13.962 -0.4347  0.6386 -0.8607
  895MPD2    H513176   3.277   0.976  13.877 -0.9865 -1.8777 -0.5129
  895MPD2    N113177   3.092   1.367  14.036  0.1702 -0.2761 -0.1255
  895MPD2    H713178   3.040   1.339  13.954 -0.5347 -0.6802  0.4614
  896MPD2     C13179   0.584   3.579   1.956  0.2156  0.3207  0.0975
  896MPD2    C113180   0.633   3.499   1.860 -0.4658 -0.1744  0.1510
  896MPD2    C213181   0.538   3.445   1.771 -0.3741  0.6444  0.3675
  896MPD2    C313182   0.402   3.481   1.776  0.0783  0.0342  1.0653
  896MPD2    C413183   0.359   3.562   1.877 -0.4437  0.1874 -0.4569
  896MPD2    C513184   0.450   3.619   1.965  0.0908 -0.2545  0.0347
  896MPD2     H13185   0.565   3.367   1.700 -1.3069 -0.1091  0.8552
  896MPD2    H113186   0.257   3.600   1.880 -1.5420 -2.6293 -2.8028
  896MPD2    H213187   0.654   3.624   2.026 -0.7117 -0.0216  1.2350
  896MPD2    H313188   0.417   3.691   2.038 -2.4835  1.6787 -3.0712
  896MPD2     N13189   0.317   3.428   1.682 -0.1252  0.3596  0.1825
  896MPD2    H513190   0.353   3.359   1.616 -2.1112 -0.3859 -0.1101
  896MPD2    N113191   0.766   3.455   1.872  0.1826  0.3705  0.2750
  896MPD2    H713192   0.811   3.477   1.961  0.2658 -1.0462  0.5840
  897MPD2     C13193   1.553   1.242  10.972 -0.0729  0.1209 -0.8956
  897MPD2    C113194   1.469   1.212  10.865 -0.0576 -0.4355 -0.3128
  897MPD2    C213195   1.361   1.127  10.879  0.3584  0.1507  0.6890
  897MPD2    C313196   1.348   1.057  10.995  0.1589 -0.5731 -0.8184
  897MPD2    C413197   1.430   1.084  11.102  0.0895  0.3581  0.1113
  897MPD2    C513198   1.530   1.178  11.089 -0.4286  0.5817  0.2264
  897MPD2     H13199   1.289   1.104  10.802  0.3919 -2.4663  1.4129
  897MPD2    H113200   1.421   1.036  11.199  0.6063  1.6146  0.7814
  897MPD2    H213201   1.623   1.325  10.967  1.1052 -0.8503 -0.5764
  897MPD2    H313202   1.588   1.203  11.177 -0.7726  1.0345  0.3236
  897MPD2     N13203   1.229   0.972  11.007 -0.3137 -0.2388 -0.1380
  897MPD2    H513204   1.161   0.979  10.932  0.2253 -2.4431 -0.8437
  897MPD2    N113205   1.483   1.288  10.747  0.0019  0.2858  0.0033
  897MPD2    H713206   1.551   1.363  10.754 -0.4957  0.7276  0.1141
  898MPD2     C13207   3.500   0.882  16.804 -0.4856 -0.5731  0.1875
  898MPD2    C113208   3.577   0.940  16.909 -0.4637 -0.7118 -0.4243
  898MPD2    C213209   3.577   1.078  16.929  1.2977  0.2253 -0.0523
  898MPD2    C313210   3.492   1.155  16.847 -0.2163  0.0296 -0.0275
  898MPD2    C413211   3.419   1.097  16.744 -0.0727  0.3351 -0.5104
  898MPD2    C513212   3.418   0.963  16.726  0.2781  0.3825 -0.0125
  898MPD2     H13213   3.637   1.126  17.005  1.5770 -0.8987  0.4457
  898MPD2    H113214   3.346   1.159  16.694  0.4442  0.1556 -1.4784
  898MPD2    H213215   3.501   0.776  16.784 -1.0463 -0.4254 -0.6196
  898MPD2    H313216   3.353   0.921  16.650  1.3178  0.1826 -0.7892
  898MPD2     N13217   3.497   1.297  16.862 -0.6009 -0.6277  0.4155
  898MPD2    H513218   3.565   1.330  16.930  2.7892  0.5341 -3.6308
  898MPD2    N113219   3.667   0.855  16.979  0.3892 -0.1887 -0.2007
  898MPD2    H713220   3.687   0.764  16.939  0.4115 -0.4646  0.4357
  899MPD2     C13221   4.535   2.135  17.727  1.0704  0.2031  0.3805
  899MPD2    C113222   4.553   2.204   0.084 -0.7587 -0.4811 -0.8139
  899MPD2    C213223   4.565   2.133   0.211 -0.3002 -0.2747 -0.6426
  899MPD2    C313224   4.544   1.990   0.213 -0.3431  0.0376 -0.0519
  899MPD2    C413225   4.521   1.932   0.090  0.0431 -0.1543  0.1247
  899MPD2    C513226   4.513   2.004  17.730  0.0058  0.3684  0.1108
  899MPD2     H13227   4.607   2.185   0.296  1.9860 -2.6944 -0.2798
  899MPD2    H113228   4.510   1.824   0.080 -1.7590  0.1064 -0.7445
  899MPD2    H213229   4.549   2.188  17.633 -0.5027  0.0857  0.0812
  899MPD2    H313230   4.496   1.957  17.634  0.2059 -0.7617  0.6291
  899MPD2     N13231   4.548   1.909   0.329 -0.1197  0.2369  0.4381
  899MPD2    H513232   4.510   1.816   0.320  0.8177 -0.0329 -0.7605
  899MPD2    N113233   4.603   2.341   0.075 -0.0561  0.3097  0.4896
  899MPD2    H713234   4.625   2.372  17.739 -1.9379 -1.4203 -0.5210
  900MPD2     C13235   3.688   3.523  12.801  0.0652 -0.1131 -0.6434
  900MPD2    C113236   3.672   3.450  12.687  0.3962  0.6830 -0.2453
  900MPD2    C213237   3.559   3.482  12.613 -0.1737 -0.7360 -0.1371
  900MPD2    C313238   3.464   3.570  12.652  0.0618  0.3879 -0.7306
  900MPD2    C413239   3.493   3.657  12.753 -0.3457  0.1614  0.0408
  900MPD2    C513240   3.607   3.633  12.831 -0.2972 -0.0795  0.0582
  900MPD2     H13241   3.532   3.428  12.523 -2.2771 -0.8420  0.5481
  900MPD2    H113242   3.424   3.733  12.788  0.5547  0.7399  0.5561
  900MPD2    H213243   3.764   3.494  12.873  1.1554  0.6813 -1.4796
  900MPD2    H313244   3.617   3.686  12.925  1.2007  0.7374 -0.5471
  900MPD2     N13245   3.344   3.571  12.565 -0.5353 -0.1075  0.4028
  900MPD2    H513246   3.329   3.501  12.492  1.5198 -2.3446  2.0990
  900MPD2    N113247   3.758   3.343  12.650  0.3409  0.0447  0.2562
  900MPD2    H713248   3.829   3.327  12.721  0.6144 -0.7368 -0.1912
  901MPD2     C13249   3.537   2.507  12.917  0.1785 -0.0093  0.1543
  901MPD2    C113250   3.673   2.519  12.934 -0.0200 -0.4408 -0.4624
  901MPD2    C213251   3.739   2.614  12.863  0.2919  0.1220 -0.2249
  901MPD2    C313252   3.682   2.672  12.751  0.9504  0.5242  0.2916
  901MPD2    C413253   3.548   2.642  12.723  0.3004  0.1448 -0.6807
  901MPD2    C513254   3.480   2.563  12.810  0.0858  0.0859 -0.2591
  901MPD2     H13255   3.840   2.641  12.889  0.5222 -0.9698 -0.0206
  901MPD2    H113256   3.495   2.675  12.634 -1.2611 -0.6850 -0.0666
  901MPD2    H213257   3.486   2.436  12.980  1.0830  0.9273  1.9312
  901MPD2    H313258   3.375   2.542  12.793  0.3272 -2.0354  0.9003
  901MPD2     N13259   3.759   2.771  12.680  0.1999 -0.7182 -0.1419
  901MPD2    H513260   3.833   2.813  12.735 -0.4663  1.7995 -1.1573
  901MPD2    N113261   3.721   2.432  13.030 -0.0620  0.3084 -0.5170
  901MPD2    H713262   3.653   2.371  13.073  1.1523  0.1104  1.0964
  902MPD2     C13263   2.760   1.736  13.007 -0.3620  0.3772 -0.5072
  902MPD2    C113264   2.736   1.735  12.875 -0.6201  0.4131  0.0393
  902MPD2    C213265   2.832   1.690  12.785 -0.3309  0.2857 -0.3504
  902MPD2    C313266   2.959   1.646  12.831 -0.6268  0.1217 -0.3378
  902MPD2    C413267   2.979   1.646  12.971 -0.1614  0.6284 -0.4787
  902MPD2    C513268   2.880   1.688  13.056  0.4867 -0.1570  0.8161
  902MPD2     H13269   2.819   1.695  12.677 -0.5419 -0.3667 -0.3542
  902MPD2    H113270   3.073   1.619  13.018  0.5959  1.1975 -1.6725
  902MPD2    H213271   2.683   1.773  13.074 -0.9307 -2.6033  0.4932
  902MPD2    H313272   2.891   1.691  13.164 -2.3191 -2.6328  1.1973
  902MPD2     N13273   3.057   1.621  12.729 -0.2688 -0.0671  0.2451
  902MPD2    H513274   3.032   1.631  12.631 -1.5074 -0.5690  0.5076
  902MPD2    N113275   2.612   1.796  12.829  0.7159 -0.5218  0.4457
  902MPD2    H713276   2.539   1.808  12.898  0.1628  0.3721 -0.3008
  903MPD2     C13277   3.210   2.081  12.321 -0.4786  0.2797  0.2763
  903MPD2    C113278   3.191   1.949  12.286  0.1371  0.6030  1.2906
  903MPD2    C213279   3.088   1.916  12.200  0.2521 -0.3547 -0.1191
  903MPD2    C313280   2.999   2.015  12.158 -0.0476  0.1418  0.0586
  903MPD2    C413281   3.016   2.148  12.201 -0.6843  0.1637 -0.0323
  903MPD2    C513282   3.122   2.177  12.280 -0.4390  0.0881  0.2732
  903MPD2     H13283   3.077   1.821  12.149  0.6596 -0.7173  0.4791
  903MPD2    H113284   2.945   2.225  12.171 -1.1234 -0.6028 -0.9688
  903MPD2    H213285   3.280   2.105  12.400 -0.0917  0.8962 -0.2557
  903MPD2    H313286   3.134   2.277  12.320 -0.2542  0.1085  0.1687
  903MPD2     N13287   2.888   1.964  12.094  0.5550 -0.1431 -0.4075
  903MPD2    H513288   2.874   1.864  12.106  0.4873  0.1918  2.3357
  903MPD2    N113289   3.267   1.847  12.354 -0.1958  0.2170  0.4792
  903MPD2    H713290   3.317   1.877  12.436 -0.8213 -0.0585  0.9589
  904MPD2     C13291   2.751   0.442  14.220 -0.3244  0.1872  0.0165
  904MPD2    C113292   2.822   0.549  14.175  0.1304 -0.0759  0.7713
  904MPD2    C213293   2.958   0.541  14.163  0.1395 -0.0926  0.3520
  904MPD2    C313294   3.029   0.426  14.206 -0.4821  0.1798  0.0449
  904MPD2    C413295   2.961   0.318  14.250 -0.2487 -0.8058  0.8061
  904MPD2    C513296   2.823   0.327  14.257 -0.5664  0.2323  0.3140
  904MPD2     H13297   3.012   0.629  14.133  0.3141 -0.3166  0.0089
  904MPD2    H113298   3.011   0.231  14.293  0.5375 -1.1335 -0.7949
  904MPD2    H213299   2.642   0.437  14.224 -0.4731  1.0365 -2.7713
  904MPD2    H313300   2.759   0.245  14.284 -1.4241  0.5596 -0.7379
  904MPD2     N13301   3.165   0.423  14.217 -0.4813 -0.6922 -0.1693
  904MPD2    H513302   3.200   0.330  14.237  1.3046  0.3850  1.6241
  904MPD2    N113303   2.765   0.673  14.143 -0.0203 -0.6560 -0.8156
  904MPD2    H713304   2.830   0.748  14.123 -3.3142  2.3823 -0.1826
  905MPD2     C13305   2.685   0.808  13.492 -0.1583 -0.1716  0.2753
  905MPD2    C113306   2.742   0.843  13.611 -0.1393 -0.1878 -0.3332
  905MPD2    C213307   2.876   0.828  13.630 -0.7327 -0.2283 -0.5955
  905MPD2    C313308   2.958   0.769  13.534 -0.4851  0.3843 -0.3645
  905MPD2    C413309   2.901   0.743  13.415 -0.3241 -0.7282  0.3148
  905MPD2    C513310   2.769   0.773  13.392 -0.3413 -0.0383  0.1050
  905MPD2     H13311   2.917   0.858  13.725 -2.9350  1.1408 -0.0796
  905MPD2    H113312   2.956   0.709  13.328  1.3557  0.4639  0.8990
  905MPD2    H213313   2.579   0.822  13.470 -0.6936  0.1974  3.1188
  905MPD2    H313314   2.731   0.749  13.294  2.5793 -1.4233 -0.7036
  905MPD2     N13315   3.091   0.739  13.564  0.4438  0.0870  0.1231
  905MPD2    H513316   3.142   0.672  13.508  0.4987  1.0529 -0.9643
  905MPD2    N113317   2.662   0.908  13.706  0.0414 -0.4193 -0.0983
  905MPD2    H713318   2.565   0.910  13.677  0.2544 -1.5688 -0.9026
  906MPD2     C13319   4.627   0.912  11.259  0.3096 -0.4295  0.5277
  906MPD2    C113320   4.605   0.819  11.154  0.6227 -0.1505 -0.0747
  906MPD2    C213321   4.568   0.685  11.177  0.2340  0.2577 -0.0990
  906MPD2    C313322   4.543   0.652  11.307 -0.5812 -0.4584 -0.1928
  906MPD2    C413323   4.559   0.742  11.415  0.0342 -0.3802  0.1551
  906MPD2    C513324   4.595   0.868  11.391  0.6149 -0.1908  0.0082
  906MPD2     H13325   4.558   0.623  11.088  2.1369 -0.9004  0.4936
  906MPD2    H113326   4.542   0.713  11.518  0.8453  0.3616  0.5026
  906MPD2    H213327   4.673   1.010  11.252  0.2331 -0.5786 -2.0337
  906MPD2    H313328   4.605   0.934  11.477 -0.8583 -1.6395  1.2863
  906MPD2     N13329   4.504   0.520  11.347  0.4609  0.1975  0.5413
  906MPD2    H513330   4.500   0.493  11.444  1.7456  0.6984  0.7320
  906MPD2    N113331   4.650   0.844  11.026 -0.1704 -0.5989 -0.7292
  906MPD2    H713332   4.619   0.768  10.965  2.1981 -1.1047 -1.3004
  907MPD2     C13333   3.814   4.555  15.734  0.6971  0.2584  0.2673
  907MPD2    C113334   3.926   4.478  15.704 -0.2882  0.3614  0.1214
  907MPD2    C213335   4.036   4.474  15.789 -0.0714 -0.6663  0.0905
  907MPD2    C313336   4.039   4.533  15.912 -0.1966  0.5334 -0.5477
  907MPD2    C413337   3.917   4.603  15.939  1.1099 -0.2784  0.1219
  907MPD2    C513338   3.820   4.623  15.843  0.6827 -0.3621  0.5377
  907MPD2     H13339   4.114   4.401  15.770  0.1327  0.0864 -1.9637
  907MPD2    H113340   3.902   4.662  16.029 -1.5674  0.4343 -0.8060
  907MPD2    H213341   3.723   4.554  15.674  1.6433  1.5903 -1.1970
  907MPD2    H313342   3.735   4.686  15.869  0.0502 -0.9341 -0.1182
  907MPD2     N13343   4.153   4.525  15.996  0.8316  0.2794  0.5400
  907MPD2    H513344   4.222   4.462  15.956 -0.8701 -1.4853  0.3803
  907MPD2    N113345   3.939   4.406  15.582  0.4049  0.4377  0.1900
  907MPD2    H713346   4.013   4.336  15.585  0.7408  0.7781 -0.3734
  908MPD2     C13347   1.105   1.313   9.810  0.8632  0.4264  0.2851
  908MPD2    C113348   1.072   1.247   9.935  0.5975  0.6599 -0.0305
  908MPD2    C213349   1.162   1.263  10.039  0.1954 -0.5469  0.2665
  908MPD2    C313350   1.259   1.355  10.031  0.1984  0.6818 -0.4036
  908MPD2    C413351   1.276   1.425   9.919 -0.0801  0.1747 -0.0144
  908MPD2    C513352   1.208   1.396   9.808  0.2373  0.0767  0.3253
  908MPD2     H13353   1.164   1.208  10.132 -0.2888  0.8178  1.0869
  908MPD2    H113354   1.353   1.500   9.903 -2.0939  1.9959 -1.2954
  908MPD2    H213355   1.053   1.293   9.717  0.0498 -2.6588  1.4268
  908MPD2    H313356   1.235   1.455   9.721  0.5020 -1.5633 -0.7050
  908MPD2     N13357   1.329   1.376  10.148  0.1149 -0.0640  0.2865
  908MPD2    H513358   1.313   1.306  10.220  0.1442 -0.0936  0.2643
  908MPD2    N113359   0.958   1.163   9.948 -0.0003 -0.7487  0.1587
  908MPD2    H713360   0.950   1.096  10.024 -0.6616  0.5960  1.2876
  909MPD2     C13361   1.692   3.637  11.890 -0.0103 -0.8539 -0.1618
  909MPD2    C113362   1.701   3.777  11.876 -0.0121 -0.0818 -0.3229
  909MPD2    C213363   1.669   3.855  11.991  0.2141 -0.3638 -0.1275
  909MPD2    C313364   1.613   3.801  12.101 -0.5762  0.1211 -0.0163
  909MPD2    C413365   1.602   3.663  12.112  0.1151  0.0322  0.0693
  909MPD2    C513366   1.648   3.583  12.004 -0.4007  0.3694  0.3289
  909MPD2     H13367   1.685   3.962  11.984 -0.2924 -0.4061 -2.1757
  909MPD2    H113368   1.551   3.615  12.195  1.2740 -0.3338  0.5627
  909MPD2    H213369   1.718   3.580  11.801 -0.6873 -0.4230 -0.6387
  909MPD2    H313370   1.623   3.477  11.999  2.7506 -0.3098 -1.5082
  909MPD2     N13371   1.575   3.894  12.203 -0.4013 -0.0918  0.5747
  909MPD2    H513372   1.579   3.993  12.182 -1.7652  0.0291  0.8720
  909MPD2    N113373   1.757   3.848  11.774  0.1274 -0.2318 -0.0652
  909MPD2    H713374   1.772   3.949  11.774 -0.0855 -0.2194  2.3458
  910MPD2     C13375   3.273   0.569  16.364 -0.3094  0.1991  0.4216
  910MPD2    C113376   3.173   0.476  16.377 -0.0355  0.2591 -0.3822
  910MPD2    C213377   3.075   0.466  16.273  0.3447 -0.3031  0.3900
  910MPD2    C313378   3.087   0.546  16.155 -0.6928 -0.1713  0.0373
  910MPD2    C413379   3.198   0.628  16.144  0.2951  0.4302  0.6240
  910MPD2    C513380   3.286   0.639  16.248  0.4185 -0.0746 -0.2393
  910MPD2     H13381   2.993   0.396  16.288  0.4599 -0.6270 -0.5036
  910MPD2    H113382   3.205   0.687  16.054 -1.2599  0.7541  0.7211
  910MPD2    H213383   3.338   0.585  16.449 -1.0310 -0.2451  1.0609
  910MPD2    H313384   3.381   0.688  16.234 -1.5288  2.8439 -3.3565
  910MPD2     N13385   2.997   0.540  16.049 -0.1386 -0.0695  0.4033
  910MPD2    H513386   3.015   0.596  15.966 -3.1506 -0.9131 -0.8290
  910MPD2    N113387   3.171   0.398  16.495  0.1337 -0.5657  0.3015
  910MPD2    H713388   3.244   0.421  16.562 -0.3217 -2.2611  1.3849
  911MPD2     C13389   1.034   0.291  16.611  0.0454 -0.0269  0.5466
  911MPD2    C113390   1.106   0.408  16.625  0.4995 -0.1035  0.4099
  911MPD2    C213391   1.076   0.518  16.549 -0.1648 -0.2497 -0.7261
  911MPD2    C313392   0.978   0.513  16.453 -0.3018 -0.1754 -0.5174
  911MPD2    C413393   0.902   0.402  16.440  0.0852 -0.0678 -0.1603
  911MPD2    C513394   0.931   0.296  16.521 -0.1903  0.4958 -0.4920
  911MPD2     H13395   1.118   0.616  16.563 -1.0247  0.1063 -0.6259
  911MPD2    H113396   0.816   0.391  16.376  1.1693  2.4622 -2.0566
  911MPD2    H213397   1.061   0.202  16.667  2.0193  1.5326  2.1180
  911MPD2    H313398   0.867   0.210  16.505  1.1407 -1.0542  2.5433
  911MPD2     N13399   0.940   0.620  16.365  0.0445 -0.1550 -0.0061
  911MPD2    H513400   0.859   0.610  16.305  0.1892  3.0867 -0.7230
  911MPD2    N113401   1.222   0.405  16.709 -0.2967  0.3595  0.4381
  911MPD2    H713402   1.226   0.318  16.762  1.8602  0.4536  0.4108
  912MPD2     C13403   0.426   0.593  15.846  0.3162 -0.7398  0.0464
  912MPD2    C113404   0.523   0.583  15.946  0.8483 -0.2021 -0.1649
  912MPD2    C213405   0.553   0.451  15.984  0.6285  0.4804 -0.3830
  912MPD2    C313406   0.495   0.339  15.928 -0.3884 -0.2028 -0.4481
  912MPD2    C413407   0.415   0.350  15.826 -0.4066 -0.6627  0.6763
  912MPD2    C513408   0.374   0.478  15.786  0.0909 -0.2201 -0.0844
  912MPD2     H13409   0.616   0.423  16.068  0.3776 -0.5300 -0.5250
  912MPD2    H113410   0.368   0.265  15.778 -0.9219 -0.0341  0.0645
  912MPD2    H213411   0.389   0.692  15.823 -1.6672 -1.2078  1.2158
  912MPD2    H313412   0.284   0.477  15.726 -0.4582  1.3304  0.6924
  912MPD2     N13413   0.532   0.223  15.988 -1.0253  0.2316 -0.1513
  912MPD2    H513414   0.583   0.229  16.076 -0.0030  2.3939 -0.8861
  912MPD2    N113415   0.589   0.697  15.994  0.5361 -0.4436 -0.4289
  912MPD2    H713416   0.559   0.788  15.961 -0.7812 -0.8738 -0.4159
  913MPD2     C13417   1.132   3.108  10.832 -0.0235  0.7182 -0.5991
  913MPD2    C113418   1.182   3.087  10.706 -0.2744  0.1748  0.5461
  913MPD2    C213419   1.120   3.129  10.591  0.5407  0.3148  0.4356
  913MPD2    C313420   0.994   3.188  10.601  0.7864  0.0150  0.3247
  913MPD2    C413421   0.939   3.199  10.730  0.8769 -0.0646 -0.4513
  913MPD2    C513422   1.006   3.161  10.841 -0.1690 -0.3482  0.3154
  913MPD2     H13423   1.172   3.121  10.496  0.1545  0.3442  0.2209
  913MPD2    H113424   0.847   3.251  10.754  0.3645  0.0238 -2.5861
  913MPD2    H213425   1.180   3.068  10.920 -3.3309 -0.8272  0.4795
  913MPD2    H313426   0.961   3.182  10.938 -0.5634  2.9265 -0.5504
  913MPD2     N13427   0.909   3.223  10.493  0.5954 -0.0317 -1.0264
  913MPD2    H513428   0.820   3.264  10.519  0.4798  0.7033 -2.6386
  913MPD2    N113429   1.304   3.018  10.696  0.0613  0.0575 -0.1257
  913MPD2    H713430   1.354   3.004  10.783 -0.5974 -1.3271  0.0324
  914MPD2     C13431   3.830   1.997  12.575  0.1628  0.4283 -0.4837
  914MPD2    C113432   3.731   2.082  12.629  0.1273 -0.3218 -0.3273
  914MPD2    C213433   3.702   2.079  12.768 -0.1627  0.1592  0.7505
  914MPD2    C313434   3.776   1.994  12.853 -0.7404  0.2138  0.0152
  914MPD2    C413435   3.877   1.919  12.790  1.0086  0.0029  0.5208
  914MPD2    C513436   3.901   1.912  12.656  0.9115  0.3375 -0.1232
  914MPD2     H13437   3.632   2.146  12.817 -1.2976  0.4084 -1.2093
  914MPD2    H113438   3.941   1.852  12.847 -0.4134 -1.4571  0.3898
  914MPD2    H213439   3.850   2.009  12.469 -0.5752 -1.1380 -0.7952
  914MPD2    H313440   3.974   1.844  12.613 -0.8216 -0.8399 -1.2359
  914MPD2     N13441   3.750   2.007  12.991 -0.1552 -0.0383 -0.3169
  914MPD2    H513442   3.676   2.069  13.022 -1.9431 -2.1944 -0.2627
  914MPD2    N113443   3.690   2.180  12.538  0.0530 -0.1409 -0.1020
  914MPD2    H713444   3.745   2.202  12.455 -0.0233 -3.2601 -0.9931
  915MPD2     C13445   2.232   2.226  15.698  0.0309  0.3887 -0.3955
  915MPD2    C113446   2.096   2.221  15.712  0.6924 -0.3979 -0.3774
  915MPD2    C213447   2.043   2.253  15.837 -0.2977 -0.3400  0.0394
  915MPD2    C313448   2.138   2.304  15.935 -0.6872  0.0889 -0.7263
  915MPD2    C413449   2.272   2.305  15.918  0.6662  0.1130  0.0642
  915MPD2    C513450   2.322   2.256  15.798 -0.4194  0.4626 -0.1212
  915MPD2     H13451   1.942   2.222  15.862 -0.1532 -0.3702  0.5867
  915MPD2    H113452   2.337   2.334  16.000  0.9633 -2.2368  0.6738
  915MPD2    H213453   2.281   2.213  15.602  1.4410  0.0851  0.3619
  915MPD2    H313454   2.430   2.251  15.789 -0.5858 -0.7676 -1.4253
  915MPD2     N13455   2.100   2.350  16.060 -0.1266 -0.0049  0.3830
  915MPD2    H513456   2.181   2.384  16.110  0.8460  0.0873 -1.2435
  915MPD2    N113457   2.023   2.155  15.616 -0.0377 -0.3687  0.1590
  915MPD2    H713458   2.076   2.122  15.535  1.9762  0.4881  1.1143
  916MPD2     C13459   0.073   4.637  15.661 -0.2279 -0.0752 -0.3255
  916MPD2    C113460   0.115   4.611  15.791  0.2478 -0.1915 -0.2233
  916MPD2    C213461   0.206   4.517  15.818 -0.4327  0.8765  0.1297
  916MPD2    C313462   0.239   4.430  15.724 -0.0697  0.0916 -0.4686
  916MPD2    C413463   0.192   4.449  15.595 -0.8038 -0.8091  0.2384
  916MPD2    C513464   0.108   4.551  15.560  0.5049  0.1107  0.5742
  916MPD2     H13465   0.263   4.510  15.909 -1.8420  0.6384  0.9916
  916MPD2    H113466   0.232   4.400  15.507 -1.3855 -0.9149  0.0321
  916MPD2    H213467   0.019   4.726  15.632  0.1828  1.0588  2.3844
  916MPD2    H313468   0.073   4.565  15.459 -0.1422 -0.5329  0.7054
  916MPD2     N13469   0.335   4.325  15.757  0.1773  0.1479  0.3942
  916MPD2    H513470   0.354   4.317  15.857 -2.3896  0.2112  0.8709
  916MPD2    N113471   0.094   4.715  15.889  0.2423  0.0486 -0.2048
  916MPD2    H713472   0.061   0.062  15.849 -2.6569 -1.1630 -0.4311
  917MPD2     C13473   0.377   3.023  11.587 -0.0572 -0.7441  0.1520
  917MPD2    C113474   0.400   3.051  11.722 -0.7748  0.2481 -0.3366
  917MPD2    C213475   0.461   3.172  11.754 -0.7324 -0.2485 -0.1180
  917MPD2    C313476   0.513   3.257  11.654  0.3501  0.1041  0.5359
  917MPD2    C413477   0.476   3.230  11.522  0.2765  0.6305  0.6865
  917MPD2    C513478   0.417   3.111  11.491  0.2755 -0.6254  0.3709
  917MPD2     H13479   0.459   3.218  11.852  0.8154 -0.9102  0.2274
  917MPD2    H113480   0.503   3.297  11.441 -0.0026 -1.6215 -1.2805
  917MPD2    H213481   0.327   2.931  11.560 -0.0510 -1.1087  1.3912
  917MPD2    H313482   0.389   3.089  11.388  1.2216 -2.3687  0.4921
  917MPD2     N13483   0.555   3.385  11.690  0.1575  0.1311 -0.0015
  917MPD2    H513484   0.568   3.454  11.617  0.6212  2.8534  2.6699
  917MPD2    N113485   0.361   2.954  11.818  0.0921  0.0210  0.8291
  917MPD2    H713486   0.295   2.887  11.780  1.6897 -1.0874  0.0198
  918MPD2     C13487   0.587   3.175  12.768  0.4802  0.8446  0.6451
  918MPD2    C113488   0.673   3.147  12.667  1.0565  0.1076 -0.5506
  918MPD2    C213489   0.629   3.055  12.571  0.2907 -0.3333  0.3298
  918MPD2    C313490   0.499   3.014  12.558  0.3422 -0.4064 -0.4019
  918MPD2    C413491   0.415   3.041  12.663 -0.2233 -0.0973  0.1942
  918MPD2    C513492   0.460   3.122  12.766 -0.7038 -0.6315 -0.2223
  918MPD2     H13493   0.701   3.019  12.499  1.1697  2.8885 -0.4411
  918MPD2    H113494   0.311   3.017  12.683  0.0317 -1.0469  0.3731
  918MPD2    H213495   0.621   3.240  12.847 -1.0610  1.5455  0.7330
  918MPD2    H313496   0.387   3.142  12.844  1.0662 -1.3658  1.6223
  918MPD2     N13497   0.452   2.929  12.452  0.0266 -0.5988 -0.0940
  918MPD2    H513498   0.523   2.904  12.384  1.6222 -1.5073  1.8940
  918MPD2    N113499   0.805   3.189  12.660 -1.2657  0.5104  0.1730
  918MPD2    H713500   0.870   3.153  12.591 -0.4409 -0.5240  1.4666
  919MPD2     C13501   0.733   2.141  12.031 -0.1833  0.2966  0.5039
  919MPD2    C113502   0.785   2.037  11.955 -0.0350  0.7212 -0.1788
  919MPD2    C213503   0.846   2.056  11.834 -0.4323 -0.5423  0.4138
  919MPD2    C313504   0.850   2.184  11.778  0.6155 -0.2308 -0.0681
  919MPD2    C413505   0.796   2.289  11.853  0.0542 -0.0767  0.0713
  919MPD2    C513506   0.756   2.270  11.983  0.6577 -0.0110 -0.2437
  919MPD2     H13507   0.885   1.964  11.793  2.3365 -0.4065  2.7676
  919MPD2    H113508   0.781   2.388  11.811  0.4305 -0.2936 -0.5807
  919MPD2    H213509   0.691   2.122  12.129 -0.7169  0.1517  0.2519
  919MPD2    H313510   0.719   2.358  12.035 -1.6837 -0.5433 -0.9894
  919MPD2     N13511   0.891   2.216  11.647 -0.1462 -0.2266 -0.4689
  919MPD2    H513512   0.883   2.316  11.630  1.2046  0.2011  1.3868
  919MPD2    N113513   0.780   1.902  11.987  0.8600 -0.0432 -0.5827
  919MPD2    H713514   0.827   1.840  11.921  0.7589 -0.9573  0.2200
  920MPD2     C13515   0.820   2.844  10.884  0.6451  0.4784  0.3286
  920MPD2    C113516   0.771   2.725  10.831  0.4451  0.0836 -0.2915
  920MPD2    C213517   0.788   2.611  10.906 -0.5716  0.1807  0.7939
  920MPD2    C313518   0.852   2.613  11.035 -0.0768 -0.3925  0.4269
  920MPD2    C413519   0.910   2.731  11.081 -0.5377 -0.2225  0.2587
  920MPD2    C513520   0.894   2.839  10.999 -0.0537 -0.0350  0.3158
  920MPD2     H13521   0.756   2.514  10.868 -0.3825  0.1750  0.6475
  920MPD2    H113522   0.974   2.734  11.168 -0.5420  1.1857  0.2189
  920MPD2    H213523   0.804   2.932  10.822  0.8937 -0.1509 -0.6342
  920MPD2    H313524   0.929   2.935  11.035 -0.4474  1.0770 -2.2230
  920MPD2     N13525   0.869   2.485  11.097  0.4461  0.2109 -0.4810
  920MPD2    H513526   0.830   2.405  11.048 -0.6089  0.6612 -0.3910
  920MPD2    N113527   0.694   2.720  10.717  0.2940  0.6087 -0.0404
  920MPD2    H713528   0.639   2.637  10.696  0.7938  0.4850 -0.8681
  921MPD2     C13529   2.079   0.807  17.121  0.2130  0.4396  0.8777
  921MPD2    C113530   2.050   0.797  16.987 -0.5457  0.0840 -0.3309
  921MPD2    C213531   1.924   0.743  16.954  0.3531 -0.4642  0.1358
  921MPD2    C313532   1.850   0.680  17.048 -0.0041 -0.4344 -0.0702
  921MPD2    C413533   1.885   0.682  17.178 -0.5860  0.1393  0.1417
  921MPD2    C513534   1.998   0.759  17.218  0.3598  0.4047  1.0491
  921MPD2     H13535   1.890   0.733  16.852  0.3799  1.4141 -0.0603
  921MPD2    H113536   1.821   0.643  17.256 -0.0990 -1.2076 -0.1164
  921MPD2    H213537   2.173   0.856  17.147 -0.4397  1.8774  0.5457
  921MPD2    H313538   2.022   0.752  17.323  1.0799  1.4217  0.9517
  921MPD2     N13539   1.737   0.617  16.997 -0.0041  0.7116  0.1325
  921MPD2    H513540   1.713   0.648  16.903 -1.8562 -2.3215 -0.3886
  921MPD2    N113541   2.145   0.843  16.898  0.5728  0.0159 -0.1091
  921MPD2    H713542   2.227   0.892  16.932 -1.3079  1.5966  2.1449
  922MPD2     C13543   3.363   2.779  17.617  0.2406 -0.1007  0.0122
  922MPD2    C113544   3.327   2.899  17.560  0.2880  0.0482  0.7689
  922MPD2    C213545   3.205   2.949  17.575 -0.4313 -0.6332  0.1966
  922MPD2    C313546   3.107   2.870  17.640 -0.2100  0.1575 -0.1412
  922MPD2    C413547   3.141   2.744  17.704 -0.1298 -0.3123 -0.7081
  922MPD2    C513548   3.272   2.702  17.684  0.2498 -0.5625 -0.1586
  922MPD2     H13549   3.182   3.050  17.545  0.8834  0.1332  1.8038
  922MPD2    H113550   3.069   2.675  17.747 -0.4742  0.4473 -0.0582
  922MPD2    H213551   3.466   2.746  17.609  0.2528 -0.5231  1.7267
  922MPD2    H313552   3.304   2.611  17.732 -1.4363 -1.3839 -0.6003
  922MPD2     N13553   2.975   2.925  17.647 -0.0481 -0.2980 -0.4588
  922MPD2    H513554   2.959   3.021  17.618  0.6711  0.8126  2.7798
  922MPD2    N113555   3.429   2.967  17.485 -0.0822 -0.0803 -0.2970
  922MPD2    H713556   3.524   2.932  17.497  0.5605  1.3607 -1.2107
  923MPD2     C13557   3.384   1.721   9.148  0.4346 -0.3134  0.1864
  923MPD2    C113558   3.393   1.706   9.283  0.1793  0.2197  0.5714
  923MPD2    C213559   3.493   1.635   9.345 -0.5379  0.4348 -0.0159
  923MPD2    C313560   3.590   1.578   9.262 -0.5964 -0.5197  0.7195
  923MPD2    C413561   3.578   1.578   9.126  0.2412 -0.7415 -0.6064
  923MPD2    C513562   3.475   1.652   9.072 -0.3295  0.4681 -0.0929
  923MPD2     H13563   3.505   1.644   9.452  1.2326  0.8695 -0.2589
  923MPD2    H113564   3.638   1.527   9.052 -1.7295 -0.9292 -2.0488
  923MPD2    H213565   3.306   1.774   9.096  0.5083 -0.2031  0.1886
  923MPD2    H313566   3.474   1.661   8.964 -0.5604  1.7791  0.0273
  923MPD2     N13567   3.697   1.502   9.319  0.2753 -0.0084  0.3609
  923MPD2    H513568   3.753   1.447   9.255  1.9755  2.8871 -0.6314
  923MPD2    N113569   3.289   1.773   9.354 -0.2229  0.7458  0.1147
  923MPD2    H713570   3.219   1.828   9.306  0.2358 -0.2641 -1.6906
  924MPD2     C13571   4.061   3.892  16.406 -0.4558  0.7097 -0.2247
  924MPD2    C113572   4.140   3.972  16.490  0.3097 -1.2356 -0.2647
  924MPD2    C213573   4.226   4.063  16.438  0.1658 -0.4285  0.3416
  924MPD2    C313574   4.228   4.080  16.301  1.2594 -0.4665  0.0422
  924MPD2    C413575   4.145   4.010  16.218 -0.0212 -0.1087 -0.1728
  924MPD2    C513576   4.066   3.916  16.274  0.2166  0.0925  0.7481
  924MPD2     H13577   4.289   4.121  16.504  0.2294  0.0206 -0.1095
  924MPD2    H113578   4.157   4.032  16.113  1.8877 -0.3687 -0.0039
  924MPD2    H213579   3.992   3.814  16.434  0.9708 -0.5146 -0.1500
  924MPD2    H313580   4.004   3.855  16.209 -0.2830 -0.1516  1.4550
  924MPD2     N13581   4.312   4.175  16.232 -0.1253 -0.0589  0.1533
  924MPD2    H513582   4.296   4.197  16.134  2.0001 -1.6896 -0.5636
  924MPD2    N113583   4.124   3.968  16.632  1.1063  0.1632 -0.4846
  924MPD2    H713584   4.170   4.040  16.685  0.0671  0.5233 -0.0771
  925MPD2     C13585   2.619   2.295  15.146  0.4738 -0.3557 -0.4204
  925MPD2    C113586   2.582   2.165  15.150  0.2757 -0.2573  0.0921
  925MPD2    C213587   2.535   2.108  15.262  0.0863  0.1312 -0.2409
  925MPD2    C313588   2.552   2.171  15.387 -0.2724 -0.8707  0.1202
  925MPD2    C413589   2.596   2.302  15.386 -0.2563 -0.8233 -0.5472
  925MPD2    C513590   2.631   2.358  15.266  0.3815 -0.5908  0.1887
  925MPD2     H13591   2.495   2.007  15.257 -1.3501  0.6466  0.7362
  925MPD2    H113592   2.641   2.339  15.478 -1.1736 -1.4391  0.1521
  925MPD2    H213593   2.655   2.340  15.054 -0.7612 -2.3549 -1.8768
  925MPD2    H313594   2.674   2.457  15.272 -0.7188 -0.1507  0.7721
  925MPD2     N13595   2.547   2.102  15.516  0.7509  0.2624 -0.5299
  925MPD2    H513596   2.601   2.139  15.594  0.7461  1.9286 -1.3031
  925MPD2    N113597   2.578   2.093  15.024  0.0054  0.1525  0.6352
  925MPD2    H713598   2.557   1.994  15.033 -0.5142  0.2308  0.2485
  926MPD2     C13599   1.792   0.129  14.093 -0.2660 -0.2838  0.0567
  926MPD2    C113600   1.679   0.198  14.050  0.6259  0.5197 -0.5702
  926MPD2    C213601   1.675   0.253  13.927 -0.0752  0.2830  0.4394
  926MPD2    C313602   1.793   0.256  13.848  0.1216  0.3832 -0.3052
  926MPD2    C413603   1.903   0.181  13.887  0.1672 -0.1358  0.4749
  926MPD2    C513604   1.900   0.120  14.010  0.8622  0.4059 -0.1657
  926MPD2     H13605   1.586   0.298  13.885 -0.9048 -1.2669  0.4991
  926MPD2    H113606   1.989   0.170  13.822  0.7373 -1.0825  1.3769
  926MPD2    H213607   1.818   0.089  14.191 -1.4728 -0.9300  0.1146
  926MPD2    H313608   1.983   0.063  14.050 -0.2536  0.6506  2.5355
  926MPD2     N13609   1.803   0.321  13.723  0.2266  0.4956 -0.7423
  926MPD2    H513610   1.896   0.317  13.684  0.4534 -1.7159  0.0440
  926MPD2    N113611   1.562   0.206  14.132 -0.0384 -0.9191  0.2493
  926MPD2    H713612   1.481   0.251  14.089  2.5166  2.3850 -1.1276
  927MPD2     C13613   1.754   1.865   0.349  0.1550  1.2269  0.5738
  927MPD2    C113614   1.641   1.923   0.300 -0.7457  0.1013  0.4627
  927MPD2    C213615   1.654   1.990   0.183 -0.2980 -0.3565  0.4575
  927MPD2    C313616   1.771   1.983   0.105  0.9136  0.0316 -0.0723
  927MPD2    C413617   1.879   1.910   0.153  0.0513  0.2765  0.1281
  927MPD2    C513618   1.864   1.851   0.273  0.1586 -0.2560  0.9102
  927MPD2     H13619   1.572   2.048   0.144 -1.7330 -1.7751  1.3430
  927MPD2    H113620   1.977   1.907   0.107 -0.3685  2.6173 -0.9128
  927MPD2    H213621   1.766   1.810   0.441 -2.1957 -1.1172 -0.5094
  927MPD2    H313622   1.942   1.783   0.306 -0.0322 -0.9313 -0.0600
  927MPD2     N13623   1.769   2.041  17.732  0.5313  0.3846 -0.2904
  927MPD2    H513624   1.693   2.102  17.704 -1.1940  0.5693  4.8256
  927MPD2    N113625   1.520   1.908   0.367 -0.9810 -0.3521 -0.2149
  927MPD2    H713626   1.523   1.866   0.460  0.5814  1.5630  0.5808
  928MPD2     C13627   3.743   0.859   0.444 -0.0623  1.5133 -0.0056
  928MPD2    C113628   3.860   0.810   0.497 -0.4637 -0.3192 -0.4294
  928MPD2    C213629   3.983   0.813   0.422 -0.3239  0.4460  0.1943
  928MPD2    C313630   3.980   0.870   0.294 -0.2200 -0.7175  0.9280
  928MPD2    C413631   3.859   0.923   0.243  0.1821  1.1165 -0.3568
  928MPD2    C513632   3.749   0.919   0.321  0.0754 -0.1446  0.4005
  928MPD2     H13633   4.072   0.767   0.465 -0.4610  0.8308  0.9000
  928MPD2    H113634   3.851   0.978   0.150 -0.6985  1.5387 -0.0341
  928MPD2    H213635   3.647   0.866   0.493 -0.1338 -0.4280  0.1245
  928MPD2    H313636   3.659   0.965   0.283  0.1838 -0.7068 -0.5272
  928MPD2     N13637   4.093   0.866   0.203 -0.2320 -0.3446 -0.3526
  928MPD2    H513638   4.074   0.904   0.110  0.7751 -1.1397 -0.8823
  928MPD2    N113639   3.847   0.747   0.624  0.2925  0.3429 -0.2875
  928MPD2    H713640   3.751   0.723   0.646  0.0134 -0.4580 -2.3534
  929MPD2     C13641   4.037   1.135  10.458  0.2736  0.3807  0.4648
  929MPD2    C113642   3.950   1.026  10.471  0.0655  0.0671  0.0043
  929MPD2    C213643   3.846   1.011  10.376 -0.1800 -0.7860 -0.5633
  929MPD2    C313644   3.807   1.120  10.292  0.0086  0.7955 -0.5991
  929MPD2    C413645   3.896   1.225  10.284 -0.0590 -0.1177  0.4255
  929MPD2    C513646   4.002   1.230  10.364  0.2229 -0.6782 -0.5077
  929MPD2     H13647   3.766   0.939  10.393  0.2378 -0.9621  0.6658
  929MPD2    H113648   3.881   1.311  10.219 -0.2053 -0.7377 -0.3615
  929MPD2    H213649   4.112   1.154  10.534  1.0727  0.4702 -0.3450
  929MPD2    H313650   4.067   1.316  10.366  1.1130 -1.3729  0.7017
  929MPD2     N13651   3.685   1.119  10.224 -0.9106 -0.5688 -0.1770
  929MPD2    H513652   3.623   1.041  10.240 -0.8901 -0.4150  0.6503
  929MPD2    N113653   3.981   0.919  10.563 -0.1240  0.5016  0.1607
  929MPD2    H713654   4.063   0.926  10.623 -1.6236 -0.0165  2.2972
  930MPD2     C13655   1.096   3.137  14.471  0.4439  0.3882  0.8477
  930MPD2    C113656   1.157   3.093  14.354 -0.5791  0.5168  0.1008
  930MPD2    C213657   1.143   2.961  14.312  0.5022  0.3860  0.2564
  930MPD2    C313658   1.065   2.873  14.390  0.1745  0.0545  0.2154
  930MPD2    C413659   1.002   2.922  14.502  0.3357 -0.1679  0.6009
  930MPD2    C513660   1.018   3.055  14.538 -0.2439 -0.6188 -0.4486
  930MPD2     H13661   1.177   2.927  14.215 -1.9580 -0.3331 -0.3538
  930MPD2    H113662   0.937   2.866  14.568  1.5218  0.7742  2.5723
  930MPD2    H213663   1.106   3.236  14.515 -0.4419  0.2583  1.3400
  930MPD2    H313664   0.951   3.083  14.619 -1.6022 -2.7441 -0.8275
  930MPD2     N13665   1.050   2.739  14.346  0.3667 -0.0608  0.5051
  930MPD2    H513666   0.978   2.676  14.378  0.0774 -0.7345 -1.4753
  930MPD2    N113667   1.245   3.178  14.286 -0.3636  0.1335 -0.8595
  930MPD2    H713668   1.264   3.263  14.339  0.4849  0.1915 -1.2567
  931MPD2     C13669   1.551   1.515   0.802 -0.7259 -0.5459  0.2377
  931MPD2    C113670   1.410   1.526   0.794 -1.0439  0.1691  0.1317
  931MPD2    C213671   1.323   1.442   0.865  0.1498  0.5240  0.7660
  931MPD2    C313672   1.379   1.347   0.946 -0.4352 -1.0596 -0.2989
  931MPD2    C413673   1.517   1.331   0.946 -0.1561 -0.0749 -0.0281
  931MPD2    C513674   1.600   1.405   0.873 -0.3717  0.5195  0.4512
  931MPD2     H13675   1.217   1.465   0.854  0.3081  1.3365  0.9311
  931MPD2    H113676   1.565   1.267   1.018 -4.2012 -0.0427  2.6844
  931MPD2    H213677   1.629   1.571   0.752  0.6794 -1.9673  0.8176
  931MPD2    H313678   1.706   1.390   0.891 -0.5755 -0.6132  0.6718
  931MPD2     N13679   1.296   1.262   1.026  0.2511  0.2663 -0.0226
  931MPD2    H513680   1.352   1.201   1.085  2.4517  2.4692  0.1805
  931MPD2    N113681   1.367   1.641   0.715  0.3929  0.4719 -0.3503
  931MPD2    H713682   1.445   1.701   0.691  1.4287 -0.2524  1.2352
  932MPD2     C13683   2.998   1.428  11.437  1.1318  0.6669 -0.1163
  932MPD2    C113684   3.085   1.533  11.442  0.5221  0.1323 -0.4685
  932MPD2    C213685   3.217   1.506  11.481 -0.3814 -0.4067  0.2690
  932MPD2    C313686   3.267   1.385  11.476  0.0464  0.0265 -1.0119
  932MPD2    C413687   3.182   1.281  11.470 -0.0671  0.7823  0.3173
  932MPD2    C513688   3.051   1.300  11.450  0.4538  0.0198  0.8806
  932MPD2     H13689   3.277   1.593  11.504 -0.8831 -0.2779  1.1014
  932MPD2    H113690   3.208   1.176  11.484  0.1246  0.6823 -0.7544
  932MPD2    H213691   2.897   1.428  11.400  0.8597  0.9538  0.6232
  932MPD2    H313692   2.987   1.213  11.445 -2.1672  1.8854  2.2143
  932MPD2     N13693   3.403   1.375  11.499 -0.9399 -0.0534 -0.3143
  932MPD2    H513694   3.445   1.459  11.539 -1.8551  1.0848 -1.7294
  932MPD2    N113695   3.039   1.669  11.424  0.1965  0.3367  0.8573
  932MPD2    H713696   3.112   1.739  11.433  1.0883 -0.6026  0.9339
  933MPD2     C13697   3.729   1.000   1.389  0.4792 -0.0592 -0.0066
  933MPD2    C113698   3.670   0.956   1.273  0.1162 -0.3825 -0.1481
  933MPD2    C213699   3.544   0.998   1.239  0.0533  0.3381 -0.0837
  933MPD2    C313700   3.474   1.066   1.333  0.0257 -0.5271  0.4344
  933MPD2    C413701   3.531   1.116   1.443 -0.3634 -0.7090  0.0204
  933MPD2    C513702   3.661   1.084   1.472  0.4421 -0.2573 -0.5356
  933MPD2     H13703   3.491   0.975   1.147  0.2390 -1.6763  0.3156
  933MPD2    H113704   3.467   1.171   1.512  0.9517  0.6776  0.1415
  933MPD2    H213705   3.829   0.967   1.417  0.5526  0.6960  0.6131
  933MPD2    H313706   3.704   1.124   1.563 -0.0226 -0.9008 -0.0354
  933MPD2     N13707   3.341   1.087   1.295 -0.1097  0.4828  0.1721
  933MPD2    H513708   3.312   1.036   1.212  0.1848 -0.8638  0.8968
  933MPD2    N113709   3.741   0.868   1.191 -0.7729  0.3084 -0.3633
  933MPD2    H713710   3.842   0.871   1.198 -0.7978  1.7375 -0.7109
  934MPD2     C13711   0.593   3.222   2.075 -0.0164 -0.3049 -0.1545
  934MPD2    C113712   0.655   3.102   2.034 -0.2307 -0.9209  0.0573
  934MPD2    C213713   0.583   3.002   1.976  0.0746 -0.5462 -0.5986
  934MPD2    C313714   0.448   3.024   1.950  0.6916 -0.5258  0.8186
  934MPD2    C413715   0.390   3.144   1.985 -0.0863  0.6024 -0.1653
  934MPD2    C513716   0.463   3.236   2.041  0.5130  1.1421  0.1883
  934MPD2     H13717   0.631   2.905   1.975  1.0127 -0.0879 -0.1657
  934MPD2    H113718   0.286   3.170   1.967 -0.0313 -0.1609 -1.5123
  934MPD2    H213719   0.660   3.305   2.095 -0.1114 -0.1616 -0.4377
  934MPD2    H313720   0.417   3.334   2.049 -1.0060  0.3929  0.7227
  934MPD2     N13721   0.364   2.926   1.898  0.7045 -0.1948 -0.9522
  934MPD2    H513722   0.264   2.932   1.916  0.9900 -1.1835  0.8516
  934MPD2    N113723   0.796   3.077   2.039 -0.3345  0.2835 -0.7109
  934MPD2    H713724   0.832   2.995   1.993  0.4938 -1.3899  2.8890
  935MPD2     C13725   0.688   2.046   1.729 -0.4194  0.4017  0.0718
  935MPD2    C113726   0.570   2.044   1.661 -0.6176  0.1268 -0.8728
  935MPD2    C213727   0.470   2.138   1.689 -0.6093 -0.4361  0.0537
  935MPD2    C313728   0.476   2.223   1.801  0.3705  0.8787  0.3500
  935MPD2    C413729   0.587   2.210   1.880 -0.4833 -0.2896  0.5999
  935MPD2    C513730   0.693   2.130   1.839  0.3624 -0.2758 -0.8581
  935MPD2     H13731   0.378   2.138   1.630 -0.8071  1.0146  0.3587
  935MPD2    H113732   0.613   2.280   1.959  1.4207  0.1772 -0.4550
  935MPD2    H213733   0.778   1.991   1.704  1.4100  2.5004  2.0273
  935MPD2    H313734   0.774   2.123   1.912  0.4805 -0.8914 -1.0474
  935MPD2     N13735   0.389   2.329   1.831 -0.3334  0.1644  0.4324
  935MPD2    H513736   0.414   2.389   1.909  1.9565  0.2086 -0.3283
  935MPD2    N113737   0.554   1.963   1.549  0.0060  0.1797 -0.0472
  935MPD2    H713738   0.459   1.965   1.514  0.0743 -1.1277 -0.2906
  936MPD2     C13739   2.852   4.169  12.269  0.2742  0.5139  0.0829
  936MPD2    C113740   2.932   4.139  12.375  0.8192 -0.4265  0.4530
  936MPD2    C213741   3.039   4.220  12.384 -0.1663  0.3687  0.3421
  936MPD2    C313742   3.069   4.326  12.302  0.0535 -0.2868  0.3856
  936MPD2    C413743   2.988   4.351  12.195  0.2369  0.2706  0.4502
  936MPD2    C513744   2.879   4.272  12.180 -0.0372 -0.9828 -0.2232
  936MPD2     H13745   3.108   4.192  12.463  0.6041  0.3356 -0.3441
  936MPD2    H113746   3.012   4.414  12.110  0.7006 -1.5097 -0.7603
  936MPD2    H213747   2.764   4.107  12.251 -0.2775  0.9965  1.1135
  936MPD2    H313748   2.816   4.281  12.092  2.1735 -1.9498 -1.9156
  936MPD2     N13749   3.191   4.408  12.313 -0.7650  0.3045 -0.0902
  936MPD2    H513750   3.199   4.487  12.249  2.6923 -0.3935 -0.5242
  936MPD2    N113751   2.909   4.044  12.480  0.4980 -0.4021  0.1071
  936MPD2    H713752   2.974   4.061  12.556  0.2593 -2.1982  0.7089
  937MPD2     C13753   1.147   1.365  11.728  0.2732 -0.0054  0.2921
  937MPD2    C113754   1.085   1.493  11.741 -0.0451 -0.9162  0.0339
  937MPD2    C213755   1.148   1.607  11.698  0.6110  0.2302  0.7381
  937MPD2    C313756   1.269   1.592  11.637 -0.2886 -0.0454  0.7326
  937MPD2    C413757   1.333   1.468  11.626  0.0209  0.2565 -0.0483
  937MPD2    C513758   1.268   1.357  11.668  0.0579  0.1028 -0.9264
  937MPD2     H13759   1.090   1.698  11.701  0.2236  0.0896 -2.4369
  937MPD2    H113760   1.425   1.448  11.573 -0.3406  0.7933 -0.8719
  937MPD2    H213761   1.092   1.276  11.759 -0.1080 -0.5005 -1.8249
  937MPD2    H313762   1.299   1.254  11.653 -3.4466 -1.2115  0.8574
  937MPD2     N13763   1.338   1.708  11.594  0.2975  0.2147 -0.4995
  937MPD2    H513764   1.300   1.800  11.611  1.9649  0.5806  1.2394
  937MPD2    N113765   0.979   1.525  11.826  0.4119 -0.2541 -0.0477
  937MPD2    H713766   0.942   1.619  11.825  1.6290  0.2165 -0.6020
  938MPD2     C13767   4.011   1.985   1.624  0.0309  0.7297  0.7137
  938MPD2    C113768   4.017   1.973   1.489 -0.2585 -0.4414  0.5894
  938MPD2    C213769   3.920   1.900   1.432 -0.6238  0.4591 -1.0797
  938MPD2    C313770   3.819   1.845   1.505 -0.4248  0.6623  0.4233
  938MPD2    C413771   3.812   1.856   1.643  0.2529  0.1733  0.4211
  938MPD2    C513772   3.915   1.923   1.697  1.0219 -0.0756 -0.3936
  938MPD2     H13773   3.919   1.891   1.324  1.1083 -0.6819 -0.9944
  938MPD2    H113774   3.732   1.808   1.699 -0.6398  1.9948  0.7113
  938MPD2    H213775   4.081   2.049   1.678 -1.2614  1.7532  1.1867
  938MPD2    H313776   3.935   1.945   1.801  0.2986 -1.0750 -0.0444
  938MPD2     N13777   3.703   1.788   1.443 -0.0009 -0.7775 -0.2655
  938MPD2    H513778   3.627   1.773   1.509 -1.1362  1.7612 -0.9728
  938MPD2    N113779   4.087   2.052   1.397 -0.3026 -0.3398 -0.0053
  938MPD2    H713780   4.065   2.041   1.298 -0.3796  1.8597 -0.2415
  939MPD2     C13781   0.943   3.092   1.381  0.1034  1.3720 -0.4378
  939MPD2    C113782   0.892   3.196   1.310  0.7032  0.8549  0.2519
  939MPD2    C213783   0.932   3.214   1.175  0.3600 -0.0906 -0.0783
  939MPD2    C313784   1.007   3.116   1.113  0.1408 -0.0319  0.0272
  939MPD2    C413785   1.055   3.013   1.184  0.2863 -0.4482 -0.0972
  939MPD2    C513786   1.026   3.009   1.320  1.0787 -0.3223  0.7186
  939MPD2     H13787   0.916   3.304   1.117  3.3399  1.1769  1.0633
  939MPD2    H113788   1.125   2.946   1.136 -0.1305  1.1575 -2.9020
  939MPD2    H213789   0.921   3.073   1.486  0.4902  0.1449 -0.5838
  939MPD2    H313790   1.065   2.929   1.381  0.9497 -1.0599 -0.1658
  939MPD2     N13791   1.047   3.151   0.979 -0.2558  0.0993  0.5113
  939MPD2    H513792   1.008   3.234   0.937 -1.7599 -1.5116 -1.2974
  939MPD2    N113793   0.819   3.288   1.387  0.1531  0.9655  0.3157
  939MPD2    H713794   0.803   3.280   1.487 -1.4827 -2.3957 -0.2213
  940MPD2     C13795   4.153   4.644  13.137 -0.5137 -0.0300  0.5204
  940MPD2    C113796   4.202   4.520  13.171  0.8155 -0.0431  0.1518
  940MPD2    C213797   4.206   4.415  13.081 -0.1302  0.0357  0.3652
  940MPD2    C313798   4.163   4.438  12.951 -0.3283  0.0571 -0.5689
  940MPD2    C413799   4.110   4.562  12.918  0.4187  0.3746  0.2658
  940MPD2    C513800   4.103   4.659  13.017 -0.6477 -0.3307  0.6235
  940MPD2     H13801   4.239   4.317  13.112  0.4247 -0.3274 -1.4161
  940MPD2    H113802   4.076   4.576  12.816  1.7944  1.9756  0.0328
  940MPD2    H213803   4.139   4.726  13.207 -0.6179 -0.4466  0.9827
  940MPD2    H313804   4.065   0.018  12.992 -0.5067 -1.1010 -2.6877
  940MPD2     N13805   4.169   4.341  12.851 -0.2802  0.4068 -0.0130
  940MPD2    H513806   4.128   4.364  12.761 -1.5793 -0.6258  0.2996
  940MPD2    N113807   4.235   4.484  13.309 -0.4203 -0.4280 -0.1725
  940MPD2    H713808   4.260   4.389  13.337  0.3262 -0.0587  0.4142
  941MPD2     C13809   2.681   4.128  10.208  0.0406  0.2159 -0.4562
  941MPD2    C113810   2.790   4.042  10.179  0.4290 -0.0596 -0.1864
  941MPD2    C213811   2.788   3.907  10.211  0.0259  0.4425  0.2840
  941MPD2    C313812   2.670   3.851  10.256  0.6627  0.3580  0.8063
  941MPD2    C413813   2.557   3.927  10.278 -0.8152 -0.8610  0.1170
  941MPD2    C513814   2.563   4.062  10.249 -0.4861 -0.0308 -0.0747
  941MPD2     H13815   2.881   3.856  10.190 -0.3061 -0.0225 -0.0601
  941MPD2    H113816   2.463   3.880  10.301 -0.9771 -1.4052 -1.6728
  941MPD2    H213817   2.671   4.236  10.198 -0.4284  0.0974 -1.2426
  941MPD2    H313818   2.474   4.123  10.260 -0.7908 -0.3780 -0.6286
  941MPD2     N13819   2.651   3.719  10.289 -0.0371  0.3138 -0.2920
  941MPD2    H513820   2.561   3.690  10.326  0.9572 -1.8076  0.4483
  941MPD2    N113821   2.914   4.102  10.144 -0.2263  0.1116  0.1033
  941MPD2    H713822   2.987   4.033  10.160 -0.6264 -0.7579 -1.7871
  942MPD2     C13823   2.673   1.744   9.298 -0.2292  0.2605 -0.1640
  942MPD2    C113824   2.691   1.633   9.376 -0.6886 -0.3908 -0.2455
  942MPD2    C213825   2.813   1.571   9.380  1.0058  0.5891  0.6215
  942MPD2    C313826   2.909   1.604   9.283  0.2645 -0.6046  0.2216
  942MPD2    C413827   2.879   1.697   9.190  0.3047 -0.2434 -0.5997
  942MPD2    C513828   2.770   1.769   9.204  0.7382  0.6603  0.2213
  942MPD2     H13829   2.816   1.494   9.456  0.1969 -0.5782 -0.5261
  942MPD2    H113830   2.951   1.723   9.113  0.3335  0.1060 -0.4558
  942MPD2    H213831   2.583   1.805   9.307 -1.9661 -2.4533  1.1352
  942MPD2    H313832   2.757   1.852   9.136  0.9605 -0.1155 -0.7765
  942MPD2     N13833   3.037   1.544   9.266 -0.2227  0.4593  0.2333
  942MPD2    H513834   3.088   1.555   9.179 -0.5913  0.2357 -0.0116
  942MPD2    N113835   2.594   1.585   9.470 -0.2385  0.3025  0.5681
  942MPD2    H713836   2.612   1.515   9.542 -1.0273  0.0202  0.4869
  943MPD2     C13837   1.431   4.506  10.015 -0.1392  0.6358  0.1030
  943MPD2    C113838   1.362   4.388  10.044  0.3942  0.2470 -0.4522
  943MPD2    C213839   1.396   4.330  10.164 -0.7747  0.2575 -0.2568
  943MPD2    C313840   1.500   4.379  10.245 -0.4623 -0.7600 -0.5382
  943MPD2    C413841   1.558   4.497  10.216  0.3814 -0.2407  0.0581
  943MPD2    C513842   1.527   4.560  10.097  0.6429  0.0752  0.1567
  943MPD2     H13843   1.340   4.242  10.194  1.4145 -0.6097  1.2423
  943MPD2    H113844   1.631   4.527  10.290  0.2281  2.0450 -0.6985
  943MPD2    H213845   1.402   4.556   9.924  2.5002  1.3799 -0.3383
  943MPD2    H313846   1.579   4.651  10.068  2.1639 -1.0895 -0.7976
  943MPD2     N13847   1.543   4.310  10.362 -0.0711  0.1879  0.5840
  943MPD2    H513848   1.621   4.351  10.411  0.2755 -2.0419  1.9081
  943MPD2    N113849   1.263   4.342   9.956  0.1802  0.2171  0.2169
  943MPD2    H713850   1.237   4.401   9.878 -1.4387 -0.2479  0.4094
  944MPD2     C13851   1.420   3.343  10.972  0.1610  0.4099  0.3025
  944MPD2    C113852   1.528   3.418  10.999  0.5220  0.4461 -1.0321
  944MPD2    C213853   1.536   3.480  11.121  0.3995  0.4415 -0.0955
  944MPD2    C313854   1.445   3.453  11.223  0.1787 -0.4949  0.1016
  944MPD2    C413855   1.344   3.363  11.201  0.9229 -0.2915 -0.0894
  944MPD2    C513856   1.331   3.316  11.069 -0.7193 -0.1015 -0.2077
  944MPD2     H13857   1.623   3.536  11.154  0.2112 -0.8169  2.5212
  944MPD2    H113858   1.272   3.332  11.275 -0.4118 -0.8101 -1.6098
  944MPD2    H213859   1.401   3.290  10.879 -0.8855 -0.0099  0.7512
  944MPD2    H313860   1.246   3.249  11.060 -0.6228 -0.5062  1.8381
  944MPD2     N13861   1.464   3.516  11.347  0.5957  0.5541 -0.2908
  944MPD2    H513862   1.543   3.581  11.345  0.2727  0.9137 -1.3994
  944MPD2    N113863   1.626   3.438  10.898  0.0677 -0.1543  0.3462
  944MPD2    H713864   1.606   3.419  10.800 -1.0409  0.2520  0.4915
    1TMC1    C113865   0.561   3.621  14.586 -0.2591 -0.2571  0.4581
    1TMC1    C213866   0.455   3.585  14.497  0.3622  0.4939  0.3845
    1TMC1    C313867   0.456   3.458  14.441 -0.2436  0.3227 -0.3758
    1TMC1    C413868   0.659   3.528  14.619 -0.4722 -0.5216 -0.5165
    1TMC1    C513869   0.654   3.407  14.560 -0.1881 -0.7160  0.2546
    1TMC1    C613870   0.561   3.374  14.466  0.6820 -0.8822 -0.1681
    1TMC1     C13871   0.575   3.753  14.637  0.2952 -0.2885 -0.4943
    1TMC1     O13872   0.666   3.770  14.716  0.5554 -0.6398  0.2687
    1TMC1     H13873   0.377   3.656  14.471 -0.1367 -0.0971  0.2267
    1TMC1    H113874   0.744   3.555  14.680  0.3182 -0.8534 -1.4585
    1TMC1    H213875   0.554   3.278  14.416  0.0873 -0.1589 -1.4621
    1TMC1    C713876   0.781   3.336  14.545  0.3051 -0.2258 -0.2044
    1TMC1    C813877   0.346   3.420  14.352 -0.1304  0.3122 -0.1315
    1TMC1    O113878   0.884   3.396  14.569  0.0727  0.0430 -0.3004
    1TMC1    O213879   0.356   3.338  14.257  0.1630 -0.7386  0.5898
    1TMC1    O313880   0.756   3.202  14.551 -0.6101 -0.1082  0.7162
    1TMC1    H313881   0.664   3.177  14.576 -1.0502  1.4068  0.6411
    1TMC1    O513882   0.230   3.484  14.384 -0.1901 -0.2178  0.0085
    1TMC1    H513883   0.256   3.540  14.460  0.7882  1.1456 -1.3431
    2MPD2     C13884   0.580   4.253  14.547 -0.3067  0.6531 -0.0849
    2MPD2    C113885   0.503   4.192  14.456  0.3417  0.8887 -0.3190
    2MPD2    C213886   0.475   4.057  14.474 -0.0438 -0.4115 -0.7323
    2MPD2    C313887   0.534   3.983  14.576  0.5119  0.4051  0.4749
    2MPD2    C413888   0.606   4.058  14.679  0.8533 -1.1199 -0.2169
    2MPD2    C513889   0.622   4.191  14.661  0.1010  0.7623 -0.2510
    2MPD2     H13890   0.416   4.006  14.399  1.1336  0.3515 -2.1522
    2MPD2    H113891   0.642   4.010  14.769  1.6260 -0.0391  0.0444
    2MPD2    H213892   0.625   4.350  14.528  1.7269 -0.1448  0.6161
    2MPD2    H313893   0.676   4.247  14.737 -0.3230  0.5827  0.1891
    2MPD2     N13894   0.503   3.846  14.574 -0.1793  0.2977 -0.6063
    2MPD2    H513895   0.441   3.823  14.498 -2.0791  0.8211  0.7930
    2MPD2    N113896   0.479   4.256  14.333  0.5406  0.1246 -0.4924
    2MPD2    H713897   0.495   4.356  14.334  2.4236 -0.1672  0.1049
    3TMC2    C113898   0.437   4.263  14.096  0.4008  0.7396 -0.4198
    3TMC2    C213899   0.428   4.397  14.097  1.2306  0.5818 -0.0634
    3TMC2    C313900   0.381   4.453  13.983  0.1045 -0.8906  0.5765
    3TMC2    C413901   0.372   4.191  14.001  0.0534 -0.5826  0.1162
    3TMC2    C513902   0.317   4.248  13.892  1.0290 -0.0809  1.0077
    3TMC2    C613903   0.326   4.386  13.879 -0.1219  0.0183 -0.2073
    3TMC2     C13904   0.467   4.182  14.219 -0.1880  0.0556 -0.1015
    3TMC2     O13905   0.485   4.065  14.191 -0.1247  0.3833 -0.8811
    3TMC2     H13906   0.465   4.463  14.174  1.8370  2.8951 -2.3640
    3TMC2    H113907   0.376   4.083  14.001 -1.8515 -0.6598  1.4717
    3TMC2    H213908   0.304   4.449  13.794 -2.2547  1.1676  1.2116
    3TMC2    C713909   0.249   4.159  13.800 -0.5402 -1.0522 -0.0445
    3TMC2    C813910   0.363   4.594  13.993  0.5193 -0.6059  0.0484
    3TMC2    O113911   0.258   4.037  13.817 -0.3944 -0.0768 -0.0012
    3TMC2    O213912   0.430   4.672  14.062 -0.4242  0.5562 -0.4625
    3TMC2    O513913   0.231   4.590  14.003 -0.2065  0.2399  0.2092
    3TMC2    H513914   0.196   4.515  13.950  1.1940 -0.4362  0.2633
    4TMC2    C113915   4.480   4.714  13.110  0.3921  0.1482  0.1869
    4TMC2    C213916   4.499   4.667  12.982  0.1210  0.4555  0.0341
    4TMC2    C313917   4.562   4.547  12.979  0.5436 -0.0598 -0.2293
    4TMC2    C413918   4.525   4.644  13.222  0.5862 -0.0497 -0.5253
    4TMC2    C513919   4.597   4.530  13.210 -0.6766  0.2271 -0.0007
    4TMC2    C613920   4.622   4.488  13.086  0.2575  0.0842  0.5373
    4TMC2     C13921   4.475   0.114  13.130  0.0339  0.0343  0.3817
    4TMC2     O13922   4.535   0.182  13.049  0.1757 -0.0675  0.2459
    4TMC2     H13923   4.456   4.712  12.893 -0.4823  1.3599  0.7829
    4TMC2    H113924   4.522   4.683  13.323  0.1705  1.9372 -1.3130
    4TMC2    H213925   4.673   4.394  13.064 -0.1843  0.6403 -2.9857
    4TMC2    C713926   4.636   4.454  13.324 -0.1418  0.5191 -0.2772
    4TMC2    C813927   4.581   4.489  12.850  0.3296  1.4858  0.1200
    4TMC2    O113928   4.605   4.502  13.433  0.4312  0.1696 -0.0173
    4TMC2    O213929   4.559   4.374  12.825 -0.6902  0.2269  0.0073
    4TMC2    O513930   4.645   4.584  12.775 -0.3958  0.3719 -0.2238
    4TMC2    H513931   4.634   4.676  12.807  0.9199  1.0180 -1.6267
    5MPD2     C13932   4.370   0.525  13.420  0.0974 -0.1660 -0.1149
    5MPD2    C113933   4.276   0.429  13.450  0.8178  0.0041  0.4630
    5MPD2    C213934   4.286   0.303  13.385 -0.3653 -0.9445  0.2531
    5MPD2    C313935   4.384   0.280  13.295 -0.2476 -0.5364  0.4492
    5MPD2    C413936   4.476   0.376  13.266 -0.0336  0.6263 -0.0857
    5MPD2    C513937   4.465   0.502  13.328 -0.4322 -0.4169 -0.2503
    5MPD2     H13938   4.220   0.220  13.408  0.1023 -0.9603  1.5703
    5MPD2    H113939   4.545   0.375  13.182 -1.1275 -1.2291 -0.9489
    5MPD2    H213940   4.372   0.620  13.473  0.3972 -0.6957  0.8194
    5MPD2    H313941   4.528   0.576  13.279 -1.0063  0.1126 -0.1886
    5MPD2     N13942   4.390   0.152  13.231  0.7832  0.2885 -0.0541
    5MPD2    H513943   4.335   0.082  13.280  0.8799 -0.8285 -1.5328
    5MPD2    N113944   4.175   0.454  13.548 -0.8914 -0.4148  0.0716
    5MPD2    H713945   4.191   0.536  13.605  1.1738 -1.7118  1.3488
    6MPD1     C13946   2.630   1.060  12.680  0.5586  0.8898 -0.5434
    6MPD1    C113947   2.598   1.074  12.809  0.1255  0.4509 -0.0742
    6MPD1    C213948   2.695   1.030  12.906  1.1912 -0.2053  0.2542
    6MPD1    C313949   2.820   0.999  12.853  0.3339  0.2245 -0.3748
    6MPD1    C413950   2.844   1.007  12.720  0.2672  0.7611  0.0963
    6MPD1    C513951   2.752   1.043  12.635 -0.3279  0.0970  1.0671
    6MPD1     H13952   2.684   1.013  13.012 -1.4406 -3.7207 -0.5776
    6MPD1    H113953   2.940   0.980  12.676 -0.1536 -2.0167  0.8736
    6MPD1    H213954   2.557   1.079  12.603 -1.7363 -3.2228  0.5640
    6MPD1    H313955   2.775   1.048  12.529 -1.6494 -0.8782  0.7348
    6MPD1     N13956   2.927   0.947  12.930  0.3386  0.5184  0.8481
    6MPD1    H513957   3.011   0.911  12.885 -1.0682 -2.6963  0.7634
    6MPD1    N113958   2.469   1.086  12.849  0.5724 -0.2096  0.4597
    6MPD1    H613959   2.407   1.147  12.796 -0.3008  0.1659  1.8973
    6MPD1    H713960   2.470   1.119  12.945 -0.7534 -1.6429  0.9621
    7MPD2     C13961   3.484   1.121  13.577  0.4169  0.4340  0.9006
    7MPD2    C113962   3.528   1.029  13.489  0.3127  0.3690 -0.2240
    7MPD2    C213963   3.637   0.949  13.515 -0.3895 -0.4198 -0.2075
    7MPD2    C313964   3.688   0.949  13.642 -0.4300 -0.0269 -0.1006
    7MPD2    C413965   3.653   1.049  13.731 -0.4355 -0.4152  0.0245
    7MPD2    C513966   3.562   1.146  13.690 -0.0473  0.5550  0.2432
    7MPD2     H13967   3.669   0.871  13.446  1.3535 -0.8047  1.0392
    7MPD2    H113968   3.699   1.057  13.829  1.1035 -1.5251 -0.5977
    7MPD2    H213969   3.396   1.182  13.562 -0.0741 -0.7970 -1.2376
    7MPD2    H313970   3.526   1.222  13.758  1.9458  1.8068 -0.0930
    7MPD2     N13971   3.768   0.845  13.690 -0.5305 -0.0406  0.2897
    7MPD2    H513972   3.783   0.849  13.791 -0.7096  0.7283  0.2896
    7MPD2    N113973   3.450   0.990  13.377 -0.3076 -0.0371  0.1065
    7MPD2    H713974   3.501   0.928  13.315 -2.7441  1.5954 -3.5207
    8TMC3    C113975   3.845   0.626  13.694 -0.4119  0.3576  0.1587
    8TMC3    C213976   3.967   0.568  13.674  0.0136 -0.7926  0.8809
    8TMC3    C313977   3.962   0.433  13.645  0.2169 -0.6402 -0.0769
    8TMC3    C413978   3.730   0.554  13.705 -0.8372 -0.6702  0.0132
    8TMC3    C513979   3.727   0.422  13.683  0.0185 -0.8927  0.1650
    8TMC3    C613980   3.842   0.356  13.656 -0.0214  0.6806 -0.2222
    8TMC3     C13981   3.824   0.743  13.621  0.0589  0.3416  0.2373
    8TMC3     O13982   3.830   0.731  13.499 -0.4815  0.3435 -0.1009
    8TMC3     H13983   4.046   0.636  13.647 -0.1623 -1.6641 -1.7467
    8TMC3    H113984   3.633   0.602  13.705 -0.5530 -0.0991 -1.9263
    8TMC3    H213985   3.843   0.251  13.628 -0.7728  1.3323 -2.7453
    8TMC3    C713986   3.631   0.407  13.576 -0.0486 -0.7031 -0.2139
    8TMC3    C813987   4.058   0.386  13.546  0.3961 -0.5967  0.2768
    8TMC3    O113988   3.513   0.416  13.590 -0.2190 -0.8057  0.1344
    8TMC3    O213989   4.005   0.320  13.462 -0.5214 -0.0054 -0.3394
    9TMC3    C113990   3.056   0.898  13.114  0.5682  0.3807 -0.2979
    9TMC3    C213991   3.121   0.791  13.054 -0.4003  0.0095 -0.8616
    9TMC3    C313992   3.240   0.753  13.104  0.3910  0.3232 -0.0672
    9TMC3    C413993   3.120   0.961  13.216 -0.5662  0.0240  0.3674
    9TMC3    C513994   3.246   0.924  13.259 -0.0329 -0.3402 -0.5502
    9TMC3    C613995   3.303   0.819  13.210  0.0191 -0.3247  0.4535
    9TMC3     C13996   2.925   0.951  13.064 -1.0753  0.4133  0.0198
    9TMC3     O13997   2.863   1.021  13.145 -0.4575  0.3508 -0.0819
    9TMC3     H13998   3.086   0.732  12.969 -0.7704 -0.8211 -0.1354
    9TMC3    H113999   3.079   1.059  13.241  0.5228 -0.0335  2.4240
    9TMC3    H214000   3.394   0.783  13.256 -0.8136 -3.5511 -0.4093
    9TMC3    C714001   3.316   1.007  13.358  0.9456  0.1517 -0.7042
    9TMC3    C814002   3.309   0.633  13.052  0.2733  0.2125 -1.0915
    9TMC3    O114003   3.241   1.082  13.420 -0.0494 -0.2922 -0.2024
    9TMC3    O214004   3.327   0.618  12.934 -0.1735  0.2860 -0.0565
   10MPD2     C14005   3.741   0.436  13.224 -0.1669 -0.1135  0.9027
   10MPD2    C114006   3.655   0.434  13.333  0.2683  0.0060  0.3646
   10MPD2    C214007   3.523   0.470  13.306 -0.1325  0.2993 -0.2621
   10MPD2    C314008   3.487   0.515  13.178 -0.4960  0.0415  0.1851
   10MPD2    C414009   3.578   0.527  13.075 -0.5072 -0.5349  0.3760
   10MPD2    C514010   3.701   0.475  13.097  0.5122  0.3348 -0.4395
   10MPD2     H14011   3.449   0.482  13.385  0.8825  0.4785  0.6616
   10MPD2    H114012   3.550   0.572  12.980  1.2166 -0.0820  0.0801
   10MPD2    H214013   3.842   0.399  13.230 -0.0881  0.0684  0.7280
   10MPD2    H314014   3.767   0.469  13.011  1.1185 -1.4677  0.1537
   10MPD2     N14015   3.353   0.564  13.160 -0.2677 -0.3173 -0.0595
   10MPD2    H514016   3.295   0.584  13.241  0.3799 -0.7752  0.5202
   10MPD2    N114017   3.705   0.402  13.461 -0.0380  0.1707 -0.7676
   10MPD2    H714018   3.806   0.396  13.468 -0.2146 -1.3045  0.5610
   11MPD2     C14019   0.084   4.055  13.576  0.1032  0.3100  0.0102
   11MPD2    C114020   0.099   4.188  13.598 -1.4729 -0.1707  0.2939
   11MPD2    C214021   0.031   4.272  13.521  0.2795  0.1003 -0.7346
   11MPD2    C314022   4.699   4.227  13.411  0.2291 -0.3028 -0.5680
   11MPD2    C414023   4.690   4.091  13.389  0.0761  0.3517  0.0818
   11MPD2    C514024   0.012   4.006  13.469 -0.1492 -0.0544 -0.7664
   11MPD2     H14025   0.061   4.376  13.527 -1.9331  0.6077  1.4454
   11MPD2    H114026   4.634   4.055  13.303 -1.8802  1.4450  0.8993
   11MPD2    H214027   0.120   3.980  13.646  1.9456  0.3432 -0.9352
   11MPD2    H314028   4.740   3.898  13.467  2.4098 -0.3989  1.8342
   11MPD2     N14029   4.656   4.318  13.305  0.2769 -0.2508  0.0217
   11MPD2    H514030   4.625   4.278  13.217 -0.2125  0.4623 -0.1301
   11MPD2    N114031   0.185   4.233  13.697 -0.2642  0.3537 -0.4088
   11MPD2    H714032   0.186   4.334  13.711 -0.5016  0.1768  0.8659
    1MPD1     C14033   2.716   0.935  17.244 -0.2592 -0.1084  0.6983
    1MPD1    C114034   2.824   0.986  17.321 -0.8988 -0.0378  0.7302
    1MPD1    C214035   2.844   0.933  17.449 -0.4927  0.2034  0.3325
    1MPD1    C314036   2.754   0.829  17.496 -0.1296 -0.1498 -0.3484
    1MPD1    C414037   2.646   0.788  17.415  0.3454 -0.2493  0.1220
    1MPD1    C514038   2.630   0.832  17.288  0.0691  0.1273  0.2295
    1MPD1     H14039   2.925   0.976  17.506  0.1685  0.5279 -0.8505
    1MPD1    H114040   2.581   0.706  17.441 -0.1734 -0.2343 -1.1578
    1MPD1    H214041   2.693   0.974  17.146  0.5439  0.7418  0.8505
    1MPD1    H314042   2.547   0.799  17.227  1.0157 -1.9858  0.0657
    1MPD1     N14043   2.771   0.770  17.626  0.2237  0.5864 -0.1433
    1MPD1    H514044   2.697   0.704  17.649  1.2696 -0.3607  0.5089
    1MPD1    N114045   2.897   1.097  17.280 -0.0097  0.2069  0.2698
    1MPD1    H614046   2.927   1.099  17.183  0.4978  2.4699  0.4718
    1MPD1    H714047   2.982   1.112  17.334 -0.9135  0.1575  1.6884
    2MPD1     C14048   2.260   0.089   0.210 -0.1044 -0.2978  0.4183
    2MPD1    C114049   2.383   0.032   0.171 -0.2268  0.1058 -0.1755
    2MPD1    C214050   2.493   0.119   0.187 -0.0505 -0.0538 -0.7478
    2MPD1    C314051   2.480   0.259   0.208  0.4659  0.0374  0.6519
    2MPD1    C414052   2.360   0.315   0.219  0.4008  0.0393  0.2335
    2MPD1    C514053   2.254   0.225   0.233  0.3929 -0.3729  0.6285
    2MPD1     H14054   2.590   0.075   0.168  0.9655  1.9075  0.0319
    2MPD1    H114055   2.337   0.420   0.230  1.4180  0.0495  2.3909
    2MPD1    H214056   2.170   0.030   0.220  0.3103 -0.8218  1.0603
    2MPD1    H314057   2.158   0.257   0.273 -0.0292  0.1998 -0.8652
    2MPD1     N14058   2.597   0.333   0.194  0.4013 -0.3119 -0.7764
    2MPD1    H514059   2.680   0.275   0.192 -0.0938 -1.1019  1.5073
    2MPD1    N114060   2.394   4.633   0.152  0.2140 -0.2913 -0.2472
    2MPD1    H614061   2.474   4.616   0.091  1.6020  0.2719  1.4022
    2MPD1    H714062   2.316   4.596   0.099  0.7242 -0.1729 -1.0815
    3TMC3    C114063   2.744   0.508   0.157 -0.1747  0.0300 -0.8179
    3TMC3    C214064   2.849   0.427   0.183 -0.2413  0.5074  0.0713
    3TMC3    C314065   2.976   0.474   0.141 -0.1603  0.2041  0.2302
    3TMC3    C414066   2.761   0.626   0.092 -0.1114  0.0496 -0.2334
    3TMC3    C514067   2.882   0.666   0.049  0.1661  0.0035 -0.2347
    3TMC3    C614068   2.997   0.596   0.072  0.6946  0.0779  0.4169
    3TMC3     C14069   2.603   0.467   0.179  0.2287  0.0929 -0.2672
    3TMC3     O14070   2.511   0.537   0.145  0.3581  0.2581 -0.7938
    3TMC3     H14071   2.841   0.330   0.230  1.9836  0.6880  0.7974
    3TMC3    H114072   2.676   0.692   0.077  0.0458  0.1004 -0.9105
    3TMC3    H214073   3.090   0.645   0.045  0.1176  0.5387 -0.7206
    3TMC3    C714074   2.886   0.765  17.704  0.1457  0.1818  0.6902
    3TMC3    C814075   3.088   0.384   0.171 -0.3376 -0.3450  0.2603
    3TMC3    O114076   2.991   0.817  17.669 -0.1681 -0.7302  0.4723
    3TMC3    O214077   3.082   0.321   0.277  0.6943 -0.4258 -0.1621
    4MPD1     C14078   3.583   0.270   0.144  0.2145 -0.0108 -0.0767
    4MPD1    C114079   3.560   0.350   0.033  0.5753 -0.1148 -0.0395
    4MPD1    C214080   3.431   0.388   0.013  0.3649 -0.1043  0.2702
    4MPD1    C314081   3.332   0.355   0.106  0.1019 -0.0454  0.2070
    4MPD1    C414082   3.366   0.281   0.219 -0.4276 -0.0672  0.6584
    4MPD1    C514083   3.492   0.237   0.234 -0.3747 -0.3111  0.3286
    4MPD1     H14084   3.398   0.461  17.697 -0.1985  0.3991  1.0187
    4MPD1    H114085   3.296   0.269   0.301 -0.0202 -0.5605  0.9349
    4MPD1    H214086   3.683   0.232   0.166  1.2819  1.8360 -1.7508
    4MPD1    H314087   3.529   0.177   0.316  0.2418 -0.2777  0.0816
    4MPD1     N14088   3.202   0.404   0.090 -0.1269  0.0387  0.4213
    4MPD1    H514089   3.184   0.460   0.007  0.9361 -2.1183 -1.2814
    4MPD1    N114090   3.644   0.355  17.679 -0.1003  0.7818 -0.2126
    4MPD1    H614091   3.743   0.373  17.698  0.1996 -0.4479 -0.6245
    4MPD1    H714092   3.614   0.425  17.612 -2.0079  0.3144  0.1608
    1TCq1    O114093   3.350   1.256  11.946 -0.1986  0.0343 -0.1616
    1TCq1    C114094   3.285   1.232  12.065 -0.1895  0.4890  0.3710
    1TCq1    O214095   3.233   1.318  12.133 -0.5124 -0.6970 -0.1925
    1TCq1    C214096   3.242   1.101  12.071  0.5065  0.0991  0.2264
    1TCq1    C314097   3.288   1.007  11.979  0.2143  0.5672 -0.3789
    1TCq1    C414098   3.211   0.894  11.959  0.5962 -0.0626 -0.6092
    1TCq1    C514099   3.084   0.894  12.005 -0.0495 -0.2274  0.0368
    1TCq1    C614100   3.046   0.988  12.097 -0.7367  0.1671 -0.2852
    1TCq1    C714101   3.121   1.092  12.131  0.3234 -0.3044  0.2244
    1TCq1    C814102   2.927   0.957  12.180 -0.3804 -0.1240 -0.2660
    1TCq1    O414103   2.878   0.845  12.160  0.3343 -1.1620 -0.2706
    1TCq1    C914104   3.236   0.810  11.842 -0.0380 -0.3882  0.4752
    1TCq1    O514105   3.339   0.842  11.777  0.1897  0.5855  0.2121
    1TCq1    O614106   3.148   0.731  11.794  0.3300  0.3910 -0.1708
    1TCq1    H114107   3.351   1.177  11.887  0.4875  0.2508 -0.4385
    1TCq1    H214108   3.389   1.005  11.939  0.8342  1.5459  1.1456
    1TCq1    H314109   3.014   0.814  11.981 -1.1978  1.3341 -1.7934
    1TCq1    H414110   3.104   1.156  12.216 -0.8327 -1.0046  0.5187
    2MPD1     C14111   2.462   1.102  12.308  0.3210  0.0244  0.0821
    2MPD1    C114112   2.528   1.218  12.280 -0.2938 -0.9463 -0.4704
    2MPD1    C214113   2.659   1.200  12.234  0.0639  0.2675 -0.1777
    2MPD1    C314114   2.724   1.079  12.241  0.4758  0.5474 -0.0885
    2MPD1    C414115   2.659   0.970  12.286 -0.1636  0.1716 -0.0193
    2MPD1    C514116   2.530   0.978  12.320  0.1438  0.3125 -0.0568
    2MPD1     H14117   2.699   1.282  12.176  0.8707  0.3415  0.4950
    2MPD1    H114118   2.707   0.874  12.296  0.6696  0.6875  0.9326
    2MPD1    H214119   2.356   1.098  12.331  0.4436 -2.9531  0.1243
    2MPD1    H314120   2.476   0.888  12.345 -0.8498  0.9567  0.1197
    2MPD1     N14121   2.856   1.070  12.200 -0.3855  0.5124  0.4704
    2MPD1    H514122   2.903   1.155  12.169 -0.5417  0.7110  0.7849
    2MPD1    N114123   2.463   1.344  12.284 -0.1645  0.1359  0.4499
    2MPD1    H614124   2.526   1.424  12.291 -0.1650  0.2343 -0.6657
    2MPD1    H714125   2.405   1.359  12.366 -2.2785 -0.2879 -0.9612
    1TMC1    C114126   1.839   1.320  17.023  0.2943  0.9132  0.2427
    1TMC1    C214127   1.814   1.234  16.918 -0.8306 -0.4325 -0.8329
    1TMC1    C314128   1.814   1.099  16.944 -0.6883 -0.6056 -0.7061
    1TMC1    C414129   1.859   1.270  17.153 -0.1006 -0.4126  0.2679
    1TMC1    C514130   1.849   1.138  17.168 -1.1300  0.5159 -0.8429
    1TMC1    C614131   1.819   1.048  17.067  0.2522  0.0208 -0.2462
    1TMC1     C14132   1.827   1.468  17.001  0.1232  0.0013  0.3163
    1TMC1     O14133   1.758   1.507  16.907  0.7633  0.5274  0.2404
    1TMC1     H14134   1.784   1.268  16.820  1.4597  0.6172 -1.1937
    1TMC1    H114135   1.861   1.349  17.228  0.3438 -2.8946  2.8620
    1TMC1    H214136   1.801   0.944  17.094 -4.0606  0.6170 -0.9662
    1TMC1    C714137   1.862   1.097  17.300 -0.4709 -0.2820 -0.1892
    1TMC1    C814138   1.747   1.019  16.849  0.6810  0.2035 -0.2091
    1TMC1    O114139   1.828   0.991  17.347  0.0556  0.5626  0.0572
    1TMC1    O214140   1.658   0.939  16.871  0.5157  0.0268  0.3608
    1TMC1    O314141   1.957   1.176  17.355  0.2878 -0.4509 -0.2587
    1TMC1    H314142   1.994   1.240  17.290 -0.3189 -0.1791 -0.3399
    1TMC1    O514143   1.799   1.050  16.726 -0.3696  0.4111 -0.4295
    1TMC1    H514144   1.891   1.084  16.732  1.1150 -3.1840 -2.7268
    2MPD1     C14145   1.963   1.969  17.041  0.5855 -0.3091  0.6325
    2MPD1    C114146   2.024   1.904  17.151  0.3742  1.0071  0.1369
    2MPD1    C214147   2.007   1.773  17.165 -1.9042  0.0769  0.0560
    2MPD1    C314148   1.937   1.690  17.070  0.3866  0.3376  0.2993
    2MPD1    C414149   1.878   1.756  16.966 -0.2429 -0.1731 -0.3125
    2MPD1    C514150   1.898   1.890  16.945  0.1863  0.3456 -0.1219
    2MPD1     H14151   2.045   1.719  17.251  0.4884  1.3227 -0.2102
    2MPD1    H114152   1.831   1.698  16.887 -1.1616  0.5719 -0.3163
    2MPD1    H214153   1.962   2.074  17.013 -0.6464 -0.9767 -1.8432
    2MPD1    H314154   1.863   1.931  16.851  0.6601 -0.9204 -0.8361
    2MPD1     N14155   1.916   1.545  17.080 -0.2193 -0.7282 -0.0582
    2MPD1    H514156   1.978   1.495  17.144 -0.6588  0.6333  1.4354
    2MPD1    N114157   2.098   1.980  17.239 -0.0971 -0.5031  0.4551
    2MPD1    H614158   2.119   1.924  17.321 -1.2910 -0.8845  0.4915
    2MPD1    H714159   2.051   2.064  17.272 -0.6114 -0.5626 -0.1170
    1MPD1     C14160   1.062   1.413  10.487 -0.1630 -0.1163  0.3379
    1MPD1    C114161   1.056   1.529  10.562 -0.4061  0.0166 -0.4080
    1MPD1    C214162   1.046   1.520  10.696 -0.2403  0.2395 -0.2499
    1MPD1    C314163   1.039   1.401  10.762  0.0163 -0.7911  0.1437
    1MPD1    C414164   1.043   1.287  10.688 -0.0894  0.4744  0.0099
    1MPD1    C514165   1.043   1.295  10.547  0.1404 -0.0110 -0.2335
    1MPD1     H14166   1.034   1.614  10.748 -1.0649  1.0605 -1.9363
    1MPD1    H114167   1.025   1.187  10.724  1.4230  0.5803  1.0355
    1MPD1    H214168   1.063   1.420  10.378  0.5539  0.4338  0.3753
    1MPD1    H314169   1.043   1.206  10.485 -1.3787 -0.3523  0.2730
    1MPD1     N14170   1.008   1.398  10.900  0.2970 -0.8093 -0.1986
    1MPD1    H514171   0.998   1.488  10.945 -1.8504 -0.7289 -0.8276
    1MPD1    N114172   1.060   1.656  10.494  0.1178 -0.4466  0.3799
    1MPD1    H614173   1.076   1.741  10.547  1.0048  0.1293 -0.8031
    1MPD1    H714174   1.092   1.657  10.397  2.8757  1.2939  1.3072
    2MPD1     C14175   3.749   1.332  10.775 -0.4127 -0.0180 -0.1403
    2MPD1    C114176   3.774   1.196  10.780  0.4043  0.8404  0.1671
    2MPD1    C214177   3.903   1.150  10.812  0.2347 -0.6958  0.6780
    2MPD1    C314178   4.005   1.244  10.802  1.0613  0.1136 -0.3168
    2MPD1    C414179   3.976   1.382  10.785  0.2826  0.6590 -0.0803
    2MPD1    C514180   3.846   1.422  10.771  0.1966 -0.5023  0.0891
    2MPD1     H14181   3.922   1.044  10.822 -1.0999 -1.1244 -1.4996
    2MPD1    H114182   4.051   1.460  10.779  1.5620 -0.5381  0.2336
    2MPD1    H214183   3.651   1.377  10.764  0.3684  0.8703 -3.2819
    2MPD1    H314184   3.813   1.524  10.751 -0.4254 -1.2689 -2.8419
    2MPD1     N14185   4.141   1.207  10.832 -0.3597  0.3860  0.2686
    2MPD1    H514186   4.211   1.281  10.826 -1.3188  1.3689  1.1789
    2MPD1    N114187   3.661   1.107  10.779 -0.2928 -0.2284 -0.7742
    2MPD1    H614188   3.688   1.015  10.744  0.2078 -1.1414  2.0038
    2MPD1    H714189   3.587   1.142  10.717 -0.5301  0.7501  0.0646
    3MPD1     C14190   0.040   1.655  10.411  0.2111  0.4454  0.2047
    3MPD1    C114191   0.038   1.678  10.546 -0.2334  0.2330 -0.1576
    3MPD1    C214192   4.732   1.576  10.631 -0.5889 -0.1464  0.5147
    3MPD1    C314193   4.678   1.458  10.578  0.2449 -0.6132  0.0851
    3MPD1    C414194   4.666   1.444  10.440  0.5417  0.2930  0.6949
    3MPD1    C514195   4.712   1.548  10.364 -0.1987  0.2579  0.1286
    3MPD1     H14196   0.004   1.584  10.739 -2.8505 -0.2004  0.7695
    3MPD1    H114197   4.623   1.358  10.389  1.4808 -2.6690  4.9112
    3MPD1    H214198   0.084   1.717  10.334  1.0671  1.7913  1.7889
    3MPD1    H314199   4.699   1.540  10.256 -0.5348  1.2897  0.0978
    3MPD1     N14200   4.635   1.369  10.671  0.3718  0.7726  0.0854
    3MPD1    H514201   4.660   1.396  10.766  1.4129  1.4218 -0.3721
    3MPD1    N114202   0.112   1.783  10.602 -0.6023  0.0392  0.0457
    3MPD1    H614203   0.114   1.857  10.533  2.1867 -0.0304  0.0809
    3MPD1    H714204   0.066   1.819  10.685  2.3659 -0.5168  1.9150
    4MPD2     C14205   0.727   1.124  11.621 -0.1579 -0.2175  0.5683
    4MPD2    C114206   0.750   1.255  11.571  0.0282  0.0015  0.4091
    4MPD2    C214207   0.657   1.352  11.597 -0.3930 -0.4165  0.7338
    4MPD2    C314208   0.539   1.320  11.672 -0.7971 -0.0353  0.4915
    4MPD2    C414209   0.509   1.193  11.708 -0.3784 -0.7671  0.4426
    4MPD2    C514210   0.605   1.096  11.685  0.6095 -0.3943  0.3450
    4MPD2     H14211   0.665   1.451  11.553  0.2722 -0.5479  0.5633
    4MPD2    H114212   0.417   1.153  11.749 -1.7595  4.0980  2.0928
    4MPD2    H214213   0.801   1.046  11.611  1.6946  1.6098 -0.1105
    4MPD2    H314214   0.597   0.993  11.718 -1.9981 -1.2232 -3.0078
    4MPD2     N14215   0.439   1.418  11.703 -0.6195  0.4358 -0.6819
    4MPD2    H514216   0.349   1.390  11.741 -0.2913  0.9615  0.4906
    4MPD2    N114217   0.870   1.289  11.502  0.8666  0.1847 -0.1320
    4MPD2    H714218   0.880   1.385  11.473 -2.2071  0.4900 -0.1716
    5TMC3    C114219   1.028   1.287  11.344  1.0909  0.6336 -0.4523
    5TMC3    C214220   1.006   1.238  11.219  0.9195  0.6832  0.5057
    5TMC3    C314221   0.981   1.334  11.119  0.3627  0.0732  0.5906
    5TMC3    C414222   1.027   1.427  11.360  0.2269  0.5896 -0.2943
    5TMC3    C514223   0.982   1.514  11.269  0.1874  0.1135 -0.1936
    5TMC3    C614224   0.952   1.471  11.136  0.4537  1.0708  0.6905
    5TMC3     C14225   0.953   1.205  11.442  0.2124  0.0426  0.1833
    5TMC3     O14226   0.944   1.082  11.434 -0.5057  0.5634 -0.0199
    5TMC3     H14227   1.021   1.135  11.189 -0.3922  1.6787 -3.6027
    5TMC3    H114228   1.057   1.465  11.458 -0.3837  2.7479 -0.9496
    5TMC3    H214229   0.892   1.534  11.072 -0.1288 -1.1754 -0.9933
    5TMC3    C714230   0.904   1.623  11.330  0.1754 -0.1113 -0.5683
    5TMC3    C814231   0.993   1.289  10.979 -0.1952  0.3066 -0.3110
    5TMC3    O114232   0.884   1.607  11.450 -0.0022 -0.0837 -0.6972
    5TMC3    O214233   0.999   1.170  10.955  0.1584  0.6038  0.3868
    6TMC3    C114234   4.331   1.086  10.863  0.0067  0.7159 -0.3100
    6TMC3    C214235   4.410   1.109  10.753  0.0027 -0.5968  0.3989
    6TMC3    C314236   4.518   1.194  10.773 -0.0876 -0.1563  0.1498
    6TMC3    C414237   4.367   1.137  10.987  0.1771  0.4845  0.1132
    6TMC3    C514238   4.484   1.208  11.004 -0.1185  0.6730  0.3450
    6TMC3    C614239   4.568   1.234  10.896 -0.7855 -0.4627 -0.2011
    6TMC3     C14240   4.188   1.081  10.833 -0.8346 -0.6366 -0.2593
    6TMC3     O14241   4.142   0.973  10.801  0.1294  0.0515 -0.4919
    6TMC3     H14242   4.369   1.098  10.653 -0.1525 -2.8034  0.7067
    6TMC3    H114243   4.296   1.138  11.069 -0.9743 -0.0675 -0.8748
    6TMC3    H214244   4.649   1.305  10.912  0.5912 -2.2205  0.6666
    6TMC3    C714245   4.518   1.275  11.129 -0.3195  0.4345 -0.2291
    6TMC3    C814246   4.557   1.257  10.647 -0.3627 -0.3318  0.0039
    6TMC3    O114247   4.586   1.377  11.120 -0.7463  0.0674 -0.4965
    6TMC3    O214248   4.520   1.213  10.538  0.1671  0.2248  0.6236
    7MPD2     C14249   0.567   2.000  11.326  0.5944  0.5199 -0.1482
    7MPD2    C114250   0.581   1.891  11.417 -0.2892  0.7451 -0.0062
    7MPD2    C214251   0.684   1.807  11.386  0.2692 -0.0723 -0.4344
    7MPD2    C314252   0.769   1.819  11.279 -0.0018 -0.0760 -0.2630
    7MPD2    C414253   0.759   1.925  11.198  0.0569 -0.7573 -0.0151
    7MPD2    C514254   0.666   2.022  11.232  0.6877  0.3093  0.0227
    7MPD2     H14255   0.702   1.723  11.453  1.1053  1.0441  0.7340
    7MPD2    H114256   0.835   1.945  11.123  1.4734 -3.0559  0.8007
    7MPD2    H214257   0.495   2.080  11.339  0.2577  0.2074 -0.0888
    7MPD2    H314258   0.663   2.120  11.184 -0.8054  1.2285  1.9993
    7MPD2     N14259   0.867   1.728  11.246  0.1293 -0.2146 -0.4209
    7MPD2    H514260   0.908   1.725  11.153 -0.8950  0.7776 -0.9054
    7MPD2    N114261   0.492   1.868  11.524  0.7188 -0.5520  0.0506
    7MPD2    H714262   0.518   1.791  11.585  1.7755 -0.9431 -0.8810
    8TMC3    C114263   0.284   1.832  11.616 -0.1847 -0.6589  0.1540
    8TMC3    C214264   0.177   1.774  11.547  0.2744 -0.0584 -0.1546
    8TMC3    C314265   0.141   1.642  11.579  0.9345 -0.3845 -0.7277
    8TMC3    C414266   0.350   1.756  11.707  0.3328  0.0309 -0.3496
    8TMC3    C514267   0.325   1.620  11.720 -0.4328  0.3859 -0.2225
    8TMC3    C614268   0.217   1.560  11.655 -0.1783 -0.3169 -0.7142
    8TMC3     C14269   0.368   1.923  11.540 -0.2234 -0.3603  0.0259
    8TMC3     O14270   0.316   2.019  11.482 -0.0560 -0.2666 -0.0779
    8TMC3     H14271   0.119   1.824  11.471  0.8813 -0.6244 -0.9915
    8TMC3    H114272   0.433   1.789  11.769 -0.2580  2.3699 -0.8231
    8TMC3    H214273   0.191   1.457  11.674  0.4187 -0.5870 -1.3420
    8TMC3    C714274   0.449   1.552  11.688 -0.0141 -0.1597 -0.1533
    8TMC3    C814275   0.042   1.576  11.502 -0.4261 -0.0147 -0.1233
    8TMC3    O114276   0.549   1.614  11.656  0.2162 -0.5051 -0.1213
    8TMC3    O214277   0.009   1.619  11.396 -0.2551  0.1663  0.3251
    9MPD2     C14278   4.561   1.317  11.630  0.5203 -0.3785  0.4795
    9MPD2    C114279   4.626   1.383  11.529 -0.5424 -0.8560  0.7501
    9MPD2    C214280   4.602   1.360  11.400  0.0273 -0.5305  0.2099
    9MPD2    C314281   4.502   1.271  11.373 -1.3472  0.4447  0.7237
    9MPD2    C414282   4.427   1.216  11.471 -0.1666  0.2995 -0.3458
    9MPD2    C514283   4.462   1.232  11.598 -0.1746 -1.1009 -1.0451
    9MPD2     H14284   4.665   1.400  11.322  1.2269 -0.7235  1.0842
    9MPD2    H114285   4.339   1.157  11.448  0.9334 -0.9259 -1.3749
    9MPD2    H214286   4.585   1.336  11.734  0.4693 -1.8925  0.7663
    9MPD2    H314287   4.389   1.205  11.674  1.1587 -2.3680 -0.2056
    9MPD2     N14288   4.467   1.227  11.248  0.2858  0.0052 -0.4046
    9MPD2    H514289   4.395   1.156  11.243  2.0353 -2.0234  3.4290
    9MPD2    N114290   4.723   1.474  11.576  0.0766  0.2045  0.4940
    9MPD2    H714291   4.740   1.478  11.676 -1.4052 -1.8053  0.8135
    1MPD1     C14292   0.299   4.374  16.914  0.6012 -0.0706  0.3460
    1MPD1    C114293   0.302   4.430  16.789  0.1986  0.5745  0.3547
    1MPD1    C214294   0.238   4.361  16.685 -0.0769  0.1409 -0.0451
    1MPD1    C314295   0.190   4.235  16.695  0.9775 -0.6307  0.1969
    1MPD1    C414296   0.204   4.178  16.816  0.7849 -0.1222  0.0964
    1MPD1    C514297   0.253   4.249  16.923 -0.2534  0.2596  1.0568
    1MPD1     H14298   0.229   4.408  16.587  1.8485 -0.0362 -0.2995
    1MPD1    H114299   0.175   4.077  16.844  1.2031 -0.2784 -0.0321
    1MPD1    H214300   0.326   4.423  17.007  0.3312 -1.0994  0.9694
    1MPD1    H314301   0.272   4.195  17.015  0.8992  0.3895  0.8971
    1MPD1     N14302   0.135   4.158  16.586  0.0303  0.1389 -0.1426
    1MPD1    H514303   0.113   4.061  16.605  1.5470 -0.4208 -1.2623
    1MPD1    N114304   0.328   4.570  16.782  0.1087 -0.5407  0.1628
    1MPD1    H614305   0.377   4.608  16.863 -1.0207 -1.7674  1.4152
    1MPD1    H714306   0.358   4.600  16.689 -0.5823 -1.9742 -0.5219
    2TMC2    C114307   0.001   4.075  16.147  0.5024  0.5383 -0.1578
    2TMC2    C214308   4.636   4.006  16.195 -0.3571 -0.3231  0.2832
    2TMC2    C314309   4.641   3.955  16.321 -0.0550 -0.2943  1.0143
    2TMC2    C414310   0.100   4.115  16.233 -0.1947  0.5743 -0.3570
    2TMC2    C514311   0.085   4.085  16.368 -0.1963 -0.5136  0.2156
    2TMC2    C614312   4.725   4.011  16.416  0.0285 -0.5623 -0.6520
    2TMC2     C14313   0.026   4.101  16.008  0.3417 -0.3047 -0.0592
    2TMC2     O14314   0.092   4.202  15.987 -0.6018  0.3031 -0.5006
    2TMC2     H14315   4.559   3.978  16.124 -1.9209  0.2334  1.7740
    2TMC2    H114316   0.186   4.172  16.201 -2.1391  3.2785 -0.7698
    2TMC2    H214317   4.730   3.968  16.516 -0.1729 -0.1748 -0.4775
    2TMC2    C714318   0.135   4.194  16.453  0.2243  0.3017 -0.3608
    2TMC2    C814319   4.516   3.895  16.366  0.3068  0.0421 -0.4484
    2TMC2    O114320   0.177   4.294  16.398  0.3526 -0.1815  0.2706
    2TMC2    O214321   4.431   3.837  16.302  0.3235 -0.0071 -0.4021
    2TMC2    O514322   4.508   3.908  16.498  0.1722  0.0845  0.1814
    2TMC2    H514323   4.543   3.994  16.530 -0.0462 -0.5767  2.1791
    3MPD1     C14324   4.735   3.977  15.513 -0.1387  0.3379 -0.0373
    3MPD1    C114325   4.668   3.879  15.581  0.4951 -0.0978  0.2216
    3MPD1    C214326   4.671   3.896  15.720  0.5300 -0.3681  0.3842
    3MPD1    C314327   4.714   4.006  15.780 -0.3319  0.3349 -0.2289
    3MPD1    C414328   0.030   4.108  15.711  0.5485  0.1678 -0.8514
    3MPD1    C514329   0.048   4.089  15.579 -1.1373 -0.0946  0.3823
    3MPD1     H14330   4.626   3.821  15.784  0.0566  1.1149  1.8017
    3MPD1    H114331   0.065   4.202  15.752  0.3383  0.4665 -1.3502
    3MPD1    H214332   0.020   3.965  15.409  0.8023  1.8469  0.0080
    3MPD1    H314333   0.108   4.160  15.524 -1.2880  0.2332  0.6358
    3MPD1     N14334   4.711   4.010  15.925  0.1700 -0.3692  1.0074
    3MPD1    H514335   4.664   3.933  15.971 -2.3420 -0.0607 -1.0313
    3MPD1    N114336   4.633   3.759  15.517  0.2235  0.4768 -0.0898
    3MPD1    H614337   4.564   3.709  15.573 -0.0321  1.1708  0.2142
    3MPD1    H714338   4.609   3.765  15.419  0.4353  2.8999  0.0048
    1TMC1    C114339   3.197   4.460  13.360  0.2997 -0.6948 -0.6031
    1TMC1    C214340   3.211   4.529  13.237 -0.0534 -0.6369 -0.3751
    1TMC1    C314341   3.089   4.553  13.176 -0.0864  0.0032 -0.0933
    1TMC1    C414342   3.081   4.429  13.420 -0.2307  0.2293 -0.6167
    1TMC1    C514343   2.971   4.457  13.353 -0.4092  0.4538  0.1065
    1TMC1    C614344   2.973   4.523  13.229 -0.7114 -0.2944  1.0759
    1TMC1     C14345   3.325   4.450  13.428  0.0843 -0.5220  0.0875
    1TMC1     O14346   3.411   4.520  13.379  0.3762  0.9333 -0.0329
    1TMC1     H14347   3.305   4.536  13.185 -0.2974 -0.3934 -0.7839
    1TMC1    H114348   3.080   4.393  13.522 -0.3787  0.4912 -0.5239
    1TMC1    H214349   2.873   4.540  13.190 -0.0467  2.3813  0.5610
    1TMC1    C714350   2.836   4.423  13.409 -0.3049 -0.6872 -0.3963
    1TMC1    C814351   3.100   4.585  13.034 -0.7818 -0.4655  0.3964
    1TMC1    O114352   2.732   4.489  13.390  0.3885 -0.4129 -0.0479
    1TMC1    O214353   3.188   4.644  12.975 -0.5215 -0.3252 -0.7444
    1TMC1    O314354   2.851   4.315  13.480  0.0935 -0.4655  0.6169
    1TMC1    H314355   2.934   4.272  13.448  0.8138  2.2518 -1.2197
    1TMC1    O514356   3.019   4.498  12.975 -0.4880  0.0585 -0.1482
    1TMC1    H514357   2.970   4.436  13.034 -0.1081  0.6804  0.8141
    2MPD2     C14358   3.570   4.368  13.577 -0.0957  0.1548 -0.3926
    2MPD2    C114359   3.443   4.327  13.611 -0.0012  0.3275  0.6834
    2MPD2    C214360   3.431   4.266  13.735  0.2789 -0.4831 -0.1190
    2MPD2    C314361   3.538   4.213  13.811 -0.3816 -0.2857  0.2452
    2MPD2    C414362   3.668   4.244  13.766  0.5367 -0.0569  0.1011
    2MPD2    C514363   3.678   4.331  13.653  0.5314 -0.2101  0.4991
    2MPD2     H14364   3.331   4.246  13.771 -0.8720  1.9292 -1.9534
    2MPD2    H114365   3.758   4.214  13.819  1.5110  0.2664 -1.3680
    2MPD2    H214366   3.578   4.431  13.489 -1.8518  0.1327 -0.5626
    2MPD2    H314367   3.777   4.371  13.636  0.1252  0.0543 -1.2775
    2MPD2     N14368   3.502   4.151  13.935 -0.3322  0.1633  0.3817
    2MPD2    H514369   3.404   4.163  13.957 -0.0330  2.1996  0.6328
    2MPD2    N114370   3.328   4.366  13.537  0.1734  0.3577  0.3209
    2MPD2    H714371   3.236   4.337  13.569  0.3251 -1.4273 -0.8544
    3TCq1    O114372   3.784   3.833  14.357  0.0192 -0.1328  0.5855
    3TCq1    C114373   3.730   3.926  14.445 -0.6178  0.4075  0.0647
    3TCq1    O214374   3.771   3.959  14.556 -0.0286 -0.3706 -0.7281
    3TCq1    C214375   3.622   3.988  14.370  0.4873  0.1441 -0.6757
    3TCq1    C314376   3.511   4.021  14.428 -0.1187  0.1463 -0.6334
    3TCq1    C414377   3.409   4.080  14.357 -0.1199  0.1021  0.2825
    3TCq1    C514378   3.427   4.123  14.228 -0.4735  0.0295 -0.0520
    3TCq1    C614379   3.551   4.094  14.174  0.4618  0.4321  0.3574
    3TCq1    C714380   3.645   4.021  14.243  0.1817 -0.1221  0.1350
    3TCq1    C814381   3.597   4.122  14.035 -0.7238  0.4703 -0.2386
    3TCq1    O414382   3.718   4.121  14.012 -0.3227 -0.6609 -0.3374
    3TCq1    C914383   3.281   4.116  14.408  0.8991 -0.7908 -0.1827
    3TCq1    O514384   3.255   4.062  14.525 -0.2971  0.2795  0.1968
    3TCq1    O614385   3.226   4.212  14.351 -0.3004  0.4475 -0.0764
    3TCq1    H114386   3.725   3.817  14.281 -1.1747 -0.3357  1.5502
    3TCq1    H214387   3.503   4.009  14.536  0.5624 -0.8648 -0.6946
    3TCq1    H314388   3.356   4.162  14.156 -1.9604  1.6459  2.3003
    3TCq1    H414389   3.741   4.011  14.195 -0.4714  2.1668 -1.6349
    1MPD2     C14390   3.374   0.902  14.504 -0.0662  0.3202  0.1547
    1MPD2    C114391   3.333   0.787  14.565  0.3037  0.1192  0.4852
    1MPD2    C214392   3.419   0.716  14.646  0.5839  0.1993 -0.2156
    1MPD2    C314393   3.542   0.765  14.679 -0.4132  0.1279 -0.7974
    1MPD2    C414394   3.585   0.884  14.620  0.0837  0.5544  1.0073
    1MPD2    C514395   3.499   0.957  14.545 -0.4374  0.4535 -0.0383
    1MPD2     H14396   3.383   0.629  14.700 -0.6470  0.6997 -0.2373
    1MPD2    H114397   3.684   0.927  14.639 -1.2456  3.0685  2.3280
    1MPD2    H214398   3.313   0.957  14.433 -1.5221 -0.4842  0.8006
    1MPD2    H314399   3.538   1.040  14.488 -0.9015  0.2950 -0.5931
    1MPD2     N14400   3.618   0.686  14.763 -0.4931  0.7419 -0.3712
    1MPD2    H514401   3.586   0.592  14.786 -1.3338  1.3555  0.9952
    1MPD2    N114402   3.206   0.734  14.523  0.6711 -0.3001 -0.1828
    1MPD2    H714403   3.156   0.791  14.455  1.1243 -0.6555 -0.8224
    2TMC3    C114404   3.027   0.575  14.508 -0.3728 -0.1394  0.7425
    2TMC3    C214405   3.001   0.458  14.566 -0.4631  1.0589  0.5710
    2TMC3    C314406   2.888   0.451  14.642  0.3423  0.0140  0.0957
    2TMC3    C414407   2.942   0.679  14.512 -0.0364 -0.0060 -0.3499
    2TMC3    C514408   2.822   0.661  14.574 -0.2371  0.4257  0.3989
    2TMC3    C614409   2.789   0.553  14.648 -0.1519  0.7194 -0.1243
    2TMC3     C14410   3.161   0.607  14.545 -0.3941  0.5955  0.2845
    2TMC3     O14411   3.211   0.513  14.597  0.1685 -0.0676  0.3022
    2TMC3     H14412   3.055   0.369  14.537 -0.1349  1.0670  1.1546
    2TMC3    H114413   2.972   0.773  14.467  0.3531  0.6074  1.1974
    2TMC3    H214414   2.687   0.546  14.684  0.1730 -0.8501  0.5123
    2TMC3    C714415   2.716   0.758  14.561 -0.4317 -0.5556 -0.4052
    2TMC3    C814416   2.908   0.388  14.768 -0.5295  0.0825  0.8119
    2TMC3    O114417   2.605   0.721  14.533  0.4297 -0.0417 -0.2374
    2TMC3    O214418   2.812   0.384  14.844 -0.5487 -0.0910  1.0277
    3TCq1    O114419   2.737   1.857  15.110 -0.0306  0.5025  0.4959
    3TCq1    C114420   2.657   1.769  15.048  0.1764  0.2905  0.2392
    3TCq1    O214421   2.543   1.791  15.011 -0.2074 -0.4536  0.1450
    3TCq1    C214422   2.746   1.677  14.968  0.2028  0.3884  0.0254
    3TCq1    C314423   2.859   1.628  15.021  0.4377  0.1307  0.0411
    3TCq1    C414424   2.931   1.530  14.956  0.6125  0.0378  0.0114
    3TCq1    C514425   2.889   1.473  14.838  0.0052  0.1927 -0.2460
    3TCq1    C614426   2.771   1.531  14.790  0.0900  0.4226 -0.2010
    3TCq1    C714427   2.703   1.635  14.849 -0.2795 -0.1061 -0.3239
    3TCq1    C814428   2.694   1.458  14.694  0.5299 -0.5468 -0.0052
    3TCq1    O414429   2.603   1.519  14.640  0.3536 -0.0470  1.0157
    3TCq1    C914430   3.048   1.482  15.014 -0.0330 -0.6954 -0.4221
    3TCq1    O514431   3.089   1.381  14.962 -0.1309 -0.0414 -0.1464
    3TCq1    O614432   3.089   1.539  15.120  0.1704 -0.3069  0.0659
    3TCq1    H114433   2.832   1.848  15.089  0.5695  1.9454  2.5822
    3TCq1    H214434   2.895   1.661  15.117  0.0196 -3.4631  1.4329
    3TCq1    H314435   2.943   1.396  14.783 -2.2181 -1.7562  0.2882
    3TCq1    H414436   2.604   1.668  14.819  0.1015  1.6768  0.3950
    4MPD2     C14437   2.561   1.240  14.545  0.0080 -0.0818 -0.2654
    4MPD2    C114438   2.665   1.224  14.637 -0.6182  0.0119  0.3380
    4MPD2    C214439   2.735   1.103  14.648  0.1792  0.1818 -0.6633
    4MPD2    C314440   2.694   0.998  14.573 -0.2925 -0.0553  0.5429
    4MPD2    C414441   2.583   1.002  14.500 -0.0770 -0.5176  0.4305
    4MPD2    C514442   2.528   1.124  14.477  0.4484 -0.1815  0.1568
    4MPD2     H14443   2.834   1.092  14.690 -0.4981  0.4120  0.9938
    4MPD2    H114444   2.552   0.919  14.437  1.2298  0.1024 -1.0228
    4MPD2    H214445   2.521   1.336  14.517 -1.6881 -1.4002 -2.3130
    4MPD2    H314446   2.444   1.127  14.408 -0.4816 -0.0053  1.3119
    4MPD2     N14447   2.767   0.882  14.580 -0.1338  0.8454  0.0497
    4MPD2    H514448   2.862   0.884  14.616  0.4200  0.5719 -1.3843
    4MPD2    N114449   2.723   1.324  14.712 -0.3160 -0.2364  0.2109
    4MPD2    H714450   2.787   1.299  14.786 -0.8681  0.7807  1.0374
    5TMC2    C114451   3.682   0.403  14.943  0.1932 -0.1846  0.4269
    5TMC2    C214452   3.704   0.433  15.072 -0.2291  0.2085  0.7373
    5TMC2    C314453   3.762   0.554  15.094 -0.0042 -0.0667 -0.6632
    5TMC2    C414454   3.739   0.479  14.845  0.2054 -0.2353 -0.2245
    5TMC2    C514455   3.793   0.603  14.881  0.6013 -0.3582  0.6666
    5TMC2    C614456   3.810   0.643  15.005  0.9755  0.5048  0.1183
    5TMC2     C14457   3.545   0.381  14.908  0.1259 -0.1909  0.3484
    5TMC2     O14458   3.502   0.424  14.807  0.1553  0.1351  0.3305
    5TMC2     H14459   3.645   0.385  15.149  1.2685 -2.6738  0.0758
    5TMC2    H114460   3.740   0.455  14.739 -0.4605 -1.8476  0.1292
    5TMC2    H214461   3.833   0.746  15.028 -2.3537  0.8765  1.7757
    5TMC2    C714462   3.747   0.710  14.794  0.7617  0.7272  0.4230
    5TMC2    C814463   3.733   0.610  15.220  0.8036  0.3037  0.3484
    5TMC2    O114464   3.810   0.814  14.796  0.1722  0.1416  1.1201
    5TMC2    O214465   3.645   0.691  15.227  0.5025 -0.2981 -0.8053
    5TMC2    O514466   3.750   0.507  15.308  0.0614 -0.2401  0.7429
    5TMC2    H514467   3.829   0.458  15.278 -1.2899 -1.9594  0.0103
    6MPD2     C14468   3.051   0.252  15.003  0.3098  0.1038 -0.8317
    6MPD2    C114469   3.109   0.321  14.897  0.6512  0.7320 -0.5808
    6MPD2    C214470   3.247   0.337  14.893 -0.2531  0.5544 -0.0732
    6MPD2    C314471   3.333   0.288  14.994  0.6084 -0.2325  0.5513
    6MPD2    C414472   3.270   0.229  15.102 -0.0419 -0.8622 -0.3100
    6MPD2    C514473   3.129   0.214  15.107 -0.3462 -0.1026 -1.1543
    6MPD2     H14474   3.286   0.388  14.806  0.9701 -0.8423 -0.3379
    6MPD2    H114475   3.323   0.195  15.191  2.9445 -1.0973 -2.1865
    6MPD2    H214476   2.944   0.236  15.013  0.3812  0.7154  0.9921
    6MPD2    H314477   3.086   0.158  15.190 -0.2502 -0.3293 -1.2573
    6MPD2     N14478   3.470   0.319  15.003  0.3372  0.1839  0.1181
    6MPD2    H514479   3.517   0.280  15.085  0.5595  0.8572  0.3072
    6MPD2    N114480   3.041   0.377  14.785 -0.2014 -0.3654  0.1681
    6MPD2    H714481   3.103   0.419  14.717 -1.4063  0.5928 -0.3274
  945NH3     N114482   2.704   4.148  10.956  0.3186  0.3554  0.6815
  945NH3     H214483   2.729   4.079  11.026  1.6984  1.5228  1.3329
  945NH3     H314484   2.797   4.181  10.933 -0.6404  1.0235 -2.2705
  945NH3     H414485   2.669   4.226  11.010 -0.3705  0.3853  0.1982
  946SOD     NA14486   3.254   0.749  11.598 -0.5293  0.1640 -0.3157
  947SOD     NA14487   2.824   2.177  14.020 -0.1631 -0.1512  0.0961
  948SOD     NA14488   2.074   3.790   0.964 -0.1633 -0.8845  0.0791
  949SOD     NA14489   1.637   1.388   7.659  0.3421 -0.3744 -0.1696
  950SOD     NA14490   1.573   4.531   5.724 -0.1470 -0.2689 -0.4206
  951SOD     NA14491   4.248   1.097   3.023 -0.4467 -0.4115 -0.6225
  952SOD     NA14492   2.590   3.445  15.393 -0.2596  0.8841  0.2461
  953SOD     NA14493   4.276   2.302  16.850  0.0604 -0.0828  0.0834
  954SOL     OW14494   1.398   3.484  17.750  0.0570 -0.3220 -0.4626
  954SOL    HW114495   1.428   3.566   0.032 -1.6976 -0.8510  1.9537
  954SOL    HW214496   1.306   3.481   0.017  0.7799  0.2156  2.3557
  955SOL     OW14497   0.296   2.557   6.761  0.3101  0.4688  0.0496
  955SOL    HW114498   0.208   2.587   6.782 -0.0855 -0.0755 -0.8698
  955SOL    HW214499   0.323   2.535   6.850 -0.1966 -0.1674  0.0467
  956SOL     OW14500   0.531   1.233   8.482 -0.8281  0.1997 -0.5934
  956SOL    HW114501   0.625   1.232   8.502 -1.2956  1.1184  1.5607
  956SOL    HW214502   0.531   1.303   8.417 -0.7620  1.3974  0.7040
  957SOL     OW14503   4.396   0.128   9.257 -0.6223 -0.0449 -0.1013
  957SOL    HW114504   4.447   0.071   9.315 -0.1329  0.6363  0.1249
  957SOL    HW214505   4.442   0.110   9.175 -0.1069 -2.2776  0.6570
  958SOL     OW14506   2.931   3.568  15.617 -0.6042 -0.1758 -0.1316
  958SOL    HW114507   2.864   3.635  15.608 -0.8989 -0.3464  0.7459
  958SOL    HW214508   2.941   3.549  15.524 -0.0647 -0.1109 -0.0863
  959SOL     OW14509   4.708   1.125   2.845 -0.0874 -0.5600  0.7067
  959SOL    HW114510   0.005   1.056   2.900  0.5200  0.0497  1.0741
  959SOL    HW214511   4.720   1.200   2.903  0.3280  1.8128 -2.4532
  960SOL     OW14512   1.678   1.741   4.746 -0.1832  0.0369  0.2481
  960SOL    HW114513   1.658   1.797   4.821 -0.2388 -0.8457  0.8890
  960SOL    HW214514   1.611   1.776   4.688  2.0782  0.0711 -2.3374
  961SOL     OW14515   2.472   0.436  14.970  0.8089  0.3687 -0.0791
  961SOL    HW114516   2.505   0.500  14.907  0.8959 -0.2240 -0.6433
  961SOL    HW214517   2.507   0.455  15.057  0.7709  2.3917 -0.5013
  962SOL     OW14518   0.057   2.292   9.051  0.0054  0.4685  0.1980
  962SOL    HW114519   0.141   2.248   9.035 -0.2193  1.0884 -2.6517
  962SOL    HW214520   0.078   2.375   9.092 -0.5961  0.8003 -0.1697
  963SOL     OW14521   2.314   1.324   4.119  0.6554 -0.9120 -0.1063
  963SOL    HW114522   2.221   1.308   4.130  0.5952 -1.6664 -1.7535
  963SOL    HW214523   2.336   1.330   4.212 -0.2596  0.0090  0.0346
  964SOL     OW14524   2.032   1.153  15.658 -0.2241  0.0795  0.4560
  964SOL    HW114525   2.106   1.168  15.599  0.7229 -0.7259  1.4669
  964SOL    HW214526   2.000   1.067  15.633  1.7177 -0.3554 -0.5310
  965SOL     OW14527   1.306   0.107   7.597  0.5568  0.7296 -0.6125
  965SOL    HW114528   1.387   0.055   7.597 -1.4333 -2.3602 -3.4214
  965SOL    HW214529   1.302   0.138   7.506 -0.7286  0.8038 -0.5311
  966SOL     OW14530   3.695   1.442   3.034 -0.1883  0.3675  0.5995
  966SOL    HW114531   3.647   1.395   2.966  0.4656 -0.2111  0.5393
  966SOL    HW214532   3.728   1.506   2.971  2.0604 -0.4748  0.9414
  967SOL     OW14533   0.162   3.103   8.408 -0.2297 -0.5888 -0.1972
  967SOL    HW114534   0.158   3.025   8.462  5.2245 -0.5848  0.2105
  967SOL    HW214535   0.152   3.057   8.324 -1.6266  0.2527 -0.4967
  968SOL     OW14536   4.316   4.392   6.390 -0.1528 -0.2629 -0.1526
  968SOL    HW114537   4.232   4.350   6.412 -0.4076  1.1430  1.5108
  968SOL    HW214538   4.308   4.484   6.415  0.7863 -0.8301  2.2047
  969SOL     OW14539   3.530   1.789   9.730 -0.1660 -0.0345  0.2471
  969SOL    HW114540   3.518   1.882   9.709  0.6731 -0.8844 -3.9634
  969SOL    HW214541   3.451   1.745   9.699 -1.1085  2.2992 -0.6508
  970SOL     OW14542   4.194   3.700   4.153 -0.1320  0.6306  0.6667
  970SOL    HW114543   4.136   3.774   4.171  0.7453  1.3942  0.3550
  970SOL    HW214544   4.138   3.667   4.083 -0.6253  0.6561  1.0517
  971SOL     OW14545   2.195   4.430   2.974  0.1891 -0.7484  0.6587
  971SOL    HW114546   2.259   4.466   3.036 -0.0171 -0.8138  0.9085
  971SOL    HW214547   2.246   4.447   2.895 -0.0635  1.8498  1.0597
  972SOL     OW14548   1.256   4.455   1.166 -0.1909 -0.6255  0.4189
  972SOL    HW114549   1.312   4.383   1.136  2.5632  0.9435  1.7838
  972SOL    HW214550   1.314   4.492   1.232 -2.5813 -0.6689  2.5374
  973SOL     OW14551   3.148   4.287   0.458  0.0935 -0.7424  0.0319
  973SOL    HW114552   3.098   4.299   0.377  1.9301  0.6590 -0.9071
  973SOL    HW214553   3.162   4.379   0.482 -1.8453 -0.1049 -1.2204
  974SOL     OW14554   1.366   3.512  10.387  0.2606  0.1325  0.1333
  974SOL    HW114555   1.349   3.603  10.363 -1.1986  0.0439  0.8122
  974SOL    HW214556   1.318   3.456  10.325 -0.6508  0.4113  0.5835
  975SOL     OW14557   2.995   4.475   3.988  0.4998  0.1660 -0.8458
  975SOL    HW114558   3.082   4.445   4.016 -1.1002 -2.4926  1.2887
  975SOL    HW214559   2.934   4.410   4.023 -0.9815  1.3100 -1.3211
  976SOL     OW14560   3.076   3.600   7.871  0.3324 -0.3708  0.2769
  976SOL    HW114561   3.159   3.562   7.900  0.2412 -1.5191 -0.9436
  976SOL    HW214562   3.094   3.686   7.908  1.7633  0.6550 -2.8160
  977SOL     OW14563   4.358   4.701   1.293 -0.5676  0.3306  0.2344
  977SOL    HW114564   4.372   4.739   1.380  0.9924 -1.8023  0.9161
  977SOL    HW214565   4.314   4.616   1.305 -0.5736  0.0688 -1.6734
  978SOL     OW14566   0.347   3.540   7.100 -0.2112  0.0454 -0.5509
  978SOL    HW114567   0.299   3.530   7.182  2.3836 -0.3441  0.9099
  978SOL    HW214568   0.345   3.449   7.069  1.1998 -0.9238  2.2119
  979SOL     OW14569   3.059   2.329   0.604  0.4918  0.2498 -0.2203
  979SOL    HW114570   3.137   2.343   0.658 -0.3423 -0.0008  1.0284
  979SOL    HW214571   3.006   2.384   0.661 -0.4224 -0.7215 -0.1377
  980SOL     OW14572   2.989   1.913  15.049 -0.0959  0.4759  0.0447
  980SOL    HW114573   3.003   1.968  14.972  0.3881  0.3791  0.0594
  980SOL    HW214574   3.041   1.970  15.105  1.5684  1.6963 -2.7558
  981SOL     OW14575   2.751   4.677   5.655  0.3493  0.3015  0.2585
  981SOL    HW114576   2.758   4.721   5.740  0.9398 -0.0118  0.3689
  981SOL    HW214577   2.671   4.629   5.677 -0.3991  1.2764 -0.2914
  982SOL     OW14578   1.062   2.728   0.866 -0.2698 -0.7935 -0.3097
  982SOL    HW114579   1.071   2.683   0.950  2.1577 -2.1126 -1.2533
  982SOL    HW214580   1.098   2.816   0.883 -0.2796 -0.3324 -2.7371
  983SOL     OW14581   1.965   1.628  12.550 -0.2975 -0.6254  0.1051
  983SOL    HW114582   2.056   1.616  12.575  0.1718 -2.1664 -2.3501
  983SOL    HW214583   1.981   1.687  12.476  1.0815  0.6951  1.4443
  984SOL     OW14584   0.494   3.620   2.376  0.5594 -0.1181 -0.1847
  984SOL    HW114585   0.526   3.702   2.338 -0.5354 -0.3343 -1.5468
  984SOL    HW214586   0.551   3.613   2.453 -1.3720 -3.1718  0.9594
  985SOL     OW14587   3.356   3.048   9.700 -0.0466  1.0748  0.3406
  985SOL    HW114588   3.388   2.967   9.740  0.0070  0.0871 -1.7270
  985SOL    HW214589   3.263   3.027   9.706  0.0144  0.1204 -2.0501
  986SOL     OW14590   1.320   1.321   6.432  0.2599 -0.4037 -0.3143
  986SOL    HW114591   1.395   1.325   6.373 -0.5028 -0.3208 -1.2999
  986SOL    HW214592   1.333   1.241   6.484  4.0940 -0.3518 -1.2086
  987SOL     OW14593   0.714   1.835  12.561 -0.4164 -0.3922 -0.0470
  987SOL    HW114594   0.753   1.867  12.642 -2.7056  2.0112  0.0945
  987SOL    HW214595   0.628   1.878  12.569  0.2003  0.6522  0.9365
  988SOL     OW14596   0.866   0.034   9.652  0.0057  0.0950  0.1188
  988SOL    HW114597   0.948   4.733   9.624  0.6319  1.3934  0.0767
  988SOL    HW214598   0.882   0.042   9.746 -2.8758  0.4945  0.5897
  989SOL     OW14599   0.588   3.580   7.242  0.7065  0.2449 -0.7551
  989SOL    HW114600   0.587   3.496   7.288 -0.6255  0.2091 -0.8469
  989SOL    HW214601   0.501   3.571   7.202  0.4483 -1.3709  0.1323
  990SOL     OW14602   2.412   1.176   7.868 -0.2453 -0.3271  0.3505
  990SOL    HW114603   2.391   1.170   7.775 -0.1499 -0.0663  0.3135
  990SOL    HW214604   2.328   1.163   7.912 -0.7736 -3.2741 -1.4962
  991SOL     OW14605   1.464   1.949   3.907  0.6138 -0.4891  0.6427
  991SOL    HW114606   1.459   2.004   3.985  1.4440  0.9831 -0.3465
  991SOL    HW214607   1.378   1.979   3.876  0.6158 -1.9278 -0.7775
  992SOL     OW14608   1.249   3.118   5.526  0.2179 -0.5612  0.0508
  992SOL    HW114609   1.239   3.036   5.575 -1.0824 -0.6762 -0.4008
  992SOL    HW214610   1.248   3.086   5.435  1.1174  1.4019 -0.6570
  993SOL     OW14611   3.613   3.986   9.857 -0.2478  0.3198  0.5391
  993SOL    HW114612   3.611   3.956   9.948  1.8434  1.2272  0.8910
  993SOL    HW214613   3.698   3.952   9.828 -0.3013 -0.7069  1.6122
  994SOL     OW14614   1.001   2.037   9.291 -0.2313 -0.5710  0.1703
  994SOL    HW114615   1.032   2.102   9.228  0.7928  0.8952  2.2229
  994SOL    HW214616   1.083   2.005   9.327  1.2482  1.2734 -1.5759
  995SOL     OW14617   2.547   3.714   0.628 -0.1903  0.0273 -0.5122
  995SOL    HW114618   2.622   3.712   0.569  2.2264 -2.0795  2.6426
  995SOL    HW214619   2.541   3.807   0.646 -0.8986 -0.2550  0.7464
  996SOL     OW14620   3.175   0.258   5.129  0.1036  0.4946  0.0257
  996SOL    HW114621   3.113   0.272   5.201  1.4405  1.6008  0.9457
  996SOL    HW214622   3.134   0.193   5.072  0.5813  0.7092 -0.5524
  997SOL     OW14623   0.757   0.717  13.302 -0.3895  0.1113 -0.3585
  997SOL    HW114624   0.729   0.728  13.393  2.4467 -0.4121  0.5871
  997SOL    HW214625   0.722   0.631  13.282  0.5619  0.1007 -1.9439
  998SOL     OW14626   4.263   0.628  13.735  0.4524 -0.2179 -0.3786
  998SOL    HW114627   4.274   0.556  13.797 -1.2577 -0.5813 -0.4995
  998SOL    HW214628   4.351   0.665  13.740 -1.0420  3.1447  1.0002
  999SOL     OW14629   2.324   0.974   6.591  0.0088  0.4175  0.8403
  999SOL    HW114630   2.410   1.008   6.618  0.4738  0.0179 -0.1404
  999SOL    HW214631   2.329   0.881   6.610  0.7219  0.4632  0.8731
 1000SOL     OW14632   3.553   3.583   7.878 -0.3842 -0.3908  0.1137
 1000SOL    HW114633   3.507   3.512   7.833  4.7005 -3.6579  0.1454
 1000SOL    HW214634   3.557   3.652   7.811 -2.7007 -0.9613 -0.6058
 1001SOL     OW14635   2.593   1.856   5.479  0.2778 -0.3349  0.6724
 1001SOL    HW114636   2.623   1.917   5.547 -0.3512  0.5795  0.1380
 1001SOL    HW214637   2.552   1.924   5.425  3.3018  0.5097 -0.5660
 1002SOL     OW14638   1.871   3.431   2.960 -0.0903 -0.3901 -0.1304
 1002SOL    HW114639   1.919   3.357   2.997 -1.2641  0.0179  2.2404
 1002SOL    HW214640   1.916   3.438   2.875 -0.6429  1.0457 -0.3053
 1003SOL     OW14641   4.424   0.490  12.367 -0.1624  0.0831 -0.6607
 1003SOL    HW114642   4.449   0.557  12.302 -0.3806  0.4587 -0.3571
 1003SOL    HW214643   4.340   0.527  12.392 -0.8228 -3.1720  1.8336
 1004SOL     OW14644   3.779   1.892   5.434 -0.3221  0.5317 -0.2890
 1004SOL    HW114645   3.715   1.824   5.409 -0.7468  0.9284 -0.2850
 1004SOL    HW214646   3.763   1.965   5.374  1.7752  0.0625 -1.4147
 1005SOL     OW14647   4.362   1.415   3.637  0.0067 -0.0960  0.5024
 1005SOL    HW114648   4.306   1.337   3.632 -0.8154  0.5967 -1.1787
 1005SOL    HW214649   4.305   1.475   3.685  0.3031 -0.3977  1.2235
 1006SOL     OW14650   4.625   4.258   6.422 -0.7663 -0.6457  0.1647
 1006SOL    HW114651   4.581   4.241   6.339 -0.5662  1.6340 -0.4244
 1006SOL    HW214652   4.592   4.345   6.444  2.2613  0.3575  0.8092
 1007SOL     OW14653   0.034   2.696   7.928 -0.6534 -0.0693  0.0609
 1007SOL    HW114654   0.112   2.718   7.877 -0.8845 -0.4672 -0.4694
 1007SOL    HW214655   0.042   2.601   7.943  0.5786  0.0941  0.4153
 1008SOL     OW14656   4.333   0.245  10.655 -0.0642  0.1034 -0.1988
 1008SOL    HW114657   4.398   0.299  10.609 -0.7195  0.8852 -0.2070
 1008SOL    HW214658   4.344   0.164  10.606  1.2376  0.1655 -0.0131
 1009SOL     OW14659   2.260   1.993   1.716  0.1533  0.4466  0.4425
 1009SOL    HW114660   2.230   1.904   1.737  0.6324  0.8266  2.7663
 1009SOL    HW214661   2.353   1.986   1.736  0.0755 -0.9352  0.3179
 1010SOL     OW14662   1.404   2.373   3.457  0.1413 -0.8312  0.5514
 1010SOL    HW114663   1.419   2.344   3.547  0.6185 -1.6897  0.2036
 1010SOL    HW214664   1.358   2.453   3.481 -0.7485 -1.0619 -0.4399
 1011SOL     OW14665   3.066   3.566   5.502  0.2600 -0.6647 -0.3754
 1011SOL    HW114666   3.026   3.482   5.526 -0.1292  0.4530  2.9117
 1011SOL    HW214667   3.153   3.566   5.543  0.0436 -0.9493  0.0841
 1012SOL     OW14668   3.854   1.251   5.637  0.0582 -0.0257 -0.3412
 1012SOL    HW114669   3.786   1.196   5.597 -0.4667  0.5031 -0.1765
 1012SOL    HW214670   3.893   1.305   5.568  3.0663 -1.6913  0.0570
 1013SOL     OW14671   0.249   0.827   6.118  0.1250 -0.2282 -0.1576
 1013SOL    HW114672   0.191   0.903   6.125  0.3885 -0.1011  0.6561
 1013SOL    HW214673   0.211   0.782   6.043 -2.0700  1.2140  0.0753
 1014SOL     OW14674   0.420   1.228   6.675  0.1094  0.1853  0.0686
 1014SOL    HW114675   0.454   1.143   6.646  2.0823  0.6723  0.9354
 1014SOL    HW214676   0.438   1.271   6.592 -2.0306  0.3780 -0.3101
 1015SOL     OW14677   2.464   3.001   6.150  0.4423  0.2928 -0.2603
 1015SOL    HW114678   2.490   3.008   6.059 -1.6643 -0.1850 -0.8993
 1015SOL    HW214679   2.513   2.928   6.187 -0.3991  0.2889  0.8531
 1016SOL     OW14680   2.964   4.106   1.161 -0.1980 -0.3370 -0.1305
 1016SOL    HW114681   2.952   4.059   1.079  0.1762 -1.2841  0.3565
 1016SOL    HW214682   3.052   4.144   1.162 -0.4281  0.2177 -1.3137
 1017SOL     OW14683   2.319   1.786   5.040 -0.7437 -0.3401  0.0335
 1017SOL    HW114684   2.396   1.833   5.070 -1.4432 -0.1181  1.5173
 1017SOL    HW214685   2.338   1.767   4.949 -1.6204 -0.5381 -0.1111
 1018SOL     OW14686   0.135   1.537   2.050  0.0026 -0.4987  0.0065
 1018SOL    HW114687   0.088   1.585   2.119  0.5408 -1.3645  0.9734
 1018SOL    HW214688   0.103   1.569   1.965 -1.2756  2.0681  1.4298
 1019SOL     OW14689   1.876   3.704   8.154  0.1720 -0.8925 -0.7112
 1019SOL    HW114690   1.959   3.702   8.203  0.1846  1.1004 -0.6600
 1019SOL    HW214691   1.835   3.782   8.190 -1.2649 -1.8212 -0.3245
 1020SOL     OW14692   1.136   0.936   3.210  0.2645 -0.1820  0.8019
 1020SOL    HW114693   1.197   0.862   3.219  3.3459  2.0080 -2.0488
 1020SOL    HW214694   1.145   0.943   3.115 -1.9103  2.9147  0.8361
 1021SOL     OW14695   3.071   1.822  13.346  0.1204 -0.2897 -0.4995
 1021SOL    HW114696   3.016   1.889  13.387  1.3038 -0.4360  1.3049
 1021SOL    HW214697   3.039   1.749  13.399 -4.0443  1.0901 -1.0297
 1022SOL     OW14698   0.498   0.256  14.453  0.1875 -0.1455  0.0110
 1022SOL    HW114699   0.439   0.268  14.527 -1.1321 -1.3108 -0.8571
 1022SOL    HW214700   0.457   0.197  14.389  1.5556  0.5133 -1.4729
 1023SOL     OW14701   2.143   0.257   5.584 -0.1324 -0.6493  0.2958
 1023SOL    HW114702   2.120   0.335   5.634 -0.2661 -1.3278  1.2742
 1023SOL    HW214703   2.204   0.305   5.528 -0.4836 -1.2277 -0.5951
 1024SOL     OW14704   3.100   2.382   9.910 -0.1207  0.2736  0.2594
 1024SOL    HW114705   3.038   2.429   9.853 -1.9178 -2.4052  0.0220
 1024SOL    HW214706   3.166   2.450   9.921 -0.1616 -0.0950  2.8035
 1025SOL     OW14707   4.378   4.449   3.914 -0.6052 -0.3151 -0.3811
 1025SOL    HW114708   4.329   4.528   3.892 -0.5291 -0.4858 -1.1722
 1025SOL    HW214709   4.306   4.385   3.916 -1.0281  0.2414  2.5106
 1026SOL     OW14710   4.018   2.837   5.047  0.4102 -1.0172  0.2727
 1026SOL    HW114711   4.048   2.787   5.123  0.7120  1.5899  1.8612
 1026SOL    HW214712   3.960   2.906   5.079  0.2711 -1.3105  0.6508
 1027SOL     OW14713   0.606   2.250   7.250 -0.0853 -0.0414  0.3081
 1027SOL    HW114714   0.632   2.339   7.272  0.0660 -0.3219  1.2371
 1027SOL    HW214715   0.553   2.218   7.323  1.2395 -4.8305 -0.8597
 1028SOL     OW14716   1.426   2.017  16.702  0.0579 -0.0923  0.1145
 1028SOL    HW114717   1.470   2.079  16.760  0.0399  0.4823 -0.4880
 1028SOL    HW214718   1.357   1.989  16.762 -0.4936  0.1110 -0.4126
 1029SOL     OW14719   3.727   4.249   5.994 -0.3653 -0.2072  0.2057
 1029SOL    HW114720   3.705   4.336   6.027  3.0570  0.0813  1.7121
 1029SOL    HW214721   3.736   4.207   6.080 -0.3816 -1.2886 -0.3185
 1030SOL     OW14722   2.521   0.834   6.011 -0.5481 -0.2876 -0.4592
 1030SOL    HW114723   2.532   0.759   6.069 -1.5268  1.4217  1.9558
 1030SOL    HW214724   2.443   0.880   6.041  0.7175  2.4848 -1.3923
 1031SOL     OW14725   3.903   3.554  11.685  0.2109 -0.7064  0.5167
 1031SOL    HW114726   3.969   3.550  11.754  0.6087 -0.8305  0.1314
 1031SOL    HW214727   3.950   3.591  11.609  1.5314 -1.0385  1.1709
 1032SOL     OW14728   3.948   3.310  10.010 -0.3397  0.0686  0.2769
 1032SOL    HW114729   3.994   3.362   9.944 -0.0813  0.7424  0.9970
 1032SOL    HW214730   3.957   3.365  10.087 -0.0357 -0.0783  0.3469
 1033SOL     OW14731   3.278   0.866   8.630  0.1080 -0.7320 -0.4120
 1033SOL    HW114732   3.314   0.947   8.668 -2.4919  0.2168  0.0220
 1033SOL    HW214733   3.296   0.811   8.706  1.2003  0.3084  0.0807
 1034SOL     OW14734   3.088   0.182  15.722  0.2721 -0.1739  0.0202
 1034SOL    HW114735   3.037   0.112  15.763  0.8830 -1.0110 -0.6566
 1034SOL    HW214736   3.169   0.157  15.767  0.2391  0.3101  0.3606
 1035SOL     OW14737   1.403   0.699   8.197  0.4684  0.2561 -0.0696
 1035SOL    HW114738   1.423   0.781   8.241  1.1678 -0.1462  0.3560
 1035SOL    HW214739   1.459   0.633   8.238  0.6867  1.4864  1.5855
 1036SOL     OW14740   3.354   2.281   7.442 -0.0619 -0.8915  0.3971
 1036SOL    HW114741   3.414   2.227   7.392  0.7407 -0.5046  0.9415
 1036SOL    HW214742   3.408   2.307   7.517  1.4008 -1.6037 -0.4147
 1037SOL     OW14743   0.685   0.134   2.731  0.1983  0.3302  0.2896
 1037SOL    HW114744   0.725   0.101   2.651 -0.2965 -0.4563  0.3728
 1037SOL    HW214745   0.620   0.069   2.758 -0.0170 -0.1181 -1.3142
 1038SOL     OW14746   4.239   0.978   2.094 -0.2966  0.6667 -0.0281
 1038SOL    HW114747   4.260   1.003   2.004  0.8104  0.0349  0.0487
 1038SOL    HW214748   4.303   1.035   2.139  0.4703 -0.2492  0.0519
 1039SOL     OW14749   0.247   0.530  12.013  0.0160 -0.1485 -0.0211
 1039SOL    HW114750   0.195   0.565  11.941  1.5760 -1.3664 -1.7423
 1039SOL    HW214751   0.175   0.518  12.076 -1.3803  1.8691 -1.2185
 1040SOL     OW14752   3.708   4.543   3.446  0.0619  0.0468  0.0023
 1040SOL    HW114753   3.631   4.491   3.466  1.6035 -2.4881 -0.7598
 1040SOL    HW214754   3.708   4.535   3.351 -0.7480  1.0524 -0.0911
 1041SOL     OW14755   0.220   2.876   7.135 -0.1288  0.8727  0.2385
 1041SOL    HW114756   0.156   2.884   7.065 -1.3970  0.5468  1.3645
 1041SOL    HW214757   0.216   2.954   7.190 -1.4758  0.2017  1.0770
 1042SOL     OW14758   3.251   2.869  11.857  0.0393  0.5935 -0.7532
 1042SOL    HW114759   3.290   2.922  11.787  1.0327 -0.9542 -1.3856
 1042SOL    HW214760   3.332   2.826  11.884 -0.6280  0.0273  0.3294
 1043SOL     OW14761   1.107   1.009  17.022  0.1234  0.2583  0.3947
 1043SOL    HW114762   1.063   1.009  17.108  1.0063  2.4095  0.8530
 1043SOL    HW214763   1.076   1.089  16.979  2.7046  0.8064 -0.4548
 1044SOL     OW14764   2.888   2.037  16.570  0.2406  0.5830  0.8681
 1044SOL    HW114765   2.956   2.002  16.513 -0.6015 -0.2708  0.3726
 1044SOL    HW214766   2.931   2.031  16.656 -0.5428 -0.9495  1.1609
 1045SOL     OW14767   3.269   2.883   1.406 -0.7268 -0.3867 -0.2064
 1045SOL    HW114768   3.345   2.845   1.449 -1.5424  1.1688  2.6022
 1045SOL    HW214769   3.200   2.817   1.415  0.0318 -1.3841 -1.6581
 1046SOL     OW14770   3.173   4.060   0.087  0.1307 -0.1606 -0.5254
 1046SOL    HW114771   3.227   4.133   0.056 -1.1241  0.4403 -1.3098
 1046SOL    HW214772   3.236   3.999   0.125 -0.4857 -0.1683  0.4999
 1047SOL     OW14773   3.470   1.011  12.744  0.8416  0.1666  0.0422
 1047SOL    HW114774   3.462   1.085  12.683 -0.5523 -0.5528 -0.6418
 1047SOL    HW214775   3.510   0.943  12.690  0.2675 -0.2467  0.1347
 1048SOL     OW14776   0.498   2.197  14.684  0.1008  0.1968 -0.1751
 1048SOL    HW114777   0.579   2.246  14.673 -1.7154  3.1197 -0.5871
 1048SOL    HW214778   0.517   2.159  14.769 -2.3498  1.5637  0.9781
 1049SOL     OW14779   4.160   1.790   4.116  1.0817  0.4310 -0.2361
 1049SOL    HW114780   4.130   1.880   4.106  3.6471  1.2488 -0.4685
 1049SOL    HW214781   4.241   1.800   4.166  1.9025 -2.4219 -0.9921
 1050SOL     OW14782   0.130   2.413  14.574  0.0742 -0.4764 -0.0587
 1050SOL    HW114783   0.206   2.440  14.523 -0.2310 -1.1390 -0.8588
 1050SOL    HW214784   0.076   2.492  14.580  1.5788  0.5607 -0.2633
 1051SOL     OW14785   0.354   4.023   4.234  0.2794  0.0642  0.3451
 1051SOL    HW114786   0.267   4.038   4.199  1.4496 -0.6802 -2.9439
 1051SOL    HW214787   0.339   4.008   4.327 -0.6562 -2.9154 -0.2780
 1052SOL     OW14788   1.352   3.681   7.412 -0.4176 -0.8599 -0.0300
 1052SOL    HW114789   1.264   3.647   7.431 -0.7318  0.0528  0.1471
 1052SOL    HW214790   1.321   3.766   7.380  0.5445 -0.2181  0.7736
 1053SOL     OW14791   2.950   3.126  11.093  0.0409 -0.4974 -0.6124
 1053SOL    HW114792   2.856   3.136  11.105  0.3368  1.0642  0.4446
 1053SOL    HW214793   2.971   3.190  11.025 -0.7278  0.1873 -0.2187
 1054SOL     OW14794   0.395   0.366   7.339 -0.2908  0.3945  0.5318
 1054SOL    HW114795   0.407   0.457   7.311  0.7599  0.2853  0.6080
 1054SOL    HW214796   0.478   0.343   7.381  0.0634 -0.6639 -0.7502
 1055SOL     OW14797   3.108   4.358   2.572  0.3736 -0.5896  0.4339
 1055SOL    HW114798   3.038   4.301   2.605  0.3446  0.3443  1.9626
 1055SOL    HW214799   3.072   4.434   2.616 -3.8323 -2.3717  0.0706
 1056SOL     OW14800   2.827   1.891   2.724  0.2590  0.2707  0.0717
 1056SOL    HW114801   2.779   1.816   2.760  1.2034 -0.6302 -0.5489
 1056SOL    HW214802   2.754   1.947   2.699  0.2346 -0.6165 -1.8444
 1057SOL     OW14803   3.428   2.086  10.767  0.3532  0.8084 -0.1543
 1057SOL    HW114804   3.417   2.087  10.672 -0.6823 -1.9833 -0.0397
 1057SOL    HW214805   3.357   2.143  10.794 -1.4928 -0.9647 -1.3110
 1058SOL     OW14806   2.757   4.046  16.825  0.2621 -0.8294  0.5398
 1058SOL    HW114807   2.832   4.040  16.766  1.5925  2.0659  1.9552
 1058SOL    HW214808   2.762   4.134  16.862  0.9818 -1.0596  1.0003
 1059SOL     OW14809   1.943   4.145   3.657  0.7121  0.3099 -0.0138
 1059SOL    HW114810   1.867   4.093   3.629  0.9436  1.0812 -2.1199
 1059SOL    HW214811   1.977   4.135   3.568  0.2223  0.0627 -0.1775
 1060SOL     OW14812   0.415   2.366   2.300 -0.2995 -0.1267 -0.1768
 1060SOL    HW114813   0.357   2.295   2.272  1.7822 -1.7695 -0.3877
 1060SOL    HW214814   0.506   2.342   2.279 -0.3483 -0.2241 -0.2781
 1061SOL     OW14815   1.542   1.651   4.078 -0.2331  0.3174  0.3702
 1061SOL    HW114816   1.521   1.662   3.985 -2.0665 -0.5892  0.6745
 1061SOL    HW214817   1.463   1.602   4.100 -0.8313  0.8430 -0.5925
 1062SOL     OW14818   0.602   1.539  10.877 -0.5652  0.1481 -0.2536
 1062SOL    HW114819   0.530   1.478  10.893 -0.0253 -0.5220 -0.4037
 1062SOL    HW214820   0.561   1.620  10.907 -0.0268 -0.1168  1.1837
 1063SOL     OW14821   0.470   0.072   2.468  0.1959  0.9783  0.7077
 1063SOL    HW114822   0.452   0.061   2.562  3.0725 -0.0313  1.1489
 1063SOL    HW214823   0.487   0.166   2.460  2.9762  0.4515  0.4395
 1064SOL     OW14824   2.439   3.719  10.567 -0.0109  0.2158  0.2976
 1064SOL    HW114825   2.427   3.793  10.626 -0.5351 -0.3380  0.8888
 1064SOL    HW214826   2.367   3.661  10.591  0.0605 -0.1291 -0.3113
 1065SOL     OW14827   4.329   2.243   3.959  0.8102  0.0052  0.6128
 1065SOL    HW114828   4.266   2.310   3.932 -1.7724 -2.5626  0.3519
 1065SOL    HW214829   4.358   2.275   4.045 -2.1293  0.4039  1.4416
 1066SOL     OW14830   1.645   1.691   0.031 -0.2017  0.1466  0.5727
 1066SOL    HW114831   1.699   1.614   0.013  0.4334  0.6997  0.0666
 1066SOL    HW214832   1.693   1.731   0.103 -1.6465  3.0045 -0.0556
 1067SOL     OW14833   2.349   2.499   2.317  0.3443  0.2498 -0.0227
 1067SOL    HW114834   2.408   2.551   2.371  0.5519 -0.8761  0.8383
 1067SOL    HW214835   2.269   2.552   2.315  0.9374  1.1892  1.2257
 1068SOL     OW14836   2.338   4.451   8.389 -0.3689 -0.5503 -0.1053
 1068SOL    HW114837   2.402   4.506   8.344 -2.0144 -0.8681 -2.8679
 1068SOL    HW214838   2.402   4.420   8.453 -0.7328 -0.6217  0.2242
 1069SOL     OW14839   2.603   0.245  17.127 -0.5189 -0.3920  0.4565
 1069SOL    HW114840   2.559   0.330  17.131  0.6213  0.3378 -2.9913
 1069SOL    HW214841   2.690   0.268  17.095 -0.7605  1.5309  1.1733
 1070SOL     OW14842   4.199   4.219   1.857 -0.1540  0.0172  0.0936
 1070SOL    HW114843   4.132   4.208   1.790 -0.1840  0.8390 -0.0079
 1070SOL    HW214844   4.225   4.311   1.848  0.1450 -0.1532 -0.7216
 1071SOL     OW14845   4.028   4.078   3.308 -0.1718  0.2700 -0.6801
 1071SOL    HW114846   4.037   3.996   3.358 -0.9856  0.3844 -0.3501
 1071SOL    HW214847   3.969   4.044   3.242 -0.3513  2.8632 -1.8418
 1072SOL     OW14848   1.670   3.121   6.544 -0.1411 -0.0925 -0.1172
 1072SOL    HW114849   1.664   3.054   6.612  1.4924  0.9487  1.0435
 1072SOL    HW214850   1.599   3.089   6.489 -1.4348  1.0806  0.8800
 1073SOL     OW14851   1.241   3.964   7.951 -0.3724 -0.0470 -0.2193
 1073SOL    HW114852   1.245   3.974   7.856  1.0000 -2.9620 -0.4547
 1073SOL    HW214853   1.292   3.883   7.950 -0.5902 -0.2325  3.3362
 1074SOL     OW14854   3.559   2.779  10.970  0.0709 -0.4534 -0.5313
 1074SOL    HW114855   3.491   2.837  11.005  1.3008 -0.8580  2.5020
 1074SOL    HW214856   3.544   2.697  11.016 -1.1744 -1.3166 -2.4818
 1075SOL     OW14857   4.545   4.506   3.057  0.3403 -0.1143 -0.0594
 1075SOL    HW114858   4.543   4.444   2.984  1.3582 -1.3005  0.9072
 1075SOL    HW214859   4.628   4.498   3.105 -0.0501  1.5826  0.8912
 1076SOL     OW14860   4.155   3.271  13.024  0.0288  0.3924  0.1172
 1076SOL    HW114861   4.137   3.178  13.013 -1.5911  0.8945 -1.4415
 1076SOL    HW214862   4.250   3.270  13.035 -0.0490 -1.6574  0.6272
 1077SOL     OW14863   0.620   3.429   6.567 -0.5548  0.0264  0.3981
 1077SOL    HW114864   0.595   3.348   6.613  0.9052 -1.6898 -1.8312
 1077SOL    HW214865   0.671   3.484   6.626  1.1690 -1.1121 -0.0227
 1078SOL     OW14866   2.889   4.554   6.591  0.0250  0.5667 -0.1250
 1078SOL    HW114867   2.976   4.542   6.630 -0.5886 -4.8029 -0.3041
 1078SOL    HW214868   2.906   4.609   6.515  1.3582 -0.1819 -0.3707
 1079SOL     OW14869   2.539   4.239   0.771  0.8707  0.2650 -0.2433
 1079SOL    HW114870   2.548   4.287   0.688  2.4832  0.2674 -0.0543
 1079SOL    HW214871   2.522   4.309   0.834 -0.6090  0.4794 -0.8722
 1080SOL     OW14872   3.654   4.345   2.488 -0.4709 -0.3282  0.3965
 1080SOL    HW114873   3.728   4.388   2.531 -0.8721  0.0941  0.6635
 1080SOL    HW214874   3.598   4.350   2.565 -2.9172  0.6087 -1.4608
 1081SOL     OW14875   2.778   2.275   0.796 -0.1326 -0.3546 -0.1106
 1081SOL    HW114876   2.766   2.360   0.754 -0.1922 -0.1058  0.4143
 1081SOL    HW214877   2.805   2.214   0.728  0.3258 -0.9438  0.6050
 1082SOL     OW14878   3.920   4.000   4.738  0.1264 -0.2108 -0.4297
 1082SOL    HW114879   3.828   4.023   4.727 -0.3279 -2.1846 -0.7305
 1082SOL    HW214880   3.911   3.935   4.808 -1.0622  1.1246  0.6569
 1083SOL     OW14881   3.084   0.377  11.699  0.4418  0.0108  0.1307
 1083SOL    HW114882   2.997   0.380  11.657  0.7797 -3.2955 -0.8228
 1083SOL    HW214883   3.111   0.468  11.684 -0.8311  0.0673 -1.8854
 1084SOL     OW14884   3.867   1.938  10.049  0.1634 -0.4673  0.2143
 1084SOL    HW114885   3.816   1.883   9.990 -0.4894  2.4924 -2.0149
 1084SOL    HW214886   3.933   1.877  10.080  0.1722 -1.0663 -0.9938
 1085SOL     OW14887   1.806   2.364   8.213 -0.2081  0.5098 -0.1648
 1085SOL    HW114888   1.899   2.364   8.189 -0.2294  0.2996 -0.2404
 1085SOL    HW214889   1.770   2.315   8.140 -1.3318 -0.1054  0.8020
 1086SOL     OW14890   0.476   2.836   7.094  0.5955  0.5371 -0.1120
 1086SOL    HW114891   0.497   2.912   7.147  1.3780 -0.5536  1.1575
 1086SOL    HW214892   0.381   2.841   7.100  0.4803 -1.3283 -0.1882
 1087SOL     OW14893   0.532   4.196   4.339 -0.4173 -0.1025  0.1675
 1087SOL    HW114894   0.475   4.157   4.273 -0.2377  0.5722 -0.3834
 1087SOL    HW214895   0.563   4.119   4.387 -1.8764 -0.4085  0.6269
 1088SOL     OW14896   3.149   3.323   2.298 -0.2425 -0.0146 -0.4241
 1088SOL    HW114897   3.207   3.292   2.228  2.0625  1.0854  1.0220
 1088SOL    HW214898   3.086   3.251   2.308  1.6712 -1.2387  2.7728
 1089SOL     OW14899   4.653   1.698   2.180 -0.6114  1.2519  0.2815
 1089SOL    HW114900   4.579   1.653   2.139  0.4605  0.2562 -0.5645
 1089SOL    HW214901   4.650   1.648   2.262  0.4350 -0.7035 -0.8729
 1090SOL     OW14902   3.759   4.710   5.006 -0.5460  0.1259 -0.4961
 1090SOL    HW114903   3.752   4.715   4.910 -1.0880 -1.4529 -0.5474
 1090SOL    HW214904   3.701   0.045   5.021 -0.1620  0.5112 -0.9431
 1091SOL     OW14905   1.418   2.627   4.098  0.7391  0.0920  0.7234
 1091SOL    HW114906   1.345   2.568   4.079  0.1661  0.2268  2.4834
 1091SOL    HW214907   1.488   2.564   4.084  2.6646  1.8619  2.4482
 1092SOL     OW14908   3.199   3.989   5.598  0.3036 -0.2497  0.6885
 1092SOL    HW114909   3.183   4.075   5.636  1.5912  1.2765 -2.2011
 1092SOL    HW214910   3.285   4.001   5.558 -0.4268  2.9960  0.0365
 1093SOL     OW14911   1.431   3.024   9.508 -0.2526  0.2927  0.2303
 1093SOL    HW114912   1.498   3.048   9.444 -0.0337  0.5007  0.5369
 1093SOL    HW214913   1.349   3.049   9.466 -1.5251 -0.9155  1.9664
 1094SOL     OW14914   0.892   3.525   7.677  0.2564  0.0527 -0.4717
 1094SOL    HW114915   0.908   3.543   7.770 -2.4976  1.0033 -0.1545
 1094SOL    HW214916   0.811   3.571   7.653 -0.6095  0.0630  2.4396
 1095SOL     OW14917   1.644   2.790   8.509  0.0348  0.1814  0.1081
 1095SOL    HW114918   1.636   2.707   8.461  0.7352  1.4365 -2.1555
 1095SOL    HW214919   1.683   2.838   8.436  1.3085 -0.5723  0.2817
 1096SOL     OW14920   4.180   1.505   8.610 -0.0062  0.0879 -0.3203
 1096SOL    HW114921   4.112   1.544   8.554  0.4403 -1.0648 -1.6519
 1096SOL    HW214922   4.252   1.499   8.547 -0.7116 -3.8655 -0.7416
 1097SOL     OW14923   0.051   1.036   6.994 -0.0951  0.6817  0.1675
 1097SOL    HW114924   0.083   0.990   6.916  1.1707  4.0508 -1.2782
 1097SOL    HW214925   4.712   0.983   6.999 -0.1569  0.5345 -2.4307
 1098SOL     OW14926   0.025   2.137  14.546 -0.2733  0.0005  0.1386
 1098SOL    HW114927   0.115   2.112  14.567 -1.1833  0.1563  4.1592
 1098SOL    HW214928   0.047   2.229  14.531 -1.2512  0.5592  2.1603
 1099SOL     OW14929   0.959   3.650   3.074  0.3384 -0.4525 -0.0731
 1099SOL    HW114930   0.870   3.614   3.075  0.1411  0.0464  0.0859
 1099SOL    HW214931   0.984   3.615   2.989  2.7139  2.1855 -0.4451
 1100SOL     OW14932   0.079   0.327   2.562 -0.0803 -0.3409 -0.3859
 1100SOL    HW114933   0.156   0.369   2.599  0.2523 -0.3712 -1.0557
 1100SOL    HW214934   0.044   0.260   2.621  0.0336  0.3743  0.4907
 1101SOL     OW14935   3.741   1.355   7.496 -0.0277 -0.0979 -0.1557
 1101SOL    HW114936   3.821   1.353   7.443 -0.7319  0.3157 -1.2258
 1101SOL    HW214937   3.745   1.448   7.518  0.9542 -0.2676  0.3757
 1102SOL     OW14938   2.324   2.605   0.428 -0.0204  0.4374 -0.1370
 1102SOL    HW114939   2.379   2.548   0.482  1.7279  1.2190 -1.0790
 1102SOL    HW214940   2.311   2.681   0.485  1.7459 -1.5963  2.9804
 1103SOL     OW14941   4.361   1.742   2.364  0.5138 -0.1958  0.2878
 1103SOL    HW114942   4.285   1.702   2.406  0.4988 -0.0826  0.3678
 1103SOL    HW214943   4.385   1.667   2.310  1.1899  0.9484 -1.0033
 1104SOL     OW14944   3.990   4.370   3.321  0.5088 -0.2044 -0.9091
 1104SOL    HW114945   3.995   4.276   3.341 -0.1907  0.2255  1.1959
 1104SOL    HW214946   3.896   4.386   3.321  0.3242 -1.1986 -3.2064
 1105SOL     OW14947   0.055   0.956   3.458  0.6308 -0.2182  0.0799
 1105SOL    HW114948   4.724   0.932   3.517  0.8825 -1.3416 -0.0854
 1105SOL    HW214949   0.014   1.018   3.397  2.1627 -0.5652 -1.3113
 1106SOL     OW14950   4.271   0.927   5.587 -1.2067 -0.4647  0.0896
 1106SOL    HW114951   4.345   0.878   5.625 -0.7315  0.3777  0.2593
 1106SOL    HW214952   4.233   0.979   5.658  2.2668  0.9961  0.8878
 1107SOL     OW14953   0.556   3.282  16.446 -0.2084  0.1341  0.3417
 1107SOL    HW114954   0.641   3.308  16.412  1.0829  0.4799  3.7844
 1107SOL    HW214955   0.508   3.255  16.368  2.7609 -1.8584 -0.7782
 1108SOL     OW14956   3.753   1.898   1.060 -0.5115  0.1881  0.2035
 1108SOL    HW114957   3.802   1.889   0.978 -0.5421  3.3573 -0.1388
 1108SOL    HW214958   3.773   1.810   1.092 -2.7950 -0.9541 -1.5504
 1109SOL     OW14959   2.422   4.191   7.146  0.0402  0.3185 -0.2624
 1109SOL    HW114960   2.516   4.191   7.131 -0.2772  0.9753 -2.1676
 1109SOL    HW214961   2.404   4.282   7.122 -1.2156  0.1145 -0.0972
 1110SOL     OW14962   3.262   3.619  17.617 -0.4622 -0.2521 -0.5630
 1110SOL    HW114963   3.333   3.595  17.677 -0.0641 -0.2731 -1.0402
 1110SOL    HW214964   3.270   3.714  17.622  1.5250 -0.3971 -0.7318
 1111SOL     OW14965   4.231   2.347  14.853  0.2584  0.0676 -0.2731
 1111SOL    HW114966   4.320   2.314  14.838 -0.1986 -0.5861 -1.4779
 1111SOL    HW214967   4.219   2.333  14.947  0.8462 -0.3562 -0.2538
 1112SOL     OW14968   2.313   3.293   3.280  0.8559 -0.2611 -0.3215
 1112SOL    HW114969   2.277   3.206   3.301  0.5362  0.5096  2.3135
 1112SOL    HW214970   2.280   3.333   3.360 -1.7622 -0.1268 -1.4649
 1113SOL     OW14971   0.359   1.970  11.992 -0.2059  0.3821  0.3272
 1113SOL    HW114972   0.288   1.910  12.013  0.9732 -0.6671  1.3313
 1113SOL    HW214973   0.409   1.955  12.073  0.6779  1.9804  0.0768
 1114SOL     OW14974   4.554   2.036   4.301 -0.2435  1.0172 -0.3252
 1114SOL    HW114975   4.509   1.959   4.267  2.0870 -0.8593  0.8669
 1114SOL    HW214976   4.637   2.032   4.253 -1.8264 -1.5034 -2.7923
 1115SOL     OW14977   2.733   1.238   3.704  0.3481 -0.1131 -0.2906
 1115SOL    HW114978   2.758   1.146   3.691 -0.9568 -0.4388 -0.4262
 1115SOL    HW214979   2.715   1.257   3.612  2.4150  0.8952 -0.4916
 1116SOL     OW14980   3.758   3.160   9.441  0.5624  0.3632 -0.0483
 1116SOL    HW114981   3.683   3.219   9.446  1.0625  0.9858  0.0855
 1116SOL    HW214982   3.764   3.136   9.534 -0.4456  3.0273  0.7351
 1117SOL     OW14983   3.660   3.559   6.091  0.5099  0.3492 -0.4193
 1117SOL    HW114984   3.662   3.463   6.093 -3.8854  0.3408  2.5290
 1117SOL    HW214985   3.746   3.574   6.052  0.2479 -1.6144 -1.7466
 1118SOL     OW14986   0.911   3.866   5.935 -0.3141  0.7233 -0.2359
 1118SOL    HW114987   0.969   3.790   5.931 -1.2178  0.0650 -0.8143
 1118SOL    HW214988   0.922   3.906   6.021  2.4102 -0.8723  0.1495
 1119SOL     OW14989   2.803   1.991  14.164  0.3142  0.2030  0.3312
 1119SOL    HW114990   2.828   1.952  14.247 -0.0688 -3.4255 -1.2819
 1119SOL    HW214991   2.721   1.944  14.151  0.9332 -0.9187  0.4691
 1120SOL     OW14992   4.587   2.549  13.157 -0.2072  0.1503 -0.1404
 1120SOL    HW114993   4.539   2.472  13.126  0.9110 -0.8746  0.6968
 1120SOL    HW214994   4.549   2.626  13.115 -1.1937  0.9798  2.2975
 1121SOL     OW14995   3.023   2.483   5.458 -0.2954  0.2760  0.6920
 1121SOL    HW114996   3.039   2.394   5.427 -0.5652  0.9202 -1.3250
 1121SOL    HW214997   3.115   2.509   5.456 -0.3332  0.1565 -1.9660
 1122SOL     OW14998   0.840   3.405   2.472 -0.7050 -0.3780  0.7154
 1122SOL    HW114999   0.884   3.489   2.486  0.9917 -1.2609  0.7153
 1122SOL    HW215000   0.916   3.347   2.465 -0.5365  0.2168 -2.1197
 1123SOL     OW15001   1.965   2.142   2.407 -0.1044 -0.2458  0.3518
 1123SOL    HW115002   2.014   2.078   2.357  1.0413  1.3492 -0.5782
 1123SOL    HW215003   1.875   2.111   2.396 -0.1497 -0.0680  0.2234
 1124SOL     OW15004   1.371   3.478   4.276 -0.0780 -0.3528 -0.2790
 1124SOL    HW115005   1.306   3.517   4.334  0.7910  0.6218  0.0509
 1124SOL    HW215006   1.403   3.553   4.225  3.0880 -2.1854 -0.9912
 1125SOL     OW15007   3.271   1.347  10.423  0.0324  0.0076 -0.2489
 1125SOL    HW115008   3.247   1.431  10.384 -0.2193  0.1639  0.2323
 1125SOL    HW215009   3.193   1.305  10.386  0.4631  0.1074 -1.2728
 1126SOL     OW15010   2.743   4.738   3.249  0.0362 -0.1710 -0.1301
 1126SOL    HW115011   2.721   4.645   3.257  3.1414 -0.5581  3.6292
 1126SOL    HW215012   2.834   4.734   3.278 -0.3257 -1.2622  0.8620
 1127SOL     OW15013   1.717   4.389   8.928 -0.2268  0.9218  0.4180
 1127SOL    HW115014   1.636   4.440   8.934 -0.3539  0.9530 -1.7210
 1127SOL    HW215015   1.786   4.456   8.926 -0.7454  1.3949 -1.3743
 1128SOL     OW15016   4.065   3.264   6.653 -0.7657 -0.0631  0.3133
 1128SOL    HW115017   4.115   3.334   6.696 -0.3561 -0.5572  0.6470
 1128SOL    HW215018   4.064   3.196   6.721  0.1442 -1.5280 -1.1418
 1129SOL     OW15019   1.982   3.838   9.109 -0.5013 -0.1910  0.9789
 1129SOL    HW115020   1.907   3.780   9.093 -1.3254  1.1872 -0.2143
 1129SOL    HW215021   2.037   3.768   9.143  1.9923  0.9554 -0.7028
 1130SOL     OW15022   2.431   3.846   7.819  0.3356 -0.2232 -0.2354
 1130SOL    HW115023   2.346   3.886   7.835  0.6062  0.3246 -0.1796
 1130SOL    HW215024   2.470   3.844   7.907  0.9953 -0.5786 -0.5297
 1131SOL     OW15025   3.347   3.289   2.037  0.1616 -0.6333  0.0843
 1131SOL    HW115026   3.425   3.314   1.988  0.6297 -0.2820  1.0011
 1131SOL    HW215027   3.372   3.207   2.079 -1.4330 -1.4219 -0.4896
 1132SOL     OW15028   0.388   1.393  13.130 -0.2494 -0.6186  0.0943
 1132SOL    HW115029   0.373   1.462  13.066 -0.9127 -0.0627  0.8486
 1132SOL    HW215030   0.339   1.327  13.081  0.6041 -0.6721 -0.6858
 1133SOL     OW15031   0.537   0.872   3.538 -0.3253  0.7994  0.0471
 1133SOL    HW115032   0.442   0.877   3.552 -0.3327  2.8673 -0.7534
 1133SOL    HW215033   0.540   0.861   3.443 -3.8414 -1.2159  0.1650
 1134SOL     OW15034   0.955   2.190   8.438 -0.0414 -0.2828  0.7625
 1134SOL    HW115035   1.050   2.181   8.428 -0.1455 -0.8859  0.3368
 1134SOL    HW215036   0.942   2.166   8.530  2.2163  0.4674  1.2811
 1135SOL     OW15037   3.656   3.668  11.648 -0.3440  0.4710 -0.5165
 1135SOL    HW115038   3.642   3.667  11.743 -1.3418  2.0959 -0.6285
 1135SOL    HW215039   3.747   3.639  11.640 -0.5240 -0.1088 -0.4599
 1136SOL     OW15040   0.410   3.794   4.523 -0.3171 -0.1778 -0.4156
 1136SOL    HW115041   0.332   3.762   4.476 -0.1376  0.9849 -1.4945
 1136SOL    HW215042   0.398   3.738   4.599  0.2983  0.3090  0.0343
 1137SOL     OW15043   0.034   0.355   8.563  0.3620  0.1344 -0.1955
 1137SOL    HW115044   0.019   0.431   8.507 -0.2169 -1.6117 -2.3966
 1137SOL    HW215045   0.021   0.386   8.653 -2.6091  2.0630 -1.2845
 1138SOL     OW15046   4.323   1.415   4.145 -0.1777  0.0400 -0.0248
 1138SOL    HW115047   4.250   1.453   4.096  0.6917 -0.1265 -1.4653
 1138SOL    HW215048   4.393   1.396   4.082  0.3468  2.4162 -0.1767
 1139SOL     OW15049   4.075   1.421   2.911 -0.1527 -0.3563  0.4246
 1139SOL    HW115050   4.012   1.488   2.882  0.0369 -0.2554  0.2393
 1139SOL    HW215051   4.105   1.452   2.996 -1.2655 -1.0829  1.0715
 1140SOL     OW15052   3.367   0.574  10.181  0.1841 -0.2666  0.1963
 1140SOL    HW115053   3.395   0.553  10.092  1.0065 -0.5687  0.5203
 1140SOL    HW215054   3.344   0.666  10.178 -1.0799 -0.5723  0.3853
 1141SOL     OW15055   3.651   1.826   7.442 -0.3646  0.2190  0.0136
 1141SOL    HW115056   3.557   1.831   7.425 -0.5074  0.3016  0.8021
 1141SOL    HW215057   3.664   1.740   7.484 -0.0142  0.3993  0.2723
 1142SOL     OW15058   3.010   0.936   8.014  0.0158  0.2643  0.0663
 1142SOL    HW115059   3.013   1.003   7.946 -0.5315 -0.4782 -0.7024
 1142SOL    HW215060   3.009   0.852   7.967  0.4407  0.0849  0.3863
 1143SOL     OW15061   3.827   4.139   7.509  0.5077 -0.3943  0.2115
 1143SOL    HW115062   3.850   4.187   7.429 -0.1161 -0.0024  0.2731
 1143SOL    HW215063   3.896   4.168   7.568  0.0856  2.0200 -0.4765
 1144SOL     OW15064   4.494   4.184   6.192  0.2982  0.3985  0.3374
 1144SOL    HW115065   4.565   4.193   6.128  1.2531  0.7330  1.4365
 1144SOL    HW215066   4.454   4.103   6.161  0.4208 -0.7240  3.1725
 1145SOL     OW15067   4.198   2.862   0.898 -0.1001  0.2814 -0.0950
 1145SOL    HW115068   4.282   2.905   0.916  0.2782 -0.5520  0.1189
 1145SOL    HW215069   4.236   2.777   0.875  0.3868  0.7414 -0.9952
 1146SOL     OW15070   2.884   3.322   0.906 -0.6243 -0.3115  0.2038
 1146SOL    HW115071   2.842   3.380   0.969 -1.7384  0.5448 -1.3089
 1146SOL    HW215072   2.820   3.350   0.840 -2.1252 -2.9509  0.5489
 1147SOL     OW15073   0.944   2.163  13.106  0.0241 -0.2788  0.0934
 1147SOL    HW115074   0.917   2.247  13.068 -1.1708 -1.2516 -1.2016
 1147SOL    HW215075   0.969   2.181  13.197 -0.7296  0.0186  0.2453
 1148SOL     OW15076   2.610   1.242   2.662 -0.1771 -0.1760  0.5436
 1148SOL    HW115077   2.611   1.189   2.583  2.0833  2.7338 -1.3693
 1148SOL    HW215078   2.656   1.318   2.627 -0.0144  0.3313  1.8651
 1149SOL     OW15079   4.348   3.137   4.603 -0.0778 -0.6325  0.3995
 1149SOL    HW115080   4.388   3.166   4.521  0.5417  0.6843  1.1662
 1149SOL    HW215081   4.282   3.079   4.567 -2.4595  0.2378  3.4020
 1150SOL     OW15082   4.384   3.049  11.490  0.0873 -0.0487  0.3831
 1150SOL    HW115083   4.409   3.128  11.442 -1.5094  0.4438  0.3616
 1150SOL    HW215084   4.290   3.063  11.488  0.4170  1.9782 -0.3962
 1151SOL     OW15085   3.239   4.438  17.139 -0.0709  0.7901 -0.3757
 1151SOL    HW115086   3.306   4.496  17.104  2.1759 -1.4519  0.1760
 1151SOL    HW215087   3.222   4.382  17.063  1.6193 -1.6712  1.0486
 1152SOL     OW15088   3.290   1.104   6.508  0.4929 -0.4077 -0.4996
 1152SOL    HW115089   3.333   1.183   6.542  0.7438 -0.3994 -0.8324
 1152SOL    HW215090   3.313   1.118   6.416 -0.0108  1.0982 -0.4100
 1153SOL     OW15091   2.671   3.995   0.296  0.4461  0.3234 -0.2766
 1153SOL    HW115092   2.647   3.983   0.388 -2.2299  3.1319 -0.5822
 1153SOL    HW215093   2.761   4.026   0.300  0.3693  0.6223 -0.7854
 1154SOL     OW15094   0.806   0.414   3.375 -0.0397 -0.6505  0.0458
 1154SOL    HW115095   0.836   0.424   3.465 -0.2519  0.6834 -0.0214
 1154SOL    HW215096   0.812   0.507   3.352 -0.7113 -0.3127  1.2448
 1155SOL     OW15097   0.718   1.809  13.380  0.1615  0.3907 -0.1997
 1155SOL    HW115098   0.666   1.846  13.309  0.9049  0.6805 -0.5875
 1155SOL    HW215099   0.802   1.835  13.344 -0.1889  1.2838 -0.3786
 1156SOL     OW15100   0.045   1.405  15.140  0.1595 -0.4150 -0.0577
 1156SOL    HW115101   0.137   1.406  15.113  0.0178 -3.3031 -0.6223
 1156SOL    HW215102   0.000   1.435  15.060  0.4580 -0.9869 -0.4344
 1157SOL     OW15103   0.455   3.564  14.933  0.2635 -0.5354  0.4342
 1157SOL    HW115104   0.380   3.518  14.969  0.2343 -1.0105 -0.2386
 1157SOL    HW215105   0.512   3.494  14.899  0.7869  0.2161 -0.2525
 1158SOL     OW15106   4.584   4.436   2.261  0.1512  0.3014  0.4430
 1158SOL    HW115107   4.666   4.412   2.217  0.2711  2.1093 -0.3189
 1158SOL    HW215108   4.620   4.493   2.329  0.7945  2.1810 -1.4786
 1159SOL     OW15109   2.892   1.198  14.958  0.1541  0.1895 -0.4951
 1159SOL    HW115110   2.962   1.262  14.969  1.2206 -0.9235 -0.9150
 1159SOL    HW215111   2.841   1.225  15.034  2.1291  1.2909  0.4458
 1160SOL     OW15112   4.641   3.139  16.235  0.6465  0.0797  0.0245
 1160SOL    HW115113   4.690   3.218  16.257  1.0922  0.1621 -1.2306
 1160SOL    HW215114   4.556   3.178  16.213  0.7695 -0.0865 -0.7460
 1161SOL     OW15115   3.995   3.927   1.222  0.0387  0.0859  1.4334
 1161SOL    HW115116   3.993   3.940   1.127  1.1973 -1.1651  1.2454
 1161SOL    HW215117   4.056   3.992   1.255  0.6089  1.0123 -1.5182
 1162SOL     OW15118   4.053   2.601   2.402  0.3314  0.2519  0.4857
 1162SOL    HW115119   4.034   2.507   2.398 -1.7148  0.7197 -0.5506
 1162SOL    HW215120   3.998   2.629   2.475  1.6334 -0.6383  1.8335
 1163SOL     OW15121   0.051   4.073   7.773 -0.3011 -0.4424 -0.4729
 1163SOL    HW115122   0.032   4.034   7.688 -0.9072 -1.5409  0.1635
 1163SOL    HW215123   0.068   4.164   7.748 -1.8577 -0.5203 -1.8303
 1164SOL     OW15124   2.944   3.600   7.517  0.2020  0.4741  0.2870
 1164SOL    HW115125   2.903   3.596   7.603 -1.4116 -2.2767 -0.5993
 1164SOL    HW215126   2.975   3.690   7.521  1.3225 -0.0324  3.1621
 1165SOL     OW15127   1.486   2.492   5.978 -0.3544  0.2940 -0.4567
 1165SOL    HW115128   1.495   2.546   6.057 -1.2663 -2.9498  1.8767
 1165SOL    HW215129   1.555   2.429   5.997  0.9256  2.3211  1.6602
 1166SOL     OW15130   2.508   3.049  15.044  0.3025  0.2544  0.1448
 1166SOL    HW115131   2.475   3.072  14.957 -2.2910  0.3057  1.1548
 1166SOL    HW215132   2.582   3.108  15.058  0.7924  0.1304 -1.9023
 1167SOL     OW15133   1.958   0.287  10.979  0.0938  0.1665  0.0748
 1167SOL    HW115134   1.864   0.279  10.993 -0.3497  1.2276 -2.1308
 1167SOL    HW215135   1.959   0.372  10.935  0.4824 -0.4565 -1.1299
 1168SOL     OW15136   1.998   3.278   6.075 -0.3075 -0.4705 -0.2092
 1168SOL    HW115137   2.011   3.340   6.146  0.2078 -0.4448 -0.3284
 1168SOL    HW215138   1.991   3.194   6.121  0.6024 -0.1388  0.5122
 1169SOL     OW15139   2.983   2.568  10.107  0.4809 -0.7153  0.0371
 1169SOL    HW115140   2.981   2.601  10.197 -1.8423 -0.0086 -0.2622
 1169SOL    HW215141   2.989   2.476  10.129  2.4597 -1.1298 -2.2222
 1170SOL     OW15142   2.748   0.492   3.181 -0.0376 -0.1025 -0.5977
 1170SOL    HW115143   2.763   0.488   3.275 -1.2099  1.0960 -0.3575
 1170SOL    HW215144   2.735   0.587   3.181 -1.1703 -0.2934  3.5593
 1171SOL     OW15145   3.625   0.203   4.986 -0.1192 -0.3172  0.1454
 1171SOL    HW115146   3.692   0.253   5.033  0.3880  0.1056 -1.0262
 1171SOL    HW215147   3.545   0.251   5.005 -0.7750 -2.1783  2.1032
 1172SOL     OW15148   3.825   1.873  10.862 -0.0604  0.1818  0.0572
 1172SOL    HW115149   3.801   1.951  10.812 -1.5792  0.3190  1.0034
 1172SOL    HW215150   3.857   1.823  10.787  1.0254 -0.3890  0.9182
 1173SOL     OW15151   3.164   0.760   5.628 -0.0453 -0.0737 -0.7137
 1173SOL    HW115152   3.071   0.780   5.639  0.1792  0.7563 -0.2927
 1173SOL    HW215153   3.201   0.778   5.715 -1.2062  1.4505 -0.5287
 1174SOL     OW15154   1.184   3.626   2.358  0.2594  0.0725  0.6174
 1174SOL    HW115155   1.244   3.698   2.340  3.8039 -2.6217  1.7075
 1174SOL    HW215156   1.222   3.564   2.295 -2.1932  1.5269 -2.2851
 1175SOL     OW15157   3.537   1.048   2.475 -0.1401 -0.0258  0.0160
 1175SOL    HW115158   3.497   1.096   2.403 -0.9132 -0.9520 -0.1625
 1175SOL    HW215159   3.577   0.974   2.429 -1.0563  1.4439 -3.1190
 1176SOL     OW15160   2.598   2.369  13.654  0.2551  0.6696  0.4254
 1176SOL    HW115161   2.640   2.455  13.653  2.0022 -0.1863  0.3785
 1176SOL    HW215162   2.556   2.367  13.568 -0.2049  0.8109  0.6494
 1177SOL     OW15163   2.152   1.526   2.114 -0.4652 -0.4089 -0.8977
 1177SOL    HW115164   2.193   1.509   2.199  0.3329 -0.0750 -1.2174
 1177SOL    HW215165   2.221   1.497   2.054  0.3233 -0.4787  0.0451
 1178SOL     OW15166   0.452   3.220   4.343 -0.4954  0.1188 -0.1342
 1178SOL    HW115167   0.534   3.256   4.377 -0.7796  1.6063 -1.0414
 1178SOL    HW215168   0.409   3.300   4.313 -0.7491 -1.1501 -3.1318
 1179SOL     OW15169   1.752   4.448   6.129 -0.8506  0.1015 -0.3720
 1179SOL    HW115170   1.723   4.459   6.220  0.0276  2.1918 -0.3466
 1179SOL    HW215171   1.750   4.353   6.115  2.4314  0.3834 -2.8989
 1180SOL     OW15172   2.974   3.486   7.276  0.7030 -0.0926 -0.1445
 1180SOL    HW115173   2.964   3.525   7.362  0.2341  2.0648 -1.1643
 1180SOL    HW215174   3.025   3.551   7.228 -0.6772  0.7489 -0.4697
 1181SOL     OW15175   0.814   0.241   7.253 -0.0792  0.1752  0.2602
 1181SOL    HW115176   0.732   0.272   7.215 -0.2586  1.3773  1.6109
 1181SOL    HW215177   0.781   0.221   7.340  1.4076  0.3644  0.8707
 1182SOL     OW15178   0.295   0.442   7.726  0.2352  0.1991  0.5458
 1182SOL    HW115179   0.242   0.454   7.647  0.2655 -0.0220  0.4930
 1182SOL    HW215180   0.382   0.437   7.685  0.8445  1.7750  1.6236
 1183SOL     OW15181   2.157   0.054   2.813 -0.1808 -0.0422  0.2023
 1183SOL    HW115182   2.218   0.070   2.740 -1.3421 -1.0746 -0.9815
 1183SOL    HW215183   2.196   0.109   2.882  3.5881 -1.6054 -0.6486
 1184SOL     OW15184   0.344   2.457   3.509  0.0099 -0.4773 -0.2983
 1184SOL    HW115185   0.334   2.400   3.432  1.0092  0.9503 -1.4965
 1184SOL    HW215186   0.398   2.528   3.473 -0.1772 -1.0965 -1.8378
 1185SOL     OW15187   1.298   3.771   5.915 -0.0438  0.1255 -0.0917
 1185SOL    HW115188   1.299   3.708   5.842 -3.5916  1.3038 -1.1132
 1185SOL    HW215189   1.205   3.779   5.934  0.0067  0.0585  0.1787
 1186SOL     OW15190   1.984   3.531  14.166 -0.0194  0.2650 -0.5590
 1186SOL    HW115191   2.004   3.493  14.080 -0.2363  0.6907 -0.7981
 1186SOL    HW215192   1.993   3.451  14.218 -2.4510 -1.2905 -2.4936
 1187SOL     OW15193   0.690   4.389   2.053  0.0681  0.0428  0.1618
 1187SOL    HW115194   0.599   4.375   2.027  0.1753  1.7831 -1.2001
 1187SOL    HW215195   0.706   4.473   2.008  1.3731 -0.1284  0.2969
 1188SOL     OW15196   1.916   0.045   0.871 -0.6006  0.1512  0.3102
 1188SOL    HW115197   1.974   0.113   0.906  0.0546 -1.3921  2.1665
 1188SOL    HW215198   1.937   0.036   0.778 -2.0258  0.0425  0.0054
 1189SOL     OW15199   3.088   2.735   4.994 -0.2147  0.5874 -0.4256
 1189SOL    HW115200   3.046   2.697   4.916  0.6032 -1.2505  0.0457
 1189SOL    HW215201   3.098   2.660   5.052 -1.5384  0.6261 -0.1503
 1190SOL     OW15202   3.213   2.880   7.268  0.4207 -0.2747 -0.5147
 1190SOL    HW115203   3.246   2.823   7.338  0.4878  0.7867  0.3049
 1190SOL    HW215204   3.245   2.966   7.294 -2.0600  0.2396  0.8235
 1191SOL     OW15205   4.297   2.470  13.129  0.5419 -0.4302  0.0688
 1191SOL    HW115206   4.299   2.427  13.043 -0.4621  0.6295 -0.4878
 1191SOL    HW215207   4.264   2.402  13.187  1.2740  0.1352  1.1606
 1192SOL     OW15208   2.303   3.179  16.552 -0.4809  0.3239 -0.2772
 1192SOL    HW115209   2.233   3.243  16.544 -0.8462  0.0602  0.7046
 1192SOL    HW215210   2.378   3.231  16.525 -1.0287  1.8870  1.1759
 1193SOL     OW15211   1.002   4.504   7.015  0.3209 -0.2475 -0.1111
 1193SOL    HW115212   0.959   4.586   7.039 -0.0595 -0.6188  0.4936
 1193SOL    HW215213   1.081   4.508   7.068  0.9842 -0.4168 -1.0954
 1194SOL     OW15214   0.107   1.515   8.991 -0.0896 -0.5405  0.2448
 1194SOL    HW115215   0.051   1.570   8.936 -0.3816 -0.4869  0.5898
 1194SOL    HW215216   0.190   1.520   8.944  0.2306 -0.6784  0.7910
 1195SOL     OW15217   0.974   2.657   5.248  0.0742 -0.2565 -0.2683
 1195SOL    HW115218   0.954   2.718   5.319  1.3723 -0.1185 -0.0257
 1195SOL    HW215219   1.069   2.647   5.259 -0.1327 -0.8745  0.9041
 1196SOL     OW15220   1.696   4.580   8.138  0.1037  0.1428  0.5850
 1196SOL    HW115221   1.731   4.629   8.064 -0.3204 -2.0737 -1.0795
 1196SOL    HW215222   1.783   4.561   8.173  0.3834  0.4646  0.0624
 1197SOL     OW15223   2.274   0.541  14.740  0.0684  0.4819  0.5108
 1197SOL    HW115224   2.251   0.589  14.660 -1.2171  1.7422  1.6341
 1197SOL    HW215225   2.333   0.608  14.776  1.2077  1.3459 -2.8863
 1198SOL     OW15226   0.805   3.755   8.267 -0.5938 -0.2181  0.6926
 1198SOL    HW115227   0.885   3.802   8.243  1.6267 -2.6028  3.5214
 1198SOL    HW215228   0.845   3.711   8.341  2.0942 -1.4616 -1.5159
 1199SOL     OW15229   4.487   1.725   9.225  0.0549  0.0713  0.7998
 1199SOL    HW115230   4.579   1.703   9.212  0.8103  3.9339 -0.4545
 1199SOL    HW215231   4.448   1.644   9.192  1.4695 -0.3277  0.1125
 1200SOL     OW15232   4.133   1.925   9.546  0.0221  0.0958 -0.1153
 1200SOL    HW115233   4.198   1.981   9.503  0.8916  0.0973  1.2132
 1200SOL    HW215234   4.142   1.946   9.639 -0.0339 -0.2143 -0.0390
 1201SOL     OW15235   1.937   2.159   6.039 -0.4035 -0.6895 -0.4524
 1201SOL    HW115236   2.012   2.207   6.004 -0.1708  0.6568  1.8928
 1201SOL    HW215237   1.983   2.086   6.080 -1.4133 -0.8919  0.3266
 1202SOL     OW15238   0.564   0.747   0.277 -0.2636 -0.3596 -0.2902
 1202SOL    HW115239   0.560   0.653   0.263  0.5031 -0.1946 -1.5279
 1202SOL    HW215240   0.639   0.762   0.220 -0.0415  0.6411  0.2576
 1203SOL     OW15241   1.078   0.370   7.766  0.1097 -0.2133  0.0622
 1203SOL    HW115242   1.077   0.374   7.670  1.2961 -1.8790 -0.0236
 1203SOL    HW215243   1.171   0.385   7.779 -0.0077  0.7375 -0.2209
 1204SOL     OW15244   4.427   2.660   5.154  0.3783 -0.3252  0.1648
 1204SOL    HW115245   4.373   2.581   5.147  1.0899 -0.7438 -0.5934
 1204SOL    HW215246   4.457   2.659   5.063 -0.4056  0.1189 -0.0959
 1205SOL     OW15247   0.115   4.441  12.249 -0.5529 -0.4758  0.0086
 1205SOL    HW115248   0.185   4.376  12.254 -0.2390 -0.1840 -0.5877
 1205SOL    HW215249   0.096   4.464  12.339  0.5319  0.3523  0.0308
 1206SOL     OW15250   2.939   2.016  15.576 -0.0594 -0.4542 -0.0034
 1206SOL    HW115251   2.895   1.989  15.496  1.7433 -1.8081 -0.5447
 1206SOL    HW215252   2.875   2.067  15.626  0.7962  0.2864  0.3404
 1207SOL     OW15253   2.112   2.157   2.757 -0.3468  0.2416  0.7678
 1207SOL    HW115254   2.071   2.120   2.679  0.7668  0.1999  0.2031
 1207SOL    HW215255   2.182   2.091   2.764  0.8542  1.5058  0.7572
 1208SOL     OW15256   3.425   2.643   4.445  0.5290  0.4881 -0.0835
 1208SOL    HW115257   3.506   2.671   4.401 -0.7025  1.2891 -1.8695
 1208SOL    HW215258   3.441   2.679   4.532  1.2557  1.8677 -0.7938
 1209SOL     OW15259   3.792   1.885   6.780 -0.1316  0.4094  0.4100
 1209SOL    HW115260   3.823   1.964   6.824  0.9670  0.2466 -0.0614
 1209SOL    HW215261   3.727   1.917   6.717 -0.2492  1.2121  0.9381
 1210SOL     OW15262   2.144   2.956   3.969  0.0646  0.0284  0.0288
 1210SOL    HW115263   2.096   2.952   4.051  1.1287  1.7793  0.7497
 1210SOL    HW215264   2.103   3.036   3.934 -1.0043 -1.2101 -1.5270
 1211SOL     OW15265   1.612   1.182   7.345 -0.0503  0.3058  0.0551
 1211SOL    HW115266   1.702   1.212   7.329 -0.6110  2.0445  0.2155
 1211SOL    HW215267   1.569   1.258   7.306 -0.2589 -0.3508 -1.0047
 1212SOL     OW15268   1.682   2.217  12.928  0.6004  0.0953 -0.2818
 1212SOL    HW115269   1.744   2.144  12.920  1.1258  0.4272  0.7809
 1212SOL    HW215270   1.738   2.291  12.950  0.0798  0.5076 -0.3365
 1213SOL     OW15271   4.366   4.295  17.353 -0.9496  0.5764 -0.4015
 1213SOL    HW115272   4.417   4.376  17.358 -3.4086  2.1069  0.0735
 1213SOL    HW215273   4.425   4.234  17.396  1.8481  2.0375 -2.1542
 1214SOL     OW15274   2.837   4.098  15.245 -0.2713 -0.6175 -0.4527
 1214SOL    HW115275   2.807   4.132  15.329  1.0430  0.6319 -0.4933
 1214SOL    HW215276   2.856   4.182  15.203  0.8004 -0.1804  0.9061
 1215SOL     OW15277   0.568   3.848   2.228 -0.0441 -0.4353 -0.4883
 1215SOL    HW115278   0.565   3.934   2.270  0.8335 -0.1756 -0.9566
 1215SOL    HW215279   0.538   3.878   2.142  0.6414  0.2264 -0.4920
 1216SOL     OW15280   2.971   0.906   8.647  0.1114 -0.2428 -0.1619
 1216SOL    HW115281   3.040   0.880   8.587  2.2167  0.4318  1.9711
 1216SOL    HW215282   2.978   0.848   8.723 -0.0188  0.9809  0.7786
 1217SOL     OW15283   1.578   4.166   7.452  0.2498  0.2955 -0.2580
 1217SOL    HW115284   1.664   4.209   7.455  1.2096 -1.5967 -0.3217
 1217SOL    HW215285   1.605   4.079   7.424 -1.2153  0.1022 -1.0713
 1218SOL     OW15286   0.556   1.686  16.780  0.3724 -0.1614 -0.2179
 1218SOL    HW115287   0.640   1.685  16.734  0.5079 -1.7068  0.0613
 1218SOL    HW215288   0.494   1.674  16.709  1.4077 -1.0117 -0.9690
 1219SOL     OW15289   4.683   3.402   6.281  0.0347 -0.2169  0.3517
 1219SOL    HW115290   4.665   3.487   6.242  2.8127  0.0695 -0.2976
 1219SOL    HW215291   0.016   3.425   6.339 -0.6403  1.6918  0.4261
 1220SOL     OW15292   0.356   1.014   5.193  0.1310 -0.4453  0.0697
 1220SOL    HW115293   0.367   1.089   5.253  0.0801 -0.6800  0.3705
 1220SOL    HW215294   0.262   1.021   5.175  0.3840 -1.6308 -1.6214
 1221SOL     OW15295   2.413   1.006   2.690  0.4344  0.0780  0.0340
 1221SOL    HW115296   2.492   1.059   2.702  0.3348  0.2040  0.1483
 1221SOL    HW215297   2.351   1.056   2.744  0.1086 -2.6268  2.1515
 1222SOL     OW15298   2.128   1.717  16.326  0.2461 -0.2533  0.0265
 1222SOL    HW115299   2.047   1.697  16.278  1.6799 -1.1549 -1.9755
 1222SOL    HW215300   2.095   1.692  16.413 -0.5459  0.5248 -0.0489
 1223SOL     OW15301   2.009   0.052  12.476  0.0435  0.1276  0.2224
 1223SOL    HW115302   2.033   0.014  12.392  2.3781  0.4642  0.7414
 1223SOL    HW215303   2.080   0.020  12.531  0.3529 -1.2181 -0.9644
 1224SOL     OW15304   3.115   1.705  10.980 -0.3712  0.5535 -0.4709
 1224SOL    HW115305   3.169   1.626  10.978  0.7629  1.3068  0.1426
 1224SOL    HW215306   3.189   1.765  10.970 -1.4579  2.1817  1.2288
 1225SOL     OW15307   0.780   1.204   3.018  0.6403 -0.4430 -0.5121
 1225SOL    HW115308   0.857   1.243   2.976 -1.3489  3.9687 -0.0829
 1225SOL    HW215309   0.828   1.129   3.051  1.3187 -0.2469 -1.0519
 1226SOL     OW15310   2.207   0.811   5.893 -0.8960 -0.2240  0.0587
 1226SOL    HW115311   2.282   0.811   5.952 -0.7055 -1.5227 -0.1813
 1226SOL    HW215312   2.159   0.737   5.931  0.0557 -0.9671 -0.1762
 1227SOL     OW15313   0.159   3.247   6.086 -0.2122 -0.6089  0.6264
 1227SOL    HW115314   0.132   3.255   6.178  0.6566  0.0219  0.8238
 1227SOL    HW215315   0.145   3.335   6.051  3.0083 -0.5622 -0.5164
 1228SOL     OW15316   3.421   2.473   5.990  0.0193 -0.3538 -0.0231
 1228SOL    HW115317   3.362   2.401   5.969 -0.6757  0.2493 -0.1052
 1228SOL    HW215318   3.501   2.432   5.957 -0.8857 -1.8888 -0.3139
 1229SOL     OW15319   1.497   1.750   1.226 -0.1049  0.2644 -0.1012
 1229SOL    HW115320   1.483   1.657   1.206  2.3220  0.3428 -2.1379
 1229SOL    HW215321   1.419   1.779   1.274  0.2098  1.7645 -0.5099
 1230SOL     OW15322   0.937   2.827   5.459 -0.0932 -0.2249  1.1585
 1230SOL    HW115323   0.872   2.805   5.526  1.1950 -1.8435  1.8865
 1230SOL    HW215324   0.909   2.916   5.439  0.2405 -0.1255  1.1355
 1231SOL     OW15325   4.152   2.165   4.321 -0.3453 -0.5232 -0.4977
 1231SOL    HW115326   4.166   2.077   4.286 -1.6917  0.2590 -3.0098
 1231SOL    HW215327   4.240   2.187   4.350 -0.7464 -1.3791  1.3857
 1232SOL     OW15328   0.465   1.247   4.638  0.3691 -0.4119  0.2779
 1232SOL    HW115329   0.551   1.228   4.674  0.1893 -0.5722  0.6150
 1232SOL    HW215330   0.451   1.171   4.581 -0.1942 -0.5732  0.6313
 1233SOL     OW15331   4.611   0.060   8.354  0.4756 -0.2012 -0.4446
 1233SOL    HW115332   4.690   0.105   8.324  0.0507  1.0389  0.3425
 1233SOL    HW215333   4.550   0.131   8.374  1.2487  0.3745 -0.1257
 1234SOL     OW15334   3.103   0.273   8.940  0.2510 -0.4371  0.5046
 1234SOL    HW115335   3.134   0.240   9.024  0.3831  0.3444  0.7568
 1234SOL    HW215336   3.117   0.194   8.888  0.1065  0.1834 -0.4764
 1235SOL     OW15337   1.734   3.638  11.384 -0.1268 -0.9307  0.0646
 1235SOL    HW115338   1.795   3.634  11.458 -0.3114  0.2578  0.2764
 1235SOL    HW215339   1.791   3.637  11.307 -0.0385 -1.1508  0.1312
 1236SOL     OW15340   2.088   0.989  11.281 -0.8772  0.3759  0.3297
 1236SOL    HW115341   2.089   1.059  11.216 -0.5608 -0.2607 -0.3571
 1236SOL    HW215342   2.029   1.023  11.349 -0.7870  1.1251  0.0281
 1237SOL     OW15343   1.392   3.603   9.579  0.2383 -0.0538 -0.3496
 1237SOL    HW115344   1.372   3.577   9.669  1.1518 -1.9507 -0.6962
 1237SOL    HW215345   1.461   3.669   9.591  2.0078 -1.5794 -2.0519
 1238SOL     OW15346   4.387   1.469   1.781  0.4633 -0.2835  0.2384
 1238SOL    HW115347   4.432   1.542   1.737  1.1830 -0.7424  0.2112
 1238SOL    HW215348   4.314   1.515   1.821  0.8112  0.7407 -0.2979
 1239SOL     OW15349   1.732   3.392   5.476  0.4658 -0.4627  0.7747
 1239SOL    HW115350   1.777   3.388   5.392  1.4150 -1.0243  1.3167
 1239SOL    HW215351   1.682   3.310   5.484 -0.1959  0.0926  2.4085
 1240SOL     OW15352   4.012   4.432  12.612  0.0586  0.0855 -0.4257
 1240SOL    HW115353   3.991   4.508  12.558 -1.2847 -0.6108 -0.8914
 1240SOL    HW215354   3.957   4.366  12.570 -0.3161  0.5215 -0.6175
 1241SOL     OW15355   3.265   1.926   0.020  0.0880  0.0999  0.3263
 1241SOL    HW115356   3.187   1.979   0.002 -0.1644  0.1835  1.7368
 1241SOL    HW215357   3.221   1.852   0.062  0.8762 -1.1091 -0.9620
 1242SOL     OW15358   0.983   4.648   5.023  0.8492 -0.1895  0.1440
 1242SOL    HW115359   0.953   4.738   5.037 -2.2505 -1.3177  0.6111
 1242SOL    HW215360   1.066   4.670   4.980 -1.1830  2.5378 -2.3455
 1243SOL     OW15361   3.490   2.119   8.937  0.2083  0.4138 -0.2724
 1243SOL    HW115362   3.437   2.086   9.009  1.7450 -1.7617 -0.1264
 1243SOL    HW215363   3.544   2.184   8.981  2.3545 -1.2885 -0.3980
 1244SOL     OW15364   0.357   3.811   2.888 -0.0097  0.0842 -0.0603
 1244SOL    HW115365   0.355   3.748   2.960  1.5491  0.5706  0.3984
 1244SOL    HW215366   0.375   3.760   2.809  2.0499  2.2807 -1.0008
 1245SOL     OW15367   2.410   1.960  16.115  0.0021  0.7254 -0.4801
 1245SOL    HW115368   2.410   1.882  16.172  0.7862  0.2347 -1.1424
 1245SOL    HW215369   2.497   1.991  16.141  0.3422 -1.0187  0.4710
 1246SOL     OW15370   0.439   0.545   2.037 -0.2078  0.1172  0.0732
 1246SOL    HW115371   0.456   0.523   1.945 -0.7013  0.5255 -0.1156
 1246SOL    HW215372   0.346   0.564   2.038  0.2355  2.1955  1.0290
 1247SOL     OW15373   3.131   2.379   7.937  0.0663 -0.2130  0.1789
 1247SOL    HW115374   3.203   2.434   7.904 -0.9522 -1.0652 -3.4959
 1247SOL    HW215375   3.160   2.294   7.904  0.4912 -0.8801  2.3261
 1248SOL     OW15376   3.749   4.014   3.625  0.3167  0.1387  0.6650
 1248SOL    HW115377   3.726   3.974   3.542  3.6593 -0.3520 -0.0216
 1248SOL    HW215378   3.683   3.978   3.684  0.5227 -0.7591  0.3484
 1249SOL     OW15379   4.155   2.756   5.322 -0.6328 -0.3209  0.9114
 1249SOL    HW115380   4.184   2.665   5.317  1.5737  0.5428 -2.1181
 1249SOL    HW215381   4.223   2.805   5.275 -0.0505  0.6140  2.7188
 1250SOL     OW15382   0.772   1.280   8.541 -0.3585  0.0417 -0.1928
 1250SOL    HW115383   0.831   1.235   8.601 -1.1349 -1.7554 -0.7835
 1250SOL    HW215384   0.747   1.359   8.590 -0.5321  0.2640 -0.6374
 1251SOL     OW15385   1.028   1.655   9.650 -0.3854  1.0397 -0.5110
 1251SOL    HW115386   0.997   1.737   9.611 -1.7138  0.7799  0.0139
 1251SOL    HW215387   1.115   1.652   9.610 -0.3782 -0.2456 -0.3980
 1252SOL     OW15388   3.693   2.616  10.527 -0.5722  0.2770  0.1061
 1252SOL    HW115389   3.602   2.635  10.551 -0.8664 -0.1686 -0.6495
 1252SOL    HW215390   3.691   2.551  10.457 -0.4208  0.3831  0.0021
 1253SOL     OW15391   4.050   1.902   8.195 -0.6878 -0.2973 -0.1938
 1253SOL    HW115392   4.095   1.974   8.151 -0.4012 -1.2705 -1.4975
 1253SOL    HW215393   3.980   1.945   8.244 -1.4825  0.2710 -1.8303
 1254SOL     OW15394   2.008   3.863   3.461 -0.1067  0.4734 -0.8831
 1254SOL    HW115395   1.994   3.951   3.426  1.2337  1.3595  0.8076
 1254SOL    HW215396   2.104   3.866   3.456  0.0353 -0.6953  1.3725
 1255SOL     OW15397   4.552   1.372  17.412  0.0504  1.0673  0.1085
 1255SOL    HW115398   4.600   1.418  17.343  0.1296  0.5387 -0.1823
 1255SOL    HW215399   4.538   1.283  17.381 -1.3907  0.0037  3.8558
 1256SOL     OW15400   0.391   0.044   8.518 -0.2687  0.0064 -0.0251
 1256SOL    HW115401   0.324   0.113   8.527 -2.2264 -1.7127 -1.3366
 1256SOL    HW215402   0.350   4.729   8.451  1.9671 -1.0472 -0.5058
 1257SOL     OW15403   1.104   3.110   4.751  0.0102 -0.0714 -0.2961
 1257SOL    HW115404   1.019   3.117   4.707  0.6044  0.3495 -1.3759
 1257SOL    HW215405   1.088   3.032   4.804  1.5498 -0.5200 -0.4822
 1258SOL     OW15406   4.192   2.988   7.671 -0.1757  0.6462  0.0431
 1258SOL    HW115407   4.145   2.906   7.687 -0.4916  1.4193  3.1218
 1258SOL    HW215408   4.180   3.042   7.749  0.3930 -1.0091  1.2740
 1259SOL     OW15409   0.013   0.246   7.873 -0.1809  0.4912  0.1844
 1259SOL    HW115410   0.040   0.172   7.927  0.1230 -0.1220 -0.8077
 1259SOL    HW215411   0.029   0.211   7.785 -1.9261 -1.6812  0.7348
 1260SOL     OW15412   2.683   4.141   1.442 -0.2174 -0.2109  0.0367
 1260SOL    HW115413   2.675   4.195   1.521 -1.8420 -1.3088  0.6025
 1260SOL    HW215414   2.628   4.193   1.383  1.3072 -0.4314 -1.5982
 1261SOL     OW15415   0.140   3.143   4.402 -0.0512 -0.7928  0.5607
 1261SOL    HW115416   0.191   3.171   4.325 -2.2022  0.7402 -0.3029
 1261SOL    HW215417   0.148   3.217   4.462  1.6200 -0.7961  0.3586
 1262SOL     OW15418   1.714   2.716   6.244 -0.6084  0.0581  0.9011
 1262SOL    HW115419   1.756   2.749   6.164 -0.4084 -0.9075  0.6078
 1262SOL    HW215420   1.761   2.766   6.310 -1.6020  1.9280  0.1860
 1263SOL     OW15421   3.163   1.530  16.685 -0.4561  0.2992  0.3778
 1263SOL    HW115422   3.175   1.542  16.591 -0.6346  1.3803  0.4984
 1263SOL    HW215423   3.216   1.451  16.698  0.6182  0.8456 -0.6945
 1264SOL     OW15424   3.400   1.987   4.342 -0.2718  0.0171  0.3814
 1264SOL    HW115425   3.416   1.965   4.251 -1.9694 -0.3071  0.1586
 1264SOL    HW215426   3.430   2.077   4.353 -1.4627  0.3862  0.6196
 1265SOL     OW15427   4.193   0.469   4.140  0.5174  0.1484 -0.2698
 1265SOL    HW115428   4.270   0.481   4.196 -0.0535  0.9663  0.3293
 1265SOL    HW215429   4.185   0.374   4.131  0.3102  0.0888  0.5789
 1266SOL     OW15430   3.586   4.138   0.626 -0.3073 -0.1403 -0.0323
 1266SOL    HW115431   3.563   4.199   0.556 -1.6843  2.3524  2.5716
 1266SOL    HW215432   3.653   4.092   0.575 -1.2194  1.1102 -2.3233
 1267SOL     OW15433   3.821   3.536   0.576  0.5804 -0.4847 -0.8152
 1267SOL    HW115434   3.772   3.617   0.563  0.2550 -0.2929  1.6387
 1267SOL    HW215435   3.789   3.489   0.500 -0.3494  1.2609 -1.5154
 1268SOL     OW15436   1.161   1.541   5.720 -0.2252  0.1756 -0.5542
 1268SOL    HW115437   1.170   1.625   5.674  1.6828 -1.1670 -2.6158
 1268SOL    HW215438   1.252   1.533   5.748 -0.6714 -1.0453  0.5414
 1269SOL     OW15439   1.429   3.187   8.806 -0.6236 -0.3405  0.6572
 1269SOL    HW115440   1.512   3.158   8.767  1.1595  0.9181  3.5136
 1269SOL    HW215441   1.457   3.231   8.886 -0.2451  2.2178 -0.8742
 1270SOL     OW15442   3.428   3.305   6.420 -0.4770  0.5479  0.1918
 1270SOL    HW115443   3.522   3.314   6.405 -0.2247  0.2061  1.6296
 1270SOL    HW215444   3.416   3.337   6.509 -2.6129  0.4169 -0.0617
 1271SOL     OW15445   3.002   4.278   5.092 -0.4379  0.1867  0.1580
 1271SOL    HW115446   2.914   4.298   5.123 -1.2915 -0.6295 -1.7780
 1271SOL    HW215447   2.987   4.187   5.065 -0.2373 -0.2025  1.3387
 1272SOL     OW15448   0.369   3.882   7.476 -0.3942  0.2454  0.4411
 1272SOL    HW115449   0.399   3.884   7.567  1.4319 -1.7565 -0.1176
 1272SOL    HW215450   0.439   3.941   7.447 -1.4829  1.3101 -0.0400
 1273SOL     OW15451   3.540   3.342   9.444 -0.6343  0.5283  0.1846
 1273SOL    HW115452   3.505   3.326   9.532 -0.1300 -0.2906  0.2275
 1273SOL    HW215453   3.528   3.437   9.440  1.2549  0.7548 -0.0044
 1274SOL     OW15454   0.897   1.178   6.983 -0.0180 -0.3855 -0.1146
 1274SOL    HW115455   0.827   1.197   6.920  0.6449  1.1599 -0.3688
 1274SOL    HW215456   0.862   1.238   7.049 -0.4779 -0.4856 -0.2633
 1275SOL     OW15457   2.471   4.526   1.327  0.1001  0.0422  0.4081
 1275SOL    HW115458   2.444   4.616   1.310  1.4113  0.1668 -1.0051
 1275SOL    HW215459   2.559   4.549   1.358  1.2494  1.2150 -3.5952
 1276SOL     OW15460   4.557   3.529   9.144 -0.2764  0.0433 -0.3741
 1276SOL    HW115461   4.619   3.496   9.210 -3.0871 -3.7263  0.4071
 1276SOL    HW215462   4.583   3.619   9.126  0.2402 -0.2087 -0.8827
 1277SOL     OW15463   2.968   3.137   2.703  0.5962  0.1231  0.0599
 1277SOL    HW115464   2.976   3.108   2.612 -0.1517  0.3592 -0.0814
 1277SOL    HW215465   2.960   3.232   2.696 -2.4083 -0.1944 -0.9631
 1278SOL     OW15466   0.568   2.881   8.623  0.4425  0.2686  0.1379
 1278SOL    HW115467   0.492   2.834   8.590  0.7519 -0.9214  1.0995
 1278SOL    HW215468   0.567   2.853   8.715  6.4526  0.2902  0.2249
 1279SOL     OW15469   4.498   0.061  10.511 -0.9887 -0.1289 -0.2695
 1279SOL    HW115470   4.591   0.060  10.532 -0.4184  0.0310 -2.7569
 1279SOL    HW215471   4.477   4.709  10.497 -1.5829 -0.2443  1.3703
 1280SOL     OW15472   1.228   3.633   3.491  0.2100 -0.2518  0.1062
 1280SOL    HW115473   1.132   3.628   3.493  0.3294 -1.3971  2.3393
 1280SOL    HW215474   1.244   3.667   3.578  1.8982  1.4239 -0.8703
 1281SOL     OW15475   1.921   4.545   8.838 -0.5315  0.2059 -0.1712
 1281SOL    HW115476   1.925   4.636   8.868  0.0348 -0.0899  0.6256
 1281SOL    HW215477   2.011   4.533   8.808 -0.6733  2.4288 -1.5304
 1282SOL     OW15478   2.122   3.615   1.654  0.4879  0.6267 -0.4590
 1282SOL    HW115479   2.077   3.677   1.596  1.2725  2.5981  1.0253
 1282SOL    HW215480   2.084   3.651   1.734  2.0555 -1.1144  1.0911
 1283SOL     OW15481   4.509   0.074   2.876 -0.4725  0.2325 -0.2832
 1283SOL    HW115482   4.462   0.126   2.941 -0.8800 -1.4333  0.7435
 1283SOL    HW215483   4.429   0.051   2.828 -1.6887  0.6523  1.5336
 1284SOL     OW15484   0.395   3.365   5.055 -0.3034  0.5474 -0.5059
 1284SOL    HW115485   0.350   3.366   4.971 -0.1776 -0.8713 -0.5969
 1284SOL    HW215486   0.439   3.280   5.061 -0.5511  0.6283  2.5302
 1285SOL     OW15487   2.216   1.560  16.116 -0.0086 -0.4194 -0.6625
 1285SOL    HW115488   2.197   1.605  16.034  0.6993  1.3031  0.1254
 1285SOL    HW215489   2.189   1.622  16.183 -2.7221 -1.4998 -0.7486
 1286SOL     OW15490   1.856   2.458   2.665  0.2021 -0.5477 -0.3661
 1286SOL    HW115491   1.804   2.536   2.686  0.6018 -0.5561  0.6650
 1286SOL    HW215492   1.815   2.397   2.725 -1.5930  1.7227  0.7267
 1287SOL     OW15493   3.821   4.595  17.500 -0.5141 -0.1776 -0.4149
 1287SOL    HW115494   3.841   4.688  17.514  1.2954 -0.6844  0.3777
 1287SOL    HW215495   3.878   4.586  17.423  0.3113  1.9317 -0.0556
 1288SOL     OW15496   0.675   3.652   5.966 -0.1626 -0.4314 -0.5301
 1288SOL    HW115497   0.629   3.678   6.046  0.3967  2.8510 -1.2848
 1288SOL    HW215498   0.717   3.727   5.925  0.8599 -1.0755 -0.6578
 1289SOL     OW15499   1.660   1.171   7.938 -0.0235 -0.2022 -0.7766
 1289SOL    HW115500   1.617   1.257   7.936 -1.0878 -0.8087 -3.1176
 1289SOL    HW215501   1.683   1.179   8.031  0.2025  1.1989 -0.9448
 1290SOL     OW15502   2.181   3.433  16.225 -0.2125 -0.5537 -0.1893
 1290SOL    HW115503   2.270   3.466  16.213 -0.1490 -0.6211  0.1010
 1290SOL    HW215504   2.197   3.347  16.184  3.4169 -0.9258  1.9522
 1291SOL     OW15505   3.256   2.591   2.745 -0.5431 -0.3428  0.1624
 1291SOL    HW115506   3.226   2.681   2.757 -1.5929 -0.5383 -1.0033
 1291SOL    HW215507   3.350   2.603   2.758 -0.2061 -0.7224 -1.9148
 1292SOL     OW15508   2.658   4.024   9.858  0.4101  0.6805 -0.2490
 1292SOL    HW115509   2.612   3.984   9.784  0.1159 -0.5141  0.5884
 1292SOL    HW215510   2.625   3.962   9.922 -1.4136  0.0045 -1.8408
 1293SOL     OW15511   1.001   0.840   5.042 -0.4328 -0.0480 -0.2083
 1293SOL    HW115512   1.011   0.921   5.092  4.2984 -0.4047 -0.5143
 1293SOL    HW215513   0.954   0.790   5.108 -1.8890 -1.2286 -2.1416
 1294SOL     OW15514   1.479   3.081   2.908  0.1672  0.2669 -0.0777
 1294SOL    HW115515   1.473   3.005   2.851  1.4204  0.2334 -0.1780
 1294SOL    HW215516   1.387   3.102   2.922 -0.1933  0.2072 -2.3443
 1295SOL     OW15517   2.521   3.363  16.936 -0.1549  0.1487 -0.4146
 1295SOL    HW115518   2.504   3.448  16.895 -1.6530  0.5535  1.0063
 1295SOL    HW215519   2.592   3.371  16.999 -2.6273 -0.0259  2.4450
 1296SOL     OW15520   2.597   2.483  17.012 -0.5411  0.5340  0.1149
 1296SOL    HW115521   2.578   2.575  17.032 -3.5013  0.0827 -0.5396
 1296SOL    HW215522   2.512   2.439  17.006  0.6548 -1.5977 -1.1541
 1297SOL     OW15523   0.044   0.432   6.016 -0.3121  0.5297  0.1344
 1297SOL    HW115524   4.738   0.465   5.939  1.7137 -0.0407 -1.3035
 1297SOL    HW215525   4.710   0.435   6.077  0.3623  0.7053  0.9384
 1298SOL     OW15526   3.391   3.285   3.635  0.6278 -0.1541  0.1450
 1298SOL    HW115527   3.449   3.266   3.562 -1.3647  0.3454 -1.5568
 1298SOL    HW215528   3.327   3.216   3.615 -1.4615  1.8396 -0.1064
 1299SOL     OW15529   2.059   3.261   3.128 -0.1921  0.2495  0.0891
 1299SOL    HW115530   2.122   3.312   3.178 -0.1565  1.6171 -1.3445
 1299SOL    HW215531   2.119   3.209   3.075  0.8699 -0.1765  1.7289
 1300SOL     OW15532   4.087   1.871  15.888  0.0970 -0.2676 -0.5295
 1300SOL    HW115533   4.032   1.924  15.829  1.0082 -0.1777 -1.3073
 1300SOL    HW215534   4.051   1.909  15.968  0.2017 -1.3323  0.0167
 1301SOL     OW15535   2.600   1.909   7.241  0.1831 -0.1740 -0.3757
 1301SOL    HW115536   2.631   1.958   7.317 -0.5838 -2.0869  1.1602
 1301SOL    HW215537   2.679   1.883   7.193  0.9120  0.4980  0.4808
 1302SOL     OW15538   3.093   1.524   6.381 -0.0623  0.4309  0.0055
 1302SOL    HW115539   3.169   1.467   6.370  1.3569  2.4662 -0.7213
 1302SOL    HW215540   3.075   1.538   6.288  0.4524  0.3437 -0.1115
 1303SOL     OW15541   3.986   4.129   1.702  0.1828  0.3261 -0.2153
 1303SOL    HW115542   3.977   4.061   1.635 -0.7488 -0.6843  0.9366
 1303SOL    HW215543   3.919   4.095   1.763 -0.5706  1.1413 -0.5962
 1304SOL     OW15544   2.845   3.703   2.142  0.1140 -0.4967  0.0386
 1304SOL    HW115545   2.917   3.659   2.095  1.1504  1.1574  0.0763
 1304SOL    HW215546   2.858   3.789   2.102 -0.7164 -0.0593  0.7197
 1305SOL     OW15547   2.544   2.528   7.023 -0.1180 -0.1863  0.4352
 1305SOL    HW115548   2.590   2.451   7.058 -0.7669 -0.3493  0.9430
 1305SOL    HW215549   2.610   2.591   7.049 -0.5918  0.1848  0.7494
 1306SOL     OW15550   2.443   1.070   4.019 -0.4508 -0.3438 -0.3624
 1306SOL    HW115551   2.385   1.138   4.053 -1.0614 -1.5673  1.0349
 1306SOL    HW215552   2.465   1.015   4.095 -3.2771 -0.1627  0.5923
 1307SOL     OW15553   4.402   4.670   3.384 -0.2626 -0.2661  0.5978
 1307SOL    HW115554   4.397   0.011   3.434  1.5413 -1.7034  3.0808
 1307SOL    HW215555   4.328   4.619   3.417 -0.0117  0.8128  2.8190
 1308SOL     OW15556   3.271   0.293   4.074  0.3480  0.3383  0.2454
 1308SOL    HW115557   3.325   0.330   4.004  0.6375  0.8118  0.7248
 1308SOL    HW215558   3.318   0.315   4.154  0.7489 -2.2904  0.7269
 1309SOL     OW15559   1.346   1.623  16.687 -0.5352 -0.1914 -0.5975
 1309SOL    HW115560   1.425   1.570  16.696 -0.9216 -0.4293  1.3901
 1309SOL    HW215561   1.341   1.618  16.591  1.8990 -1.5308 -0.6595
 1310SOL     OW15562   4.154   2.083   2.587 -0.4063  0.4739 -0.4372
 1310SOL    HW115563   4.246   2.063   2.571 -0.2899  1.0630 -0.5093
 1310SOL    HW215564   4.155   2.178   2.579 -1.9891  0.3730 -1.6939
 1311SOL     OW15565   1.304   4.692   7.183  0.0014  0.7424 -0.0043
 1311SOL    HW115566   1.380   4.725   7.135  0.7455 -0.0297  0.6384
 1311SOL    HW215567   1.262   0.029   7.220 -1.1886  0.4409 -0.7565
 1312SOL     OW15568   2.945   4.454   9.724  0.2774 -0.1915 -0.9985
 1312SOL    HW115569   2.881   4.387   9.749 -0.4690  0.8455 -0.1681
 1312SOL    HW215570   2.888   4.521   9.688 -1.9457 -0.4238  2.1371
 1313SOL     OW15571   1.845   3.710  13.981 -0.3016 -0.8937 -0.3164
 1313SOL    HW115572   1.854   3.781  14.045 -5.7934  1.1245 -1.7767
 1313SOL    HW215573   1.902   3.648  14.027 -1.1680 -0.9672  0.6483
 1314SOL     OW15574   0.930   0.784  15.477 -0.3793  0.0121 -0.0335
 1314SOL    HW115575   0.887   0.750  15.555  1.3770  1.0494  1.3816
 1314SOL    HW215576   0.937   0.713  15.413  1.2465  1.3577 -1.3534
 1315SOL     OW15577   0.309   4.177   8.113 -0.1160  0.1521  0.0359
 1315SOL    HW115578   0.270   4.261   8.090 -1.7621  0.1410  2.7305
 1315SOL    HW215579   0.328   4.179   8.207  0.8822 -0.6075 -0.1441
 1316SOL     OW15580   0.163   2.597   4.621 -0.2336 -0.2895  0.3088
 1316SOL    HW115581   0.086   2.578   4.568 -0.7989 -0.9673  1.3750
 1316SOL    HW215582   0.233   2.558   4.568 -0.3754  0.7219 -0.6192
 1317SOL     OW15583   1.193   0.654   8.433 -0.0352 -0.1522 -0.0529
 1317SOL    HW115584   1.189   0.663   8.338  0.7501  0.6235 -0.0136
 1317SOL    HW215585   1.266   0.594   8.448  2.0381  2.9309  2.1266
 1318SOL     OW15586   1.527   3.205   4.744 -0.6207 -0.5169 -0.4451
 1318SOL    HW115587   1.537   3.151   4.665  1.0657  0.3460 -0.8178
 1318SOL    HW215588   1.465   3.146   4.786  0.8010 -0.9225  1.0820
 1319SOL     OW15589   1.113   4.123  10.420  0.0628 -0.3781  0.4183
 1319SOL    HW115590   1.075   4.191  10.365  0.4175 -0.7744 -0.3127
 1319SOL    HW215591   1.203   4.115  10.388  0.3637 -0.0833  1.1987
 1320SOL     OW15592   1.717   3.511   5.752  0.3182 -0.1182  0.2623
 1320SOL    HW115593   1.721   3.426   5.796 -1.4317  0.3840  1.4158
 1320SOL    HW215594   1.747   3.485   5.665  1.6356 -3.2195  1.6519
 1321SOL     OW15595   4.001   0.871  16.456  0.1655  0.3795 -0.4575
 1321SOL    HW115596   3.945   0.875  16.379  0.4100 -0.0191 -0.6577
 1321SOL    HW215597   3.932   0.883  16.521 -0.4455 -3.3470 -0.4563
 1322SOL     OW15598   1.559   4.435   8.359  0.7001 -0.1061 -0.3785
 1322SOL    HW115599   1.587   4.494   8.289  2.8366 -2.5178 -1.5382
 1322SOL    HW215600   1.470   4.469   8.369  0.4748 -1.0786  0.9166
 1323SOL     OW15601   3.582   2.007   7.886  0.3783  0.1696 -0.0905
 1323SOL    HW115602   3.597   2.094   7.922 -0.9474 -0.0645  1.0641
 1323SOL    HW215603   3.492   1.990   7.914  1.2814 -0.6253  2.3223
 1324SOL     OW15604   0.964   3.708   3.938 -0.2284 -0.2999 -0.0501
 1324SOL    HW115605   1.021   3.785   3.944 -1.4308  0.7444 -2.2946
 1324SOL    HW215606   0.901   3.728   3.869 -0.6549  0.6997  0.6207
 1325SOL     OW15607   1.897   0.611   1.347  0.1019  0.5141 -0.9153
 1325SOL    HW115608   1.811   0.568   1.344 -0.0268  0.6513  1.4364
 1325SOL    HW215609   1.955   0.541   1.317  0.2222 -0.1898  0.9829
 1326SOL     OW15610   2.685   3.915  10.794 -0.0370  0.2666  0.6041
 1326SOL    HW115611   2.639   3.894  10.875 -1.2788  1.3561  0.1859
 1326SOL    HW215612   2.704   4.008  10.810  0.4970  0.0838  1.0280
 1327SOL     OW15613   2.279   0.873   9.130 -0.0245  0.0509 -0.7943
 1327SOL    HW115614   2.193   0.857   9.167 -0.6792 -0.8036 -2.6408
 1327SOL    HW215615   2.271   0.954   9.080  1.4698 -0.4389 -1.8435
 1328SOL     OW15616   1.317   3.978   4.900  0.2086 -0.2334  0.3676
 1328SOL    HW115617   1.361   3.991   4.984  1.0605 -1.2402  0.0613
 1328SOL    HW215618   1.224   3.971   4.925  0.2014  0.0817  0.4309
 1329SOL     OW15619   4.303   0.019   2.699 -0.1598  0.0302 -0.1196
 1329SOL    HW115620   4.247   4.716   2.635  1.6837 -1.0524 -0.9933
 1329SOL    HW215621   4.342   0.088   2.645  1.5936  0.5103  1.7538
 1330SOL     OW15622   1.680   1.090   6.809  0.4383 -0.3873  0.4200
 1330SOL    HW115623   1.761   1.116   6.853  2.1694 -0.5180 -2.6776
 1330SOL    HW215624   1.713   1.028   6.744 -1.9378 -1.5733  0.3432
 1331SOL     OW15625   1.254   0.267   3.028 -0.1614 -0.8415 -0.1563
 1331SOL    HW115626   1.312   0.343   3.034 -2.5125  0.8845  0.8630
 1331SOL    HW215627   1.311   0.193   3.049  1.3023  0.5582  0.8560
 1332SOL     OW15628   1.050   0.251  14.664  0.3019 -0.1989  0.1999
 1332SOL    HW115629   1.125   0.192  14.665  1.1189  0.8372  0.9031
 1332SOL    HW215630   1.001   0.232  14.744  2.1236 -0.4752  1.2425
 1333SOL     OW15631   4.159   4.612   1.611 -0.2023 -0.1597  0.1957
 1333SOL    HW115632   4.084   4.630   1.667 -0.4891 -1.6663  0.2942
 1333SOL    HW215633   4.125   4.543   1.554  0.1881 -1.0229  1.0088
 1334SOL     OW15634   0.108   4.452  12.565 -0.4204  0.4874 -0.3112
 1334SOL    HW115635   0.027   4.503  12.560  0.1955  1.5762  0.7864
 1334SOL    HW215636   0.175   4.520  12.557 -0.5406  0.7614  0.9960
 1335SOL     OW15637   0.002   2.049   2.845  0.0914  0.4801  0.0554
 1335SOL    HW115638   4.705   2.119   2.900  0.6803  0.1721  0.8435
 1335SOL    HW215639   0.066   2.083   2.783  0.4159 -0.7343 -0.2819
 1336SOL     OW15640   4.324   1.944   2.850 -0.2055  0.3019 -0.1220
 1336SOL    HW115641   4.389   1.911   2.912  0.7475 -0.0671 -1.3196
 1336SOL    HW215642   4.366   1.920   2.768  1.8753 -0.2731  1.0950
 1337SOL     OW15643   2.877   0.165   6.251  0.1277  0.1398  0.5078
 1337SOL    HW115644   2.808   0.156   6.317  0.4792 -1.6636  0.6182
 1337SOL    HW215645   2.892   0.075   6.223 -2.6129 -0.0830 -0.2480
 1338SOL     OW15646   2.129   4.231   8.214  0.3641 -0.1935  0.1115
 1338SOL    HW115647   2.219   4.263   8.225  0.2903 -0.2361  0.8416
 1338SOL    HW215648   2.107   4.258   8.125  0.9777 -0.5620 -0.1547
 1339SOL     OW15649   4.577   0.684   8.880 -0.2153  0.3562 -0.1560
 1339SOL    HW115650   4.645   0.750   8.868  0.7389 -0.8208 -1.2080
 1339SOL    HW215651   4.501   0.737   8.856  0.2280  0.4432 -1.3944
 1340SOL     OW15652   4.352   4.637  14.806 -0.8338  0.0113 -0.0966
 1340SOL    HW115653   4.297   4.674  14.738  1.8122  1.4289 -1.4363
 1340SOL    HW215654   4.292   4.623  14.880  2.4786 -2.5978  2.1058
 1341SOL     OW15655   3.815   2.843   5.922 -0.7801  0.2143  0.1997
 1341SOL    HW115656   3.765   2.817   5.845  0.8868  1.1774 -1.2063
 1341SOL    HW215657   3.900   2.863   5.882 -1.1535 -0.5383 -0.9408
 1342SOL     OW15658   0.871   2.066   4.664 -0.5108  0.5894  0.0421
 1342SOL    HW115659   0.835   2.079   4.576 -2.9054 -1.8947  0.6736
 1342SOL    HW215660   0.901   2.156   4.680 -1.3566  0.3311  3.1330
 1343SOL     OW15661   4.339   1.993   4.644 -0.0885  0.1244  0.5018
 1343SOL    HW115662   4.374   2.038   4.722 -0.1243 -1.9278  1.6978
 1343SOL    HW215663   4.302   2.066   4.594  3.1491  2.0020  0.8060
 1344SOL     OW15664   0.781   3.408  13.825 -0.5010  0.2833  0.9298
 1344SOL    HW115665   0.798   3.493  13.784  0.4317 -1.1463 -1.6777
 1344SOL    HW215666   0.865   3.392  13.868  0.3601 -0.1202 -0.8807
 1345SOL     OW15667   3.153   2.815   3.621 -0.2212  0.2040 -0.4514
 1345SOL    HW115668   3.238   2.787   3.655 -1.2268 -1.5229  0.6733
 1345SOL    HW215669   3.155   2.902   3.660  4.1896 -0.1974  0.2763
 1346SOL     OW15670   4.639   2.029   8.140 -0.1088 -0.0008  0.9699
 1346SOL    HW115671   4.546   2.026   8.163 -0.3875 -0.4595 -0.2080
 1346SOL    HW215672   4.673   2.059   8.224  2.3006  0.1206 -0.0540
 1347SOL     OW15673   0.434   1.855   0.159 -0.5015 -0.0139 -0.1675
 1347SOL    HW115674   0.499   1.819   0.098  0.0103 -0.7641  0.8151
 1347SOL    HW215675   0.379   1.889   0.088  2.2255  2.4816 -1.0588
 1348SOL     OW15676   2.411   2.591   8.688  0.3175  0.0805  0.1143
 1348SOL    HW115677   2.419   2.604   8.782 -0.0780 -0.7671  0.2602
 1348SOL    HW215678   2.497   2.571   8.652  0.3225  2.2659 -1.0719
 1349SOL     OW15679   3.688   1.094  17.474 -0.4237 -0.0118  0.0445
 1349SOL    HW115680   3.655   1.043  17.400  0.6768  0.1415 -0.5591
 1349SOL    HW215681   3.610   1.096  17.529 -0.1419  0.6253  0.4210
 1350SOL     OW15682   2.183   2.686  16.688 -0.1905  0.4080 -0.6890
 1350SOL    HW115683   2.136   2.693  16.771 -0.3566  0.2691 -0.7719
 1350SOL    HW215684   2.187   2.781  16.672  0.9383  0.7266  1.5374
 1351SOL     OW15685   3.611   2.434   2.412 -0.0196  0.6126  0.1171
 1351SOL    HW115686   3.644   2.524   2.416 -0.9312  1.0028 -1.2608
 1351SOL    HW215687   3.564   2.440   2.496 -1.7125  1.5882 -0.8913
 1352SOL     OW15688   0.288   2.488  10.138  0.4100  0.4278  0.1283
 1352SOL    HW115689   0.349   2.503  10.067  1.3939  2.3076  1.3813
 1352SOL    HW215690   0.345   2.457  10.209 -1.3857  0.1028  1.4606
 1353SOL     OW15691   0.240   4.265  15.245 -0.2321  0.4979  0.9163
 1353SOL    HW115692   0.257   4.359  15.234  1.4131 -0.0906 -1.4578
 1353SOL    HW215693   0.153   4.268  15.286 -1.0978 -2.1722 -0.7431
 1354SOL     OW15694   0.487   1.654  17.276  0.4395 -0.5053 -0.4992
 1354SOL    HW115695   0.396   1.655  17.246 -0.3946 -0.6177  2.0378
 1354SOL    HW215696   0.522   1.669  17.188 -1.4289 -0.8951 -1.3118
 1355SOL     OW15697   3.858   4.295  14.275 -0.7033  0.4581 -0.0748
 1355SOL    HW115698   3.785   4.354  14.294 -0.6338  1.5247 -3.0870
 1355SOL    HW215699   3.826   4.241  14.203 -0.7876 -1.1504  1.1659
 1356SOL     OW15700   1.533   1.922   4.920  0.0596 -0.1607 -0.0228
 1356SOL    HW115701   1.517   2.016   4.913 -0.0023 -0.1363  0.4389
 1356SOL    HW215702   1.590   1.917   4.997 -0.2279  1.0945  0.2715
 1357SOL     OW15703   3.834   0.495   3.453  0.0934 -0.2446  0.4458
 1357SOL    HW115704   3.795   0.411   3.431 -1.3908  1.2955 -2.6704
 1357SOL    HW215705   3.786   0.552   3.393 -0.7391  0.2009  1.5318
 1358SOL     OW15706   3.952   1.034  12.949  0.0010  0.4080 -0.0232
 1358SOL    HW115707   3.954   1.113  13.002  1.4391 -0.7432  1.6531
 1358SOL    HW215708   3.865   0.997  12.958 -0.0578  0.5301 -0.0905
 1359SOL     OW15709   3.429   2.929   3.699 -0.2135 -0.4343  0.4401
 1359SOL    HW115710   3.426   2.884   3.783  1.7398 -0.1240  0.6833
 1359SOL    HW215711   3.360   2.993   3.712 -0.5803 -0.6227 -0.5081
 1360SOL     OW15712   3.300   4.495   1.875 -0.1484  0.2967 -0.6663
 1360SOL    HW115713   3.365   4.524   1.939 -0.9301 -0.3274  0.3952
 1360SOL    HW215714   3.308   4.573   1.820 -1.6362  0.6482 -0.3671
 1361SOL     OW15715   0.675   1.508   4.439 -0.0039  0.5214 -0.6721
 1361SOL    HW115716   0.765   1.533   4.417  1.0565 -1.6600  1.1840
 1361SOL    HW215717   0.689   1.413   4.436  1.2285  0.6463  0.8977
 1362SOL     OW15718   3.140   4.555   2.146 -0.1531 -0.7113  0.5810
 1362SOL    HW115719   3.116   4.480   2.091 -0.4334 -0.6787  0.6569
 1362SOL    HW215720   3.175   4.518   2.228 -1.5693 -1.2904  0.9306
 1363SOL     OW15721   1.547   0.934   3.752 -0.0641 -0.4559 -0.1856
 1363SOL    HW115722   1.543   0.971   3.840 -1.0870  1.6563 -1.1151
 1363SOL    HW215723   1.562   0.840   3.763  1.0576 -0.4342 -1.3883
 1364SOL     OW15724   0.505   2.028   7.874  0.0986  0.0619 -0.3140
 1364SOL    HW115725   0.443   1.958   7.851  1.9275 -1.3067 -1.0987
 1364SOL    HW215726   0.550   1.976   7.941 -0.5335  0.1042  0.1496
 1365SOL     OW15727   4.200   0.349   7.453  0.4737 -0.0898 -0.0273
 1365SOL    HW115728   4.184   0.443   7.453  1.4011  0.0669 -1.7616
 1365SOL    HW215729   4.144   0.320   7.525  1.5775  2.0730  1.7156
 1366SOL     OW15730   0.212   2.931   2.319 -0.6337  0.8456 -0.2763
 1366SOL    HW115731   0.161   2.914   2.398  2.5883  0.3366  1.7059
 1366SOL    HW215732   0.152   2.881   2.264  0.8666 -0.2204 -0.9453
 1367SOL     OW15733   0.290   3.246  11.130  0.3197  0.2037  0.4100
 1367SOL    HW115734   0.314   3.339  11.132  0.0804  0.1869  3.0527
 1367SOL    HW215735   0.228   3.232  11.201  0.6021  0.5641  0.7239
 1368SOL     OW15736   1.774   3.344   9.178  0.2496 -0.1805  0.0220
 1368SOL    HW115737   1.834   3.269   9.189  0.9841  0.4092  0.0387
 1368SOL    HW215738   1.688   3.305   9.166 -0.3547  1.6237 -1.4063
 1369SOL     OW15739   0.832   1.352   1.800 -0.2515 -0.4550 -0.3256
 1369SOL    HW115740   0.811   1.259   1.793 -1.0938 -0.3192  0.3891
 1369SOL    HW215741   0.868   1.354   1.712 -0.1071 -1.1763 -0.2774
 1370SOL     OW15742   4.558   1.764   1.778 -0.3231 -0.1007 -0.2141
 1370SOL    HW115743   4.509   1.822   1.837 -1.5373 -1.2037 -0.1192
 1370SOL    HW215744   4.525   1.794   1.693  2.4971  0.2243 -1.1812
 1371SOL     OW15745   4.699   2.086   2.006  0.0346  0.5242  0.0197
 1371SOL    HW115746   4.725   2.030   2.079  0.5788  0.5492 -0.1552
 1371SOL    HW215747   4.697   2.013   1.945 -0.2404 -1.0735  1.9071
 1372SOL     OW15748   1.232   0.745   5.711  0.2978  0.7998 -0.0688
 1372SOL    HW115749   1.194   0.831   5.695 -1.6124 -0.3343 -1.5884
 1372SOL    HW215750   1.249   0.725   5.619  2.7669  0.3859  0.4565
 1373SOL     OW15751   3.910   1.261   7.713  0.0169  0.3360  0.2846
 1373SOL    HW115752   3.849   1.269   7.640 -0.7441 -1.7734  0.6732
 1373SOL    HW215753   3.870   1.297   7.793  0.7408 -0.2526  0.9150
 1374SOL     OW15754   3.204   0.533   5.070  0.3037  0.3086 -0.1581
 1374SOL    HW115755   3.190   0.443   5.098  0.1975 -0.5136 -2.8067
 1374SOL    HW215756   3.277   0.557   5.126 -0.2964 -1.8817  1.5764
 1375SOL     OW15757   3.739   0.997   5.155  0.0524 -0.2551 -0.6327
 1375SOL    HW115758   3.655   1.041   5.147  0.6965  0.8382 -1.4891
 1375SOL    HW215759   3.746   0.950   5.073  1.8832 -1.1340  0.0267
 1376SOL     OW15760   3.680   0.248   7.130 -0.2393  0.1596 -0.1526
 1376SOL    HW115761   3.686   0.161   7.090  0.4779 -0.2074  0.7417
 1376SOL    HW215762   3.630   0.296   7.064 -1.6108 -0.3813  0.4776
 1377SOL     OW15763   0.974   2.245   3.176  0.5928  0.0740 -0.6654
 1377SOL    HW115764   0.928   2.251   3.260 -1.6656 -2.8469 -1.6834
 1377SOL    HW215765   1.058   2.207   3.200 -0.8110 -1.3946  1.9616
 1378SOL     OW15766   1.135   1.053   2.923  0.5324 -0.3236  0.5695
 1378SOL    HW115767   1.121   0.996   2.848  0.4627  0.4241  0.0043
 1378SOL    HW215768   1.126   1.140   2.884 -1.4891 -0.1509  1.4343
 1379SOL     OW15769   0.854   3.608  16.113  0.6262 -0.1877 -0.5772
 1379SOL    HW115770   0.759   3.613  16.127  0.6692  0.2321 -0.4141
 1379SOL    HW215771   0.853   3.644  16.025  0.1147 -1.3272 -1.0288
 1380SOL     OW15772   2.164   2.110   9.421  0.3251  0.0188  0.3238
 1380SOL    HW115773   2.250   2.131   9.384 -0.0992  0.3115 -0.5038
 1380SOL    HW215774   2.182   2.135   9.512  3.0932 -0.7722  0.0034
 1381SOL     OW15775   2.256   3.480   4.417  0.2341 -0.5280 -0.2475
 1381SOL    HW115776   2.279   3.566   4.451  0.4419 -0.5200 -0.4117
 1381SOL    HW215777   2.288   3.426   4.489 -2.0198 -1.5102  0.0273
 1382SOL     OW15778   0.997   1.406  14.716 -0.3584  1.3588  0.0200
 1382SOL    HW115779   1.060   1.376  14.781 -0.3650  1.9727  0.3129
 1382SOL    HW215780   0.992   1.329  14.660 -0.3363  0.2419  1.5445
 1383SOL     OW15781   3.326   0.788   6.620  0.2582  0.2057  0.0227
 1383SOL    HW115782   3.388   0.801   6.548 -0.5108  0.7564 -0.5367
 1383SOL    HW215783   3.262   0.859   6.609 -0.9160 -0.9217 -0.4426
 1384SOL     OW15784   2.463   0.463   5.734  0.1118 -0.0203 -0.0430
 1384SOL    HW115785   2.422   0.451   5.649 -0.5854 -2.2218  0.5928
 1384SOL    HW215786   2.497   0.551   5.719 -0.0589  0.3205  1.5790
 1385SOL     OW15787   2.573   3.061   8.210  0.1825 -0.2803  0.3495
 1385SOL    HW115788   2.636   3.096   8.273  0.2217  1.5299 -0.7058
 1385SOL    HW215789   2.500   3.041   8.268 -1.6101  1.8117 -1.1654
 1386SOL     OW15790   1.479   4.137   5.863 -0.0305 -0.6344 -0.0074
 1386SOL    HW115791   1.467   4.217   5.915  1.0375  0.1188 -0.9067
 1386SOL    HW215792   1.493   4.077   5.935 -2.6837 -1.3379 -0.0664
 1387SOL     OW15793   4.297   0.631   4.923 -0.7998  0.0556 -0.3552
 1387SOL    HW115794   4.390   0.639   4.899 -1.0251  1.1520 -0.8549
 1387SOL    HW215795   4.274   0.723   4.912  1.9687  0.8187  0.1918
 1388SOL     OW15796   4.140   3.178  16.300 -0.3229  0.2324  0.3896
 1388SOL    HW115797   4.054   3.200  16.264 -0.8030  0.7401  1.8419
 1388SOL    HW215798   4.147   3.244  16.369  0.0421  1.3855 -0.7482
 1389SOL     OW15799   3.685   3.418   8.256 -0.0759 -0.0757  0.1717
 1389SOL    HW115800   3.718   3.462   8.178  2.3256 -0.1006  1.1755
 1389SOL    HW215801   3.770   3.396   8.294 -0.3281  1.6296  1.6731
 1390SOL     OW15802   2.198   2.306   6.788 -0.6630 -0.0313  0.0688
 1390SOL    HW115803   2.210   2.342   6.876  0.8189  0.2233 -0.2425
 1390SOL    HW215804   2.254   2.361   6.733  0.1896  0.0228  0.9950
 1391SOL     OW15805   3.735   1.269  13.382 -0.2937 -0.0380 -0.1320
 1391SOL    HW115806   3.666   1.233  13.437 -0.5142  0.2343 -0.2286
 1391SOL    HW215807   3.776   1.191  13.343  0.6870 -0.5429  1.9006
 1392SOL     OW15808   0.861   3.813   2.265 -0.8544  0.8339 -0.6945
 1392SOL    HW115809   0.854   3.723   2.232 -1.3238  0.5209  0.2614
 1392SOL    HW215810   0.777   3.848   2.235  0.6026  3.4266 -1.7352
 1393SOL     OW15811   3.959   2.696   2.648  0.1942  0.3394  0.2669
 1393SOL    HW115812   3.914   2.741   2.720  0.3928  0.5747  0.2438
 1393SOL    HW215813   3.919   2.610   2.657 -0.9512  0.7993 -0.3846
 1394SOL     OW15814   0.966   2.272  17.174  0.1079 -0.5798 -0.3599
 1394SOL    HW115815   0.949   2.347  17.231  2.0284  1.9843 -3.1380
 1394SOL    HW215816   0.958   2.314  17.089 -0.2432 -0.3554 -0.2147
 1395SOL     OW15817   2.739   4.195   8.374  0.0259 -0.0619  0.6223
 1395SOL    HW115818   2.735   4.100   8.361 -1.4006  0.2179 -0.9482
 1395SOL    HW215819   2.800   4.206   8.447 -0.7026 -1.9814  1.5332
 1396SOL     OW15820   2.575   3.154  10.032  0.1714 -0.1072 -0.4810
 1396SOL    HW115821   2.527   3.093   9.976  2.3921 -1.9841 -0.3085
 1396SOL    HW215822   2.604   3.210   9.960 -0.9391  0.5701 -0.4153
 1397SOL     OW15823   3.195   0.715  16.860 -0.7088  0.5338 -0.0172
 1397SOL    HW115824   3.203   0.784  16.927  0.6294 -0.0854  0.4709
 1397SOL    HW215825   3.192   0.770  16.782 -1.3270 -1.3166 -1.2915
 1398SOL     OW15826   2.363   0.829   1.084 -0.3759  0.0712 -0.4726
 1398SOL    HW115827   2.383   0.821   0.991  0.9093 -1.0546 -0.1092
 1398SOL    HW215828   2.306   0.752   1.089  2.9994 -2.3792  0.0626
 1399SOL     OW15829   4.204   1.374   2.228  0.5166 -0.0581  0.3460
 1399SOL    HW115830   4.251   1.350   2.147  1.4938 -1.2122  1.2435
 1399SOL    HW215831   4.148   1.444   2.195  1.3359 -0.4681 -1.9154
 1400SOL     OW15832   3.189   2.548   8.220 -0.0733  0.0420  0.2151
 1400SOL    HW115833   3.144   2.632   8.230 -1.5507 -0.7994  0.7315
 1400SOL    HW215834   3.132   2.487   8.267  0.1454  1.2766  2.0644
 1401SOL     OW15835   0.844   2.574  14.459 -0.4750  0.6986 -0.2970
 1401SOL    HW115836   0.804   2.550  14.375 -0.7835  1.1901 -0.2847
 1401SOL    HW215837   0.769   2.603  14.511 -0.0663  1.7402 -0.2824
 1402SOL     OW15838   1.104   4.307   6.171 -0.2976 -0.2672  0.3806
 1402SOL    HW115839   1.110   4.309   6.267  0.5645  0.6898  0.3000
 1402SOL    HW215840   1.119   4.214   6.150  0.4545 -0.1448  0.3713
 1403SOL     OW15841   3.456   3.252   4.232 -0.1007  0.3391  0.1026
 1403SOL    HW115842   3.444   3.159   4.215 -0.2150  0.3381  0.1873
 1403SOL    HW215843   3.414   3.264   4.317 -0.4670  0.6331 -0.1173
 1404SOL     OW15844   0.168   1.765   2.422  0.3818  0.3732 -0.0349
 1404SOL    HW115845   0.097   1.736   2.480 -1.3078  1.3691 -1.6274
 1404SOL    HW215846   0.237   1.703   2.445 -1.1633 -1.4578 -0.2563
 1405SOL     OW15847   3.522   1.110   5.879 -0.1658  0.5629  0.2622
 1405SOL    HW115848   3.482   1.167   5.813 -0.3885  2.0393  1.6810
 1405SOL    HW215849   3.456   1.118   5.948 -0.5323 -0.4264  0.0357
 1406SOL     OW15850   3.415   0.178   8.650 -1.0331  0.5777 -0.3561
 1406SOL    HW115851   3.381   0.205   8.735 -1.0239 -0.0571 -0.1455
 1406SOL    HW215852   3.404   0.085   8.670  0.7185  0.6141  0.8298
 1407SOL     OW15853   1.751   0.545   8.408  0.3393  0.2095  0.0521
 1407SOL    HW115854   1.712   0.613   8.462  1.1970  0.9628 -0.2712
 1407SOL    HW215855   1.714   0.581   8.328 -2.1437  0.0703  1.1426
 1408SOL     OW15856   3.005   1.691   3.764 -0.2724  0.2120 -0.4524
 1408SOL    HW115857   3.014   1.727   3.675 -0.3868  0.3248 -0.4189
 1408SOL    HW215858   3.078   1.629   3.758 -0.0651  0.3149  1.0039
 1409SOL     OW15859   0.078   3.065   3.960  0.1876 -0.0257 -0.5663
 1409SOL    HW115860   0.113   3.151   3.935 -0.4378 -0.1791 -1.9864
 1409SOL    HW215861   0.087   3.030   3.872 -0.0672  2.0625 -1.4207
 1410SOL     OW15862   1.782   3.946  16.907  0.1036 -0.0192  0.2629
 1410SOL    HW115863   1.849   3.909  16.849 -0.0986  1.6940 -1.0646
 1410SOL    HW215864   1.822   4.031  16.925 -0.2273 -0.3618  2.5727
 1411SOL     OW15865   1.205   0.338  14.973 -0.5411  0.1816 -0.1588
 1411SOL    HW115866   1.233   0.414  14.922 -0.9299  0.1747 -0.3892
 1411SOL    HW215867   1.278   0.283  14.946  0.6655  1.5839  0.2599
 1412SOL     OW15868   1.254   1.995   6.661 -0.0896  0.2545 -0.2476
 1412SOL    HW115869   1.262   2.077   6.709 -0.1593 -0.3188  0.7584
 1412SOL    HW215870   1.196   2.029   6.593  0.1251  1.1633  0.0225
 1413SOL     OW15871   0.544   3.029   9.297  0.1199  0.2341  0.1816
 1413SOL    HW115872   0.508   3.114   9.271 -3.3714 -0.8040  1.5605
 1413SOL    HW215873   0.633   3.047   9.267  0.6386 -0.3966  1.3447
 1414SOL     OW15874   3.473   4.674   9.220  0.3974 -0.7068 -0.1525
 1414SOL    HW115875   3.444   0.025   9.228  0.4237 -0.6914 -0.2290
 1414SOL    HW215876   3.533   4.682   9.293 -0.4312 -0.7457  0.5295
 1415SOL     OW15877   1.599   4.549   3.766 -0.0531 -0.4228 -0.2449
 1415SOL    HW115878   1.651   4.468   3.764 -0.2901 -0.5601 -1.0468
 1415SOL    HW215879   1.657   4.606   3.716  0.8704 -0.0598  1.2462
 1416SOL     OW15880   3.604   2.892  12.250 -0.4198  0.1556 -0.5885
 1416SOL    HW115881   3.627   2.811  12.204 -0.7892 -0.3808  0.1750
 1416SOL    HW215882   3.607   2.863  12.341 -0.2326  1.2457 -0.2382
 1417SOL     OW15883   0.474   1.944  12.384  0.3930 -0.2427  0.1564
 1417SOL    HW115884   0.400   1.887  12.363  0.2894  0.1008 -0.4057
 1417SOL    HW215885   0.530   1.910  12.315  0.8378  0.6437  0.0732
 1418SOL     OW15886   4.087   0.904   3.968 -0.2781 -0.0877 -0.3098
 1418SOL    HW115887   4.131   0.979   4.008  2.4977 -1.9211  0.1157
 1418SOL    HW215888   3.998   0.909   4.003 -0.2426 -1.7313  0.0292
 1419SOL     OW15889   0.533   3.951   5.877 -0.5319  0.0372  0.4157
 1419SOL    HW115890   0.573   4.020   5.929 -1.0753  0.8922 -0.3112
 1419SOL    HW215891   0.460   3.928   5.935 -0.5217 -2.4961 -0.5528
 1420SOL     OW15892   2.758   3.572  15.303 -0.1348 -0.0715  0.0050
 1420SOL    HW115893   2.777   3.658  15.267  1.5938 -0.5385 -0.1865
 1420SOL    HW215894   2.842   3.543  15.339  0.3386  0.1998 -0.8836
 1421SOL     OW15895   0.998   2.957   6.862 -0.2532  0.0385  0.1546
 1421SOL    HW115896   0.932   2.891   6.882  0.4413 -0.6319  0.2589
 1421SOL    HW215897   1.052   2.955   6.942  1.2288 -2.2493 -0.9294
 1422SOL     OW15898   2.029   1.152  11.063  0.0613 -0.4151  0.2460
 1422SOL    HW115899   2.029   1.178  10.971  0.0040  3.4244  1.3231
 1422SOL    HW215900   1.995   1.232  11.104  1.5215  1.5193 -2.3231
 1423SOL     OW15901   4.135   0.919   3.122 -0.3837 -0.3707  0.2954
 1423SOL    HW115902   4.182   0.915   3.205  1.3163 -0.7880 -0.6767
 1423SOL    HW215903   4.061   0.858   3.120 -1.9286  1.4466  1.8371
 1424SOL     OW15904   4.064   0.549  13.236  0.0062 -0.0375  0.1688
 1424SOL    HW115905   4.073   0.454  13.244 -1.9692 -0.2918 -0.6065
 1424SOL    HW215906   4.146   0.573  13.192 -0.0119  3.8662  2.2755
 1425SOL     OW15907   4.414   3.488   5.129 -0.2496  0.3625 -0.6527
 1425SOL    HW115908   4.386   3.528   5.047 -1.1726  1.9804  0.4571
 1425SOL    HW215909   4.423   3.566   5.185  1.3581 -1.1435  1.2000
 1426SOL     OW15910   3.813   2.990   3.780  0.0275  0.3905 -0.3221
 1426SOL    HW115911   3.892   2.938   3.794 -2.3312 -2.0395  3.6676
 1426SOL    HW215912   3.766   2.987   3.863 -0.8255  1.2637 -0.7698
 1427SOL     OW15913   4.581   2.283  11.147 -0.0124 -0.1159  0.8530
 1427SOL    HW115914   4.540   2.368  11.162  0.3900  0.2816 -0.2749
 1427SOL    HW215915   4.676   2.299  11.141 -0.2182  1.1621  0.9038
 1428SOL     OW15916   3.610   0.010   2.965  0.3965  0.3926  0.6956
 1428SOL    HW115917   3.589   0.038   3.054 -0.7958  0.0750  0.5142
 1428SOL    HW215918   3.705   0.007   2.977  0.5353  2.1044 -0.0431
 1429SOL     OW15919   1.423   2.638  14.793  0.0120 -0.2510  0.7468
 1429SOL    HW115920   1.365   2.690  14.737  1.6161 -0.1366 -0.8268
 1429SOL    HW215921   1.372   2.630  14.873  0.4823 -2.6174  0.8232
 1430SOL     OW15922   3.465   0.967   4.870  0.1329  0.2047  0.0441
 1430SOL    HW115923   3.531   0.900   4.880 -1.0840 -1.1111 -0.7725
 1430SOL    HW215924   3.517   1.038   4.908 -0.1122  0.6299 -0.4121
 1431SOL     OW15925   0.893   2.152   4.322  0.1601  0.1399 -0.1019
 1431SOL    HW115926   0.987   2.138   4.331  0.3759  1.5833 -0.0588
 1431SOL    HW215927   0.863   2.081   4.265 -2.0223  1.5793 -0.7382
 1432SOL     OW15928   0.616   1.548  12.388 -0.1646 -0.2384  0.6067
 1432SOL    HW115929   0.657   1.467  12.359 -1.6684 -0.1047 -1.9270
 1432SOL    HW215930   0.686   1.612  12.401 -0.5917  0.7760 -2.0699
 1433SOL     OW15931   0.512   1.657  16.512  0.4715 -0.2252  0.2268
 1433SOL    HW115932   0.441   1.593  16.501 -0.5951  0.7950  1.1181
 1433SOL    HW215933   0.458   1.735  16.524 -0.7541 -0.6463 -2.7762
 1434SOL     OW15934   0.114   3.898   4.581 -0.3597  0.1060  0.0213
 1434SOL    HW115935   0.163   3.977   4.556  2.0067 -1.3732  0.0290
 1434SOL    HW215936   0.151   3.837   4.518 -0.1129 -0.9957  1.2364
 1435SOL     OW15937   0.993   1.659   7.251  0.1018  0.2810 -0.1709
 1435SOL    HW115938   0.903   1.652   7.283 -0.2938  0.9436 -1.1508
 1435SOL    HW215939   1.029   1.725   7.310  2.8373  0.0180 -1.5405
 1436SOL     OW15940   1.841   0.453   9.045  0.5531  0.0349  0.2699
 1436SOL    HW115941   1.827   0.360   9.066  1.6451 -0.0752  0.5263
 1436SOL    HW215942   1.847   0.452   8.950 -0.9636 -0.8017  0.1772
 1437SOL     OW15943   2.012   0.971   8.186 -0.3494 -0.3602  0.4886
 1437SOL    HW115944   1.957   0.892   8.184 -0.8765  0.0386 -1.1085
 1437SOL    HW215945   2.079   0.954   8.120 -1.8325 -0.2997 -1.0344
 1438SOL     OW15946   3.882   2.166  14.982 -0.5181 -0.0264 -0.1723
 1438SOL    HW115947   3.888   2.178  15.077  0.4611 -1.2120 -0.0963
 1438SOL    HW215948   3.891   2.250  14.938  1.4999 -0.4786 -0.5900
 1439SOL     OW15949   2.720   0.744  11.350 -0.1132  0.4406 -0.5925
 1439SOL    HW115950   2.761   0.824  11.381 -0.9119  0.8133 -0.5112
 1439SOL    HW215951   2.690   0.703  11.431  1.7139  0.4599  0.0959
 1440SOL     OW15952   0.864   2.789   9.616  0.9560 -0.0220  0.3894
 1440SOL    HW115953   0.829   2.847   9.684 -0.2638 -0.2137 -0.0843
 1440SOL    HW215954   0.958   2.801   9.633  0.6531  1.3096  1.1312
 1441SOL     OW15955   2.563   3.097  10.486  0.3416  0.3985  0.4506
 1441SOL    HW115956   2.511   3.022  10.515 -1.3809  0.9159 -1.2848
 1441SOL    HW215957   2.508   3.173  10.506 -0.7466 -0.2483 -0.1011
 1442SOL     OW15958   0.725   2.653   1.663  0.6342  0.2688 -0.5292
 1442SOL    HW115959   0.658   2.691   1.721  1.5049  1.3607 -0.2395
 1442SOL    HW215960   0.752   2.731   1.613 -0.2980  0.2393 -1.0794
 1443SOL     OW15961   0.239   4.316  14.843 -0.2023 -0.5250 -0.0123
 1443SOL    HW115962   0.241   4.316  14.748 -1.0892 -0.1465 -0.0296
 1443SOL    HW215963   0.288   4.235  14.859  1.1337  0.2515 -0.1140
 1444SOL     OW15964   0.802   3.935   5.691 -0.2504  0.3102  0.8029
 1444SOL    HW115965   0.759   4.015   5.721  0.9822  0.8657  1.0532
 1444SOL    HW215966   0.857   3.910   5.765  0.7056  2.3191  0.7570
 1445SOL     OW15967   1.135   4.607   9.835 -0.5543  0.4215  0.2400
 1445SOL    HW115968   1.213   4.661   9.849  0.0806 -0.2874 -0.5896
 1445SOL    HW215969   1.124   4.625   9.742 -0.3257  1.6781  0.4616
 1446SOL     OW15970   4.340   1.836   1.981  0.3655 -0.5779  0.2408
 1446SOL    HW115971   4.295   1.769   1.930 -1.2608 -0.5637  1.6543
 1446SOL    HW215972   4.351   1.792   2.065  0.9070 -1.3308 -0.2323
 1447SOL     OW15973   3.044   2.840   0.750  0.0772  0.1038  0.0330
 1447SOL    HW115974   2.983   2.914   0.751  0.9602  0.8230  1.3842
 1447SOL    HW215975   2.984   2.783   0.798 -0.8257  0.3498 -0.8019
 1448SOL     OW15976   1.776   1.418   2.394  0.3557  0.1550 -0.4403
 1448SOL    HW115977   1.808   1.414   2.304  2.7752 -2.3517  0.4996
 1448SOL    HW215978   1.847   1.452   2.448 -1.0952  2.5077 -0.0549
 1449SOL     OW15979   1.514   4.240   7.068 -0.0339  0.2810  0.5147
 1449SOL    HW115980   1.542   4.149   7.064  1.2581  0.7097  0.0341
 1449SOL    HW215981   1.563   4.276   6.994 -0.2679 -0.3300  0.0643
 1450SOL     OW15982   4.439   4.722   5.207 -0.2120  0.8079  0.1927
 1450SOL    HW115983   4.439   4.735   5.112  1.2744 -0.3018  0.0465
 1450SOL    HW215984   4.527   0.016   5.222 -0.6807  1.5304  1.2934
 1451SOL     OW15985   1.484   3.467   7.744  0.1639  0.1074  0.1453
 1451SOL    HW115986   1.525   3.532   7.686 -0.0402 -0.0708 -0.1993
 1451SOL    HW215987   1.468   3.509   7.828  1.4399  0.7452  0.0681
 1452SOL     OW15988   1.147   2.795   4.672 -0.1024  0.2936 -0.0822
 1452SOL    HW115989   1.172   2.868   4.615 -0.5476 -0.5488 -1.3713
 1452SOL    HW215990   1.202   2.791   4.750  0.9423  3.1247 -0.6905
 1453SOL     OW15991   2.212   0.916   8.013  0.1221 -0.0071  0.1842
 1453SOL    HW115992   2.304   0.897   7.995 -0.7746 -3.5677 -0.6264
 1453SOL    HW215993   2.166   0.883   7.936 -0.6492 -0.3798  0.8012
 1454SOL     OW15994   1.114   3.041   9.082  0.0529 -0.5052 -0.4641
 1454SOL    HW115995   1.035   2.992   9.106 -0.8340  0.9793 -0.3858
 1454SOL    HW215996   1.077   3.099   9.015 -2.0931  1.6299  2.5416
 1455SOL     OW15997   2.878   4.296  16.912 -0.0640 -0.1961 -0.7831
 1455SOL    HW115998   2.934   4.313  16.836 -1.8365 -1.1937 -2.3232
 1455SOL    HW215999   2.795   4.330  16.877  1.2838  1.5631 -2.2778
 1456SOL     OW16000   3.213   1.636   2.013 -0.4616 -0.2211  0.3332
 1456SOL    HW116001   3.245   1.555   1.974  0.6611 -0.2635  1.3089
 1456SOL    HW216002   3.298   1.658   2.052 -0.8130  1.7983  0.0052
 1457SOL     OW16003   0.600   2.347  15.023  0.5102  0.4115  0.0722
 1457SOL    HW116004   0.609   2.253  15.009  0.9505  0.1506  2.0114
 1457SOL    HW216005   0.677   2.380  14.977  0.5462 -0.5802 -0.5756
 1458SOL     OW16006   3.188   2.438  12.942  0.0746  0.1279  0.3977
 1458SOL    HW116007   3.128   2.474  12.877 -0.7296 -0.5773  0.7488
 1458SOL    HW216008   3.241   2.371  12.900  0.0239  0.8189 -0.7499
 1459SOL     OW16009   1.254   2.437  11.870  0.0785 -0.5017  0.3498
 1459SOL    HW116010   1.215   2.510  11.822 -2.4164 -1.0827  1.4969
 1459SOL    HW216011   1.192   2.437  11.942  1.2277 -1.2132  1.3339
 1460SOL     OW16012   4.697   4.690  12.484  0.6950  0.7136  0.2276
 1460SOL    HW116013   4.727   4.710  12.573 -0.6365 -0.7320  1.0174
 1460SOL    HW216014   4.608   4.726  12.489  0.6378  0.6454 -0.2691
 1461SOL     OW16015   2.068   3.475   6.479 -0.0933  0.1513  0.4817
 1461SOL    HW116016   2.042   3.409   6.543 -1.6476 -0.9033 -1.2287
 1461SOL    HW216017   2.161   3.480   6.501  0.1977  0.2592 -0.7716
 1462SOL     OW16018   1.573   4.605   9.236  0.1591  0.0052 -0.2493
 1462SOL    HW116019   1.580   4.663   9.312 -2.2690  2.8180 -2.1992
 1462SOL    HW216020   1.664   4.620   9.210  0.1433  2.6497  1.2653
 1463SOL     OW16021   4.191   1.569   6.658  0.1261 -0.1701  0.3199
 1463SOL    HW116022   4.134   1.631   6.611 -0.1167 -1.0002 -0.4895
 1463SOL    HW216023   4.126   1.552   6.727 -0.4011  0.6892  0.0485
 1464SOL     OW16024   3.664   2.416   5.881 -0.2372 -0.6200  0.3354
 1464SOL    HW116025   3.633   2.499   5.844  2.0120 -0.0504 -0.3102
 1464SOL    HW216026   3.734   2.396   5.818 -0.9920  1.4028 -1.1404
 1465SOL     OW16027   0.566   3.646   3.017 -0.0031 -0.2717 -0.3332
 1465SOL    HW116028   0.539   3.558   2.990  0.1816 -0.4277 -0.0043
 1465SOL    HW216029   0.617   3.670   2.939  1.6882 -0.3239  0.7818
 1466SOL     OW16030   2.333   3.770   9.193  0.6800 -0.1592 -0.3330
 1466SOL    HW116031   2.349   3.713   9.268 -0.0682 -0.4506 -0.3897
 1466SOL    HW216032   2.246   3.737   9.171 -0.3943  3.1350 -1.0876
 1467SOL     OW16033   1.291   4.168   8.435 -0.1410 -0.4647 -0.2487
 1467SOL    HW116034   1.386   4.154   8.432 -0.2250 -0.6872 -1.7911
 1467SOL    HW216035   1.271   4.168   8.341 -1.0019  0.6248 -0.0764
 1468SOL     OW16036   0.095   3.451   5.111  0.6059 -0.0700 -0.1637
 1468SOL    HW116037   0.070   3.542   5.127  1.8468  0.2842 -0.2377
 1468SOL    HW216038   0.173   3.446   5.166  0.8322 -1.1422 -0.5884
 1469SOL     OW16039   2.845   3.009  12.404 -0.1196  0.5356 -0.5534
 1469SOL    HW116040   2.854   2.982  12.495  1.1519  1.4105 -0.4289
 1469SOL    HW216041   2.917   2.960  12.365 -1.7691 -0.6920 -2.0545
 1470SOL     OW16042   1.923   4.229  15.195 -0.2888 -0.2406  0.3617
 1470SOL    HW116043   1.833   4.232  15.161 -0.1366  1.1187  0.0744
 1470SOL    HW216044   1.918   4.142  15.234 -0.1133 -1.2450 -1.8794
 1471SOL     OW16045   1.107   2.779  15.181  0.1032 -0.0840 -0.8393
 1471SOL    HW116046   1.107   2.871  15.206  0.6362 -0.1670 -0.5227
 1471SOL    HW216047   1.014   2.766  15.199  0.0469 -1.2445 -1.9496
 1472SOL     OW16048   3.169   3.204   1.805  0.3649 -0.7110 -0.4679
 1472SOL    HW116049   3.233   3.247   1.863 -1.9680  2.2362 -0.0817
 1472SOL    HW216050   3.206   3.214   1.718 -0.6900 -1.5443 -1.0088
 1473SOL     OW16051   4.598   0.955  17.295 -0.3278 -0.0270 -0.4582
 1473SOL    HW116052   4.508   0.963  17.327 -0.9312  1.9603 -2.7125
 1473SOL    HW216053   4.639   1.034  17.329  0.0214  0.3164 -1.6817
 1474SOL     OW16054   4.339   1.063   7.811 -0.1626  0.1757  0.0328
 1474SOL    HW116055   4.388   1.098   7.885  0.6507 -0.3779 -0.2412
 1474SOL    HW216056   4.404   1.035   7.747  0.0699  0.0034  0.3462
 1475SOL     OW16057   2.001   0.094   9.524  0.4179 -0.2292 -0.3112
 1475SOL    HW116058   1.962   0.036   9.589  0.2237  0.4092  0.1387
 1475SOL    HW216059   2.056   0.042   9.464  0.9074  0.1463 -0.1855
 1476SOL     OW16060   1.214   1.709   7.765  0.9110  1.0583  0.5648
 1476SOL    HW116061   1.237   1.729   7.674 -1.1023  0.1262 -0.1449
 1476SOL    HW216062   1.153   1.639   7.745  0.7025  0.9784  1.4909
 1477SOL     OW16063   3.255   3.368   5.186  0.5323 -0.0259  0.5328
 1477SOL    HW116064   3.297   3.419   5.117 -0.4763  0.2663  0.1414
 1477SOL    HW216065   3.281   3.437   5.247  0.3266 -0.7636  1.4608
 1478SOL     OW16066   4.532   4.727   9.018 -0.7689  0.7609  0.7314
 1478SOL    HW116067   4.626   4.708   9.011 -1.4962 -1.7453 -1.9424
 1478SOL    HW216068   4.499   4.699   8.933  0.1103  4.2389 -0.7344
 1479SOL     OW16069   1.179   3.781   9.499 -0.1570  0.3562  0.3927
 1479SOL    HW116070   1.102   3.766   9.552 -0.9758  1.8567 -0.3570
 1479SOL    HW216071   1.242   3.713   9.523 -0.0913  0.3283  0.1500
 1480SOL     OW16072   3.597   1.867   4.898 -0.4014  0.9804 -0.1454
 1480SOL    HW116073   3.618   1.960   4.905 -0.3384  0.7748  2.2477
 1480SOL    HW216074   3.679   1.825   4.874 -0.4366  0.1423  1.2488
 1481SOL     OW16075   1.662   4.596   6.620 -0.2680  0.4695  0.3563
 1481SOL    HW116076   1.636   4.671   6.566 -0.2172 -0.6753 -1.2826
 1481SOL    HW216077   1.757   4.597   6.612 -0.1839  2.4921  1.7504
 1482SOL     OW16078   1.034   2.467  15.141  0.1524  0.1438  0.4751
 1482SOL    HW116079   1.034   2.531  15.212 -0.6883 -1.5905  2.0632
 1482SOL    HW216080   1.067   2.395  15.195  2.2804 -0.7705 -2.0760
 1483SOL     OW16081   2.308   3.667   4.980  0.4952  0.1546  0.0919
 1483SOL    HW116082   2.252   3.608   5.030 -1.0868 -1.3737 -3.5169
 1483SOL    HW216083   2.393   3.648   5.021 -0.6043 -1.1980  1.6804
 1484SOL     OW16084   1.009   4.395  12.887 -0.2311  0.3862  0.2749
 1484SOL    HW116085   0.948   4.390  12.813  1.4671 -1.5662 -0.9880
 1484SOL    HW216086   1.092   4.368  12.848 -0.2384  0.3332  0.2966
 1485SOL     OW16087   3.125   1.541   6.109 -0.0080  0.8670  0.4417
 1485SOL    HW116088   3.097   1.616   6.056  1.6229  0.6879 -0.6885
 1485SOL    HW216089   3.218   1.552   6.092  0.3310  1.2807  2.5833
 1486SOL     OW16090   1.689   3.918   5.004  0.0575  0.3187  0.7243
 1486SOL    HW116091   1.651   3.865   5.074 -1.9819  0.0982 -0.5505
 1486SOL    HW216092   1.690   4.007   5.038  0.2559  0.2657  0.8573
 1487SOL     OW16093   2.896   1.998  13.476 -0.1551  0.5237  0.6741
 1487SOL    HW116094   2.930   2.086  13.459  1.1985 -0.3850 -1.4071
 1487SOL    HW216095   2.820   2.022  13.528  0.1358 -1.5024  2.0168
 1488SOL     OW16096   3.235   2.621  16.431 -0.0107  0.0864 -0.2292
 1488SOL    HW116097   3.302   2.689  16.432  0.2077 -0.1857  2.1744
 1488SOL    HW216098   3.209   2.616  16.339  1.9619  0.3201 -0.7976
 1489SOL     OW16099   3.660   0.366   1.747 -0.2201 -0.0463  0.1088
 1489SOL    HW116100   3.743   0.414   1.744 -0.5239  0.3463 -1.8695
 1489SOL    HW216101   3.692   0.302   1.684 -1.9116 -0.8425  0.0445
 1490SOL     OW16102   2.676   4.592   6.739  0.1907 -0.8191 -0.2093
 1490SOL    HW116103   2.731   4.551   6.806  1.3416  2.4618  0.8964
 1490SOL    HW216104   2.739   4.568   6.671  0.3003 -1.8228  0.2556
 1491SOL     OW16105   1.320   4.634   4.670 -0.2364 -0.0638  0.1657
 1491SOL    HW116106   1.353   4.719   4.639 -1.2521  0.9715  1.9230
 1491SOL    HW216107   1.281   4.656   4.754 -0.1377  1.3822 -0.1706
 1492SOL     OW16108   3.884   1.825  10.334 -0.6351  0.0877 -0.4046
 1492SOL    HW116109   3.835   1.780  10.266 -0.7410  1.8866 -1.5110
 1492SOL    HW216110   3.813   1.877  10.372 -0.1176 -0.4275  1.2768
 1493SOL     OW16111   4.425   0.540  14.412 -0.1179 -0.0935  0.2444
 1493SOL    HW116112   4.486   0.480  14.372 -0.6338  0.8875 -2.0003
 1493SOL    HW216113   4.418   0.606  14.343 -2.5785 -1.5413 -0.8618
 1494SOL     OW16114   2.690   3.135  17.242  0.0691 -0.9963  0.1301
 1494SOL    HW116115   2.596   3.132  17.224 -0.0660  1.9232  0.2983
 1494SOL    HW216116   2.688   3.229  17.263  0.4301 -0.4117 -2.4068
 1495SOL     OW16117   2.434   1.461   3.903  0.0175  0.1498  0.6110
 1495SOL    HW116118   2.369   1.411   3.951  0.7100  0.4385  1.8330
 1495SOL    HW216119   2.504   1.466   3.967 -0.9220 -0.6210  1.6862
 1496SOL     OW16120   1.746   2.288   3.397 -0.0325  0.2070  0.0579
 1496SOL    HW116121   1.771   2.277   3.305  1.7712 -1.2422  0.7134
 1496SOL    HW216122   1.715   2.201   3.419 -0.2948  0.2558 -0.1185
 1497SOL     OW16123   4.615   1.445   3.605 -0.6367 -0.6245 -0.4915
 1497SOL    HW116124   4.645   1.476   3.690  0.6175 -0.1030 -1.1313
 1497SOL    HW216125   4.522   1.428   3.621 -0.2028 -1.2237  1.3606
 1498SOL     OW16126   4.173   1.294   6.526 -0.3930  0.8845 -0.1711
 1498SOL    HW116127   4.266   1.293   6.503 -0.3941  0.0052 -0.1566
 1498SOL    HW216128   4.169   1.385   6.553 -0.8503 -0.0080  2.8031
 1499SOL     OW16129   4.175   1.557   6.950  0.3036 -0.7258  0.6342
 1499SOL    HW116130   4.153   1.477   6.997 -0.0337  0.1602  1.9796
 1499SOL    HW216131   4.088   1.576   6.913  0.5321 -2.1773 -0.6760
 1500SOL     OW16132   3.241   1.177   8.342 -0.4595 -0.3243 -0.1521
 1500SOL    HW116133   3.237   1.231   8.263 -0.9350 -0.5700 -0.2945
 1500SOL    HW216134   3.329   1.139   8.335 -0.3901 -0.2205  0.1664
 1501SOL     OW16135   1.269   1.064  11.461  0.4303 -0.1004  0.0300
 1501SOL    HW116136   1.267   0.995  11.394  0.4882 -0.5529  0.4945
 1501SOL    HW216137   1.322   1.134  11.421 -0.2362  0.7277  0.6072
 1502SOL     OW16138   3.891   2.047   8.343  0.5406 -0.1486 -0.7054
 1502SOL    HW116139   3.799   2.072   8.333  0.1575 -0.5475  1.9307
 1502SOL    HW216140   3.910   2.086   8.428  2.9758  1.0147 -1.7513
 1503SOL     OW16141   3.134   0.041  11.129  0.0061  0.4040  0.2789
 1503SOL    HW116142   3.080   0.115  11.158 -0.2105 -0.2449  1.5140
 1503SOL    HW216143   3.176   0.015  11.211 -2.2611  0.8248  1.5741
 1504SOL     OW16144   1.197   2.670   6.534  0.1201  0.1373  0.7091
 1504SOL    HW116145   1.268   2.606   6.533 -0.3493 -0.3712  0.1795
 1504SOL    HW216146   1.191   2.671   6.629  1.9545 -0.4271  0.8289
 1505SOL     OW16147   3.036   3.823   5.378 -0.0403 -0.5830  0.6525
 1505SOL    HW116148   3.073   3.878   5.447  0.8299 -0.1659 -0.1375
 1505SOL    HW216149   3.013   3.744   5.427 -0.9905 -1.0690 -0.5766
 1506SOL     OW16150   3.455   4.479   3.190 -0.6214 -0.5431 -0.1764
 1506SOL    HW116151   3.445   4.385   3.201 -0.2861 -0.5970 -0.3190
 1506SOL    HW216152   3.548   4.495   3.208 -0.4105  1.9208 -3.2749
 1507SOL     OW16153   2.027   2.395   2.285 -0.4097 -0.2413 -0.2009
 1507SOL    HW116154   1.999   2.464   2.346  1.7429  1.3562 -1.0464
 1507SOL    HW216155   1.989   2.319   2.329  0.8045  0.0477  1.3485
 1508SOL     OW16156   2.408   1.281  12.018 -0.0059 -0.1541  0.6291
 1508SOL    HW116157   2.429   1.310  12.107  0.1199  0.6193  0.3477
 1508SOL    HW216158   2.420   1.186  12.026 -0.1993  0.0561  3.2463
 1509SOL     OW16159   2.900   4.308   3.444 -0.6056  0.2229 -0.0720
 1509SOL    HW116160   2.848   4.274   3.517  1.5566 -0.2468  1.2517
 1509SOL    HW216161   2.973   4.353   3.486 -0.6587 -0.6345  0.9360
 1510SOL     OW16162   4.514   3.765  17.313  0.3636 -0.3241 -0.4356
 1510SOL    HW116163   4.455   3.822  17.362  0.1379  0.6455 -1.8258
 1510SOL    HW216164   4.582   3.739  17.376 -0.0144 -0.7321 -0.1985
 1511SOL     OW16165   1.551   1.807   5.860  0.1360 -0.0276 -0.1985
 1511SOL    HW116166   1.601   1.805   5.942  0.4962  2.3835 -0.3507
 1511SOL    HW216167   1.466   1.819   5.901  0.6862  1.7315  0.4472
 1512SOL     OW16168   3.209   1.115  17.348 -0.1034 -0.1086 -0.0161
 1512SOL    HW116169   3.245   1.080  17.429 -0.0623 -0.7156 -0.2948
 1512SOL    HW216170   3.287   1.092  17.297 -1.0441  1.5668 -2.2399
 1513SOL     OW16171   3.771   4.718   2.610  0.0004  0.0209 -0.0941
 1513SOL    HW116172   3.675   4.719   2.606 -0.1188 -1.4520  2.1751
 1513SOL    HW216173   3.799   4.628   2.590  0.1646 -0.1937  1.1179
 1514SOL     OW16174   2.199   1.025   8.459 -0.1633  0.8468 -0.3924
 1514SOL    HW116175   2.128   1.088   8.474  0.5916  1.6223 -0.0381
 1514SOL    HW216176   2.238   1.025   8.547 -1.9122 -0.0765  0.3988
 1515SOL     OW16177   0.942   1.710  12.476  0.0242 -0.1831 -0.0385
 1515SOL    HW116178   0.998   1.741  12.547 -1.4472  3.0764 -0.2791
 1515SOL    HW216179   0.856   1.738  12.508 -0.1744 -0.9299  0.0785
 1516SOL     OW16180   1.807   0.067   5.796 -0.2367  0.1512  0.4559
 1516SOL    HW116181   1.740   0.016   5.842 -0.2598  0.3958  0.6953
 1516SOL    HW216182   1.865   0.089   5.869  1.5482 -1.6869 -0.4065
 1517SOL     OW16183   4.724   4.364  14.977  0.2407  0.3726  0.0737
 1517SOL    HW116184   4.679   4.290  15.017  1.3974 -0.2399  0.2346
 1517SOL    HW216185   0.075   4.341  14.958 -0.4774 -2.1087 -0.3537
 1518SOL     OW16186   0.837   4.339   3.849  0.2675 -0.6308 -0.4685
 1518SOL    HW116187   0.770   4.304   3.791 -1.5977  2.6171 -0.3079
 1518SOL    HW216188   0.898   4.363   3.779 -0.4524  0.9484 -0.5584
 1519SOL     OW16189   4.491   2.317   8.011 -0.0114 -0.3699  0.5511
 1519SOL    HW116190   4.414   2.346   7.963  0.0655 -0.6013  0.2856
 1519SOL    HW216191   4.544   2.277   7.942  1.0899 -0.3985  1.4134
 1520SOL     OW16192   2.993   3.510   9.138 -0.2922  0.8232  0.5057
 1520SOL    HW116193   3.068   3.482   9.190 -0.0123 -0.4157 -0.5919
 1520SOL    HW216194   3.031   3.567   9.071 -0.1287 -1.6660 -1.5195
 1521SOL     OW16195   4.172   2.809   3.393  0.2849 -0.4493 -0.0155
 1521SOL    HW116196   4.078   2.815   3.373  0.0642  0.6477  1.3479
 1521SOL    HW216197   4.215   2.845   3.316  0.4419  3.4184  1.8907
 1522SOL     OW16198   2.297   3.261   6.159  0.5351 -0.2448 -0.5753
 1522SOL    HW116199   2.357   3.186   6.164 -1.4084 -1.9277 -2.2042
 1522SOL    HW216200   2.210   3.224   6.178  0.3808  0.5179  0.1920
 1523SOL     OW16201   3.904   0.263   3.833 -0.3501 -0.0067 -0.1515
 1523SOL    HW116202   3.940   0.192   3.885  0.3185  0.9690  0.7148
 1523SOL    HW216203   3.978   0.312   3.797 -0.3838 -0.2765 -0.6004
 1524SOL     OW16204   2.037   0.552   2.428 -0.2228  0.7787 -0.2551
 1524SOL    HW116205   1.942   0.564   2.429 -0.5270 -1.5685  0.4626
 1524SOL    HW216206   2.059   0.570   2.337  0.2900  0.4570 -0.1946
 1525SOL     OW16207   4.288   4.371   4.389  0.0672 -0.6232  0.0823
 1525SOL    HW116208   4.358   4.426   4.354  1.9443 -2.3456  1.1272
 1525SOL    HW216209   4.298   4.305   4.321  2.6893 -1.4824  1.3083
 1526SOL     OW16210   0.375   4.131   9.281 -0.1628 -0.0659 -0.9070
 1526SOL    HW116211   0.375   4.203   9.344 -0.1885 -0.7249 -0.1480
 1526SOL    HW216212   0.455   4.153   9.234 -0.1249 -0.3276 -0.9630
 1527SOL     OW16213   0.936   0.837   5.630  0.9036  0.4587 -0.1949
 1527SOL    HW116214   0.942   0.832   5.534  2.0939  1.2159 -0.1637
 1527SOL    HW216215   0.981   0.920   5.645 -0.0588  0.5437  2.0849
 1528SOL     OW16216   4.258   4.638   4.761  0.0260  0.0861  0.2681
 1528SOL    HW116217   4.255   4.714   4.702 -0.4883 -0.0301  0.1501
 1528SOL    HW216218   4.209   4.570   4.717  0.1026 -0.0178  0.3441
 1529SOL     OW16219   1.424   1.779   3.563  0.4035 -0.3869 -0.1500
 1529SOL    HW116220   1.375   1.853   3.528 -0.1393 -0.7651 -0.1982
 1529SOL    HW216221   1.434   1.731   3.481 -1.3640  1.0081 -1.1856
 1530SOL     OW16222   3.423   4.495   6.408  0.2070 -0.1493 -0.3479
 1530SOL    HW116223   3.344   4.478   6.357 -0.5817 -0.9118  1.1311
 1530SOL    HW216224   3.467   4.557   6.350 -0.3963 -0.1884 -0.8447
 1531SOL     OW16225   2.869   2.067   8.252 -0.0299  0.3262 -0.4585
 1531SOL    HW116226   2.887   2.047   8.343 -0.8802 -0.9583 -0.5630
 1531SOL    HW216227   2.808   1.995   8.233 -1.4405  0.8855  1.9603
 1532SOL     OW16228   4.224   0.093   0.525  0.0604  0.2324 -0.2015
 1532SOL    HW116229   4.177   0.134   0.598 -0.2239 -0.0499 -0.2264
 1532SOL    HW216230   4.286   0.037   0.571 -1.9929 -1.0544  1.0130
 1533SOL     OW16231   1.364   3.348   5.343  0.4797  0.2444  0.9203
 1533SOL    HW116232   1.326   3.299   5.416  0.7219 -0.9139  0.2778
 1533SOL    HW216233   1.284   3.364   5.293 -0.3884  0.9204  2.5288
 1534SOL     OW16234   0.417   0.645   8.703  0.7850 -0.0019  0.2555
 1534SOL    HW116235   0.447   0.716   8.646 -0.3606  0.3133  0.0575
 1534SOL    HW216236   0.332   0.673   8.736  0.5117 -2.5486  1.6850
 1535SOL     OW16237   2.344   4.466   2.738 -0.5953 -0.3381 -0.0467
 1535SOL    HW116238   2.382   4.421   2.662 -0.0068 -1.6255  1.0157
 1535SOL    HW216239   2.284   4.531   2.700 -0.8664 -0.5816 -0.0342
 1536SOL     OW16240   4.271   4.214  17.710 -0.2854  0.6600 -0.0982
 1536SOL    HW116241   4.217   4.251   0.023  0.6840  1.3901  0.2555
 1536SOL    HW216242   4.256   4.270  17.634 -0.5963 -1.1744 -1.3891
 1537SOL     OW16243   4.374   3.425   4.265 -0.0745  0.6369 -0.2822
 1537SOL    HW116244   4.429   3.421   4.186 -1.6348 -0.2220 -1.3010
 1537SOL    HW216245   4.393   3.513   4.298 -0.2268  0.1341  1.1589
 1538SOL     OW16246   2.948   0.987   2.447  0.4727  0.1686 -0.0694
 1538SOL    HW116247   3.006   1.053   2.483 -0.2908  1.5630 -1.3927
 1538SOL    HW216248   2.999   0.963   2.369 -1.5821  0.7424 -1.6151
 1539SOL     OW16249   0.842   0.430   5.881 -0.2890 -0.2075 -0.5726
 1539SOL    HW116250   0.751   0.402   5.895 -0.1613 -1.3047 -1.9077
 1539SOL    HW216251   0.818   0.522   5.871  1.7729  0.3535 -0.3755
 1540SOL     OW16252   1.676   1.266   2.080 -0.2255 -0.0379 -0.3254
 1540SOL    HW116253   1.766   1.274   2.048  0.2597 -2.8550  0.2996
 1540SOL    HW216254   1.623   1.293   2.006 -1.5982  1.1691  1.1038
 1541SOL     OW16255   3.024   3.162   6.056  0.6213  0.6784  0.4070
 1541SOL    HW116256   2.933   3.181   6.080  0.1888 -2.8566  1.4590
 1541SOL    HW216257   3.057   3.158   6.146 -1.2344 -1.6983  0.9638
 1542SOL     OW16258   0.330   1.571   5.729 -0.3137 -0.4991 -0.5717
 1542SOL    HW116259   0.255   1.566   5.788  0.4109 -0.3029  0.3846
 1542SOL    HW216260   0.329   1.664   5.705  0.8224 -0.0545  1.0652
 1543SOL     OW16261   3.347   2.519  13.480  0.2495 -0.0853 -0.1892
 1543SOL    HW116262   3.264   2.560  13.505 -0.0814  0.0008 -1.4214
 1543SOL    HW216263   3.326   2.507  13.387 -1.2711  1.9112 -0.1122
 1544SOL     OW16264   3.126   2.512   1.812 -0.6909 -0.3570 -0.6340
 1544SOL    HW116265   3.121   2.569   1.889  0.1696 -3.1193  1.4692
 1544SOL    HW216266   3.116   2.425   1.852  1.3999  0.8186  2.4469
 1545SOL     OW16267   4.319   3.980   9.964 -0.0428  0.4957 -0.5425
 1545SOL    HW116268   4.366   3.899   9.944  1.2719  1.2898 -0.7223
 1545SOL    HW216269   4.253   3.941  10.021 -1.0442 -0.2955 -2.2291
 1546SOL     OW16270   2.180   2.826   7.844  0.2267  0.1057  0.2776
 1546SOL    HW116271   2.163   2.831   7.750  0.9888 -1.0719  0.0696
 1546SOL    HW216272   2.140   2.911   7.861 -0.8638 -0.4192  0.3942
 1547SOL     OW16273   4.678   3.258   5.258  0.0718  0.1159  0.2435
 1547SOL    HW116274   4.702   3.328   5.197 -2.5751  0.3130 -0.5535
 1547SOL    HW216275   0.025   3.231   5.288  0.3749  2.2852  1.3593
 1548SOL     OW16276   1.272   2.500   9.660  0.1206 -0.0744 -0.3516
 1548SOL    HW116277   1.180   2.473   9.658  0.2215 -0.4113 -0.4686
 1548SOL    HW216278   1.265   2.591   9.631 -1.5219 -0.1829 -0.2993
 1549SOL     OW16279   4.378   0.090   4.499  0.0365 -0.5417  0.2453
 1549SOL    HW116280   4.440   0.162   4.507  2.0776 -2.2083 -0.6723
 1549SOL    HW216281   4.434   0.014   4.515  0.2785 -0.3589  0.2686
 1550SOL     OW16282   2.753   0.052   0.507 -0.6968 -0.0472  0.6884
 1550SOL    HW116283   2.762   0.127   0.565  1.5394  1.7580 -2.0503
 1550SOL    HW216284   2.660   0.027   0.505 -0.7228  0.0901  0.2441
 1551SOL     OW16285   4.660   4.309   9.492  1.0353  0.1646  0.0677
 1551SOL    HW116286   4.626   4.220   9.498  2.8464 -0.5433 -0.1749
 1551SOL    HW216287   4.628   4.328   9.404 -0.4213 -1.7761  0.1746
 1552SOL     OW16288   0.878   3.555   2.189 -0.6920  0.5895 -0.2824
 1552SOL    HW116289   0.828   3.485   2.232 -1.2186  1.4310  0.4878
 1552SOL    HW216290   0.969   3.531   2.205 -0.8463  0.1748 -0.0165
 1553SOL     OW16291   1.480   1.405  13.065  0.0522 -0.4849 -0.1421
 1553SOL    HW116292   1.556   1.355  13.095  0.5275  1.0641  1.2652
 1553SOL    HW216293   1.481   1.475  13.131 -0.8341 -0.5016 -0.1122
 1554SOL     OW16294   0.348   1.656  13.771 -0.1507 -0.1790 -0.1746
 1554SOL    HW116295   0.380   1.648  13.681 -0.1827  3.1574 -0.4713
 1554SOL    HW216296   0.338   1.751  13.777  0.0920 -0.0924 -1.1786
 1555SOL     OW16297   0.013   2.883  16.616  0.0580  0.3292  0.0669
 1555SOL    HW116298   4.688   2.931  16.667  1.0126  0.3495  1.2688
 1555SOL    HW216299   0.095   2.888  16.665  0.1501  0.3066 -0.0846
 1556SOL     OW16300   0.724   0.426  14.762 -0.1700 -0.3586 -0.3194
 1556SOL    HW116301   0.783   0.459  14.695  0.0629 -0.9404 -0.3921
 1556SOL    HW216302   0.750   0.339  14.792  0.7420  0.2991  0.8001
 1557SOL     OW16303   1.584   2.120   2.988  0.6468  0.4565 -0.1375
 1557SOL    HW116304   1.498   2.103   2.949  0.7943 -2.9809  1.0196
 1557SOL    HW216305   1.553   2.165   3.067 -0.7773 -1.4832  0.4066
 1558SOL     OW16306   1.752   0.372   7.908 -0.2617 -0.3178  0.3398
 1558SOL    HW116307   1.816   0.321   7.958  0.3908  0.6467  0.5031
 1558SOL    HW216308   1.756   0.329   7.823  1.8693 -2.8788  1.7408
 1559SOL     OW16309   0.817   0.676  12.401  0.6434 -0.0596 -0.3284
 1559SOL    HW116310   0.834   0.698  12.309  1.0591 -0.5428 -0.3685
 1559SOL    HW216311   0.839   0.750  12.457 -1.5216  0.8552 -0.6791
 1560SOL     OW16312   4.512   2.872   1.153  0.0452 -0.1691 -0.2670
 1560SOL    HW116313   4.483   2.886   1.063  0.1047 -3.2557 -0.7710
 1560SOL    HW216314   4.447   2.813   1.191 -1.1490  1.9969  1.0329
 1561SOL     OW16315   3.044   0.977   2.190 -0.1315  0.3399  0.5961
 1561SOL    HW116316   3.126   1.021   2.171  0.4807 -0.6054  1.0732
 1561SOL    HW216317   3.034   0.919   2.114  4.2635  2.1582 -1.4073
 1562SOL     OW16318   0.326   2.764   7.764  0.7181 -0.6904 -0.0885
 1562SOL    HW116319   0.290   2.832   7.822  1.0592 -0.5956  0.0098
 1562SOL    HW216320   0.358   2.827   7.699  1.2171 -2.2912 -1.3623
 1563SOL     OW16321   3.745   2.114   0.243  0.0536 -0.2653 -0.3913
 1563SOL    HW116322   3.716   2.034   0.287  2.0636 -0.9699 -0.3139
 1563SOL    HW216323   3.756   2.168   0.321  0.8778  0.1681 -0.8104
 1564SOL     OW16324   2.729   1.655   2.841 -0.2832 -0.1434  0.2208
 1564SOL    HW116325   2.785   1.605   2.901  1.8949  1.4406 -0.5058
 1564SOL    HW216326   2.648   1.650   2.892  0.0224 -0.0817  0.7115
 1565SOL     OW16327   2.007   0.562   9.636 -0.3765 -0.3756  0.4227
 1565SOL    HW116328   1.938   0.514   9.590 -0.5206  2.1121 -1.9494
 1565SOL    HW216329   2.086   0.547   9.584 -0.0638 -0.4682  0.9245
 1566SOL     OW16330   1.350   3.311   3.675 -0.3063 -0.3866 -0.1907
 1566SOL    HW116331   1.301   3.262   3.740 -2.0714  0.4167 -0.9148
 1566SOL    HW216332   1.276   3.345   3.625 -0.5052  0.0536  0.4030
 1567SOL     OW16333   2.818   1.322  10.064  0.2092  0.4517  0.0789
 1567SOL    HW116334   2.903   1.360  10.044  0.8205 -0.6078  0.6832
 1567SOL    HW216335   2.826   1.227  10.050  0.2648  0.6877 -1.4732
 1568SOL     OW16336   3.496   1.927  10.989 -0.0120 -0.2511  0.0563
 1568SOL    HW116337   3.489   2.016  10.956  0.9548  0.0079  0.5651
 1568SOL    HW216338   3.585   1.926  11.023 -0.6744 -0.1305  1.7627
 1569SOL     OW16339   4.279   3.576  12.124 -0.0141 -0.1239 -0.6875
 1569SOL    HW116340   4.210   3.514  12.098  1.1461 -1.7290  0.0103
 1569SOL    HW216341   4.237   3.661  12.120 -0.5516 -0.4128 -1.2554
 1570SOL     OW16342   0.795   0.393   3.660  0.1825  0.0746  0.2653
 1570SOL    HW116343   0.711   0.353   3.637  0.1722 -0.0930  0.6032
 1570SOL    HW216344   0.773   0.432   3.745 -0.5241  0.3395 -0.0352
 1571SOL     OW16345   2.237   2.828  13.855  0.2157 -0.5383 -0.4692
 1571SOL    HW116346   2.265   2.753  13.803  2.3500 -1.2395  1.6715
 1571SOL    HW216347   2.193   2.793  13.932  0.2013  3.3506  1.3090
 1572SOL     OW16348   4.674   0.913   0.747  0.0166 -0.0160 -0.4512
 1572SOL    HW116349   0.010   0.916   0.689  0.9447  0.3454  0.7971
 1572SOL    HW216350   4.617   0.853   0.698 -0.8773  1.9548 -1.8691
 1573SOL     OW16351   3.636   2.840   6.855  0.2566 -0.1305  0.1547
 1573SOL    HW116352   3.653   2.931   6.831  0.6161 -0.4511 -0.8047
 1573SOL    HW216353   3.570   2.844   6.925 -0.3533  2.7120 -0.5617
 1574SOL     OW16354   3.094   1.731   5.911  0.1201 -0.2217 -0.3147
 1574SOL    HW116355   3.175   1.775   5.886  1.2240 -0.1805  3.4168
 1574SOL    HW216356   3.037   1.804   5.932  1.8242  0.1647  2.8830
 1575SOL     OW16357   1.731   2.250  12.170 -0.4785 -0.0241 -0.0281
 1575SOL    HW116358   1.644   2.243  12.130 -0.2765 -1.1889 -0.2607
 1575SOL    HW216359   1.745   2.157  12.182  1.4928 -0.0524 -2.6165
 1576SOL     OW16360   0.059   4.294   4.537 -0.2803  0.5693  0.1184
 1576SOL    HW116361   0.004   4.246   4.598  1.2916 -2.8755 -1.2077
 1576SOL    HW216362   0.105   4.356   4.594 -1.2756 -0.0173  1.5619
 1577SOL     OW16363   1.251   0.273   2.444 -0.0565  0.1504 -0.4524
 1577SOL    HW116364   1.174   0.219   2.461  0.2184 -0.9094 -2.6062
 1577SOL    HW216365   1.325   0.212   2.449 -0.8108 -0.8461 -1.2172
 1578SOL     OW16366   4.374   0.417   9.312 -0.1360 -0.5944 -0.2805
 1578SOL    HW116367   4.385   0.327   9.282  0.7454  1.1891 -5.3328
 1578SOL    HW216368   4.403   0.467   9.235  0.5856 -1.5101 -0.6113
 1579SOL     OW16369   1.268   1.126   2.340  0.4087 -0.0557 -0.6542
 1579SOL    HW116370   1.362   1.147   2.340  0.4241 -0.1218 -0.1693
 1579SOL    HW216371   1.265   1.091   2.251 -1.7240 -0.3530 -0.4474
 1580SOL     OW16372   1.531   0.816  12.419  0.0554  0.1977 -0.5821
 1580SOL    HW116373   1.569   0.862  12.344 -0.4666 -2.0010 -2.1975
 1580SOL    HW216374   1.518   0.728  12.383  0.9681 -1.0048  2.0358
 1581SOL     OW16375   0.285   0.898   1.597  0.1077  0.0611  0.1020
 1581SOL    HW116376   0.304   0.849   1.517  1.4430 -1.2570  1.2363
 1581SOL    HW216377   0.353   0.964   1.583 -0.2072 -0.2615 -3.1141
 1582SOL     OW16378   1.284   0.672   6.914  0.2884  0.3210 -0.4550
 1582SOL    HW116379   1.343   0.689   6.841  1.2824 -1.2746 -0.0018
 1582SOL    HW216380   1.257   0.764   6.923  2.2975  0.6436  2.1708
 1583SOL     OW16381   4.334   3.684   8.410  0.2489  0.4558 -0.2306
 1583SOL    HW116382   4.245   3.662   8.438  0.0588  0.6885 -0.6546
 1583SOL    HW216383   4.372   3.623   8.473 -0.4544 -0.5035 -0.7449
 1584SOL     OW16384   2.806   4.365   6.384 -0.3242 -0.0693 -0.4169
 1584SOL    HW116385   2.829   4.397   6.471 -1.8776 -1.5069  0.5058
 1584SOL    HW216386   2.889   4.318   6.368 -0.1834  0.3029 -0.7869
 1585SOL     OW16387   1.844   0.192   7.156 -0.3141 -0.1392 -0.2074
 1585SOL    HW116388   1.770   0.252   7.164  3.9769  5.1598 -0.0445
 1585SOL    HW216389   1.839   0.177   7.061  1.4138 -1.3278 -0.1127
 1586SOL     OW16390   0.848   1.063  17.674 -0.0628  0.1605 -0.6141
 1586SOL    HW116391   0.759   1.084  17.648 -0.0463 -1.3676 -1.8908
 1586SOL    HW216392   0.823   1.056   0.009 -0.6225  2.7174 -0.5862
 1587SOL     OW16393   3.655   2.012  15.209 -0.2929  0.4065 -0.3806
 1587SOL    HW116394   3.575   2.023  15.158  0.3761 -2.1990 -1.9850
 1587SOL    HW216395   3.637   1.925  15.245 -1.4883  0.4969 -0.7396
 1588SOL     OW16396   2.479   2.074   3.489  0.2785 -0.0272 -0.1568
 1588SOL    HW116397   2.513   1.986   3.506 -2.9005 -1.5283 -1.6635
 1588SOL    HW216398   2.481   2.069   3.394 -1.6467  3.1817 -0.3656
 1589SOL     OW16399   4.473   0.517   2.191  0.4735  0.4006  0.6187
 1589SOL    HW116400   4.514   0.497   2.275  0.8340  0.3604  0.4328
 1589SOL    HW216401   4.433   0.602   2.211  0.1099 -0.0533  1.8185
 1590SOL     OW16402   1.335   0.225  14.615  0.0487  0.1912  0.1775
 1590SOL    HW116403   1.426   0.210  14.642 -0.0829 -2.5118 -0.8828
 1590SOL    HW216404   1.322   0.305  14.667 -0.1463  0.2815 -0.0112
 1591SOL     OW16405   2.674   1.446  12.009  0.1385 -0.0493 -0.1078
 1591SOL    HW116406   2.665   1.486  11.922 -1.8041  0.9483  0.5628
 1591SOL    HW216407   2.600   1.386  12.001 -0.1998  0.2469  0.8173
 1592SOL     OW16408   1.471   3.283   9.053  0.1062  0.0007 -0.4853
 1592SOL    HW116409   1.492   3.377   9.054 -0.4363  0.1138 -0.0643
 1592SOL    HW216410   1.411   3.286   9.127 -1.4192 -0.4992 -1.7247
 1593SOL     OW16411   1.670   4.084  16.550  0.3866  0.0179 -0.5309
 1593SOL    HW116412   1.611   4.154  16.522 -1.1063 -1.8960 -2.1613
 1593SOL    HW216413   1.633   4.075  16.638  0.7340 -0.1758 -0.4021
 1594SOL     OW16414   3.159   0.057   7.884  0.2244  0.0854  0.2094
 1594SOL    HW116415   3.222   4.735   7.920 -1.1863 -0.3589  1.9427
 1594SOL    HW216416   3.127   0.085   7.970  0.0339 -2.5921  0.9936
 1595SOL     OW16417   3.963   2.758   4.245 -0.2950 -0.9040 -0.1777
 1595SOL    HW116418   3.955   2.820   4.318 -1.2471 -0.2114 -0.8624
 1595SOL    HW216419   4.057   2.737   4.241 -0.3259 -1.3067  1.0703
 1596SOL     OW16420   1.768   4.022   1.210 -0.1534  0.3877 -0.4480
 1596SOL    HW116421   1.802   4.058   1.128  0.4142 -0.4442 -0.5823
 1596SOL    HW216422   1.833   4.057   1.270 -0.2770 -1.3291  0.6907
 1597SOL     OW16423   1.911   2.822  15.751 -0.1630 -0.2374 -0.0154
 1597SOL    HW116424   1.839   2.773  15.711 -0.8700  1.5487 -0.9133
 1597SOL    HW216425   1.951   2.864  15.675 -0.6821 -0.0379 -0.1790
 1598SOL     OW16426   1.819   3.456   1.871  0.8595  0.3582 -0.2343
 1598SOL    HW116427   1.881   3.527   1.886  1.2690 -0.1268  0.3889
 1598SOL    HW216428   1.860   3.392   1.929  0.8101 -0.0630 -0.6664
 1599SOL     OW16429   0.525   4.316   3.974  0.1366 -0.4912 -0.4397
 1599SOL    HW116430   0.570   4.361   4.046  1.1941  1.1289 -2.1184
 1599SOL    HW216431   0.558   4.226   3.984  1.1271 -0.1600 -0.7324
 1600SOL     OW16432   0.056   3.886   1.352  0.6097  0.3937  0.2407
 1600SOL    HW116433   0.139   3.839   1.342 -0.1658 -0.6479 -1.1298
 1600SOL    HW216434   0.035   3.875   1.445  1.7415  1.0709  0.5895
 1601SOL     OW16435   3.473   2.067   9.276 -0.3052  0.5112  0.4518
 1601SOL    HW116436   3.562   2.035   9.286  0.0391  1.0084 -1.1021
 1601SOL    HW216437   3.471   2.129   9.350 -2.2413 -0.1559  0.9628
 1602SOL     OW16438   1.453   1.906   6.232 -0.1516 -0.1744 -0.1417
 1602SOL    HW116439   1.448   1.913   6.328 -1.2927 -0.7284 -0.1553
 1602SOL    HW216440   1.537   1.860   6.234  0.6127  1.1637 -1.6020
 1603SOL     OW16441   0.413   0.252   4.453 -0.0577  0.1375 -0.3173
 1603SOL    HW116442   0.322   0.278   4.466  0.6917  1.8881  1.3115
 1603SOL    HW216443   0.433   0.205   4.534  1.6769 -0.2164 -0.9397
 1604SOL     OW16444   1.111   1.691   5.399 -0.0808  0.0762  0.0586
 1604SOL    HW116445   1.192   1.638   5.396 -0.2163 -0.0007 -1.7400
 1604SOL    HW216446   1.134   1.745   5.475  1.7726 -0.0799 -0.3714
 1605SOL     OW16447   2.305   3.423   6.608 -0.1957 -0.1003 -0.8032
 1605SOL    HW116448   2.348   3.364   6.670 -3.0625 -0.4291  0.9126
 1605SOL    HW216449   2.363   3.499   6.606  0.8385 -0.8662  0.1726
 1606SOL     OW16450   1.964   1.157   2.652  0.1897 -0.5767  0.0522
 1606SOL    HW116451   2.018   1.236   2.653  2.5072 -2.1033 -1.7082
 1606SOL    HW216452   1.948   1.125   2.741 -3.4706 -1.1418 -0.7991
 1607SOL     OW16453   4.223   1.101   8.512  0.4997  0.0342  0.2333
 1607SOL    HW116454   4.292   1.162   8.487 -0.2918  0.3458 -1.2082
 1607SOL    HW216455   4.141   1.149   8.495  0.1989  0.1264  1.9428
 1608SOL     OW16456   3.069   4.736   5.630 -0.0570 -0.8280 -0.0833
 1608SOL    HW116457   2.989   0.044   5.608  0.6274  0.8046  1.0203
 1608SOL    HW216458   3.031   4.663   5.680 -1.7202  0.3767  0.4024
 1609SOL     OW16459   0.554   1.123   3.668 -0.6897 -0.6915 -0.4881
 1609SOL    HW116460   0.631   1.118   3.726 -0.0733  0.2529 -1.2272
 1609SOL    HW216461   0.572   1.044   3.617  0.6067 -0.2610 -0.6938
 1610SOL     OW16462   0.112   3.517   5.977  0.0861  0.7301  0.7324
 1610SOL    HW116463   0.175   3.563   5.922  1.0618 -0.8415  0.5422
 1610SOL    HW216464   0.031   3.529   5.927  0.2954  2.8267  0.8933
 1611SOL     OW16465   2.356   3.992  14.646  0.2736  0.5753 -0.3269
 1611SOL    HW116466   2.421   4.053  14.678 -1.1295  2.2293 -0.6226
 1611SOL    HW216467   2.294   4.056  14.613  0.9231  1.5747  0.4129
 1612SOL     OW16468   0.408   1.850  10.330  0.9946 -0.2646  0.4788
 1612SOL    HW116469   0.358   1.791  10.386  1.8859 -2.3591 -0.9437
 1612SOL    HW216470   0.498   1.829  10.354  0.8634 -1.2321  0.1015
 1613SOL     OW16471   1.685   0.558  10.821  0.2318  0.2952  0.0924
 1613SOL    HW116472   1.600   0.519  10.801 -0.1004  0.9402  0.2295
 1613SOL    HW216473   1.698   0.526  10.910  1.1316 -0.7062 -0.3931
 1614SOL     OW16474   3.203   1.671   5.341 -1.0589  0.3800  0.4485
 1614SOL    HW116475   3.231   1.727   5.414 -1.7500  0.5390  0.5913
 1614SOL    HW216476   3.237   1.587   5.370  1.0750  1.0382 -0.1639
 1615SOL     OW16477   0.140   4.257   7.561  0.3766 -0.4406  0.0613
 1615SOL    HW116478   0.154   4.352   7.567 -2.3362 -0.1361  1.1549
 1615SOL    HW216479   0.232   4.234   7.578  0.5792 -0.6112 -1.2135
 1616SOL     OW16480   3.924   2.790  15.328  0.3215 -0.0417  0.0010
 1616SOL    HW116481   3.894   2.871  15.286 -0.4545 -0.9783 -1.2628
 1616SOL    HW216482   3.999   2.824  15.377 -2.1053  3.1981  1.4605
 1617SOL     OW16483   4.171   2.263   0.680  0.6696 -0.1552  0.5677
 1617SOL    HW116484   4.079   2.275   0.704  0.4981 -3.3902  1.6040
 1617SOL    HW216485   4.222   2.241   0.757  1.5715  2.5924  0.7523
 1618SOL     OW16486   1.799   0.287  12.515 -0.6282  0.0907 -0.2733
 1618SOL    HW116487   1.716   0.270  12.471  0.1943 -1.1528 -1.3598
 1618SOL    HW216488   1.853   0.214  12.483 -1.0042 -0.5239  0.4837
 1619SOL     OW16489   4.085   4.281  14.419 -0.0087 -0.4891  0.2167
 1619SOL    HW116490   4.102   4.192  14.449  0.9161 -0.3129  0.2112
 1619SOL    HW216491   3.999   4.277  14.376 -0.0748  6.0501 -0.2714
 1620SOL     OW16492   0.794   2.254  10.929  0.0172 -0.8521  0.7202
 1620SOL    HW116493   0.742   2.182  10.893 -0.8271  0.0854  0.0225
 1620SOL    HW216494   0.812   2.290  10.842 -0.0402 -2.1427  0.1808
 1621SOL     OW16495   3.941   3.012   9.992  0.0267 -0.0896 -0.5311
 1621SOL    HW116496   3.936   2.989  10.085 -0.2729 -2.6164 -1.1575
 1621SOL    HW216497   3.937   3.107   9.986  0.7958 -0.0115  0.2376
 1622SOL     OW16498   0.665   0.253   7.749 -0.3055 -0.2371  0.1482
 1622SOL    HW116499   0.584   0.215   7.783 -0.1726  0.2444  1.0042
 1622SOL    HW216500   0.723   0.250   7.826  0.7557 -1.0536 -0.6766
 1623SOL     OW16501   1.464   2.764   2.518  0.2316  0.1392  0.3351
 1623SOL    HW116502   1.540   2.777   2.461  0.0215  1.6996  0.4118
 1623SOL    HW216503   1.485   2.827   2.587  0.4440 -0.8870  1.1994
 1624SOL     OW16504   0.346   2.102   5.373  0.1306  0.0018 -0.6633
 1624SOL    HW116505   0.393   2.076   5.452 -0.5473 -1.6539 -0.8025
 1624SOL    HW216506   0.262   2.129   5.411  0.6565  0.8930 -0.1410
 1625SOL     OW16507   2.860   4.687  14.270 -0.4705 -0.8808 -0.2192
 1625SOL    HW116508   2.952   4.697  14.293 -1.1493  1.1275  1.6207
 1625SOL    HW216509   2.830   4.651  14.353 -0.3086 -0.1346  0.1601
 1626SOL     OW16510   2.768   2.695   4.178 -0.0386  0.0720 -0.8255
 1626SOL    HW116511   2.758   2.628   4.245  0.3770  0.0886 -0.7472
 1626SOL    HW216512   2.830   2.761   4.210 -1.8808  0.1240  2.6094
 1627SOL     OW16513   0.489   2.405  10.318 -0.0396 -0.2896  0.2080
 1627SOL    HW116514   0.582   2.409  10.340 -0.4721 -0.7240  2.0951
 1627SOL    HW216515   0.467   2.315  10.341 -0.4632  0.8116  4.0237
 1628SOL     OW16516   1.795   3.961   9.596  0.3393  0.2719  0.0736
 1628SOL    HW116517   1.826   4.029   9.537 -0.8288 -0.5612 -1.5094
 1628SOL    HW216518   1.878   3.926   9.628 -0.3287 -1.6388 -0.2978
 1629SOL     OW16519   4.697   3.526   6.665 -0.5792  0.1223 -0.1284
 1629SOL    HW116520   4.731   3.608   6.701  0.0559 -1.6784  3.3875
 1629SOL    HW216521   0.027   3.489   6.613  1.8117  2.0599  1.6860
 1630SOL     OW16522   2.706   0.630   0.900 -0.2386  0.0682 -0.2520
 1630SOL    HW116523   2.768   0.593   0.963 -1.3880  1.9683  1.9902
 1630SOL    HW216524   2.773   0.677   0.851  0.4071 -0.9084 -0.3052
 1631SOL     OW16525   1.310   4.455  13.689  0.5104 -0.1274  0.2897
 1631SOL    HW116526   1.327   4.488  13.777  0.5359 -0.6887  0.4971
 1631SOL    HW216527   1.258   4.526  13.653  1.8956  0.4381 -0.6082
 1632SOL     OW16528   3.251   3.723   1.509 -0.0750  0.4178 -0.1878
 1632SOL    HW116529   3.284   3.645   1.464  1.7077  2.9031 -3.1576
 1632SOL    HW216530   3.277   3.792   1.448  0.9499  0.7252  0.5926
 1633SOL     OW16531   0.704   2.904  14.331  0.4015 -0.4322 -0.4052
 1633SOL    HW116532   0.705   2.975  14.396  1.8307 -2.1821  1.4617
 1633SOL    HW216533   0.770   2.919  14.263 -0.0263 -0.7275 -0.8834
 1634SOL     OW16534   1.992   4.281   4.068 -0.0238 -0.1789  0.4908
 1634SOL    HW116535   1.919   4.321   4.116 -1.3462 -2.5743  0.4847
 1634SOL    HW216536   1.950   4.197   4.048 -2.4767  0.8636  1.3190
 1635SOL     OW16537   0.168   1.757   6.480  0.2374 -0.0653 -0.4373
 1635SOL    HW116538   0.106   1.707   6.428  2.2035 -1.7262 -1.1572
 1635SOL    HW216539   0.228   1.689   6.510  0.7563  0.7529  0.3861
 1636SOL     OW16540   2.508   4.006   8.902 -0.0513  0.5566 -0.2309
 1636SOL    HW116541   2.588   3.987   8.853 -0.0948 -2.3033  0.8103
 1636SOL    HW216542   2.456   4.012   8.821  2.2840 -0.2740 -1.8007
 1637SOL     OW16543   0.925   0.918   7.077 -0.7517 -0.3147 -0.4268
 1637SOL    HW116544   0.960   0.922   7.166 -1.5985 -0.3000 -0.0881
 1637SOL    HW216545   0.913   1.011   7.059 -0.3260  0.2064  1.8879
 1638SOL     OW16546   3.228   3.830   1.921 -0.1531  0.0874  0.2142
 1638SOL    HW116547   3.174   3.813   1.843  1.5114  0.8466 -1.1158
 1638SOL    HW216548   3.281   3.908   1.906 -0.7776  0.8870  2.1585
 1639SOL     OW16549   4.044   1.232   1.887 -0.0828  0.9589  0.2795
 1639SOL    HW116550   4.060   1.231   1.793  1.2076 -1.6377  0.5255
 1639SOL    HW216551   4.127   1.199   1.921 -0.2678  0.8264  0.6156
 1640SOL     OW16552   0.950   3.517   8.415  0.2326  0.0518 -0.5661
 1640SOL    HW116553   1.037   3.506   8.377 -0.5508 -0.6566 -2.1169
 1640SOL    HW216554   0.910   3.432   8.398 -0.2099  0.8367 -3.3707
 1641SOL     OW16555   0.035   2.169   8.392 -0.3127  0.1064  0.0303
 1641SOL    HW116556   0.070   2.256   8.410  0.6489 -0.3470  0.3607
 1641SOL    HW216557   4.709   2.154   8.459  0.5231  1.0480  1.0517
 1642SOL     OW16558   4.414   2.507   7.333 -0.0175  0.3715 -0.4030
 1642SOL    HW116559   4.412   2.475   7.243 -0.1396  0.9067 -0.5905
 1642SOL    HW216560   4.340   2.566   7.347 -0.9332 -0.6051 -1.1400
 1643SOL     OW16561   3.247   0.856   7.286 -0.1124  0.1508  0.1194
 1643SOL    HW116562   3.272   0.765   7.300  1.9819  0.4184 -1.9240
 1643SOL    HW216563   3.289   0.877   7.203  1.1048  1.4393  1.0670
 1644SOL     OW16564   1.098   3.685   4.276  0.3180  0.6556  0.1980
 1644SOL    HW116565   1.122   3.625   4.346 -0.7496  0.0271  0.0240
 1644SOL    HW216566   1.159   3.758   4.288  1.7597 -0.7280  1.2339
 1645SOL     OW16567   2.350   0.142   2.608 -0.3016  0.2997 -0.5302
 1645SOL    HW116568   2.421   0.205   2.621  1.6165 -2.4066  2.3111
 1645SOL    HW216569   2.367   0.095   2.526 -1.1113  0.9926 -1.0939
 1646SOL     OW16570   1.818   1.134   6.367  0.4573  0.0941  0.4752
 1646SOL    HW116571   1.823   1.185   6.448  0.3012 -0.7951  1.0449
 1646SOL    HW216572   1.878   1.179   6.308  2.6046 -1.9040  1.1556
 1647SOL     OW16573   1.906   0.586  16.300 -0.7372  0.0636 -0.5087
 1647SOL    HW116574   1.926   0.634  16.219  1.4669  0.8191  0.4687
 1647SOL    HW216575   1.814   0.560  16.298  0.2114 -3.3035  0.2789
 1648SOL     OW16576   1.367   4.545  15.173 -0.0477 -0.5296  0.1261
 1648SOL    HW116577   1.306   4.598  15.121 -2.1241 -1.0874  1.9498
 1648SOL    HW216578   1.342   4.457  15.147 -3.2317 -0.0577  1.5707
 1649SOL     OW16579   3.076   1.910   7.640  0.5355 -0.0790  0.3366
 1649SOL    HW116580   3.119   1.921   7.555 -0.2821 -0.0438 -0.0714
 1649SOL    HW216581   3.020   1.837   7.614  0.6490 -0.1403  0.2632
 1650SOL     OW16582   3.275   0.632   3.471 -0.4316  0.4061 -0.2942
 1650SOL    HW116583   3.349   0.583   3.506  0.0477  1.1633 -0.2549
 1650SOL    HW216584   3.219   0.638   3.549  0.4557  0.2153  0.3624
 1651SOL     OW16585   0.484   4.645   7.143 -0.3386 -0.0832 -0.0377
 1651SOL    HW116586   0.519   4.730   7.117 -0.7635  0.1123  0.0339
 1651SOL    HW216587   0.559   4.586   7.136  0.8109  1.8783 -4.1210
 1652SOL     OW16588   2.504   4.525   6.522  0.6917  0.2241 -0.5433
 1652SOL    HW116589   2.579   4.507   6.578  1.5434 -0.4654 -1.8936
 1652SOL    HW216590   2.467   4.437   6.521 -0.0597  0.5233  0.3930
 1653SOL     OW16591   4.077   2.158   5.407 -0.5074  0.2839 -0.8463
 1653SOL    HW116592   4.138   2.210   5.460 -0.8008 -0.3265  0.0827
 1653SOL    HW216593   4.120   2.073   5.396  0.9152  0.6622  1.6583
 1654SOL     OW16594   3.788   4.619   1.343  0.1980  0.4468 -0.3925
 1654SOL    HW116595   3.695   4.643   1.338  0.4290  0.9016 -2.2213
 1654SOL    HW216596   3.774   4.527   1.319  0.0923  0.1569  0.7440
 1655SOL     OW16597   3.593   1.649   8.012 -0.2671 -0.3176  0.4752
 1655SOL    HW116598   3.572   1.719   8.074  0.2111  0.3683 -0.1426
 1655SOL    HW216599   3.688   1.639   8.010 -0.2762 -0.7113  1.8566
 1656SOL     OW16600   4.228   1.525   3.110  0.1462 -0.0704 -0.8337
 1656SOL    HW116601   4.214   1.562   3.197  0.2369 -0.0646 -0.8214
 1656SOL    HW216602   4.320   1.545   3.091  0.9377 -1.6377  1.4563
 1657SOL     OW16603   2.125   2.830  13.097 -1.0057 -0.3798 -0.0439
 1657SOL    HW116604   2.178   2.895  13.051 -3.1568  1.0748 -0.4832
 1657SOL    HW216605   2.157   2.846  13.186 -0.9786  3.0854 -0.6614
 1658SOL     OW16606   3.819   0.928   5.419 -0.3134 -0.0171 -0.0948
 1658SOL    HW116607   3.914   0.944   5.424 -0.7128  1.6269  2.3711
 1658SOL    HW216608   3.800   0.959   5.330  1.5207  3.6186  0.7697
 1659SOL     OW16609   2.435   1.667   3.721  0.7711 -0.3859  0.2034
 1659SOL    HW116610   2.434   1.593   3.781  0.6249  1.9344  3.0506
 1659SOL    HW216611   2.377   1.722   3.774 -1.1056 -1.4952 -0.6978
 1660SOL     OW16612   4.309   1.897   9.108 -0.5560  0.3367 -0.1980
 1660SOL    HW116613   4.340   1.958   9.175  3.0349  0.3917 -1.8904
 1660SOL    HW216614   4.361   1.820   9.131  1.2676  1.7424  0.4390
 1661SOL     OW16615   3.612   3.999   2.245 -0.6288 -0.2379  0.0881
 1661SOL    HW116616   3.654   3.918   2.275 -0.0448  0.3284  0.7903
 1661SOL    HW216617   3.541   4.002   2.309 -0.7376  2.0506 -0.1543
 1662SOL     OW16618   0.221   1.478   6.879  0.0221 -0.2183 -0.0623
 1662SOL    HW116619   0.316   1.493   6.876  0.2408 -1.2934  1.2399
 1662SOL    HW216620   0.214   1.419   6.954  0.3787 -1.0823 -0.7122
 1663SOL     OW16621   3.018   3.830   4.211  0.1083 -0.3115 -0.0899
 1663SOL    HW116622   3.063   3.749   4.237  0.0589 -0.2293  0.2538
 1663SOL    HW216623   2.995   3.861   4.298 -0.0007 -1.7437  0.4027
 1664SOL     OW16624   2.525   3.328   5.536  0.1021 -0.3586  0.4752
 1664SOL    HW116625   2.591   3.299   5.473  0.0226 -1.5251  0.9373
 1664SOL    HW216626   2.498   3.245   5.576 -0.6893 -0.6372 -0.6272
 1665SOL     OW16627   2.111   4.039   1.560  0.0411  0.7801 -0.4084
 1665SOL    HW116628   2.061   4.109   1.518 -1.6138 -0.2071 -0.0927
 1665SOL    HW216629   2.200   4.072   1.549 -0.1058  0.9260 -1.1845
 1666SOL     OW16630   2.992   3.231   3.677 -0.1710 -0.0030 -0.4827
 1666SOL    HW116631   2.975   3.316   3.718  0.5171  0.2212 -0.6624
 1666SOL    HW216632   2.914   3.230   3.621  0.4526 -1.9045 -1.3165
 1667SOL     OW16633   1.262   2.454   9.273 -0.0512  0.8483 -0.2061
 1667SOL    HW116634   1.324   2.438   9.344  0.2644  1.0342 -0.4393
 1667SOL    HW216635   1.304   2.536   9.248  0.6973 -0.1340 -2.2357
 1668SOL     OW16636   1.129   1.966  10.303 -0.5630  0.0327 -0.1597
 1668SOL    HW116637   1.181   1.990  10.226 -0.3148 -1.5392 -0.4736
 1668SOL    HW216638   1.152   1.876  10.322  1.6108  1.0462  2.0303
 1669SOL     OW16639   0.965   1.147   8.683 -0.1466 -0.3349  0.6024
 1669SOL    HW116640   0.942   1.056   8.702  0.4360 -0.4548  0.7319
 1669SOL    HW216641   1.022   1.173   8.755  0.2575  1.2997 -0.3079
 1670SOL     OW16642   3.715   0.474  10.510 -0.2647  0.0156  0.3266
 1670SOL    HW116643   3.632   0.439  10.477  0.7072 -0.2984 -1.7803
 1670SOL    HW216644   3.694   0.567  10.506 -1.7064 -0.3921 -1.4274
 1671SOL     OW16645   3.263   2.892  16.162  0.3477  0.2204  0.2416
 1671SOL    HW116646   3.213   2.963  16.120 -1.4505 -0.1895  1.6962
 1671SOL    HW216647   3.314   2.855  16.090  0.9445 -0.2680  0.9260
 1672SOL     OW16648   2.077   1.966   5.374 -0.5235  0.2497  0.0456
 1672SOL    HW116649   2.087   1.924   5.289  1.9678 -1.0535  0.9734
 1672SOL    HW216650   2.006   1.911   5.406 -0.7787  0.4577 -0.1753
 1673SOL     OW16651   4.314   4.227   5.344 -0.2016  0.0056 -0.4154
 1673SOL    HW116652   4.395   4.178   5.330 -0.2354  0.0445 -0.7464
 1673SOL    HW216653   4.328   4.305   5.290  0.8328  0.4707  0.5189
 1674SOL     OW16654   3.585   3.362  17.680 -0.3753  0.2233  0.5216
 1674SOL    HW116655   3.671   3.365  17.638 -0.8897  2.3346 -0.3728
 1674SOL    HW216656   3.593   3.271  17.709 -0.9632 -0.2384 -0.7663
 1675SOL     OW16657   2.550   3.605   3.409 -1.0461 -0.2004 -0.5710
 1675SOL    HW116658   2.515   3.685   3.371 -1.1888 -0.6921 -1.4864
 1675SOL    HW216659   2.626   3.596   3.352 -0.2031  0.3053  0.4941
 1676SOL     OW16660   2.413   1.421   1.991 -0.2031  0.1137  0.0734
 1676SOL    HW116661   2.368   1.338   1.998  3.6047 -1.8325  1.3302
 1676SOL    HW216662   2.487   1.394   1.936  0.3771  1.1468  0.3500
 1677SOL     OW16663   3.706   3.916   6.022  0.5514 -0.2678  0.2346
 1677SOL    HW116664   3.726   3.934   6.114 -0.1880 -0.0619  0.3540
 1677SOL    HW216665   3.752   3.833   6.011 -0.4319 -0.6318 -1.1869
 1678SOL     OW16666   3.645   2.931   4.008  0.0844 -0.3175 -0.0706
 1678SOL    HW116667   3.663   2.936   4.102  0.8202 -0.4215 -0.2109
 1678SOL    HW216668   3.586   3.006   4.005  2.4761  1.5592 -0.1519
 1679SOL     OW16669   1.822   0.590   5.511  0.2613 -0.0483 -0.1741
 1679SOL    HW116670   1.887   0.626   5.571 -1.6972  3.9368 -0.5005
 1679SOL    HW216671   1.761   0.547   5.572  1.1435 -1.6673 -0.4447
 1680SOL     OW16672   2.781   4.496   0.387  0.0374  0.0207 -0.2118
 1680SOL    HW116673   2.837   4.477   0.462  1.8631  0.5821 -1.4110
 1680SOL    HW216674   2.841   4.521   0.316  2.7974 -0.8504  1.8277
 1681SOL     OW16675   1.073   2.785  12.184 -0.4406 -1.1345  0.6289
 1681SOL    HW116676   1.067   2.871  12.226  1.0272 -1.7125  2.0276
 1681SOL    HW216677   1.087   2.794  12.090 -0.3476  1.8473  0.9283
 1682SOL     OW16678   1.411   4.283   9.609 -0.1760  0.0875 -0.4345
 1682SOL    HW116679   1.434   4.228   9.534 -0.6677 -1.0062  0.2179
 1682SOL    HW216680   1.395   4.217   9.676 -0.0485  1.5967  1.0789
 1683SOL     OW16681   2.133   1.986   6.125  0.4821 -0.1274 -0.5134
 1683SOL    HW116682   2.198   1.928   6.164  0.6440 -0.2089 -0.9131
 1683SOL    HW216683   2.130   1.947   6.038  0.8335  0.4724 -0.7987
 1684SOL     OW16684   4.087   3.484  10.211  0.5850  0.2164 -0.5402
 1684SOL    HW116685   4.102   3.578  10.221 -3.4126  0.8630 -0.8203
 1684SOL    HW216686   4.166   3.461  10.261 -1.5967 -1.4650  2.1855
 1685SOL     OW16687   0.261   4.609   1.632 -0.3722  0.4328 -0.0107
 1685SOL    HW116688   0.188   4.661   1.599 -2.0871 -0.7528  1.9416
 1685SOL    HW216689   0.296   4.665   1.701 -0.6108 -0.1963  0.6215
 1686SOL     OW16690   3.049   1.563   4.537  0.2036  0.0642  0.7277
 1686SOL    HW116691   3.013   1.568   4.448  0.0736  0.0889  0.7820
 1686SOL    HW216692   3.142   1.540   4.535 -0.0784 -0.9317 -1.2233
 1687SOL     OW16693   4.438   2.436  16.942  0.3388  0.2000 -0.8467
 1687SOL    HW116694   4.505   2.411  16.878 -1.2415 -0.9342 -2.0428
 1687SOL    HW216695   4.498   2.476  17.006  0.2745  0.9983 -1.2838
 1688SOL     OW16696   3.859   1.260   7.016  0.4701 -0.0450 -0.4034
 1688SOL    HW116697   3.952   1.277   7.006  0.6331 -0.4316  0.4424
 1688SOL    HW216698   3.852   1.169   6.987  1.0903  0.2472 -1.4817
 1689SOL     OW16699   4.525   0.015   3.159 -0.1840  0.3276  0.0499
 1689SOL    HW116700   4.518   4.684   3.095 -0.8420  1.1715 -0.8109
 1689SOL    HW216701   4.479   4.716   3.233  1.5828 -1.2579  0.3100
 1690SOL     OW16702   1.795   1.676   3.550 -0.2628  0.1186  0.8076
 1690SOL    HW116703   1.854   1.602   3.539 -0.3226  0.2617 -0.4254
 1690SOL    HW216704   1.757   1.666   3.637 -1.7334  2.0814  0.3719
 1691SOL     OW16705   1.368   3.271   7.610 -0.5523 -0.2938 -0.5402
 1691SOL    HW116706   1.295   3.264   7.671 -0.7947 -1.4864 -0.9495
 1691SOL    HW216707   1.420   3.332   7.661 -2.8194  0.9810  0.2560
 1692SOL     OW16708   3.732   3.222   2.317 -0.0386  0.0360  0.1113
 1692SOL    HW116709   3.808   3.184   2.362  1.2419  1.7741 -0.5966
 1692SOL    HW216710   3.675   3.145   2.307 -1.6117  1.2391 -0.1135
 1693SOL     OW16711   1.294   1.779   8.380  0.1369  0.4986  0.0969
 1693SOL    HW116712   1.201   1.779   8.356  0.1143 -0.3755  0.1877
 1693SOL    HW216713   1.318   1.869   8.402  2.4550 -0.7455  2.6611
 1694SOL     OW16714   2.432   4.100   3.033 -0.5064 -0.0664  0.5117
 1694SOL    HW116715   2.527   4.110   3.040 -0.4050 -0.9410  0.4108
 1694SOL    HW216716   2.418   4.126   2.942 -0.3420 -1.7590  0.0031
 1695SOL     OW16717   1.621   1.457   5.557  1.0977 -0.2814  0.4035
 1695SOL    HW116718   1.692   1.394   5.546  0.4805 -1.4114  2.6429
 1695SOL    HW216719   1.632   1.509   5.479 -0.4508  0.6740  0.8119
 1696SOL     OW16720   0.234   0.449   8.284 -0.3796  0.4513  0.0462
 1696SOL    HW116721   0.221   0.431   8.191  2.1578  0.1982 -0.2440
 1696SOL    HW216722   0.258   0.541   8.282  0.8856  0.1204  0.1143
 1697SOL     OW16723   0.420   2.950   5.411 -0.5598  0.0520 -0.2947
 1697SOL    HW116724   0.470   3.031   5.401 -3.1055  1.7413  0.9659
 1697SOL    HW216725   0.337   2.974   5.451  0.1198 -0.7565  1.5758
 1698SOL     OW16726   2.543   2.084   1.832  0.2841 -0.2018 -0.0117
 1698SOL    HW116727   2.559   2.069   1.925  2.2719 -0.7172 -0.4507
 1698SOL    HW216728   2.632   2.082   1.797  0.6833 -2.5894  1.1520
 1699SOL     OW16729   4.255   3.485  14.828 -0.1026  0.3486 -0.6815
 1699SOL    HW116730   4.240   3.408  14.774 -0.8885 -1.8449  2.6546
 1699SOL    HW216731   4.180   3.544  14.819  0.1926  0.9567  0.8214
 1700SOL     OW16732   3.879   2.478  12.567  1.0217 -0.4316 -0.2233
 1700SOL    HW116733   3.952   2.430  12.607 -1.6378 -2.8471  1.8059
 1700SOL    HW216734   3.867   2.534  12.643 -0.9952 -0.4926 -0.5128
 1701SOL     OW16735   2.356   0.010   5.483 -0.1813 -0.5360  0.3780
 1701SOL    HW116736   2.343   0.045   5.395  0.9332 -1.2514 -0.0792
 1701SOL    HW216737   2.391   4.662   5.471 -0.3074 -1.0315  3.5505
 1702SOL     OW16738   1.690   0.764  14.218  0.1184  0.2820  0.0511
 1702SOL    HW116739   1.671   0.672  14.234 -1.6283  0.6801  0.2220
 1702SOL    HW216740   1.614   0.802  14.262  0.8189  2.8273 -0.8768
 1703SOL     OW16741   2.682   1.864   8.279 -0.4488 -0.4243 -0.1242
 1703SOL    HW116742   2.671   1.818   8.362 -0.5392  3.0042  1.7607
 1703SOL    HW216743   2.678   1.788   8.221  0.8995  0.7052 -1.6958
 1704SOL     OW16744   2.017   0.442  11.572  0.0789  0.0727 -0.6708
 1704SOL    HW116745   2.045   0.376  11.509  0.2650 -0.8354  0.3578
 1704SOL    HW216746   2.098   0.456  11.622  0.4455  1.0562 -1.5319
 1705SOL     OW16747   4.726   4.119  17.262 -0.2011  0.2673 -0.8006
 1705SOL    HW116748   4.724   4.211  17.236 -1.3609  0.2054 -0.9424
 1705SOL    HW216749   4.650   4.120  17.320  0.7597 -1.3722  0.4836
 1706SOL     OW16750   2.061   3.366   0.702 -0.2570  0.1765 -0.8423
 1706SOL    HW116751   1.984   3.314   0.677 -1.1292  1.1662 -0.2011
 1706SOL    HW216752   2.124   3.294   0.703 -2.4292 -1.7295 -0.4474
 1707SOL     OW16753   1.255   2.486   3.083  0.1486  0.4945  0.2101
 1707SOL    HW116754   1.326   2.452   3.028  0.5537 -0.9212  1.6229
 1707SOL    HW216755   1.228   2.407   3.129  1.2454  0.8646  1.5169
 1708SOL     OW16756   0.892   4.197  14.840  0.1632 -0.6894 -0.0264
 1708SOL    HW116757   0.945   4.160  14.911  1.3650  2.7813  0.8955
 1708SOL    HW216758   0.959   4.249  14.796 -2.1485  0.9282 -1.6771
 1709SOL     OW16759   3.132   3.411   0.614 -0.2131 -0.4899 -0.1439
 1709SOL    HW116760   3.173   3.350   0.552 -0.1930 -1.3924  0.7640
 1709SOL    HW216761   3.188   3.489   0.610 -1.1172  0.0395 -2.5648
 1710SOL     OW16762   3.250   0.993  16.109  0.5734 -0.3616 -0.0064
 1710SOL    HW116763   3.257   0.978  16.015 -0.7505  0.2986 -0.2196
 1710SOL    HW216764   3.154   1.000  16.108  0.6132  0.3627  1.4658
 1711SOL     OW16765   1.290   1.383   6.150  0.0063  0.2178 -0.7857
 1711SOL    HW116766   1.275   1.389   6.244  0.4826 -1.4735 -0.5911
 1711SOL    HW216767   1.266   1.468   6.115 -0.2816  0.2992 -0.3920
 1712SOL     OW16768   2.822   4.553   2.968 -0.4079  0.1621 -0.1863
 1712SOL    HW116769   2.789   4.643   2.968 -1.2899 -0.1608 -1.4054
 1712SOL    HW216770   2.881   4.556   3.043  0.1321  0.4653 -0.6229
 1713SOL     OW16771   4.722   2.010   3.678  0.1828 -0.0469 -0.4023
 1713SOL    HW116772   4.675   1.954   3.616  1.0277 -1.4578  0.2498
 1713SOL    HW216773   4.649   2.060   3.714  1.2701  1.8374 -0.7902
 1714SOL     OW16774   2.520   0.327   6.617  0.5135  0.2998 -0.2705
 1714SOL    HW116775   2.476   0.242   6.616 -0.8791  1.0034  1.2121
 1714SOL    HW216776   2.496   0.375   6.538 -0.5693 -1.0820 -0.7760
 1715SOL     OW16777   4.163   2.578  12.050 -0.4809  0.1690 -0.2968
 1715SOL    HW116778   4.117   2.659  12.071 -0.9240  0.4808 -2.5290
 1715SOL    HW216779   4.248   2.616  12.032 -0.0319 -1.7363 -2.1783
 1716SOL     OW16780   1.460   3.069  14.539 -1.0645  0.7569  0.6583
 1716SOL    HW116781   1.474   3.036  14.451  2.2888  2.7339  0.4498
 1716SOL    HW216782   1.381   3.020  14.560 -0.2344 -0.5735  0.6274
 1717SOL     OW16783   3.273   0.108   7.277 -0.3916 -0.2361 -0.5074
 1717SOL    HW116784   3.279   0.131   7.184 -1.2458 -1.6587 -0.9064
 1717SOL    HW216785   3.333   0.034   7.269 -0.4809 -0.5062  1.3082
 1718SOL     OW16786   2.615   2.002   8.035 -0.1309 -1.2419  0.0358
 1718SOL    HW116787   2.646   1.940   8.101 -1.6657  0.6447  2.5797
 1718SOL    HW216788   2.524   2.020   8.062 -0.3685 -0.3042 -1.4075
 1719SOL     OW16789   2.160   2.358   6.050 -0.3940 -0.1443 -0.3810
 1719SOL    HW116790   2.216   2.415   5.997 -1.4375  0.2312 -1.0858
 1719SOL    HW216791   2.093   2.419   6.079 -0.9585 -0.5730 -0.7742
 1720SOL     OW16792   3.905   1.058   9.077 -0.0410 -0.2509  0.1377
 1720SOL    HW116793   3.935   1.063   9.168  0.3252 -1.0483  0.0621
 1720SOL    HW216794   3.961   0.986   9.050  1.9011  1.8398 -1.4305
 1721SOL     OW16795   2.966   2.526   8.442  0.0706  0.8404 -0.2452
 1721SOL    HW116796   2.965   2.459   8.511 -0.3842  1.3821  0.2752
 1721SOL    HW216797   3.012   2.599   8.482 -0.5794  1.8537 -1.3536
 1722SOL     OW16798   3.598   1.531   6.635 -0.3765  0.0154 -0.0493
 1722SOL    HW116799   3.637   1.444   6.641  0.7104  0.3037 -2.6295
 1722SOL    HW216800   3.678   1.575   6.606 -0.3589  0.6689  1.0071
 1723SOL     OW16801   3.312   1.310  14.873 -0.7844  0.2099  0.1648
 1723SOL    HW116802   3.220   1.327  14.894 -0.7160  0.5123  0.2186
 1723SOL    HW216803   3.347   1.394  14.902  1.9461 -0.6125 -0.7558
 1724SOL     OW16804   2.571   2.392  16.353  0.3353  0.1127  0.2741
 1724SOL    HW116805   2.597   2.302  16.334  1.9803  0.7318 -0.4026
 1724SOL    HW216806   2.611   2.405  16.438  1.6720  1.9629 -0.6278
 1725SOL     OW16807   2.004   1.682  11.665 -0.1865 -0.3645  0.0428
 1725SOL    HW116808   2.031   1.685  11.757 -1.0675 -1.8721  0.3314
 1725SOL    HW216809   2.086   1.658  11.621  0.6362 -0.5714  1.6909
 1726SOL     OW16810   0.467   2.202   8.500 -0.4011  0.2796  0.0504
 1726SOL    HW116811   0.418   2.219   8.420  0.4712  0.9527 -0.3541
 1726SOL    HW216812   0.513   2.286   8.500  1.3643 -0.6796  2.0565
 1727SOL     OW16813   1.409   0.843  12.047 -0.0048 -0.1519  0.1632
 1727SOL    HW116814   1.422   0.937  12.047 -1.8539  0.1119 -1.6732
 1727SOL    HW216815   1.469   0.814  11.979  0.1611  2.3741 -0.7554
 1728SOL     OW16816   2.800   1.993   4.044  0.3084  0.2983 -0.4047
 1728SOL    HW116817   2.796   1.936   3.967  1.5226  0.2302 -0.4217
 1728SOL    HW216818   2.796   2.074   3.993  0.1036 -0.2303 -1.2375
 1729SOL     OW16819   4.336   1.299   2.001 -0.4623 -0.5541 -0.0352
 1729SOL    HW116820   4.311   1.360   1.931  0.1647  0.4895  0.6429
 1729SOL    HW216821   4.408   1.245   1.968  0.8886  0.8865  0.5662
 1730SOL     OW16822   3.230   3.259   7.309  1.4498  0.2873  0.3650
 1730SOL    HW116823   3.304   3.205   7.335 -0.5831 -2.8155 -0.3758
 1730SOL    HW216824   3.262   3.290   7.224 -1.9587  1.8774 -0.3373
 1731SOL     OW16825   2.799   1.266  15.195  0.1044 -0.5429  0.0127
 1731SOL    HW116826   2.782   1.331  15.263  1.0757 -0.3551  0.0812
 1731SOL    HW216827   2.820   1.188  15.247 -2.4450 -0.4875  1.1161
 1732SOL     OW16828   2.030   0.973   3.686 -0.3334  0.1956 -0.4783
 1732SOL    HW116829   1.965   0.985   3.617 -3.2990 -0.1466  2.2258
 1732SOL    HW216830   2.101   0.935   3.636 -1.5729  0.1172 -2.1745
 1733SOL     OW16831   3.190   3.573   2.399  0.1516 -0.2872  0.1478
 1733SOL    HW116832   3.212   3.644   2.338  2.5995 -0.9694  0.2408
 1733SOL    HW216833   3.159   3.506   2.339 -2.8957 -0.6728  2.1614
 1734SOL     OW16834   3.892   4.209   8.054 -0.1821  0.0401  0.3459
 1734SOL    HW116835   3.859   4.128   8.017 -0.6599 -0.4739  1.9468
 1734SOL    HW216836   3.813   4.262   8.045  1.7742  2.6681 -1.6437
 1735SOL     OW16837   4.205   0.398  14.503  0.0975 -0.2335  0.3607
 1735SOL    HW116838   4.260   0.320  14.508  0.4534 -0.0997 -1.1559
 1735SOL    HW216839   4.276   0.459  14.480 -0.1372  0.1250  0.5918
 1736SOL     OW16840   2.251   1.728  15.365  0.5639  0.2361 -0.2702
 1736SOL    HW116841   2.167   1.742  15.410 -0.3903 -0.3732 -1.8829
 1736SOL    HW216842   2.242   1.640  15.329 -0.5956  0.4159 -0.4327
 1737SOL     OW16843   0.345   2.026   2.915 -0.2741 -0.5032 -0.3098
 1737SOL    HW116844   0.385   2.112   2.930 -1.5936 -0.3400  2.1732
 1737SOL    HW216845   0.422   1.969   2.922 -0.3261 -0.6812 -1.1185
 1738SOL     OW16846   1.452   0.905   0.372  0.4867  0.2953 -0.2524
 1738SOL    HW116847   1.455   0.849   0.295  0.7138  0.3656 -0.2967
 1738SOL    HW216848   1.385   0.968   0.345  0.7673  0.5192 -0.4269
 1739SOL     OW16849   0.069   2.355  13.055 -0.0420 -0.3571 -0.0518
 1739SOL    HW116850   0.154   2.321  13.082  0.6241  2.3004  1.2226
 1739SOL    HW216851   0.067   2.440  13.098  0.7579 -1.1855  1.6169
 1740SOL     OW16852   0.778   2.593   7.844  0.3754 -0.1535  0.1099
 1740SOL    HW116853   0.800   2.524   7.907 -0.8839 -0.4310  0.2431
 1740SOL    HW216854   0.862   2.609   7.799  0.1377  0.2787 -0.1822
 1741SOL     OW16855   1.545   0.799   6.378  0.2746  0.4717 -0.3856
 1741SOL    HW116856   1.483   0.729   6.358  1.1354  0.7809 -4.0100
 1741SOL    HW216857   1.533   0.818   6.471  2.4943 -2.0438  0.4186
 1742SOL     OW16858   4.452   3.596   7.987  0.2190  0.9242  0.2755
 1742SOL    HW116859   4.527   3.573   8.042 -0.7627 -1.6278  0.5322
 1742SOL    HW216860   4.490   3.599   7.899  0.0386  0.9881  0.1988
 1743SOL     OW16861   1.961   2.693  15.162 -0.4045 -0.3600 -0.6369
 1743SOL    HW116862   2.050   2.695  15.198 -0.7197 -0.0341  0.1236
 1743SOL    HW216863   1.980   2.700  15.069 -0.2417  2.1934 -0.4183
 1744SOL     OW16864   1.331   0.426   9.433  0.3340  0.2513 -0.5477
 1744SOL    HW116865   1.400   0.395   9.375 -0.4058 -1.6696 -0.3963
 1744SOL    HW216866   1.266   0.420   9.363  0.5806 -0.1790 -0.7449
 1745SOL     OW16867   2.601   2.780   6.427  0.7803  0.9539 -0.2339
 1745SOL    HW116868   2.639   2.798   6.341 -0.9918  1.0199 -0.9904
 1745SOL    HW216869   2.612   2.866   6.467 -1.8387  1.7775 -1.2752
 1746SOL     OW16870   3.513   2.014   5.782 -0.2116 -0.7416  0.2962
 1746SOL    HW116871   3.504   2.080   5.712 -1.9317  0.2600  1.4454
 1746SOL    HW216872   3.585   2.048   5.835  0.2874 -4.5902  2.0760
 1747SOL     OW16873   3.641   1.292  13.117 -0.1664  0.3953  0.0393
 1747SOL    HW116874   3.683   1.376  13.095  0.3948 -0.3077 -1.5502
 1747SOL    HW216875   3.672   1.278  13.207 -1.1119  1.3365  0.5170
 1748SOL     OW16876   2.466   4.656   2.448  0.1885  0.3734  0.1532
 1748SOL    HW116877   2.384   4.614   2.473 -0.2358  0.0858 -1.7440
 1748SOL    HW216878   2.528   4.595   2.489 -0.9799 -0.3535  0.8154
 1749SOL     OW16879   0.711   2.228   6.341 -0.3431 -0.0231  0.3746
 1749SOL    HW116880   0.655   2.298   6.309 -0.0631  0.2327  0.4489
 1749SOL    HW216881   0.680   2.151   6.293  0.8720 -0.4557  0.2871
 1750SOL     OW16882   3.834   3.803   1.594 -0.4885 -0.2025 -0.0867
 1750SOL    HW116883   3.762   3.865   1.581  0.5658  1.2455  0.9212
 1750SOL    HW216884   3.782   3.725   1.611  0.8286 -0.8380  1.0213
 1751SOL     OW16885   1.544   2.019   7.823 -0.2220  0.0342 -0.5483
 1751SOL    HW116886   1.450   2.002   7.819  0.0342 -0.9145 -2.4677
 1751SOL    HW216887   1.548   2.077   7.748 -1.1404  1.7762  0.7344
 1752SOL     OW16888   1.140   1.420   7.225  0.1116  0.8724  0.0910
 1752SOL    HW116889   1.070   1.484   7.233 -0.8464 -0.0436 -0.8192
 1752SOL    HW216890   1.188   1.455   7.150  0.4327  1.7058  0.6985
 1753SOL     OW16891   3.310   2.139   6.673  0.2333 -0.5431 -0.0860
 1753SOL    HW116892   3.285   2.212   6.731 -0.6688  0.6221 -1.9447
 1753SOL    HW216893   3.238   2.089   6.635 -0.0652 -1.9342  2.2821
 1754SOL     OW16894   0.876   0.410   8.422 -0.0689  0.2844  0.1189
 1754SOL    HW116895   0.928   0.336   8.392  1.2325  0.8755  0.9001
 1754SOL    HW216896   0.791   0.371   8.440 -0.3522  0.9491  0.2293
 1755SOL     OW16897   3.009   2.031   4.403 -0.4677  0.3364  0.4871
 1755SOL    HW116898   3.067   1.970   4.449  0.3770  0.6138 -0.2408
 1755SOL    HW216899   3.074   2.101   4.398  0.0130  0.1125  3.3202
 1756SOL     OW16900   1.535   0.707   7.702  0.2950 -0.6930 -0.2428
 1756SOL    HW116901   1.512   0.745   7.787  0.0307 -0.6547 -0.3339
 1756SOL    HW216902   1.619   0.751   7.690 -0.7853  1.5561  0.3195
 1757SOL     OW16903   0.473   2.606   3.720  0.0476  0.1126  0.2489
 1757SOL    HW116904   0.490   2.684   3.667 -2.5575  2.2428  2.5143
 1757SOL    HW216905   0.407   2.561   3.668  1.3921  0.8922 -2.1023
 1758SOL     OW16906   4.640   0.381  17.508 -0.2288 -0.3370 -0.1329
 1758SOL    HW116907   4.623   0.443  17.437  0.0552  0.2029  0.2713
 1758SOL    HW216908   4.716   0.345  17.462 -0.7116  0.1088 -1.2759
 1759SOL     OW16909   3.370   1.073   5.405 -0.6304  0.2076 -0.0303
 1759SOL    HW116910   3.303   1.029   5.352 -0.8877  1.1542 -0.4929
 1759SOL    HW216911   3.369   1.011   5.478  0.9880 -1.1057 -1.1108
 1760SOL     OW16912   4.604   4.484   3.731 -0.1536  0.1561  0.4002
 1760SOL    HW116913   4.532   4.464   3.789 -0.1748  2.5227  1.2033
 1760SOL    HW216914   4.655   4.544   3.785 -0.8511  2.9131 -2.0190
 1761SOL     OW16915   2.462   0.251  16.265 -0.1655 -0.2120 -0.2258
 1761SOL    HW116916   2.427   0.318  16.206  0.8125  0.3884 -0.1266
 1761SOL    HW216917   2.376   0.209  16.273  0.2545 -0.7506  1.3706
 1762SOL     OW16918   4.665   2.460   2.832  0.2760 -0.3910 -0.5686
 1762SOL    HW116919   4.644   2.394   2.898 -0.6179  1.9173  1.4476
 1762SOL    HW216920   4.605   2.534   2.838  0.3963 -0.2689 -0.8854
 1763SOL     OW16921   0.144   0.819   5.559 -0.2441  0.2492 -0.4001
 1763SOL    HW116922   0.098   0.767   5.626 -0.2237 -1.5725 -1.7893
 1763SOL    HW216923   0.192   0.752   5.511  1.2616  1.1961 -0.2075
 1764SOL     OW16924   1.994   1.001   2.381  0.2133  0.6152  0.5904
 1764SOL    HW116925   1.993   1.060   2.457 -1.1211  0.9952  0.2862
 1764SOL    HW216926   2.068   0.943   2.399 -1.3574 -1.9984 -1.3923
 1765SOL     OW16927   2.572   4.157  14.713  0.1175  0.3702  0.5720
 1765SOL    HW116928   2.655   4.205  14.709  0.1313  0.3091  0.1277
 1765SOL    HW216929   2.528   4.214  14.776 -1.9127  0.0875 -0.6030
 1766SOL     OW16930   4.016   0.925   1.212 -0.6396  0.5294  0.7311
 1766SOL    HW116931   4.108   0.941   1.231 -0.4302 -0.3295  0.4506
 1766SOL    HW216932   3.997   1.015   1.185 -1.0516  0.5283  1.0169
 1767SOL     OW16933   2.084   1.789   5.163 -0.4088 -0.0251 -0.2498
 1767SOL    HW116934   2.167   1.805   5.117  0.3550  0.8287  1.4106
 1767SOL    HW216935   2.027   1.808   5.088 -1.1523 -0.2484  0.2663
 1768SOL     OW16936   3.121   2.759  10.604 -0.5494 -0.3372  0.2272
 1768SOL    HW116937   3.084   2.816  10.671 -1.3674 -0.4593 -0.1121
 1768SOL    HW216938   3.118   2.672  10.644 -0.9995 -1.0701 -1.3638
 1769SOL     OW16939   4.373   0.741   2.647 -0.4515 -0.1575 -0.0384
 1769SOL    HW116940   4.412   0.654   2.647  0.6223  0.3194 -0.4962
 1769SOL    HW216941   4.288   0.742   2.690 -0.9862 -1.1003 -1.0726
 1770SOL     OW16942   0.683   1.488   8.685  0.3634  0.4815 -0.0214
 1770SOL    HW116943   0.645   1.474   8.772 -1.0099  0.3860 -0.6456
 1770SOL    HW216944   0.690   1.584   8.679  1.1458  0.5465  1.8496
 1771SOL     OW16945   0.965   0.263   1.276  0.6942 -0.2831 -0.1883
 1771SOL    HW116946   0.944   0.172   1.253  0.9498 -0.2428 -0.5776
 1771SOL    HW216947   1.005   0.253   1.362 -1.7418 -1.5350  0.8096
 1772SOL     OW16948   2.084   2.484   3.864 -0.1298 -0.0631  0.9493
 1772SOL    HW116949   2.083   2.573   3.830  0.3010  0.1252  1.4339
 1772SOL    HW216950   2.178   2.469   3.857 -0.2185 -0.7099  1.0776
 1773SOL     OW16951   0.019   3.769   9.285  0.2850 -0.0475  0.1449
 1773SOL    HW116952   0.091   3.824   9.314 -1.2690  1.0548  1.9161
 1773SOL    HW216953   0.061   3.718   9.216  0.5815  1.4656 -0.7964
 1774SOL     OW16954   2.461   3.384   9.609 -0.5076 -0.3586  0.5546
 1774SOL    HW116955   2.453   3.363   9.516 -1.8692 -2.4599  1.1384
 1774SOL    HW216956   2.415   3.311   9.652 -1.9232  1.1039  1.5100
 1775SOL     OW16957   0.910   4.601   1.667  0.4469  0.0817  0.4670
 1775SOL    HW116958   0.984   4.610   1.727  0.9557 -0.3999 -0.0803
 1775SOL    HW216959   0.919   4.509   1.642 -0.3046 -0.0541  0.7116
 1776SOL     OW16960   3.690   0.401  11.261  0.1345 -0.1240 -0.1018
 1776SOL    HW116961   3.606   0.361  11.241  0.3381 -1.0426  0.8653
 1776SOL    HW216962   3.668   0.441  11.345  3.3663  1.6015 -0.0607
 1777SOL     OW16963   2.803   0.131   7.922  0.3869  0.3504  0.1173
 1777SOL    HW116964   2.839   0.043   7.932  2.2466  1.1191  0.3131
 1777SOL    HW216965   2.880   0.189   7.925  0.7389 -0.2268  2.3293
 1778SOL     OW16966   1.723   2.234   7.983 -0.9089  0.3003  0.0538
 1778SOL    HW116967   1.699   2.286   7.907  1.9871  1.1485 -0.2922
 1778SOL    HW216968   1.795   2.181   7.949  0.3853  1.0159  1.6749
 1779SOL     OW16969   4.700   2.437  16.813  0.4287 -0.1119 -0.0979
 1779SOL    HW116970   0.024   2.488  16.764 -0.7592  0.3239 -1.1883
 1779SOL    HW216971   4.733   2.352  16.782 -3.0792 -1.0000 -1.3854
 1780SOL     OW16972   0.767   0.810   8.118 -0.6399 -0.5746  0.1021
 1780SOL    HW116973   0.810   0.724   8.116 -0.4271 -0.4992  1.3074
 1780SOL    HW216974   0.687   0.793   8.167 -0.2849 -1.2787  0.4346
 1781SOL     OW16975   0.612   1.924   9.669  0.3713  0.4583  0.0188
 1781SOL    HW116976   0.547   1.941   9.737  0.6895 -0.0599  0.4591
 1781SOL    HW216977   0.626   1.830   9.685  0.2930  0.5032  0.3526
 1782SOL     OW16978   0.354   1.589   2.495  0.0029 -0.2197  0.3462
 1782SOL    HW116979   0.446   1.608   2.477 -0.2976 -0.6352 -1.6299
 1782SOL    HW216980   0.366   1.576   2.589  0.1685 -1.3476  0.1716
 1783SOL     OW16981   3.148   1.174   4.995 -0.6077 -0.7202 -0.1874
 1783SOL    HW116982   3.114   1.174   4.905 -1.8032  1.0824  0.2597
 1783SOL    HW216983   3.184   1.086   4.994 -0.7919 -0.8059  0.9315
 1784SOL     OW16984   2.857   1.023   0.557  0.1577 -0.2071 -0.0639
 1784SOL    HW116985   2.839   1.092   0.621  3.7721  0.3314  0.3783
 1784SOL    HW216986   2.841   1.076   0.478 -0.0421  0.3493  0.3484
 1785SOL     OW16987   1.206   2.711  17.753 -0.2123  0.0960  0.5688
 1785SOL    HW116988   1.182   2.641   0.056 -0.3181  0.9520  1.5269
 1785SOL    HW216989   1.116   2.729  17.724 -0.4789 -1.1494  0.6425
 1786SOL     OW16990   1.128   0.075   8.898 -0.2818  0.2104 -0.0384
 1786SOL    HW116991   1.034   0.059   8.903 -0.0450 -0.5487  1.8292
 1786SOL    HW216992   1.161   4.736   8.941 -3.0199  0.0990  1.8660
 1787SOL     OW16993   1.557   3.946   7.119  0.4463 -0.2144  0.2697
 1787SOL    HW116994   1.574   3.948   7.213  0.4095 -1.3455  0.2995
 1787SOL    HW216995   1.622   3.998   7.073  0.4324  0.8197  1.4070
 1788SOL     OW16996   2.297   2.288  13.167 -0.3849 -0.4554 -0.1817
 1788SOL    HW116997   2.325   2.362  13.113 -0.0411 -0.9806 -0.7128
 1788SOL    HW216998   2.261   2.231  13.100 -1.3369  0.2427 -0.2696
 1789SOL     OW16999   0.018   3.874  15.100 -0.1091 -0.5688 -0.0903
 1789SOL    HW117000   0.096   3.915  15.135  1.3808 -0.7605 -3.2088
 1789SOL    HW217001   0.059   3.803  15.050 -1.3506 -1.0619 -0.4400
 1790SOL     OW17002   4.348   4.336   8.511  0.1952 -0.4183 -0.5388
 1790SOL    HW117003   4.422   4.296   8.464  0.1001  0.8410 -1.7574
 1790SOL    HW217004   4.296   4.258   8.533 -0.9841  0.3080 -0.7615
 1791SOL     OW17005   4.544   3.918   6.914  0.4948 -0.0588 -0.1447
 1791SOL    HW117006   4.618   3.970   6.943  0.3038 -0.4400  1.0641
 1791SOL    HW217007   4.511   3.902   7.003  1.8163  0.3407  0.4190
 1792SOL     OW17008   1.865   0.894   5.333 -0.5616  0.2812  0.0482
 1792SOL    HW117009   1.935   0.856   5.386 -1.1621 -0.4852  0.2894
 1792SOL    HW217010   1.789   0.891   5.390 -0.9259  0.9911 -0.3923
 1793SOL     OW17011   0.061   3.288   2.658  0.7198 -0.7091 -0.3047
 1793SOL    HW117012   4.735   3.233   2.616  0.6135  0.1307 -1.2481
 1793SOL    HW217013   0.008   3.366   2.675  1.0907 -0.9922  2.2056
 1794SOL     OW17014   3.590   3.557   3.099  0.2616 -0.1316  0.0626
 1794SOL    HW117015   3.602   3.596   3.185  1.2495 -2.0769  0.8310
 1794SOL    HW217016   3.501   3.585   3.079  0.8995  1.1011 -0.9712
 1795SOL     OW17017   4.630   3.371   4.553  0.0426  0.0894  0.0634
 1795SOL    HW117018   4.681   3.329   4.623 -3.1292 -0.5433  1.9718
 1795SOL    HW217019   4.586   3.296   4.513  0.6699 -1.1104  1.6297
 1796SOL     OW17020   4.373   4.333   3.223 -0.1907 -0.5148 -0.7473
 1796SOL    HW117021   4.430   4.370   3.157  0.8726 -0.8179 -0.0053
 1796SOL    HW217022   4.314   4.275   3.174 -1.3585 -0.9463  1.1203
 1797SOL     OW17023   2.435   0.919   8.347  0.0400  0.7567  0.2785
 1797SOL    HW117024   2.476   0.992   8.301  3.0089  0.6735  2.7340
 1797SOL    HW217025   2.348   0.954   8.364 -0.5271 -0.3343 -0.3789
 1798SOL     OW17026   2.652   4.057   3.351 -0.2469 -0.3150 -0.5572
 1798SOL    HW117027   2.588   3.987   3.360 -0.6588  0.2936  1.2862
 1798SOL    HW217028   2.647   4.089   3.261  1.6539  0.6417 -0.3151
 1799SOL     OW17029   3.065   2.362   7.191  0.5588 -0.0821  0.4650
 1799SOL    HW117030   3.113   2.442   7.214  0.8203 -0.3071  0.6912
 1799SOL    HW217031   2.999   2.350   7.259 -1.7445  2.0498 -1.4191
 1800SOL     OW17032   0.385   2.800   3.982  0.2916  0.9679  0.0176
 1800SOL    HW117033   0.423   2.720   3.945 -0.7431  0.7821 -0.6413
 1800SOL    HW217034   0.410   2.870   3.923  5.3052 -1.1863 -0.3489
 1801SOL     OW17035   1.026   2.439   6.318 -0.8729 -0.5602 -0.0342
 1801SOL    HW117036   1.045   2.373   6.252  1.1388 -1.3305  1.3042
 1801SOL    HW217037   0.989   2.380   6.383  0.7506  0.7524  2.1020
 1802SOL     OW17038   2.155   0.018  13.674  0.0186 -0.3246 -0.1914
 1802SOL    HW117039   2.153   0.033  13.768  0.9208  1.0409 -0.3927
 1802SOL    HW217040   2.149   0.104  13.631 -0.6700 -0.7853 -1.0235
 1803SOL     OW17041   1.526   1.442   2.241 -0.1603  0.3958  0.1797
 1803SOL    HW117042   1.570   1.478   2.318  0.4863  1.4091 -0.6579
 1803SOL    HW217043   1.597   1.381   2.218  0.0441  0.4439  0.6805
 1804SOL     OW17044   1.506   1.884   9.255  0.0541 -0.4867 -0.2156
 1804SOL    HW117045   1.545   1.868   9.342 -1.2378  0.7555  0.5954
 1804SOL    HW217046   1.588   1.884   9.206  0.0605  1.7292 -0.2103
 1805SOL     OW17047   1.251   2.604   7.827  0.3946 -0.9690 -0.5705
 1805SOL    HW117048   1.317   2.661   7.867 -0.2217 -0.4204 -0.3439
 1805SOL    HW217049   1.170   2.655   7.826  1.8465  1.3386 -0.9112
 1806SOL     OW17050   4.521   2.706   6.401  0.3841  0.0164  0.0111
 1806SOL    HW117051   4.445   2.649   6.402 -0.0095  0.5472  0.0979
 1806SOL    HW217052   4.492   2.796   6.385 -2.0170 -0.5363  1.3650
 1807SOL     OW17053   0.294   1.523   2.780  0.5907 -0.1085  0.4362
 1807SOL    HW117054   0.374   1.559   2.817 -0.6352  1.1463  1.8613
 1807SOL    HW217055   0.237   1.598   2.797 -0.5773 -0.4393 -1.9885
 1808SOL     OW17056   2.770   0.221   8.541  0.6469  0.4582 -0.0090
 1808SOL    HW117057   2.822   0.263   8.610 -2.4847  2.7567  0.9779
 1808SOL    HW217058   2.814   0.136   8.544  0.4321  0.3426 -0.1696
 1809SOL     OW17059   1.432   4.238  16.933 -0.0507 -0.0375  0.3825
 1809SOL    HW117060   1.348   4.210  16.970 -0.8190  1.8861  0.0912
 1809SOL    HW217061   1.471   4.157  16.901  0.1489  1.2868 -2.7517
 1810SOL     OW17062   1.310   4.296   6.872 -0.0689  0.0534 -0.2083
 1810SOL    HW117063   1.347   4.264   6.954 -3.8713 -1.4645  0.9455
 1810SOL    HW217064   1.384   4.268   6.818 -0.9287 -0.3170 -1.2111
 1811SOL     OW17065   4.697   2.122   8.682  0.0660 -0.0498  0.1876
 1811SOL    HW117066   0.034   2.176   8.669 -1.0707  1.4599 -0.2669
 1811SOL    HW217067   0.009   2.048   8.713 -2.4148 -2.1437 -0.5566
 1812SOL     OW17068   3.832   4.061  16.471  0.3370  0.2937  0.1341
 1812SOL    HW117069   3.895   4.128  16.500  2.1222 -0.4860 -1.9818
 1812SOL    HW217070   3.821   4.015  16.555 -3.8945 -0.7257 -1.0108
 1813SOL     OW17071   3.208   3.256   0.416 -0.5013 -0.4446  0.1712
 1813SOL    HW117072   3.192   3.284   0.326 -0.8845  1.3125  0.7757
 1813SOL    HW217073   3.130   3.211   0.449  0.4632 -2.2316 -0.0454
 1814SOL     OW17074   0.207   0.657   2.662 -0.1834 -0.1108  0.1128
 1814SOL    HW117075   0.234   0.713   2.590  0.9601 -1.6285 -0.6296
 1814SOL    HW217076   0.290   0.610   2.660  1.6023  2.9590  0.9543
 1815SOL     OW17077   1.592   4.209   2.319  0.3907  0.3814  0.1558
 1815SOL    HW117078   1.512   4.159   2.339 -0.6572  1.1318 -2.1339
 1815SOL    HW217079   1.603   4.175   2.230 -2.2019 -1.3663  0.4907
 1816SOL     OW17080   3.169   2.066   3.334  0.7766 -0.1210 -0.0196
 1816SOL    HW117081   3.158   2.123   3.258 -1.2587 -1.1670 -0.4881
 1816SOL    HW217082   3.257   2.090   3.365 -0.3616  4.6246 -0.4443
 1817SOL     OW17083   1.343   1.810   6.015 -0.1330 -0.4142 -0.0296
 1817SOL    HW117084   1.274   1.744   6.029 -0.7547  0.1967 -0.2026
 1817SOL    HW217085   1.348   1.853   6.100  2.7388  0.0981 -0.4699
 1818SOL     OW17086   0.005   4.554   2.475 -0.1848  0.0725 -0.4414
 1818SOL    HW117087   0.098   4.548   2.496 -0.2901 -0.6139 -0.1713
 1818SOL    HW217088   4.738   4.625   2.411  0.3015  1.4077  0.9906
 1819SOL     OW17089   0.268   2.220   4.627 -0.3007  0.1042 -0.2203
 1819SOL    HW117090   0.296   2.276   4.555  3.1197 -0.9714  0.2816
 1819SOL    HW217091   0.328   2.244   4.698  0.7412 -1.6281 -0.5181
 1820SOL     OW17092   2.250   1.198   5.971 -0.8387  0.3611  0.0454
 1820SOL    HW117093   2.175   1.176   5.917 -0.3222  0.9043 -0.8926
 1820SOL    HW217094   2.248   1.127   6.035  0.6662  1.3627  1.2127
 1821SOL     OW17095   3.571   1.480   2.527  0.0373  0.2875 -0.2623
 1821SOL    HW117096   3.582   1.563   2.573 -0.7618  0.0496  0.3539
 1821SOL    HW217097   3.665   1.460   2.522 -0.3464 -0.9788 -2.5345
 1822SOL     OW17098   3.171   1.487   5.549  0.5188  0.0394 -0.7936
 1822SOL    HW117099   3.167   1.400   5.589 -2.3390 -0.2084 -1.6277
 1822SOL    HW217100   3.144   1.545   5.621  1.6385  1.2748 -1.3645
 1823SOL     OW17101   3.610   3.922  17.517 -0.0110 -0.6784 -0.2269
 1823SOL    HW117102   3.646   3.838  17.543  0.8024 -0.9870 -2.3710
 1823SOL    HW217103   3.578   3.950  17.603  0.6151 -0.3130 -0.1121
 1824SOL     OW17104   3.155   0.927   4.472 -0.3915 -0.3233 -0.3149
 1824SOL    HW117105   3.185   0.909   4.561 -0.0498 -0.7055 -0.5078
 1824SOL    HW217106   3.083   0.864   4.475 -1.0964  0.5807  1.6817
 1825SOL     OW17107   4.291   4.070   3.967  0.1612  0.3428  0.3757
 1825SOL    HW117108   4.203   4.038   3.947  0.3051  1.3569 -1.8608
 1825SOL    HW217109   4.319   4.088   3.877 -0.5278  2.1914  0.5340
 1826SOL     OW17110   1.756   2.958   8.324 -0.2545  0.2385 -0.3010
 1826SOL    HW117111   1.805   3.017   8.382 -0.7009 -0.6144  0.9428
 1826SOL    HW217112   1.739   3.016   8.249  0.7012  3.4227  1.9316
 1827SOL     OW17113   2.938   2.274   6.617  0.1929  0.7855  0.3631
 1827SOL    HW117114   2.854   2.256   6.574 -0.0164 -1.1019  1.5413
 1827SOL    HW217115   2.909   2.358   6.654 -1.8195 -0.0719  0.7380
 1828SOL     OW17116   4.691   1.657   7.416 -0.2574  0.0247 -0.2573
 1828SOL    HW117117   4.616   1.665   7.357  1.1159 -0.3161 -2.0621
 1828SOL    HW217118   0.029   1.684   7.368 -2.0150  1.9490 -2.0294
 1829SOL     OW17119   2.651   3.425  11.650 -0.1243 -0.1884  0.2981
 1829SOL    HW117120   2.692   3.398  11.568 -2.2920  2.1742 -1.5574
 1829SOL    HW217121   2.596   3.501  11.630  0.6178  0.6264  1.3247
 1830SOL     OW17122   4.704   2.774   8.678  0.2112 -0.4486  0.1783
 1830SOL    HW117123   4.736   2.694   8.719 -0.4860 -1.4034 -1.1488
 1830SOL    HW217124   0.043   2.805   8.632  1.1615 -2.7884  0.2407
 1831SOL     OW17125   0.070   0.948  12.959 -0.4671  0.1144  0.6088
 1831SOL    HW117126   0.071   0.865  13.007 -3.0795  1.0352  2.2649
 1831SOL    HW217127   0.051   0.913  12.872 -0.1458 -0.1269  0.6381
 1832SOL     OW17128   4.422   1.087   2.578  0.1991 -0.2306  0.6069
 1832SOL    HW117129   4.354   1.088   2.645 -0.0446 -0.4803  0.3627
 1832SOL    HW217130   4.413   1.175   2.543  1.9131 -0.3548 -0.1321
 1833SOL     OW17131   0.755   0.506   8.736  0.3530  0.7135  0.2503
 1833SOL    HW117132   0.744   0.511   8.641 -1.6184 -1.4469  0.3635
 1833SOL    HW217133   0.667   0.499   8.773  0.3336  1.7853  0.4261
 1834SOL     OW17134   2.493   3.859   2.490 -0.3159  0.2153  0.6719
 1834SOL    HW117135   2.486   3.803   2.413 -1.3667  0.9520  0.2259
 1834SOL    HW217136   2.406   3.846   2.529 -2.0842  1.2110 -2.9699
 1835SOL     OW17137   1.650   1.631   8.759  0.1462 -0.0637  0.3138
 1835SOL    HW117138   1.698   1.677   8.829  0.0523  1.9245 -0.9292
 1835SOL    HW217139   1.730   1.618   8.709  0.1155 -1.6275  0.6846
 1836SOL     OW17140   0.521   2.833   3.547  0.1154  0.2883  0.7224
 1836SOL    HW117141   0.526   2.917   3.501  1.8863 -1.7168 -2.7477
 1836SOL    HW217142   0.541   2.774   3.475  0.5914  2.5576 -1.0173
 1837SOL     OW17143   1.363   3.149   7.354 -0.0684  0.1360 -0.0752
 1837SOL    HW117144   1.351   3.205   7.277  1.1281 -1.2184 -1.2501
 1837SOL    HW217145   1.326   3.207   7.420  0.4165 -0.6387  0.8811
 1838SOL     OW17146   0.266   4.636   6.975  0.1819 -0.1807 -0.0104
 1838SOL    HW117147   0.338   4.631   7.038 -1.7001  1.2529  2.2541
 1838SOL    HW217148   0.269   4.726   6.944  0.8934 -0.9231 -2.0657
 1839SOL     OW17149   2.727   0.077   3.856  0.1016  0.0100  0.0122
 1839SOL    HW117150   2.681   0.108   3.778 -0.9723 -3.4017 -0.7285
 1839SOL    HW217151   2.650   0.060   3.911  1.1367  2.6828  2.2556
 1840SOL     OW17152   2.190   2.079   8.109  0.0841 -0.2993 -0.4223
 1840SOL    HW117153   2.144   2.137   8.049  1.0971  0.4989 -0.4253
 1840SOL    HW217154   2.277   2.117   8.116  1.0333 -2.6194  0.6021
 1841SOL     OW17155   3.345   1.815   2.321 -0.4301 -0.1102  0.1655
 1841SOL    HW117156   3.293   1.883   2.277 -0.6233 -0.6740 -0.4711
 1841SOL    HW217157   3.430   1.831   2.279 -0.5156 -2.3433 -0.8410
 1842SOL     OW17158   3.159   2.159   3.720 -0.4778 -0.0884  0.1887
 1842SOL    HW117159   3.086   2.205   3.679 -0.2853 -0.0789 -0.1369
 1842SOL    HW217160   3.121   2.072   3.730  0.4386 -0.5306 -0.1556
 1843SOL     OW17161   3.835   2.280   3.248  0.6228  0.7222 -0.4449
 1843SOL    HW117162   3.928   2.301   3.258  0.4741  2.2423 -2.3086
 1843SOL    HW217163   3.804   2.251   3.333  2.0719 -0.3263 -0.2684
 1844SOL     OW17164   3.015   1.624   2.210 -0.0650 -0.1499  0.4381
 1844SOL    HW117165   3.086   1.605   2.270 -0.3149 -0.5837  0.5950
 1844SOL    HW217166   3.063   1.637   2.128 -1.1776 -1.0126 -0.3415
 1845SOL     OW17167   2.061   0.818  12.161  0.7680  0.1088 -0.5250
 1845SOL    HW117168   2.044   0.777  12.077  1.3397  1.9639 -1.5364
 1845SOL    HW217169   2.139   0.771  12.191 -0.7015 -0.6864  2.0430
 1846SOL     OW17170   2.471   3.100  14.272 -0.5817 -0.4336  0.2525
 1846SOL    HW117171   2.566   3.100  14.282 -0.6649  1.6687  0.9346
 1846SOL    HW217172   2.453   3.060  14.187  2.1839 -0.3806 -0.3460
 1847SOL     OW17173   1.428   3.348  13.460  0.0779  0.1449 -0.0316
 1847SOL    HW117174   1.484   3.320  13.388  0.3005 -1.8443  0.9107
 1847SOL    HW217175   1.482   3.423  13.485  1.2242  0.4685 -3.4415
 1848SOL     OW17176   0.855   4.556   4.268  0.2561 -0.0612  0.4523
 1848SOL    HW117177   0.839   4.483   4.209  0.2886 -1.4813  2.1894
 1848SOL    HW217178   0.931   4.527   4.319  0.7746 -0.2951 -0.4553
 1849SOL     OW17179   4.052   1.508   3.605 -0.7161  0.8237  0.5652
 1849SOL    HW117180   4.061   1.592   3.560 -0.9713 -0.5144 -1.9510
 1849SOL    HW217181   4.059   1.444   3.535  0.9452  2.4666 -0.7623
 1850SOL     OW17182   1.646   3.725   3.664 -0.9755  0.4561 -0.5675
 1850SOL    HW117183   1.612   3.636   3.656  0.9677 -0.2042 -1.6675
 1850SOL    HW217184   1.704   3.716   3.740  0.5586 -3.0810 -2.1006
 1851SOL     OW17185   4.378   2.214  17.266 -0.8980  0.1888 -0.5286
 1851SOL    HW117186   4.361   2.307  17.275  1.4434  0.5051  0.5836
 1851SOL    HW217187   4.349   2.185  17.352  2.0895 -0.5490  0.2224
 1852SOL     OW17188   2.942   0.822  13.999  0.0250  0.1770 -0.6688
 1852SOL    HW117189   2.910   0.898  13.950  2.8046  2.0773  0.4570
 1852SOL    HW217190   2.947   0.754  13.932  4.3466  0.2014 -0.3309
 1853SOL     OW17191   4.434   4.132   9.006  0.1688  0.2626  0.4974
 1853SOL    HW117192   4.424   4.076   9.083 -0.2858  0.6363  0.7128
 1853SOL    HW217193   4.460   4.079   8.931 -1.4060 -1.9460  1.5212
 1854SOL     OW17194   1.397   4.637   5.280  0.4429  0.0749  0.0520
 1854SOL    HW117195   1.364   4.622   5.369  1.5555  4.4754  1.1894
 1854SOL    HW217196   1.347   4.573   5.229 -1.9648 -0.4965  3.0485
 1855SOL     OW17197   1.468   2.239  12.038 -0.2041  0.5911 -0.2158
 1855SOL    HW117198   1.375   2.264  12.032 -0.0207  1.0174 -1.3229
 1855SOL    HW217199   1.496   2.184  11.965 -0.0080 -0.0554  0.3477
 1856SOL     OW17200   2.492   1.497  13.969  0.4802 -0.2092  0.5777
 1856SOL    HW117201   2.498   1.463  14.059 -0.8311 -0.4565  0.5803
 1856SOL    HW217202   2.566   1.454  13.927 -0.9784  0.4626 -2.6911
 1857SOL     OW17203   4.304   0.734   6.503  0.0968  0.0157  0.1936
 1857SOL    HW117204   4.209   0.751   6.504  0.2427  0.7396  1.0896
 1857SOL    HW217205   4.313   0.643   6.532  0.0105 -0.1933 -0.4235
 1858SOL     OW17206   0.483   1.987  17.450 -0.1244  0.2025 -0.4594
 1858SOL    HW117207   0.436   2.065  17.421  2.8499  2.0624 -0.2667
 1858SOL    HW217208   0.538   2.035  17.512  1.1000  1.0445 -2.2016
 1859SOL     OW17209   0.742   1.821   5.249 -0.3748  0.0562 -0.0502
 1859SOL    HW117210   0.672   1.799   5.187 -1.7563 -0.2313  1.6386
 1859SOL    HW217211   0.819   1.825   5.192 -0.3269 -1.6589 -0.1202
 1860SOL     OW17212   2.653   1.040   2.892  0.1798 -0.8442 -0.0824
 1860SOL    HW117213   2.737   1.048   2.847 -0.7345  0.9091 -1.4629
 1860SOL    HW217214   2.675   1.052   2.984  0.3917  0.6831 -0.3344
 1861SOL     OW17215   1.922   0.810   9.601 -0.0289 -0.4100 -0.5593
 1861SOL    HW117216   2.002   0.860   9.617  0.0751 -1.1713  1.2605
 1861SOL    HW217217   1.954   0.720   9.596  2.8566  0.4050  3.5374
 1862SOL     OW17218   2.777   2.466  15.730  0.4858 -0.1331  0.1009
 1862SOL    HW117219   2.867   2.467  15.698  0.0278 -1.2034 -1.2338
 1862SOL    HW217220   2.737   2.550  15.709 -1.2238 -0.6646  1.1390
 1863SOL     OW17221   2.895   2.102   2.076  0.2927 -0.0343  0.0763
 1863SOL    HW117222   2.890   2.074   1.984 -0.8663  1.6674 -0.3848
 1863SOL    HW217223   2.802   2.092   2.092  0.6120 -0.2408  1.8588
 1864SOL     OW17224   2.342   1.935  16.743 -0.2357  0.1085  0.3301
 1864SOL    HW117225   2.297   2.012  16.779  0.4188  0.6589 -0.0220
 1864SOL    HW217226   2.372   1.966  16.657 -1.5261  0.2439 -0.0712
 1865SOL     OW17227   1.425   0.147  14.950 -0.5293 -0.5290 -0.7648
 1865SOL    HW117228   1.492   0.164  15.016 -1.4321 -0.1555  0.0626
 1865SOL    HW217229   1.474   0.143  14.867  1.2253 -0.5322  0.2665
 1866SOL     OW17230   1.660   4.470   3.439 -0.0061 -0.7928 -0.0309
 1866SOL    HW117231   1.635   4.454   3.348  0.1884  0.9080 -0.3934
 1866SOL    HW217232   1.584   4.442   3.490  0.5562 -1.0480  0.6595
 1867SOL     OW17233   2.278   0.473   5.477 -0.1117  0.3870  0.3797
 1867SOL    HW117234   2.186   0.500   5.467  0.3381  1.6555 -0.4115
 1867SOL    HW217235   2.315   0.552   5.437  0.6328  0.9258  2.1648
 1868SOL     OW17236   2.910   4.329   0.701 -0.2032 -1.1783  0.4402
 1868SOL    HW117237   2.838   4.391   0.692  0.4330 -0.6973 -1.2995
 1868SOL    HW217238   2.950   4.374   0.776 -2.5870 -1.5966  1.9695
 1869SOL     OW17239   2.617   0.754   2.936 -0.0510 -0.2130  0.3061
 1869SOL    HW117240   2.596   0.840   2.900 -0.4189 -0.7246 -0.6959
 1869SOL    HW217241   2.529   0.716   2.942 -0.9173  1.8180  0.5432
 1870SOL     OW17242   4.633   0.126  12.791  0.2112  0.0761 -0.2615
 1870SOL    HW117243   4.599   0.155  12.876 -0.2229 -0.7910 -0.1439
 1870SOL    HW217244   4.652   0.212  12.753  0.8513  0.8050  1.6995
 1871SOL     OW17245   4.078   2.673   2.134 -0.1345 -0.1758  0.4633
 1871SOL    HW117246   4.069   2.626   2.217  1.6986 -0.6390  0.3987
 1871SOL    HW217247   3.989   2.665   2.100 -0.8411 -0.3584  2.3584
 1872SOL     OW17248   3.690   1.366  14.532  0.0314  0.0494 -0.8055
 1872SOL    HW117249   3.630   1.416  14.477 -1.4907 -1.2527 -0.3203
 1872SOL    HW217250   3.627   1.336  14.598 -0.1848  2.1123 -0.0634
 1873SOL     OW17251   1.407   4.468   8.006 -0.2394  0.0793  0.5173
 1873SOL    HW117252   1.470   4.539   8.017  0.5330 -0.5290  0.0225
 1873SOL    HW217253   1.465   4.391   8.003 -1.6226 -0.9917  1.6678
 1874SOL     OW17254   3.830   0.941   4.112 -0.3409  0.3994  0.1117
 1874SOL    HW117255   3.818   0.971   4.202 -1.1235 -3.1506  1.1790
 1874SOL    HW217256   3.781   0.859   4.112  0.1663  0.0992  1.3853
 1875SOL     OW17257   4.178   2.595   9.782  0.2334  0.0309 -0.4056
 1875SOL    HW117258   4.192   2.689   9.789  0.5325 -0.1001  0.7370
 1875SOL    HW217259   4.108   2.590   9.846 -1.4169 -0.1083 -2.2269
 1876SOL     OW17260   4.404   0.312   6.138  0.3354 -0.0436  0.6205
 1876SOL    HW117261   4.435   0.239   6.084  1.0960  0.9270 -0.2508
 1876SOL    HW217262   4.358   0.360   6.070 -2.9559 -1.3680  1.9161
 1877SOL     OW17263   3.081   0.420   4.735 -0.9582  0.8043  0.1166
 1877SOL    HW117264   3.136   0.438   4.659  2.4190 -2.3536  1.7917
 1877SOL    HW217265   3.120   0.474   4.805  2.7148 -1.6131 -0.0534
 1878SOL     OW17266   2.008   3.095  11.346 -0.4806  0.6101 -0.1409
 1878SOL    HW117267   2.081   3.046  11.310 -1.5338 -2.6766  2.1408
 1878SOL    HW217268   2.044   3.184  11.351  1.2351 -0.0917 -0.2941
 1879SOL     OW17269   2.797   0.553   2.817 -0.3529  0.4975  0.1877
 1879SOL    HW117270   2.798   0.614   2.743  1.0779  0.5208  0.2286
 1879SOL    HW217271   2.744   0.602   2.880  0.8478  1.4536  0.4655
 1880SOL     OW17272   0.843   0.948  12.458  0.4189  0.3794  0.6304
 1880SOL    HW117273   0.911   1.015  12.458  0.1564  0.6394  1.5638
 1880SOL    HW217274   0.761   0.996  12.454  0.7434  0.7914 -0.9757
 1881SOL     OW17275   2.577   3.899   1.535  0.0933  0.4351 -0.0049
 1881SOL    HW117276   2.623   3.980   1.512  0.8185  0.4269  1.4679
 1881SOL    HW217277   2.528   3.919   1.615  0.5724 -2.1607  0.9086
 1882SOL     OW17278   2.772   1.775   3.882  0.0384 -0.0556 -0.1860
 1882SOL    HW117279   2.733   1.699   3.840 -0.9756 -0.4716  1.5051
 1882SOL    HW217280   2.857   1.777   3.837 -0.8920  1.4622 -1.8681
 1883SOL     OW17281   4.161   2.701  12.667 -0.5009  0.0512  0.2745
 1883SOL    HW117282   4.180   2.779  12.721 -0.3591 -0.3774  0.8458
 1883SOL    HW217283   4.141   2.628  12.725  0.5011 -0.5566 -0.1490
 1884SOL     OW17284   2.688   4.156   4.068  0.2904 -0.1192  0.2731
 1884SOL    HW117285   2.699   4.207   3.988  0.8134  1.7599  1.5471
 1884SOL    HW217286   2.648   4.222   4.125  1.9082  0.0944  1.1738
 1885SOL     OW17287   4.454   0.098   3.926 -0.0625 -0.0892 -0.4797
 1885SOL    HW117288   4.545   0.069   3.920 -0.5471 -2.1416  1.6791
 1885SOL    HW217289   4.466   0.143   4.009  2.0824  1.4277 -1.6261
 1886SOL     OW17290   4.431   2.092  10.773  0.1298 -0.1167 -0.3885
 1886SOL    HW117291   4.448   2.064  10.863 -2.6004 -0.7820 -0.0579
 1886SOL    HW217292   4.436   2.187  10.783 -0.1180 -0.2729  1.2132
 1887SOL     OW17293   1.869   1.086   3.438  0.4194  0.5228  0.4526
 1887SOL    HW117294   1.818   1.034   3.376  1.6220 -1.1700  0.8597
 1887SOL    HW217295   1.809   1.081   3.512 -0.1123 -2.2260 -0.1455
 1888SOL     OW17296   3.892   3.106  15.481 -0.4150  0.1077  0.3285
 1888SOL    HW117297   3.803   3.077  15.502 -0.7215  0.1048 -0.9682
 1888SOL    HW217298   3.899   3.081  15.389  2.8517 -0.3783  0.7172
 1889SOL     OW17299   4.093   4.740   8.328  0.0661 -0.1103 -0.6279
 1889SOL    HW117300   4.063   0.025   8.415  1.4355 -1.0512  0.1210
 1889SOL    HW217301   4.188   0.008   8.339 -0.2211  0.6768  1.2743
 1890SOL     OW17302   1.833   3.174   2.345  0.5480  0.0734  0.6601
 1890SOL    HW117303   1.756   3.178   2.403  0.2191  1.3480  0.1404
 1890SOL    HW217304   1.906   3.178   2.407 -0.0129  1.3017  1.2517
 1891SOL     OW17305   0.249   3.797  14.919  0.4119 -0.6746  0.8875
 1891SOL    HW117306   0.278   3.837  15.000 -0.7075  0.2258  0.8526
 1891SOL    HW217307   0.301   3.718  14.903  0.1019 -0.8463  0.7160
 1892SOL     OW17308   1.096   3.026   6.055 -1.1127 -0.4757  0.4636
 1892SOL    HW117309   1.042   3.038   6.133 -0.2641 -1.5409  1.2034
 1892SOL    HW217310   1.029   2.995   5.995 -0.5391  0.3567 -0.6212
 1893SOL     OW17311   0.188   2.879   8.592 -0.0982  0.7627 -0.9200
 1893SOL    HW117312   0.253   2.836   8.538 -1.6490 -0.6125 -1.6970
 1893SOL    HW217313   0.237   2.895   8.672  0.2041  0.3579 -1.0249
 1894SOL     OW17314   1.058   2.386   9.963 -0.2154  0.1639 -0.2058
 1894SOL    HW117315   0.992   2.406  10.029  1.8264 -0.9603  2.1959
 1894SOL    HW217316   1.081   2.475   9.936 -2.7722  1.3173  1.3880
 1895SOL     OW17317   3.667   2.867  16.079 -0.5851  0.1600 -0.2528
 1895SOL    HW117318   3.700   2.862  16.169 -1.1472  1.5056  0.0253
 1895SOL    HW217319   3.641   2.959  16.070  1.0794  0.7648  1.0713
 1896SOL     OW17320   2.366   1.983   2.796 -0.5527 -0.3553 -0.6578
 1896SOL    HW117321   2.350   1.891   2.820 -0.3907  0.0594  1.0676
 1896SOL    HW217322   2.409   1.971   2.711 -1.1109  0.5287 -1.0601
 1897SOL     OW17323   3.993   0.656   7.839 -0.3342 -0.4130  0.0706
 1897SOL    HW117324   4.041   0.715   7.781  1.5777 -0.4574  1.5865
 1897SOL    HW217325   3.941   0.608   7.774 -0.7779 -1.2516  1.0463
 1898SOL     OW17326   1.098   2.910   4.046 -0.3598  0.5406 -0.1177
 1898SOL    HW117327   1.189   2.893   4.021 -1.4249 -0.8382 -3.0995
 1898SOL    HW217328   1.105   2.954   4.130  2.3934 -0.2118  0.0538
 1899SOL     OW17329   2.607   3.006   8.682 -0.0179  0.3853 -0.4957
 1899SOL    HW117330   2.558   2.938   8.635  0.6330 -1.0330  0.9139
 1899SOL    HW217331   2.580   3.092   8.648 -0.1742  0.5957  0.1527
 1900SOL     OW17332   0.315   1.572   3.402  0.0869 -0.1340  0.2608
 1900SOL    HW117333   0.386   1.519   3.438 -1.1926 -1.9447  0.1272
 1900SOL    HW217334   0.256   1.507   3.363  1.6030 -0.4212 -1.5472
 1901SOL     OW17335   4.462   0.465   8.627 -0.2449  0.1868  0.2274
 1901SOL    HW117336   4.546   0.476   8.583  0.8672 -1.9839  1.7868
 1901SOL    HW217337   4.401   0.527   8.587  1.4693  2.6273  1.4405
 1902SOL     OW17338   2.818   1.882   4.286 -0.7728 -0.0224 -0.6709
 1902SOL    HW117339   2.797   1.906   4.196 -1.3406  0.6729 -0.3584
 1902SOL    HW217340   2.875   1.953   4.315 -0.8360 -1.1443  2.1748
 1903SOL     OW17341   0.208   3.848  14.459 -0.0235  0.6426 -0.0587
 1903SOL    HW117342   0.189   3.933  14.498 -0.6234  0.3061  0.4100
 1903SOL    HW217343   0.161   3.849  14.376  1.4285  2.0127 -0.8575
 1904SOL     OW17344   2.683   4.495   6.140  0.8632  0.3681 -0.1539
 1904SOL    HW117345   2.735   4.416   6.157  0.0019  0.0761  1.1242
 1904SOL    HW217346   2.601   4.463   6.103  1.7600 -2.5596  0.3637
 1905SOL     OW17347   0.852   3.179  13.112  0.5395 -0.4766  0.3815
 1905SOL    HW117348   0.787   3.118  13.147 -0.2306 -1.4830 -2.8328
 1905SOL    HW217349   0.797   3.224  13.048  0.2341 -1.0800  0.2253
 1906SOL     OW17350   2.227   2.158  12.869  0.3649  0.2142 -0.7162
 1906SOL    HW117351   2.154   2.183  12.926 -0.6419 -0.8894 -1.5102
 1906SOL    HW217352   2.259   2.247  12.851 -1.4464  1.2298  1.1265
 1907SOL     OW17353   3.963   2.763   6.849  0.2080 -0.2023  0.5037
 1907SOL    HW117354   3.901   2.748   6.921  1.1733 -2.1864  0.9306
 1907SOL    HW217355   4.018   2.685   6.850 -0.1286 -0.4642 -2.0574
 1908SOL     OW17356   3.109   0.563   3.670 -0.0874 -0.5825 -0.5508
 1908SOL    HW117357   3.039   0.620   3.636  0.3588  0.8650  0.9699
 1908SOL    HW217358   3.063   0.499   3.724 -1.0084  0.9860  0.5307
 1909SOL     OW17359   4.269   1.876   5.270 -0.6903 -0.0467  0.7940
 1909SOL    HW117360   4.306   1.884   5.358 -1.0563  0.4288  0.9044
 1909SOL    HW217361   4.304   1.794   5.235  0.9319  0.8434  0.3177
 1910SOL     OW17362   4.286   1.758  15.637  0.1883  0.0555 -0.3157
 1910SOL    HW117363   4.313   1.813  15.563  2.2086  0.8172  0.9947
 1910SOL    HW217364   4.201   1.729  15.604 -0.0085 -0.0453  0.2873
 1911SOL     OW17365   4.546   0.413  11.938 -0.3025 -0.3388 -0.0738
 1911SOL    HW117366   4.526   0.322  11.961  0.1231 -0.4763 -0.2534
 1911SOL    HW217367   4.641   0.416  11.946 -0.2765 -0.2379 -0.4026
 1912SOL     OW17368   3.493   3.370   1.621 -0.2354 -0.0108  0.1778
 1912SOL    HW117369   3.514   3.317   1.698  0.0486  0.4416  0.4143
 1912SOL    HW217370   3.526   3.313   1.553  0.5343  0.3160  0.2752
 1913SOL     OW17371   1.097   4.457  16.745 -0.5264  0.1138  0.0752
 1913SOL    HW117372   1.096   4.549  16.718 -2.5726  0.2350  0.5672
 1913SOL    HW217373   1.009   4.435  16.776 -0.8695  0.4188 -0.6674
 1914SOL     OW17374   1.934   4.311   1.079 -0.3762 -0.2543 -0.0384
 1914SOL    HW117375   2.016   4.299   1.031 -0.0962 -1.8635  0.8569
 1914SOL    HW217376   1.879   4.248   1.033 -1.1214 -0.1755  0.7478
 1915SOL     OW17377   3.388   2.779   5.629 -0.1865 -0.3418  0.1020
 1915SOL    HW117378   3.426   2.834   5.561  1.4405 -0.7255  0.6900
 1915SOL    HW217379   3.297   2.807   5.614 -1.1474 -2.6271  1.6214
 1916SOL     OW17380   3.804   3.623   1.000 -0.4316 -0.7558 -0.6163
 1916SOL    HW117381   3.824   3.548   0.944  1.3253  1.3621 -2.8056
 1916SOL    HW217382   3.812   3.584   1.087  3.9177  0.3072 -0.5270
 1917SOL     OW17383   3.696   0.788   8.924 -0.4212  0.2893  0.0246
 1917SOL    HW117384   3.740   0.772   8.840 -0.8074 -0.8279  0.0260
 1917SOL    HW217385   3.631   0.853   8.895  0.8668  2.0325  1.0946
 1918SOL     OW17386   1.411   2.574   7.118  0.1276  0.1974  0.2885
 1918SOL    HW117387   1.326   2.598   7.082 -0.1259 -2.4922 -0.9204
 1918SOL    HW217388   1.452   2.660   7.126 -0.6761  0.3697  2.7854
 1919SOL     OW17389   1.352   1.493   9.376  0.2448 -0.0543 -0.4899
 1919SOL    HW117390   1.345   1.569   9.434  0.5618 -1.3427  1.2250
 1919SOL    HW217391   1.422   1.443   9.418 -0.1111  0.1765  0.3785
 1920SOL     OW17392   0.912   2.760  11.475  0.4942  1.1998  0.0399
 1920SOL    HW117393   0.916   2.681  11.421  0.2479  1.5568 -0.5082
 1920SOL    HW217394   0.972   2.819  11.428  0.5612  0.3762 -0.9166
 1921SOL     OW17395   3.517   4.440   5.433 -0.1701 -0.1326  0.3183
 1921SOL    HW117396   3.432   4.481   5.450  0.3548  0.4628  1.5219
 1921SOL    HW217397   3.543   4.418   5.523  0.2485 -1.0489 -0.0241
 1922SOL     OW17398   3.912   2.607   6.470 -0.7193 -0.4179  0.0239
 1922SOL    HW117399   3.853   2.607   6.395  0.3879 -1.7023 -0.8482
 1922SOL    HW217400   3.949   2.520   6.453 -0.2741 -0.8296  3.0694
 1923SOL     OW17401   1.651   3.214   7.777 -0.0387  0.1541  0.2915
 1923SOL    HW117402   1.626   3.285   7.717  0.8461  0.8136  0.6943
 1923SOL    HW217403   1.684   3.167   7.700 -0.4510  0.7864 -0.2709
 1924SOL     OW17404   3.456   2.428   9.747 -0.1897 -0.0150  0.1220
 1924SOL    HW117405   3.423   2.390   9.828 -0.1661 -0.4210 -0.0563
 1924SOL    HW217406   3.386   2.493   9.737  1.4139  2.0767  2.5938
 1925SOL     OW17407   2.875   3.565  13.323 -0.1714  0.6193 -0.6048
 1925SOL    HW117408   2.831   3.646  13.299 -0.2637  0.2555 -1.6476
 1925SOL    HW217409   2.805   3.508  13.355 -0.9597  0.6062 -2.3386
 1926SOL     OW17410   1.015   4.017   8.556  0.5934  0.1660 -0.5665
 1926SOL    HW117411   0.975   3.934   8.584  0.3225  0.9691  1.4063
 1926SOL    HW217412   1.053   4.059   8.634 -4.4831 -0.8987  2.4413
 1927SOL     OW17413   1.284   2.617   3.506  0.1219 -0.5107  0.2671
 1927SOL    HW117414   1.347   2.686   3.485  1.2854 -1.6814 -0.1308
 1927SOL    HW217415   1.210   2.676   3.511  0.5231  0.0749 -0.7574
 1928SOL     OW17416   4.663   0.456  13.874  0.5679  0.2220  0.4418
 1928SOL    HW117417   4.684   0.484  13.785 -0.0726 -2.1586 -0.4588
 1928SOL    HW217418   4.689   0.364  13.867  1.5833  0.5368  0.1629
 1929SOL     OW17419   2.893   4.608   7.891 -0.0274 -0.1046  0.5437
 1929SOL    HW117420   2.838   4.530   7.882  0.2200 -0.2617  0.3811
 1929SOL    HW217421   2.950   4.608   7.814  1.2878 -2.1247  1.5188
 1930SOL     OW17422   4.070   2.253   7.314 -0.0380  0.5213  0.4227
 1930SOL    HW117423   4.098   2.291   7.231 -0.1292 -1.1378 -0.3798
 1930SOL    HW217424   4.125   2.295   7.380 -0.7987  1.4305  0.4776
 1931SOL     OW17425   2.006   1.089   4.502 -0.1319  0.1372  0.0815
 1931SOL    HW117426   2.071   1.087   4.431 -0.8650  0.3540 -0.5948
 1931SOL    HW217427   1.932   1.124   4.453  0.8703  1.7244 -0.3097
 1932SOL     OW17428   2.987   2.886   3.429 -0.2390  0.2595  0.4319
 1932SOL    HW117429   2.925   2.893   3.502  0.0742  0.2896  0.6948
 1932SOL    HW217430   3.055   2.835   3.474  0.5452 -0.4645 -1.5800
 1933SOL     OW17431   1.044   1.256   7.608 -0.2512  1.0613  0.4908
 1933SOL    HW117432   1.051   1.172   7.654  0.0689  1.5817  1.4004
 1933SOL    HW217433   1.047   1.231   7.516 -1.3722  1.1491  0.4304
 1934SOL     OW17434   3.782   2.898   5.442 -0.5322  0.2398 -0.5385
 1934SOL    HW117435   3.837   2.976   5.438 -0.3598  0.0674 -1.6043
 1934SOL    HW217436   3.699   2.943   5.423  0.5984  1.4353 -2.6805
 1935SOL     OW17437   2.828   3.562  17.445  0.1354  0.3184 -0.0008
 1935SOL    HW117438   2.891   3.510  17.495  1.8342  0.7119 -1.7291
 1935SOL    HW217439   2.831   3.644  17.495  0.0168 -0.6008  1.5223
 1936SOL     OW17440   3.985   0.014   5.427 -0.6177 -0.4254 -0.6832
 1936SOL    HW117441   3.894   4.726   5.434 -0.7714  0.0741 -0.6926
 1936SOL    HW217442   3.986   0.036   5.334 -0.4132 -1.6084 -0.9559
 1937SOL     OW17443   4.006   2.788  14.836  0.6497  0.4736  0.1838
 1937SOL    HW117444   4.061   2.747  14.903 -1.5155 -1.1686  0.9537
 1937SOL    HW217445   3.950   2.854  14.876  0.7106  2.2693 -2.6934
 1938SOL     OW17446   4.732   4.099   2.199 -0.8416  0.4179 -0.2881
 1938SOL    HW117447   0.016   4.013   2.167  1.6157  1.8268 -2.2139
 1938SOL    HW217448   4.638   4.089   2.185 -1.2148 -0.5379  2.7878
 1939SOL     OW17449   0.871   1.903   6.508 -0.0156 -0.3134 -0.0892
 1939SOL    HW117450   0.898   1.818   6.544  0.9534 -0.4793 -1.2351
 1939SOL    HW217451   0.955   1.932   6.473  0.0037 -2.1776 -1.5684
 1940SOL     OW17452   4.487   2.361   1.680 -0.4700 -0.3900 -0.5049
 1940SOL    HW117453   4.406   2.403   1.651  0.5146  2.9337  1.5763
 1940SOL    HW217454   4.549   2.434   1.682 -1.4519  0.2805  4.6908
 1941SOL     OW17455   2.323   1.036   8.702 -0.3320 -0.1543  0.2980
 1941SOL    HW117456   2.372   0.959   8.730 -0.5113 -1.2418 -2.3396
 1941SOL    HW217457   2.268   1.048   8.779  0.0103  0.3547  0.4612
 1942SOL     OW17458   4.330   0.101  12.718 -0.0481 -0.2105  0.1787
 1942SOL    HW117459   4.240   0.096  12.685 -0.3799 -1.3952  1.2551
 1942SOL    HW217460   4.332   0.195  12.735 -1.6434  0.0741 -1.2278
 1943SOL     OW17461   0.461   3.390   8.782  0.2277 -0.4059 -0.0759
 1943SOL    HW117462   0.395   3.326   8.807  0.6976 -0.2214  1.6100
 1943SOL    HW217463   0.419   3.409   8.698  1.5932 -1.3341 -0.9830
 1944SOL     OW17464   1.986   1.744   0.831  0.2597 -0.2601  0.1129
 1944SOL    HW117465   1.920   1.814   0.838 -1.0180 -1.2572 -1.7207
 1944SOL    HW217466   2.061   1.782   0.787  1.5851  0.2847  2.8550
 1945SOL     OW17467   3.846   3.740   0.121  0.3625  0.5320 -0.1918
 1945SOL    HW117468   3.866   3.771   0.209 -1.1835  0.7690  0.0633
 1945SOL    HW217469   3.935   3.707   0.108  1.1261  1.6430  2.2111
 1946SOL     OW17470   2.952   2.838   5.965 -0.3449  0.1845  0.0306
 1946SOL    HW117471   2.918   2.905   6.024  0.0245 -1.6821  2.3754
 1946SOL    HW217472   3.001   2.789   6.031 -3.2966 -2.9687 -0.1266
 1947SOL     OW17473   2.818   0.762   1.753  0.2414 -0.1463  0.0413
 1947SOL    HW117474   2.876   0.694   1.719  0.8888  0.2705  0.3059
 1947SOL    HW217475   2.798   0.806   1.671 -0.4168 -1.8301 -0.6916
 1948SOL     OW17476   2.390   2.463   6.684  0.0886  0.6405 -0.1835
 1948SOL    HW117477   2.419   2.449   6.593 -0.5588  0.8592 -0.4242
 1948SOL    HW217478   2.385   2.559   6.685  0.1349  0.6584 -1.0253
 1949SOL     OW17479   4.399   1.780   4.198  0.5244 -0.9519 -0.5447
 1949SOL    HW117480   4.434   1.745   4.116 -1.0711 -0.1089 -1.5909
 1949SOL    HW217481   4.429   1.707   4.252  1.3396 -0.5945 -0.5092
 1950SOL     OW17482   3.451   0.768  11.488  0.2223 -0.2804 -0.1322
 1950SOL    HW117483   3.428   0.790  11.398 -2.9137  0.0445  0.7161
 1950SOL    HW217484   3.512   0.696  11.472  0.4950  0.1140 -0.8473
 1951SOL     OW17485   2.522   0.164  14.414  0.0855 -0.2660 -0.3685
 1951SOL    HW117486   2.469   0.111  14.473  1.8669 -2.1365 -0.4635
 1951SOL    HW217487   2.471   0.245  14.425  2.3934  1.0634  0.5263
 1952SOL     OW17488   4.636   0.003   3.580 -0.5404 -0.1995  0.0082
 1952SOL    HW117489   4.664   4.713   3.667  1.0093 -0.0974 -0.4504
 1952SOL    HW217490   4.592   4.665   3.548 -1.3554 -0.2771  1.3320
 1953SOL     OW17491   2.637   1.451  11.495  0.3119 -0.0227 -0.8177
 1953SOL    HW117492   2.569   1.481  11.435 -2.2922 -3.5937  0.3446
 1953SOL    HW217493   2.706   1.509  11.464  0.8546 -0.5141 -0.5439
 1954SOL     OW17494   2.469   0.242   1.077  0.2761  0.3956  0.4927
 1954SOL    HW117495   2.482   0.259   0.984 -0.9071 -1.1807  0.0509
 1954SOL    HW217496   2.483   0.325   1.124 -1.4227  0.6396  0.5901
 1955SOL     OW17497   0.917   3.250   8.391  0.1029  0.1060 -0.4042
 1955SOL    HW117498   0.929   3.181   8.457  0.5732  1.4167  0.8604
 1955SOL    HW217499   0.938   3.199   8.313 -0.8753 -0.9114 -0.0134
 1956SOL     OW17500   4.163   3.536   2.405 -0.3871  0.2587  0.2511
 1956SOL    HW117501   4.228   3.528   2.475 -0.8693 -0.7341  0.5938
 1956SOL    HW217502   4.212   3.500   2.331  0.4932  0.0913  0.9204
 1957SOL     OW17503   3.383   3.653   2.859  0.1939  0.1064  0.1910
 1957SOL    HW117504   3.477   3.644   2.874  0.1055  0.1309  0.7587
 1957SOL    HW217505   3.367   3.627   2.768 -0.8351  3.5862 -0.6163
 1958SOL     OW17506   1.699   2.119   8.699  0.3565 -0.4928 -0.4359
 1958SOL    HW117507   1.675   2.153   8.613 -0.8744 -1.7082 -0.5840
 1958SOL    HW217508   1.624   2.062   8.715 -0.9302  1.5737  0.8931
 1959SOL     OW17509   3.093   2.703   9.862 -0.3631  0.1835  1.1492
 1959SOL    HW117510   3.036   2.673   9.932 -1.6699 -0.1502 -0.0536
 1959SOL    HW217511   3.138   2.775   9.905 -1.7876  1.5074  0.4510
 1960SOL     OW17512   4.395   1.658   5.473 -0.3539 -0.7929  0.4038
 1960SOL    HW117513   4.426   1.629   5.388  0.9485 -1.1387  0.9997
 1960SOL    HW217514   4.463   1.613   5.522  0.2555 -0.0762  0.2091
 1961SOL     OW17515   1.157   1.360   3.085 -0.3113  0.7352 -0.0458
 1961SOL    HW117516   1.241   1.405   3.091  0.3648 -0.2770 -2.3247
 1961SOL    HW217517   1.184   1.276   3.122 -1.3112  0.0470 -0.8925
 1962SOL     OW17518   1.143   3.486  17.327 -0.6186 -0.0651 -0.4349
 1962SOL    HW117519   1.182   3.574  17.320 -1.3571  0.5671  3.1775
 1962SOL    HW217520   1.107   3.478  17.416 -1.7141  1.2173 -0.7556
 1963SOL     OW17521   3.623   2.616   5.080 -0.0825 -0.9162 -0.2675
 1963SOL    HW117522   3.632   2.631   5.173 -0.3071 -0.1503 -0.3733
 1963SOL    HW217523   3.678   2.684   5.040  0.7120 -0.3035  1.8957
 1964SOL     OW17524   4.219   0.034  14.619 -0.2796  0.1299  0.4184
 1964SOL    HW117525   4.259   0.090  14.553 -2.0897  1.0260  0.0917
 1964SOL    HW217526   4.127   0.059  14.616 -0.0848  0.8073  0.2534
 1965SOL     OW17527   2.918   3.502   2.994 -0.0079 -0.1102 -0.2750
 1965SOL    HW117528   2.999   3.498   3.044 -2.0304  1.1734  3.0698
 1965SOL    HW217529   2.922   3.589   2.955  0.3748  0.1463  0.3430
 1966SOL     OW17530   2.241   1.953  17.549  0.6390  0.4161 -0.7364
 1966SOL    HW117531   2.262   2.021  17.613 -2.1297  1.0577 -0.5073
 1966SOL    HW217532   2.152   1.933  17.578 -0.0436  0.8381 -2.5567
 1967SOL     OW17533   2.628   4.268   6.579 -0.2381 -0.9631 -0.7471
 1967SOL    HW117534   2.647   4.287   6.487  0.9678 -3.2294 -0.9641
 1967SOL    HW217535   2.646   4.174   6.575 -0.5413 -1.1938  2.9220
 1968SOL     OW17536   2.308   1.180   7.570 -0.2500  0.1383 -0.3946
 1968SOL    HW117537   2.220   1.206   7.596  1.1285  2.5643  1.9550
 1968SOL    HW217538   2.300   1.150   7.480  2.2324  1.9287 -1.2277
 1969SOL     OW17539   0.283   4.149   4.846 -0.6767 -0.2251  0.4161
 1969SOL    HW117540   0.342   4.075   4.832  1.1726  1.5075 -0.9497
 1969SOL    HW217541   0.343   4.209   4.802 -0.6036 -0.9556 -0.4901
 1970SOL     OW17542   0.728   4.608   6.387  0.3847  0.5775 -0.0410
 1970SOL    HW117543   0.640   4.571   6.397 -0.1530  1.5603 -1.0933
 1970SOL    HW217544   0.728   4.686   6.443 -2.4166 -0.0941  0.9466
 1971SOL     OW17545   3.216   0.640   4.011  0.0581  0.1818  0.0688
 1971SOL    HW117546   3.200   0.694   4.088  0.9989 -1.3076  1.3132
 1971SOL    HW217547   3.127   0.610   3.993 -0.4365  0.7374  1.6462
 1972SOL     OW17548   1.136   2.040   5.436  0.0594 -0.2174 -0.2582
 1972SOL    HW117549   1.141   2.054   5.530 -1.2108 -1.3345 -0.0243
 1972SOL    HW217550   1.043   2.027   5.417 -0.1963 -2.1636  2.3578
 1973SOL     OW17551   2.210   1.162   6.413 -0.3065 -0.3296  0.1971
 1973SOL    HW117552   2.163   1.206   6.484  1.0104  0.6613  0.4546
 1973SOL    HW217553   2.237   1.088   6.467 -0.0797 -1.4009 -1.3847
 1974SOL     OW17554   0.631   0.407   7.055  0.2555 -0.7676  0.4851
 1974SOL    HW117555   0.683   0.467   7.001 -1.8580  1.1498  0.5496
 1974SOL    HW217556   0.562   0.466   7.088  0.0219  1.3498 -3.7582
 1975SOL     OW17557   0.967   1.890  10.002 -0.2547  0.3040  0.1603
 1975SOL    HW117558   0.877   1.922  10.002 -0.1080  0.6878 -3.2143
 1975SOL    HW217559   1.018   1.969   9.985  0.4917 -0.3425 -0.5637
 1976SOL     OW17560   1.969   0.177  13.132 -0.4419  0.0458 -0.1863
 1976SOL    HW117561   2.050   0.148  13.088 -1.3303 -2.4304 -0.1659
 1976SOL    HW217562   1.947   0.262  13.094 -2.8166 -0.2836  0.4531
 1977SOL     OW17563   0.734   4.715  12.357 -0.2811 -0.3595  0.4758
 1977SOL    HW117564   0.676   4.736  12.284 -0.8528 -1.0784  0.7180
 1977SOL    HW217565   0.685   0.001  12.435  0.3683  1.7897  0.1640
 1978SOL     OW17566   2.632   3.575  15.575 -0.3120 -0.5628 -0.2927
 1978SOL    HW117567   2.654   3.668  15.583 -0.3242 -0.5352 -0.6178
 1978SOL    HW217568   2.596   3.561  15.663 -0.5904 -2.7854 -0.7633
 1979SOL     OW17569   3.393   0.092   6.236 -0.0688 -0.1730 -0.2800
 1979SOL    HW117570   3.425   0.168   6.285 -1.2038 -1.0702  1.8469
 1979SOL    HW217571   3.307   0.125   6.208 -0.4333  1.1861  2.3809
 1980SOL     OW17572   3.828   3.927   9.682 -0.0144  0.2610 -0.6122
 1980SOL    HW117573   3.764   3.957   9.617  0.2569  0.9065 -0.5882
 1980SOL    HW217574   3.907   3.925   9.627  0.4842 -1.6394  0.1976
 1981SOL     OW17575   3.865   1.840   4.763  0.0109  0.0428  1.0192
 1981SOL    HW117576   3.908   1.926   4.757  1.7064 -0.7032  2.3754
 1981SOL    HW217577   3.865   1.820   4.669 -0.1216  0.3619  0.9528
 1982SOL     OW17578   1.913   3.525   9.975 -0.1954  0.2849 -0.3521
 1982SOL    HW117579   1.895   3.433   9.991  2.2758  0.2591  2.2073
 1982SOL    HW217580   1.937   3.548  10.065 -0.2923 -0.5570 -0.1155
 1983SOL     OW17581   2.011   0.914  15.203  0.1067 -0.4273 -0.2407
 1983SOL    HW117582   2.043   0.985  15.147 -2.4506  0.1772 -0.9492
 1983SOL    HW217583   1.919   0.910  15.178  0.2509  0.0283 -0.8476
 1984SOL     OW17584   3.389   0.029   7.010 -0.2840  0.5111 -0.2131
 1984SOL    HW117585   3.366   4.730   6.926  0.4461  1.4608 -0.8419
 1984SOL    HW217586   3.484   0.025   7.015 -0.2207 -0.3286 -1.9163
 1985SOL     OW17587   2.600   3.953   8.001 -0.5011  0.1785 -0.2575
 1985SOL    HW117588   2.664   3.985   7.937  0.9241 -0.7763  0.7090
 1985SOL    HW217589   2.642   3.944   8.087 -1.5463 -1.9420  0.0172
 1986SOL     OW17590   4.736   0.187  13.878  0.4755  0.7445 -0.1895
 1986SOL    HW117591   4.673   0.126  13.841 -1.1406  2.0578  0.3935
 1986SOL    HW217592   0.046   0.207  13.799  1.9592  3.3355  1.3951
 1987SOL     OW17593   1.326   0.381   2.042  0.2572  0.3935 -0.0321
 1987SOL    HW117594   1.299   0.367   1.951 -1.8753 -0.6539  0.7507
 1987SOL    HW217595   1.239   0.373   2.080 -0.4836  0.1572 -1.7842
 1988SOL     OW17596   4.091   0.599  10.026 -0.1341 -0.0253 -0.6883
 1988SOL    HW117597   4.033   0.637   9.960 -0.2418  0.2336 -0.4424
 1988SOL    HW217598   4.176   0.617   9.986  1.2944 -0.6911  2.0445
 1989SOL     OW17599   2.740   0.524  12.361  0.0500 -0.3977 -0.2052
 1989SOL    HW117600   2.795   0.537  12.284 -0.1969 -1.6122 -0.5766
 1989SOL    HW217601   2.692   0.447  12.331 -1.4863  1.3636 -2.2321
 1990SOL     OW17602   0.587   1.982  13.172  0.2722  0.0504 -0.2002
 1990SOL    HW117603   0.598   2.022  13.086 -1.3233 -0.8955 -0.8358
 1990SOL    HW217604   0.501   1.941  13.161 -1.4642  2.4871  4.1837
 1991SOL     OW17605   4.306   4.148  15.916 -0.5638 -0.2175 -0.1163
 1991SOL    HW117606   4.215   4.137  15.888 -1.1751  0.0034  1.8091
 1991SOL    HW217607   4.341   4.210  15.853  1.6923 -0.4071  0.9637
 1992SOL     OW17608   4.193   2.983   4.445 -0.0765  0.4508  0.3735
 1992SOL    HW117609   4.199   2.899   4.490  0.3220  0.6670  0.7193
 1992SOL    HW217610   4.233   2.961   4.361 -1.9489  0.5147 -0.5457
 1993SOL     OW17611   1.180   2.996   4.508 -0.2235  0.0395  0.6445
 1993SOL    HW117612   1.161   3.061   4.441  1.6042  0.4369  0.5166
 1993SOL    HW217613   1.190   3.058   4.580  0.2870  0.3996  0.2587
 1994SOL     OW17614   3.542   3.842   9.340  0.0502  0.6509  0.0219
 1994SOL    HW117615   3.521   3.759   9.383 -0.0501  0.1358 -1.0130
 1994SOL    HW217616   3.564   3.902   9.411 -0.5386  0.7350  0.1300
 1995SOL     OW17617   3.668   4.565  16.308  0.6804  0.4160  0.7674
 1995SOL    HW117618   3.660   4.483  16.355 -1.5942  0.4090  0.3651
 1995SOL    HW217619   3.607   4.559  16.234  0.7515  0.8649  0.6680
 1996SOL     OW17620   1.021   4.193  16.206  0.6539  0.6970 -0.4488
 1996SOL    HW117621   1.090   4.143  16.249 -0.7562 -3.1693 -2.6580
 1996SOL    HW217622   0.995   4.135  16.134  0.8509  2.3092 -1.8243
 1997SOL     OW17623   0.637   0.179   6.174 -0.5447  0.0391 -0.5366
 1997SOL    HW117624   0.601   0.092   6.159  2.3024 -1.2078 -0.0013
 1997SOL    HW217625   0.647   0.167   6.268 -0.8160 -0.7001 -0.6080
 1998SOL     OW17626   0.738   1.321   6.297 -0.1312 -0.2468 -0.1590
 1998SOL    HW117627   0.735   1.266   6.374  1.6027  0.3274  0.3263
 1998SOL    HW217628   0.831   1.333   6.279 -0.0374  0.7022  0.9221
 1999SOL     OW17629   4.347   1.241   4.725 -0.4209  0.1566 -0.0757
 1999SOL    HW117630   4.352   1.336   4.715  3.2458 -0.0774 -0.1622
 1999SOL    HW217631   4.353   1.210   4.635 -1.3765 -1.0184  0.2593
 2000SOL     OW17632   4.434   4.535   7.153  0.2421  0.5439 -0.2066
 2000SOL    HW117633   4.482   4.596   7.098 -0.7519 -0.5667 -2.3170
 2000SOL    HW217634   4.512   4.488   7.184  0.2624 -0.2195 -1.4059
 2001SOL     OW17635   1.661   0.853   0.555  0.1032 -0.4339  0.3758
 2001SOL    HW117636   1.591   0.876   0.496 -1.1274  0.6400  2.2512
 2001SOL    HW217637   1.738   0.872   0.502  0.4790  0.9705  1.4051
 2002SOL     OW17638   3.330   3.456   6.627  0.0472 -0.8805  0.4092
 2002SOL    HW117639   3.299   3.493   6.710 -0.7595 -0.4469 -0.0823
 2002SOL    HW217640   3.282   3.517   6.571 -2.6104 -1.1326  2.4189
 2003SOL     OW17641   0.565   2.663  15.429  0.0245 -0.2809  0.6377
 2003SOL    HW117642   0.567   2.718  15.508 -1.2562 -1.1700  1.2882
 2003SOL    HW217643   0.634   2.598  15.441 -0.4099 -1.6177 -3.9736
 2004SOL     OW17644   1.987   0.574  11.267 -0.3612 -0.5068  0.2688
 2004SOL    HW117645   2.061   0.551  11.323 -0.1391  2.7810  1.3337
 2004SOL    HW217646   1.976   0.667  11.289  0.7519 -0.3536  0.1670
 2005SOL     OW17647   4.103   3.721   3.052  0.3206  0.1428  0.6429
 2005SOL    HW117648   4.008   3.711   3.062  0.5363 -1.8887  0.6817
 2005SOL    HW217649   4.121   3.636   3.011 -1.5083 -0.6999  1.6058
 2006SOL     OW17650   3.267   2.518   7.292 -0.3310  0.5542 -0.6576
 2006SOL    HW117651   3.299   2.438   7.335  0.1867  1.2643  0.2893
 2006SOL    HW217652   3.308   2.594   7.334  1.3313 -0.8808  0.2981
 2007SOL     OW17653   0.207   3.525   7.331  0.3452 -0.1478 -0.2298
 2007SOL    HW117654   0.228   3.591   7.396 -0.6233  0.9995 -1.0930
 2007SOL    HW217655   0.158   3.456   7.376  0.2075 -1.1178 -1.8558
 2008SOL     OW17656   4.133   4.560   5.023 -0.0047 -0.1494 -0.2434
 2008SOL    HW117657   4.161   4.514   5.102  0.8504  0.5423 -0.1516
 2008SOL    HW217658   4.201   4.536   4.961 -0.2836  2.6295 -1.5949
 2009SOL     OW17659   0.868   4.185   8.011  0.0359  0.2672  0.0032
 2009SOL    HW117660   0.869   4.210   8.103 -2.5159 -2.4177  0.7703
 2009SOL    HW217661   0.900   4.096   8.027  1.0235  1.0386  2.3450
 2010SOL     OW17662   2.710   4.446   3.295  0.7235 -0.1960  0.0592
 2010SOL    HW117663   2.639   4.461   3.357  1.7525 -1.3702  1.5015
 2010SOL    HW217664   2.775   4.392   3.340  0.9954 -0.0289 -0.1331
 2011SOL     OW17665   0.816   1.331   3.945 -0.0025  0.6322  0.3147
 2011SOL    HW117666   0.817   1.354   4.037 -1.1272  0.3171  0.4120
 2011SOL    HW217667   0.727   1.349   3.914  0.5170  1.4171 -0.6995
 2012SOL     OW17668   4.190   2.280   4.643  0.2235  0.2553 -0.6279
 2012SOL    HW117669   4.115   2.255   4.698  0.3030 -0.1478 -0.7035
 2012SOL    HW217670   4.157   2.326   4.566 -0.1406  0.8208 -0.1326
 2013SOL     OW17671   0.366   0.720   7.789  0.3497 -0.1232  0.1122
 2013SOL    HW117672   0.448   0.704   7.836  0.3305  0.8038  0.4601
 2013SOL    HW217673   0.330   0.636   7.761  0.5056  0.4017 -1.7034
 2014SOL     OW17674   1.942   4.044   4.340  0.3820  0.6541 -0.2249
 2014SOL    HW117675   1.914   3.966   4.388 -1.8710  1.2820 -0.5250
 2014SOL    HW217676   1.858   4.075   4.307 -0.2806  0.7469  1.5825
 2015SOL     OW17677   1.652   3.234   9.973  0.1458  0.0660  0.4310
 2015SOL    HW117678   1.725   3.207  10.028 -0.6063  0.9138  1.8470
 2015SOL    HW217679   1.608   3.294  10.033 -2.2367 -0.6035 -0.6515
 2016SOL     OW17680   4.560   2.197   3.797  0.0033 -0.1339  0.2500
 2016SOL    HW117681   4.624   2.265   3.774 -1.3233  1.1034  0.1982
 2016SOL    HW217682   4.496   2.255   3.838  0.4776  1.5578 -1.3692
 2017SOL     OW17683   1.856   2.184   1.483  0.0156 -0.7455  0.2949
 2017SOL    HW117684   1.947   2.158   1.500 -0.9264 -3.6354  0.9558
 2017SOL    HW217685   1.831   2.232   1.562 -0.7853  0.4007 -0.6542
 2018SOL     OW17686   4.214   2.936  13.366 -0.0570  0.3105 -0.1253
 2018SOL    HW117687   4.227   2.923  13.272 -0.7754  1.5420 -0.3987
 2018SOL    HW217688   4.196   3.030  13.366 -0.3192  0.2584 -0.5861
 2019SOL     OW17689   4.430   0.134  11.918  0.3277  0.5736 -0.7018
 2019SOL    HW117690   4.370   0.101  11.851  0.7388 -0.5517 -0.5157
 2019SOL    HW217691   4.507   0.081  11.900 -0.0902  0.7613 -3.0425
 2020SOL     OW17692   2.099   3.322   9.130  0.3602 -0.7870 -0.4518
 2020SOL    HW117693   2.043   3.245   9.137 -0.9465 -0.0047 -2.1854
 2020SOL    HW217694   2.132   3.318   9.220  1.9980 -1.0390 -1.0558
 2021SOL     OW17695   2.417   1.673   9.150 -0.3497 -0.0541 -0.1029
 2021SOL    HW117696   2.388   1.707   9.235  0.1295 -1.3541  0.5721
 2021SOL    HW217697   2.452   1.749   9.103 -0.6891  0.9352  1.2314
 2022SOL     OW17698   2.908   4.176   1.687 -0.3470  0.2478  0.2951
 2022SOL    HW117699   2.949   4.154   1.603 -0.2212 -0.8424  0.6420
 2022SOL    HW217700   2.818   4.204   1.672  0.4844  1.9342 -1.5144
 2023SOL     OW17701   0.417   0.459   9.596  0.1296  0.1747  0.0779
 2023SOL    HW117702   0.403   0.385   9.655  3.4205 -1.2192 -0.8573
 2023SOL    HW217703   0.331   0.461   9.554  0.0096 -1.7374  0.2406
 2024SOL     OW17704   4.335   0.039   5.440 -0.0956  0.7652  0.0964
 2024SOL    HW117705   4.284   4.699   5.428  0.3631  0.7191 -1.6024
 2024SOL    HW217706   4.385   0.027   5.359  0.8678 -3.4550  1.3019
 2025SOL     OW17707   0.214   3.709   6.394 -0.0762  0.2673 -0.5195
 2025SOL    HW117708   0.180   3.799   6.401  1.2167  0.6972  0.3186
 2025SOL    HW217709   0.307   3.716   6.375 -0.3526 -1.2518 -2.3725
 2026SOL     OW17710   1.842   4.522   4.066 -0.2549 -1.1874  0.6054
 2026SOL    HW117711   1.773   4.584   4.044 -0.7360 -1.8114  0.3339
 2026SOL    HW217712   1.922   4.573   4.061 -1.1578  0.2017  0.5537
 2027SOL     OW17713   3.865   1.180   3.991 -0.2966 -0.2160  1.0431
 2027SOL    HW117714   3.857   1.095   4.035 -0.3821 -0.2773  0.9114
 2027SOL    HW217715   3.773   1.200   3.972  0.6052  1.5444 -1.4768
 2028SOL     OW17716   3.842   3.612   3.852 -0.1984 -0.5290 -0.1594
 2028SOL    HW117717   3.808   3.684   3.906 -0.2559  0.9900 -2.2434
 2028SOL    HW217718   3.793   3.539   3.888 -1.5928  0.2932 -0.3861
 2029SOL     OW17719   1.042   4.489   2.598 -0.2242  0.3052 -0.1884
 2029SOL    HW117720   1.048   4.461   2.689  1.5185 -0.0849 -0.4350
 2029SOL    HW217721   1.090   4.571   2.606  0.0057  0.1094  0.4635
 2030SOL     OW17722   0.027   0.583   2.252 -0.1447 -0.0654  0.2822
 2030SOL    HW117723   0.083   0.599   2.176 -0.1250 -0.6579  0.1732
 2030SOL    HW217724   4.736   0.671   2.275  1.4167  0.7840 -0.8686
 2031SOL     OW17725   4.564   2.003  15.342  0.0818 -0.2591  0.9118
 2031SOL    HW117726   4.532   2.026  15.430  0.8490 -0.0438  1.1373
 2031SOL    HW217727   4.485   2.007  15.289  1.4746  0.6721 -1.0590
 2032SOL     OW17728   0.565   1.051   6.511 -0.8655 -0.9034 -0.2933
 2032SOL    HW117729   0.553   0.958   6.491 -1.9215 -0.8176 -0.0437
 2032SOL    HW217730   0.622   1.077   6.439  0.4429  1.3439  1.5643
 2033SOL     OW17731   2.495   3.391   4.993 -0.4640  0.2073 -0.4680
 2033SOL    HW117732   2.514   3.351   4.908 -0.0823  2.4616 -1.4456
 2033SOL    HW217733   2.577   3.439   5.001  0.9843 -2.6503  1.9884
 2034SOL     OW17734   4.499   0.154   2.465 -0.3895  0.2675 -0.8093
 2034SOL    HW117735   4.442   0.106   2.406  0.2875 -1.9421  0.3605
 2034SOL    HW217736   4.476   0.247   2.467  1.6934  0.7532  0.2690
 2035SOL     OW17737   4.073   1.860  11.015 -0.5596  0.1559 -0.1806
 2035SOL    HW117738   4.054   1.936  11.070  0.2715 -0.1549  0.5291
 2035SOL    HW217739   3.993   1.846  10.963 -0.0007 -1.7415 -0.5223
 2036SOL     OW17740   4.626   4.227  12.112  0.3866 -0.3875  0.2199
 2036SOL    HW117741   4.565   4.254  12.182  0.6710  2.2784 -0.5676
 2036SOL    HW217742   4.706   4.278  12.125 -0.5344  0.7144  1.6550
 2037SOL     OW17743   2.876   1.798  16.269  0.6367  0.1374  0.3533
 2037SOL    HW117744   2.830   1.722  16.231  2.5477  0.1790 -2.0385
 2037SOL    HW217745   2.839   1.792  16.357  1.1524  0.4681  0.5891
 2038SOL     OW17746   2.244   1.115   6.827 -0.2334  0.5738 -0.0385
 2038SOL    HW117747   2.224   1.039   6.881  0.1308  0.7028  0.2746
 2038SOL    HW217748   2.323   1.085   6.782 -0.5720 -1.4492  0.6950
 2039SOL     OW17749   0.976   0.092   7.484 -0.2040  0.5716 -0.1759
 2039SOL    HW117750   0.977   0.059   7.573  3.2386 -1.0827 -0.8071
 2039SOL    HW217751   0.891   0.133   7.499 -0.2721  0.3239  0.1058
 2040SOL     OW17752   0.516   2.590   7.047 -0.0953  0.4023 -0.6918
 2040SOL    HW117753   0.427   2.554   7.047 -1.0880  2.9331  0.8429
 2040SOL    HW217754   0.499   2.682   7.066 -1.8456 -0.2198  0.7265
 2041SOL     OW17755   2.225   4.028  16.672  0.5610  0.0261  0.6601
 2041SOL    HW117756   2.178   4.109  16.651  1.5827  0.3160 -0.5559
 2041SOL    HW217757   2.164   3.966  16.633 -0.0733  1.0384  0.0412
 2042SOL     OW17758   2.895   3.946  14.502  0.4507 -0.2595  0.3320
 2042SOL    HW117759   2.886   3.851  14.506  0.0997 -0.2122  0.6317
 2042SOL    HW217760   2.843   3.966  14.580  0.2334  1.0281 -0.1380
 2043SOL     OW17761   3.949   3.148   3.043  0.7057 -0.0291 -0.4916
 2043SOL    HW117762   3.876   3.192   3.001  3.1292  2.4228 -2.1128
 2043SOL    HW217763   3.974   3.222   3.098  0.0344  0.1257 -0.3949
 2044SOL     OW17764   2.111   2.257   4.218 -0.1000  0.1788  0.1582
 2044SOL    HW117765   2.036   2.198   4.217 -0.8866  1.1849  0.3049
 2044SOL    HW217766   2.192   2.209   4.201  0.6294  1.0620  1.1067
 2045SOL     OW17767   4.538   0.399   5.681  0.2362  0.1996  0.2820
 2045SOL    HW117768   4.480   0.324   5.690 -1.1300  1.0564 -1.2659
 2045SOL    HW217769   4.611   0.353   5.640  1.5122 -0.3296  3.1463
 2046SOL     OW17770   2.240   4.310  12.914  0.2431 -0.3055  0.0263
 2046SOL    HW117771   2.305   4.319  12.984 -0.7249  0.7751  0.7920
 2046SOL    HW217772   2.157   4.338  12.953  0.8371  1.9608 -0.3592
 2047SOL     OW17773   2.647   0.659   3.821 -0.1765 -0.1306 -0.4774
 2047SOL    HW117774   2.646   0.645   3.915  0.2575  0.1427 -0.4310
 2047SOL    HW217775   2.570   0.607   3.798  1.2756 -2.0110 -1.0555
 2048SOL     OW17776   4.017   1.991   2.365 -0.5794 -0.0107  0.0978
 2048SOL    HW117777   4.084   1.980   2.297 -0.6681 -0.3211  0.0620
 2048SOL    HW217778   4.075   2.027   2.433  0.3742  0.0619 -0.7513
 2049SOL     OW17779   0.124   3.238   2.229 -0.2501  0.4575 -0.2840
 2049SOL    HW117780   0.148   3.171   2.293  2.0927  1.0402 -0.5835
 2049SOL    HW217781   0.205   3.287   2.222  0.2870 -0.1507  1.6951
 2050SOL     OW17782   4.575   3.550   4.751  0.4454  0.2325  0.1741
 2050SOL    HW117783   4.602   3.504   4.672  0.3182  1.0869 -0.3678
 2050SOL    HW217784   4.659   3.546   4.798 -0.6710 -0.7963  2.0638
 2051SOL     OW17785   4.243   2.516   1.972  0.5967 -0.1524  0.5845
 2051SOL    HW117786   4.182   2.565   2.027 -1.6255 -1.0442 -1.0267
 2051SOL    HW217787   4.327   2.532   2.013  1.1986 -0.9241 -0.3455
 2052SOL     OW17788   2.994   3.214   6.371 -0.4848  0.5472  0.7736
 2052SOL    HW117789   2.918   3.167   6.336 -0.3772  0.9494  0.0114
 2052SOL    HW217790   2.954   3.261   6.444 -2.1348 -0.3302  0.4438
 2053SOL     OW17791   3.359   3.876   4.261  0.6685 -0.3464  0.2844
 2053SOL    HW117792   3.306   3.837   4.330  0.8020 -1.2493 -0.1291
 2053SOL    HW217793   3.383   3.960   4.302  0.8385 -0.8866  1.2719
 2054SOL     OW17794   3.983   4.264   7.693  0.0545 -0.3728 -0.4436
 2054SOL    HW117795   4.019   4.190   7.742  2.9055  0.7720 -0.7837
 2054SOL    HW217796   3.984   4.342   7.750 -1.3731 -0.5814 -0.1455
 2055SOL     OW17797   2.610   1.178   8.156 -0.2711 -0.1394 -0.1201
 2055SOL    HW117798   2.609   1.219   8.242  0.4685 -1.2156  0.4064
 2055SOL    HW217799   2.516   1.159   8.145  0.2848 -1.5615 -2.5968
 2056SOL     OW17800   3.842   2.845   9.056  0.0274  0.7759 -0.1318
 2056SOL    HW117801   3.796   2.853   9.139  1.6631 -0.0554  0.8356
 2056SOL    HW217802   3.869   2.936   9.041  0.0451  0.6508 -0.8880
 2057SOL     OW17803   2.713   0.611   5.377 -0.9854 -0.1082 -0.6432
 2057SOL    HW117804   2.688   0.678   5.313  0.8597 -1.6963 -3.0092
 2057SOL    HW217805   2.648   0.542   5.364  0.6967 -2.2521  2.4848
 2058SOL     OW17806   0.422   0.816  13.655  0.3505 -0.2691  0.4792
 2058SOL    HW117807   0.436   0.902  13.694  0.9559 -0.1248 -0.0552
 2058SOL    HW217808   0.339   0.792  13.698  0.4251  0.8942  1.2675
 2059SOL     OW17809   2.650   2.506   5.752 -0.0388  0.0205  0.0161
 2059SOL    HW117810   2.620   2.508   5.843 -0.8884  4.0856 -0.3507
 2059SOL    HW217811   2.680   2.596   5.738 -1.9695  0.5296 -0.9126
 2060SOL     OW17812   3.732   3.256   4.855  0.1071  0.0621 -0.0698
 2060SOL    HW117813   3.743   3.341   4.813 -2.9187  1.5042  2.0356
 2060SOL    HW217814   3.755   3.282   4.944 -2.8451  1.9376  0.1434
 2061SOL     OW17815   0.785   4.465  12.482  0.3128 -0.2168 -0.1905
 2061SOL    HW117816   0.691   4.445  12.481  0.9939 -3.3766  0.6698
 2061SOL    HW217817   0.779   4.513  12.399 -0.9463  0.1876  0.1370
 2062SOL     OW17818   3.106   1.103   6.230 -0.4529 -0.6072 -0.4256
 2062SOL    HW117819   3.127   1.013   6.254 -3.7812 -1.7185 -1.6941
 2062SOL    HW217820   3.167   1.157   6.280  0.3148 -1.5383 -0.3698
 2063SOL     OW17821   1.482   3.523  15.285 -0.2311  0.6306  0.6123
 2063SOL    HW117822   1.544   3.457  15.254 -0.0305  0.9257  0.3831
 2063SOL    HW217823   1.413   3.521  15.219  1.0090  0.3286 -0.6861
 2064SOL     OW17824   4.566   1.139   3.417  0.0497  0.1408  0.1073
 2064SOL    HW117825   4.479   1.100   3.426  0.8154 -1.3179  1.2283
 2064SOL    HW217826   4.535   1.229   3.404  0.6793  0.3890  0.2616
 2065SOL     OW17827   1.558   1.120  11.892 -0.2325  0.4591 -0.3245
 2065SOL    HW117828   1.514   1.076  11.819 -1.1031  1.0299 -0.1482
 2065SOL    HW217829   1.492   1.108  11.961  0.3071 -1.4145 -0.1174
 2066SOL     OW17830   3.237   3.281   1.546  0.0875 -0.0063 -0.0481
 2066SOL    HW117831   3.313   3.333   1.573 -0.3624  0.4503  0.3322
 2066SOL    HW217832   3.252   3.249   1.457 -1.0112  0.2831 -0.3337
 2067SOL     OW17833   4.211   0.531  14.805  0.3674 -0.4373  0.5686
 2067SOL    HW117834   4.137   0.536  14.745 -0.9922  1.9969  2.4687
 2067SOL    HW217835   4.282   0.532  14.740  0.7485  1.1493  1.0101
 2068SOL     OW17836   2.168   4.053   6.173 -0.1295  0.1359  0.2985
 2068SOL    HW117837   2.192   3.968   6.209  1.9277  0.1255 -1.0993
 2068SOL    HW217838   2.078   4.061   6.205 -0.6969 -2.3358 -0.6944
 2069SOL     OW17839   2.037   1.058   0.535  0.2952 -0.3545  0.0540
 2069SOL    HW117840   2.028   0.985   0.597  2.1240 -0.1732  0.5203
 2069SOL    HW217841   2.052   1.131   0.595  2.3084  1.1120 -2.2145
 2070SOL     OW17842   4.552   1.114   6.254  0.2967 -0.7745  0.0273
 2070SOL    HW117843   4.487   1.093   6.188  0.3123  0.4891 -0.4003
 2070SOL    HW217844   4.509   1.100   6.338 -1.2870 -0.3915 -0.7254
 2071SOL     OW17845   4.566   4.116   4.325  0.0252  0.3261  0.1094
 2071SOL    HW117846   4.568   4.095   4.419  0.4676 -1.0752 -0.2079
 2071SOL    HW217847   4.601   4.032   4.295  0.9231  1.0778 -0.9341
 2072SOL     OW17848   3.674   4.013   0.187 -0.7014  0.1447 -0.5702
 2072SOL    HW117849   3.621   4.046   0.114  2.3310  1.2642 -2.2682
 2072SOL    HW217850   3.722   3.941   0.146  0.0788 -0.4169  1.3706
 2073SOL     OW17851   0.253   0.207   3.444 -0.3624 -0.0497 -0.0482
 2073SOL    HW117852   0.314   0.261   3.393  0.0948  0.2404  0.8165
 2073SOL    HW217853   0.204   0.269   3.498 -2.5057  0.8184 -2.9846
 2074SOL     OW17854   1.102   4.218   1.259 -0.0485 -0.4781  0.0932
 2074SOL    HW117855   1.046   4.214   1.181  0.1457 -1.8092  0.0291
 2074SOL    HW217856   1.156   4.295   1.241 -0.2849 -0.9493 -2.7022
 2075SOL     OW17857   4.303   1.103   9.150  0.0974  0.2193 -0.6216
 2075SOL    HW117858   4.355   1.082   9.228  0.8241 -2.3526 -1.8114
 2075SOL    HW217859   4.368   1.168   9.121  0.7383  0.2437  0.8647
 2076SOL     OW17860   2.502   1.831  17.499  0.2359  0.0845 -0.3056
 2076SOL    HW117861   2.528   1.839  17.407 -0.5592 -2.1473 -0.7407
 2076SOL    HW217862   2.424   1.886  17.506 -1.6593 -2.1826 -3.3360
 2077SOL     OW17863   1.502   4.622  16.791  0.1955  0.5192  0.2619
 2077SOL    HW117864   1.565   4.623  16.862  1.0199  1.1792 -0.4859
 2077SOL    HW217865   1.435   4.677  16.833  0.3993  1.2460 -0.3604
 2078SOL     OW17866   0.950   4.439  16.429 -0.0680 -0.1536 -0.1944
 2078SOL    HW117867   0.942   4.386  16.349 -0.5684  1.4090 -1.1715
 2078SOL    HW217868   0.930   4.370  16.492 -0.1848 -1.0617 -1.2100
 2079SOL     OW17869   4.001   2.790   9.864 -0.5428 -0.5133 -0.0431
 2079SOL    HW117870   3.907   2.772   9.858 -0.8741  1.2297 -0.0625
 2079SOL    HW217871   3.987   2.853   9.935  0.3690 -0.9899  0.5609
 2080SOL     OW17872   0.309   3.446  13.698  0.0135  0.1647  0.1348
 2080SOL    HW117873   0.375   3.376  13.699 -0.5419 -0.3798 -1.5454
 2080SOL    HW217874   0.366   3.514  13.734 -0.3259 -0.4896  1.8883
 2081SOL     OW17875   3.732   4.357   1.875  0.2615  0.0660  0.6689
 2081SOL    HW117876   3.787   4.390   1.946  0.2891  1.2022  0.1141
 2081SOL    HW217877   3.665   4.306   1.921  1.0665 -0.4357  1.2719
 2082SOL     OW17878   0.069   0.777   7.755 -1.2386  0.4021 -0.3260
 2082SOL    HW117879   0.140   0.754   7.695 -2.8633 -1.1647 -1.6719
 2082SOL    HW217880   0.113   0.854   7.790 -4.8674  1.9486  0.7538
 2083SOL     OW17881   2.920   1.444   4.729  0.0492  0.2960  0.1402
 2083SOL    HW117882   2.840   1.496   4.738  0.2095  0.7608 -1.1436
 2083SOL    HW217883   2.976   1.500   4.676  0.8151 -0.6719 -0.0855
 2084SOL     OW17884   4.265   3.310   3.508 -0.3042  0.6350  0.1858
 2084SOL    HW117885   4.350   3.267   3.493 -0.4096  0.3990  0.2692
 2084SOL    HW217886   4.199   3.241   3.515 -0.5874  0.6242 -2.5288
 2085SOL     OW17887   0.674   0.505  12.126  0.0414  0.5263 -0.1861
 2085SOL    HW117888   0.733   0.565  12.173 -0.9492 -0.1691  1.9463
 2085SOL    HW217889   0.663   0.551  12.043  0.1324 -0.8528 -0.9642
 2086SOL     OW17890   1.887   3.710   5.091  0.4809 -0.5709 -0.1350
 2086SOL    HW117891   1.803   3.745   5.061  0.5500  0.0289  0.3653
 2086SOL    HW217892   1.931   3.794   5.109  0.0831 -0.0103 -1.7748
 2087SOL     OW17893   1.680   1.135   3.642  0.5167  0.2308  0.4096
 2087SOL    HW117894   1.647   1.065   3.699  2.1132 -0.6923  0.2290
 2087SOL    HW217895   1.620   1.134   3.568  0.2028  3.0762  0.6580
 2088SOL     OW17896   1.525   3.372   1.920 -0.0219 -0.4492  0.1039
 2088SOL    HW117897   1.620   3.372   1.935 -0.0071 -1.5620  0.0098
 2088SOL    HW217898   1.528   3.375   1.824 -1.1423 -0.6447  0.0630
 2089SOL     OW17899   3.925   3.193   9.223 -0.4152 -0.4047 -0.0641
 2089SOL    HW117900   3.991   3.140   9.266 -0.7804  1.0695  2.3068
 2089SOL    HW217901   3.864   3.216   9.293  1.0808 -1.8231  1.6737
 2090SOL     OW17902   2.840   1.193   6.764  0.1444 -0.3607 -0.1012
 2090SOL    HW117903   2.876   1.175   6.851 -1.0788 -0.9095  0.2977
 2090SOL    HW217904   2.917   1.175   6.712  0.4073 -1.1435  0.5661
 2091SOL     OW17905   1.093   0.093   4.429  0.1712 -0.0180 -0.3007
 2091SOL    HW117906   1.022   0.105   4.366 -0.0014 -3.4717 -0.7621
 2091SOL    HW217907   1.109   0.000   4.411  1.6771  0.4236 -1.1780
 2092SOL     OW17908   1.793   0.074  13.276  0.1016  0.3206  0.2968
 2092SOL    HW117909   1.725   0.136  13.251 -1.7099 -1.6010  0.4668
 2092SOL    HW217910   1.858   0.096  13.210 -0.0180 -0.0746  0.0454
 2093SOL     OW17911   1.374   4.415   4.532  0.6286 -0.3035 -0.2867
 2093SOL    HW117912   1.416   4.375   4.608 -0.8234 -2.8421 -0.8433
 2093SOL    HW217913   1.362   4.504   4.566  0.9194  0.3931 -1.9779
 2094SOL     OW17914   2.921   3.210  17.541 -0.0162  0.1957 -0.7104
 2094SOL    HW117915   2.968   3.290  17.520  1.9309  0.0328  2.9841
 2094SOL    HW217916   2.858   3.240  17.607 -0.0938  1.5517 -1.4069
 2095SOL     OW17917   0.536   2.456  10.735  0.0988  0.8233  0.9138
 2095SOL    HW117918   0.588   2.383  10.701  2.5425  3.0747 -0.1842
 2095SOL    HW217919   0.528   2.434  10.828 -1.2011  1.1692  0.8915
 2096SOL     OW17920   4.573   4.643  12.118 -0.5829 -0.6042  0.6678
 2096SOL    HW117921   4.488   4.646  12.163  0.0457  0.2119  1.7926
 2096SOL    HW217922   4.630   4.708  12.159  0.6219 -0.0810 -1.8775
 2097SOL     OW17923   1.804   2.465   3.832  0.1157 -0.1610  0.2170
 2097SOL    HW117924   1.787   2.469   3.738  2.3936 -1.1086 -0.2432
 2097SOL    HW217925   1.892   2.492   3.858  0.7264 -1.9885  0.0658
 2098SOL     OW17926   4.031   0.077   7.216 -0.0863 -0.1698  0.8990
 2098SOL    HW117927   3.951   0.067   7.165 -0.3946 -0.4428  1.4272
 2098SOL    HW217928   4.034   0.001   7.275  3.0186  1.8110  3.3330
 2099SOL     OW17929   1.519   3.809   5.541  0.2512 -0.2014 -0.4742
 2099SOL    HW117930   1.489   3.731   5.495  0.2753 -0.2043 -0.4846
 2099SOL    HW217931   1.601   3.774   5.575  1.0915  2.4744  0.2641
 2100SOL     OW17932   0.614   0.048   1.290 -0.1985 -0.2012 -0.0254
 2100SOL    HW117933   0.553   0.121   1.279 -0.7190 -0.4756  1.1553
 2100SOL    HW217934   0.590   0.027   1.380 -0.5382 -0.9050 -0.2855
 2101SOL     OW17935   2.128   1.116   3.359 -0.2262 -0.5869  0.1455
 2101SOL    HW117936   2.154   1.205   3.337  0.7692 -1.0294 -0.4382
 2101SOL    HW217937   2.034   1.116   3.377  0.2376  0.2780  2.5298
 2102SOL     OW17938   2.233   3.779   6.562 -0.0275  0.0079  0.3437
 2102SOL    HW117939   2.252   3.780   6.655 -0.4233 -0.5323  0.4303
 2102SOL    HW217940   2.139   3.764   6.569  0.3876 -2.6379  0.5056
 2103SOL     OW17941   3.926   2.393   9.105  0.4825  0.4709  0.2812
 2103SOL    HW117942   3.908   2.378   9.197  0.7789  0.2666  0.3044
 2103SOL    HW217943   3.903   2.307   9.071 -0.3960 -0.4066  3.1703
 2104SOL     OW17944   3.435   4.504   2.905  0.2492  0.2355 -0.0187
 2104SOL    HW117945   3.436   4.500   3.001 -2.5906  0.7843  0.0616
 2104SOL    HW217946   3.491   4.581   2.905 -0.2026  0.5709  0.8633
 2105SOL     OW17947   3.442   3.084   7.333  0.7245 -0.5906 -0.2409
 2105SOL    HW117948   3.507   3.080   7.404 -0.2059 -1.9319  0.5534
 2105SOL    HW217949   3.460   3.001   7.289  1.5170 -0.0311 -0.9647
 2106SOL     OW17950   1.053   0.143   2.568  0.1680 -0.3925  0.5676
 2106SOL    HW117951   1.074   0.134   2.661 -1.5612  0.3336  1.0206
 2106SOL    HW217952   0.975   0.089   2.565  1.1755 -1.8254  0.3178
 2107SOL     OW17953   2.878   2.828  10.246  0.2263 -0.3256 -0.1437
 2107SOL    HW117954   2.853   2.898  10.307 -1.2198 -0.3250 -0.7534
 2107SOL    HW217955   2.973   2.839  10.255 -0.1744  2.3418  1.0627
 2108SOL     OW17956   0.872   1.391   2.142 -0.0314 -0.0038  0.2255
 2108SOL    HW117957   0.842   1.350   2.061  1.8511 -0.7474 -0.0907
 2108SOL    HW217958   0.939   1.334   2.178 -0.0980  0.6237  1.3648
 2109SOL     OW17959   1.255   1.274  13.675 -0.1245 -0.1949  0.1360
 2109SOL    HW117960   1.320   1.206  13.658 -0.8967 -0.8851 -0.0447
 2109SOL    HW217961   1.211   1.231  13.748 -1.0282 -2.0419 -1.4655
 2110SOL     OW17962   0.994   0.183  17.157  0.2926  0.0301 -0.1493
 2110SOL    HW117963   0.991   0.203  17.251 -1.4476 -1.1872  0.0483
 2110SOL    HW217964   0.902   0.161  17.143  0.6242 -1.0058 -0.7070
 2111SOL     OW17965   1.117   4.020   3.178 -0.2940 -0.2389 -0.5158
 2111SOL    HW117966   1.210   4.016   3.199 -0.2089  0.1823 -0.8128
 2111SOL    HW217967   1.112   3.953   3.110 -1.0827  0.1864 -0.8778
 2112SOL     OW17968   1.291   1.019   2.109  0.2277 -0.2888  0.6218
 2112SOL    HW117969   1.243   1.048   2.032  0.7380 -0.5898  0.1848
 2112SOL    HW217970   1.373   0.986   2.071  0.4957  1.2716 -0.1605
 2113SOL     OW17971   0.007   1.649   9.217 -0.1722  0.0229 -0.4000
 2113SOL    HW117972   0.070   1.635   9.145  0.2293 -1.2845  0.1993
 2113SOL    HW217973   0.032   1.581   9.280  3.5070  0.9529 -0.8198
 2114SOL     OW17974   3.575   3.664   1.329 -0.0024 -0.1701 -0.2985
 2114SOL    HW117975   3.643   3.605   1.297  0.0650  0.0024 -0.4792
 2114SOL    HW217976   3.502   3.606   1.311 -0.3983 -1.0872  4.2613
 2115SOL     OW17977   4.722   0.018   2.305 -0.4911  0.1550  0.2632
 2115SOL    HW117978   0.073   0.041   2.328 -1.0446  0.5097  2.1048
 2115SOL    HW217979   4.665   0.059   2.370 -0.6985  1.7159 -0.8905
 2116SOL     OW17980   0.808   2.745   3.952 -0.1541  0.2746 -0.0144
 2116SOL    HW117981   0.855   2.828   3.943  2.0452 -1.0585 -0.8235
 2116SOL    HW217982   0.759   2.749   4.034 -0.7352  0.5972 -0.3731
 2117SOL     OW17983   4.434   3.048   0.224 -0.6597 -0.4399 -0.0605
 2117SOL    HW117984   4.381   3.051   0.144  0.0863 -1.0687 -0.5827
 2117SOL    HW217985   4.376   2.998   0.281 -0.0931 -2.0063 -0.8524
 2118SOL     OW17986   0.049   1.917   2.219  0.9191 -0.3879 -0.0311
 2118SOL    HW117987   0.113   1.883   2.282  1.9346  2.7892  0.6488
 2118SOL    HW217988   0.018   1.836   2.179 -1.7268  0.5879  0.0649
 2119SOL     OW17989   3.061   3.873   3.274 -0.2974 -0.6353 -0.2886
 2119SOL    HW117990   3.007   3.796   3.290  1.8483 -1.7573  1.5130
 2119SOL    HW217991   3.082   3.859   3.181 -0.5491 -0.0041 -0.4415
 2120SOL     OW17992   4.060   0.338  15.962  0.3911  0.2680 -0.5241
 2120SOL    HW117993   4.088   0.279  16.032  0.5725 -0.4538 -1.2010
 2120SOL    HW217994   4.045   0.416  16.016 -0.6684  0.7760 -1.5668
 2121SOL     OW17995   3.314   3.230   7.942 -0.2329 -0.5284 -0.1615
 2121SOL    HW117996   3.380   3.264   7.881 -0.1854 -2.3447 -1.1212
 2121SOL    HW217997   3.360   3.156   7.982  2.2465  0.5399 -0.9983
 2122SOL     OW17998   2.781   0.604   1.410  0.1127  0.3021  0.9772
 2122SOL    HW117999   2.824   0.622   1.327 -0.7332 -1.7842  0.0898
 2122SOL    HW218000   2.752   0.514   1.400  0.8499  0.1883 -0.0722
 2123SOL     OW18001   1.111   2.064   6.438 -0.1225 -0.1597 -0.0349
 2123SOL    HW118002   1.055   2.141   6.451  2.3242  1.3356  1.4944
 2123SOL    HW218003   1.183   2.095   6.383 -0.5916  1.0481  0.0396
 2124SOL     OW18004   0.524   0.344  12.491  0.7823  0.5503  0.0111
 2124SOL    HW118005   0.589   0.324  12.558  1.2164  2.5706  0.1987
 2124SOL    HW218006   0.582   0.338  12.414  0.3942  0.9996 -0.3169
 2125SOL     OW18007   2.102   4.119   6.712  0.1586 -0.2763  0.1869
 2125SOL    HW118008   2.054   4.181   6.767  0.7341 -0.2367  0.6426
 2125SOL    HW218009   2.178   4.093   6.764 -1.7120  0.8224  3.4392
 2126SOL     OW18010   2.746   2.181  16.387 -0.4470  0.3672 -0.2189
 2126SOL    HW118011   2.813   2.245  16.364 -1.1302  1.0355 -0.3331
 2126SOL    HW218012   2.772   2.145  16.472  0.7357  2.0487  0.1187
 2127SOL     OW18013   2.669   2.374  13.942 -0.7458  0.0195  0.0065
 2127SOL    HW118014   2.615   2.365  13.864 -0.4546 -1.4239 -0.0281
 2127SOL    HW218015   2.621   2.408  14.018  2.4833  0.9646  1.6362
 2128SOL     OW18016   3.476   1.841   4.086  0.0391 -0.3629  0.0781
 2128SOL    HW118017   3.437   1.754   4.080  1.4716 -0.8477 -1.9475
 2128SOL    HW218018   3.456   1.866   3.996  0.6905 -0.6932 -0.1531
 2129SOL     OW18019   2.762   0.563   6.790 -0.4635  0.5394  0.4060
 2129SOL    HW118020   2.792   0.554   6.700  0.1456 -2.3994  0.8947
 2129SOL    HW218021   2.838   0.528   6.836 -0.2196  0.7714  0.1747
 2130SOL     OW18022   3.352   4.000  16.882 -0.0128 -0.7532 -0.3960
 2130SOL    HW118023   3.307   3.934  16.829 -0.9453 -1.2957  1.0853
 2130SOL    HW218024   3.425   4.007  16.821 -0.7617 -2.3951 -1.5079
 2131SOL     OW18025   2.915   4.612   0.001 -0.9284 -0.3115 -0.3894
 2131SOL    HW118026   2.940   4.552  17.688 -0.3630  1.4183 -1.6700
 2131SOL    HW218027   2.936   4.696  17.716  1.3922  0.7782  2.9165
 2132SOL     OW18028   4.428   0.764   8.443 -0.5544  0.4884  0.3109
 2132SOL    HW118029   4.372   0.720   8.380  0.0433  1.1040 -0.6458
 2132SOL    HW218030   4.506   0.770   8.388 -0.5638  1.8339  0.4360
 2133SOL     OW18031   4.048   4.325   3.804 -0.0087  0.2778 -0.7498
 2133SOL    HW118032   4.040   4.398   3.742  0.0071  1.3812  0.5660
 2133SOL    HW218033   4.028   4.250   3.747  1.0612 -0.9768  0.5311
 2134SOL     OW18034   1.429   1.541   8.356 -0.4234  0.2612 -0.4523
 2134SOL    HW118035   1.521   1.525   8.380 -0.6142 -1.8684 -1.0821
 2134SOL    HW218036   1.420   1.636   8.363 -0.5329  0.1860  0.4569
 2135SOL     OW18037   2.867   4.406   7.165  0.3343  0.2459  0.4877
 2135SOL    HW118038   2.847   4.415   7.071  0.5816  1.2884  0.5327
 2135SOL    HW218039   2.939   4.466   7.186  0.7619  0.1555 -0.6662
 2136SOL     OW18040   3.862   0.279   4.611  0.0214  0.3417 -0.1320
 2136SOL    HW118041   3.812   0.223   4.670 -0.4181 -2.3102 -2.9836
 2136SOL    HW218042   3.831   0.254   4.524  1.3506 -0.7448 -0.2924
 2137SOL     OW18043   1.381   2.641  10.011  0.3426  0.1328  0.1356
 2137SOL    HW118044   1.392   2.579  10.083 -0.7305  0.9084  0.9469
 2137SOL    HW218045   1.452   2.703  10.031 -1.2398  1.6315  1.0563
 2138SOL     OW18046   4.193   3.269   6.165  0.1189  0.1567  0.5612
 2138SOL    HW118047   4.179   3.179   6.196  0.5315 -0.6698 -1.6115
 2138SOL    HW218048   4.263   3.297   6.223  1.1114 -3.3851  1.1056
 2139SOL     OW18049   1.895   1.425   2.048 -0.0552 -0.1617  0.3482
 2139SOL    HW118050   1.941   1.366   1.988 -1.8079  2.5141 -3.6540
 2139SOL    HW218051   1.966   1.476   2.085 -0.7862  0.1789  1.2901
 2140SOL     OW18052   3.512   2.365  13.238 -0.1254 -0.3164 -0.0124
 2140SOL    HW118053   3.430   2.400  13.203 -1.7269 -3.7638  0.3336
 2140SOL    HW218054   3.550   2.447  13.271  0.8409 -1.7743  2.4711
 2141SOL     OW18055   2.103   3.409   3.431  0.0724  0.1081  0.4114
 2141SOL    HW118056   2.080   3.329   3.477 -0.4085  0.0313  0.0405
 2141SOL    HW218057   2.025   3.459   3.458  0.8346 -0.0227  2.7822
 2142SOL     OW18058   4.173   2.799  14.583 -0.4668 -0.1409 -0.8355
 2142SOL    HW118059   4.125   2.803  14.666 -2.0296 -0.4837 -1.7233
 2142SOL    HW218060   4.197   2.707  14.583  0.2072  0.0355 -0.9370
 2143SOL     OW18061   0.621   2.022   4.467  0.0852 -0.2659 -0.1676
 2143SOL    HW118062   0.602   2.115   4.455 -1.5002 -0.5504  0.2188
 2143SOL    HW218063   0.565   1.999   4.541  1.8819 -1.1551  0.9300
 2144SOL     OW18064   3.608   2.007   1.846 -0.0168  0.2172 -0.6139
 2144SOL    HW118065   3.661   2.080   1.878  1.3795 -0.6515 -0.9821
 2144SOL    HW218066   3.676   1.941   1.839  0.6095  0.5944  1.9789
 2145SOL     OW18067   3.777   0.636  16.800 -1.1003 -0.2571 -0.2584
 2145SOL    HW118068   3.730   0.558  16.826  0.2420 -1.4170 -1.3260
 2145SOL    HW218069   3.730   0.658  16.719  1.0038  1.6759 -0.9808
 2146SOL     OW18070   0.446   3.183   5.734  0.5463  0.4325  0.6488
 2146SOL    HW118071   0.370   3.241   5.735  1.4064  1.6051 -1.2202
 2146SOL    HW218072   0.426   3.143   5.818  2.2423 -1.2110  0.2556
 2147SOL     OW18073   3.516   3.013   5.040  0.5653  0.2529 -0.1229
 2147SOL    HW118074   3.441   2.954   5.042  1.8936 -1.4853 -1.4512
 2147SOL    HW218075   3.471   3.085   5.084  0.9834 -0.0664  0.8123
 2148SOL     OW18076   0.027   2.682   3.475 -0.9397  0.1123 -0.1281
 2148SOL    HW118077   4.683   2.673   3.521 -0.1403 -2.0776  0.9165
 2148SOL    HW218078   0.085   2.729   3.534  1.6335 -2.1880 -0.8605
 2149SOL     OW18079   4.002   1.037   3.402 -0.4649 -0.0517  0.0145
 2149SOL    HW118080   4.010   0.942   3.410  0.2070  0.1006  1.0742
 2149SOL    HW218081   3.954   1.045   3.484 -0.0676  2.8682 -0.0416
 2150SOL     OW18082   0.804   3.094   5.006  0.8249  0.0903  0.1823
 2150SOL    HW118083   0.878   3.080   5.064  0.1590 -0.9777  0.7786
 2150SOL    HW218084   0.785   3.011   4.963  1.1073 -0.1692  0.5604
 2151SOL     OW18085   2.147   1.539  13.004  0.1893 -0.1830 -0.2772
 2151SOL    HW118086   2.215   1.562  13.067  2.5734  0.8730 -3.2522
 2151SOL    HW218087   2.161   1.445  12.992  0.2624 -0.3860  1.4238
 2152SOL     OW18088   3.932   3.332  13.610 -0.4895  0.0947 -0.0655
 2152SOL    HW118089   3.966   3.416  13.580 -0.7754 -0.3815 -1.7440
 2152SOL    HW218090   3.840   3.351  13.630 -0.2745  1.3349 -0.2720
 2153SOL     OW18091   0.763   2.502   3.391  0.6962  0.8226  0.3544
 2153SOL    HW118092   0.800   2.543   3.312  1.3275 -0.7755 -0.1737
 2153SOL    HW218093   0.700   2.446   3.346  2.0409 -0.8743  0.5875
 2154SOL     OW18094   3.934   4.610   6.364  0.1797 -0.3454  0.4671
 2154SOL    HW118095   3.973   4.630   6.279 -0.1014 -0.6360  0.2671
 2154SOL    HW218096   4.010   4.570   6.406 -1.2031 -0.9662  2.3409
 2155SOL     OW18097   4.369   1.905   1.622 -0.1120 -0.0997  0.4886
 2155SOL    HW118098   4.323   1.842   1.567 -0.6397  1.5467 -0.9598
 2155SOL    HW218099   4.308   1.979   1.622 -0.0354 -0.0310  2.4464
 2156SOL     OW18100   1.612   0.431   6.413 -0.3894  0.1138 -0.0854
 2156SOL    HW118101   1.519   0.442   6.431 -0.3059  1.5439 -0.5415
 2156SOL    HW218102   1.630   0.522   6.391 -0.4426 -0.3524 -2.0393
 2157SOL     OW18103   2.447   1.577  17.412  0.8330  0.1563 -0.0465
 2157SOL    HW118104   2.471   1.663  17.445  1.5455 -1.6006  4.0208
 2157SOL    HW218105   2.383   1.548  17.477  0.1720  1.8857  0.0592
 2158SOL     OW18106   0.717   3.008   6.619 -0.0113  0.3040 -0.3652
 2158SOL    HW118107   0.708   3.024   6.525  1.1265  1.6392 -0.2305
 2158SOL    HW218108   0.659   2.931   6.619 -1.7788  1.6361  3.3845
 2159SOL     OW18109   3.190   2.993   5.525  0.4773 -0.0887 -0.3222
 2159SOL    HW118110   3.159   2.990   5.615 -1.2563  1.4707 -0.8671
 2159SOL    HW218111   3.221   3.083   5.518 -1.3096  0.5977  0.8726
 2160SOL     OW18112   3.729   3.403   6.975  0.3198  0.5878 -0.0829
 2160SOL    HW118113   3.651   3.452   7.003 -1.9687 -2.0708 -1.7607
 2160SOL    HW218114   3.736   3.334   7.040 -0.1986 -0.1663 -0.8286
 2161SOL     OW18115   4.531   2.136  15.006  0.8410 -0.4949  0.2267
 2161SOL    HW118116   4.581   2.055  15.001  3.7055  1.3653 -1.2120
 2161SOL    HW218117   4.541   2.165  14.916 -1.5447 -1.5982 -0.3985
 2162SOL     OW18118   2.653   3.999   5.447 -0.4684 -0.0833 -0.0612
 2162SOL    HW118119   2.627   4.079   5.493 -1.4762 -0.2938 -0.2831
 2162SOL    HW218120   2.566   3.966   5.427  0.4573 -1.1581 -2.3160
 2163SOL     OW18121   0.885   3.152   7.838  0.4325  0.7062  0.2767
 2163SOL    HW118122   0.835   3.083   7.882 -1.1155  1.0080 -0.9914
 2163SOL    HW218123   0.971   3.111   7.837  0.7403  1.3150  1.1881
 2164SOL     OW18124   1.710   2.689   5.639  1.0207  0.5070  0.1987
 2164SOL    HW118125   1.662   2.707   5.720 -1.4166 -1.9203 -0.7122
 2164SOL    HW218126   1.670   2.758   5.585  0.4455 -0.6952 -0.9000
 2165SOL     OW18127   2.397   2.911   5.289  0.0327 -0.3361 -0.3137
 2165SOL    HW118128   2.376   2.836   5.346 -0.6897  1.0112  1.2027
 2165SOL    HW218129   2.490   2.888   5.293 -0.3568 -2.0290 -1.2611
 2166SOL     OW18130   2.062   3.580   9.748 -0.3225 -0.3740  0.0428
 2166SOL    HW118131   2.121   3.531   9.805 -2.2714 -0.8293  1.6538
 2166SOL    HW218132   1.982   3.579   9.799 -0.2226  1.1991  0.2275
 2167SOL     OW18133   4.518   4.609   4.548 -0.3539 -0.0049  0.0454
 2167SOL    HW118134   4.587   4.623   4.613 -0.6182 -2.3363  0.8218
 2167SOL    HW218135   4.476   4.533   4.588 -2.4350 -0.1529 -2.4318
 2168SOL     OW18136   0.261   1.096   4.492 -0.2317  0.0705 -0.0498
 2168SOL    HW118137   0.190   1.138   4.443 -0.0120 -0.7887 -1.0977
 2168SOL    HW218138   0.301   1.039   4.427  0.3201 -2.9380  2.9257
 2169SOL     OW18139   3.615   2.349   8.407  0.1601 -0.0859 -0.2541
 2169SOL    HW118140   3.610   2.336   8.502 -2.0947  0.1705 -0.3587
 2169SOL    HW218141   3.543   2.411   8.404  0.8166  0.7600  1.0331
 2170SOL     OW18142   3.356   2.965   4.275 -0.6462  0.0926 -0.4515
 2170SOL    HW118143   3.331   2.872   4.273  3.2948 -0.9601 -1.1987
 2170SOL    HW218144   3.418   2.964   4.348 -1.7390 -1.8976  0.4481
 2171SOL     OW18145   0.307   1.468   4.609 -0.0202  0.7972 -0.4068
 2171SOL    HW118146   0.348   1.505   4.532 -2.0559  0.7716 -1.5078
 2171SOL    HW218147   0.369   1.403   4.642  0.6224  1.9126  0.5761
 2172SOL     OW18148   3.567   3.037   4.486  0.2181 -0.1849 -0.0090
 2172SOL    HW118149   3.555   3.132   4.493 -0.3506 -0.3271  0.9764
 2172SOL    HW218150   3.596   3.018   4.575 -0.6907 -2.9908 -0.3149
 2173SOL     OW18151   2.392   3.568   1.261  0.2479  0.0726  0.3277
 2173SOL    HW118152   2.435   3.648   1.232 -0.3102  0.1019 -0.4230
 2173SOL    HW218153   2.386   3.599   1.351 -2.0311  1.4052 -0.2756
 2174SOL     OW18154   3.260   1.723  13.162 -0.0668 -0.1468 -0.0987
 2174SOL    HW118155   3.267   1.632  13.192  0.2560  0.2658  1.0694
 2174SOL    HW218156   3.205   1.754  13.234 -2.1239 -2.2898 -0.7327
 2175SOL     OW18157   0.715   3.107   6.956  0.1005  0.0995 -0.0066
 2175SOL    HW118158   0.725   3.012   6.970 -4.1941 -0.8170 -2.8070
 2175SOL    HW218159   0.802   3.143   6.947  0.0740  0.3203  0.6191
 2176SOL     OW18160   3.782   2.495   4.495  0.3223  0.0938  0.0488
 2176SOL    HW118161   3.871   2.465   4.478  0.3729 -0.0713  0.6185
 2176SOL    HW218162   3.757   2.550   4.421  0.0837  0.6560  0.5474
 2177SOL     OW18163   0.347   0.175  13.846  0.5240 -0.5779  0.0349
 2177SOL    HW118164   0.439   0.190  13.869  0.1294  0.1153  1.1783
 2177SOL    HW218165   0.304   0.170  13.932  2.0652  0.0254  0.8457
 2178SOL     OW18166   1.272   0.046   1.965  0.1716  0.0179 -0.0080
 2178SOL    HW118167   1.359   0.040   2.006  0.0540 -0.7604  0.1286
 2178SOL    HW218168   1.230   0.104   2.028  1.0682 -0.8565  1.3786
 2179SOL     OW18169   3.659   3.391  13.368  0.1320  0.3666  0.3594
 2179SOL    HW118170   3.709   3.470  13.348 -1.4776  0.9390 -1.3851
 2179SOL    HW218171   3.665   3.409  13.462 -0.8508 -0.1030  0.5145
 2180SOL     OW18172   4.368   4.669   8.298  0.1494  0.3006 -0.1206
 2180SOL    HW118173   4.352   4.656   8.391  1.8574 -1.5069 -0.0694
 2180SOL    HW218174   4.462   4.682   8.298  0.2010 -0.0773  0.5345
 2181SOL     OW18175   3.904   1.177   6.635 -0.1676 -0.0551 -0.6491
 2181SOL    HW118176   3.836   1.127   6.590  0.0888  0.6325 -1.8006
 2181SOL    HW218177   3.968   1.203   6.569 -0.2996  1.2771 -0.2600
 2182SOL     OW18178   4.226   3.215  14.242  0.0422  0.5110 -0.4264
 2182SOL    HW118179   4.228   3.150  14.172  2.9722  0.0006  0.1163
 2182SOL    HW218180   4.274   3.286  14.199  0.2572  0.7163  0.1587
 2183SOL     OW18181   3.424   2.567   3.787 -0.2932  0.2498  0.4677
 2183SOL    HW118182   3.452   2.525   3.707 -1.9620 -0.4586  0.2565
 2183SOL    HW218183   3.366   2.502   3.826 -0.2618  0.6022  1.1196
 2184SOL     OW18184   2.704   2.533  16.170 -0.4119 -0.2913  0.1551
 2184SOL    HW118185   2.645   2.501  16.238 -0.2276  0.1052  0.5054
 2184SOL    HW218186   2.640   2.587  16.122  0.2914 -1.0951 -1.7037
 2185SOL     OW18187   2.392   0.785   6.293  0.2549  0.0651  0.1253
 2185SOL    HW118188   2.312   0.791   6.346  1.0914  0.4398  1.3400
 2185SOL    HW218189   2.428   0.873   6.294  0.1972  0.0959 -0.3303
 2186SOL     OW18190   3.759   3.334  13.047  0.2011 -0.2553 -0.2855
 2186SOL    HW118191   3.815   3.291  12.983 -0.2762 -1.6349  0.2254
 2186SOL    HW218192   3.824   3.384  13.098 -0.4162  0.0175  0.2385
 2187SOL     OW18193   4.472   3.156   7.892  0.3082 -0.5629  0.7003
 2187SOL    HW118194   4.474   3.226   7.827 -0.6366 -1.5466 -0.3985
 2187SOL    HW218195   4.566   3.146   7.908  0.6344 -1.1788 -1.5815
 2188SOL     OW18196   3.071   3.437  17.517 -0.5495  0.1348 -0.2088
 2188SOL    HW118197   3.129   3.491  17.570 -0.0171 -1.5014  0.8594
 2188SOL    HW218198   3.128   3.416  17.443  1.4611  2.0482  0.8060
 2189SOL     OW18199   1.654   1.414   3.609  0.6023 -0.5666 -0.2882
 2189SOL    HW118200   1.667   1.321   3.627 -0.6022 -0.8411 -0.8156
 2189SOL    HW218201   1.623   1.416   3.519  1.2537  2.4386 -0.4417
 2190SOL     OW18202   3.809   4.656  10.184  0.0220 -0.2687 -0.2799
 2190SOL    HW118203   3.864   4.728  10.154  0.9974 -1.2637 -0.8989
 2190SOL    HW218204   3.823   4.602  10.106 -0.2552  1.9087 -1.8271
 2191SOL     OW18205   1.348   1.476   9.095 -0.5222 -0.3227 -0.1976
 2191SOL    HW118206   1.343   1.382   9.080 -1.2561 -0.3025 -0.1075
 2191SOL    HW218207   1.355   1.475   9.191  0.2387 -1.4701 -0.2624
 2192SOL     OW18208   3.210   3.673   5.217 -0.2259 -0.7280 -0.0410
 2192SOL    HW118209   3.133   3.706   5.263 -2.0221 -2.4014 -1.8612
 2192SOL    HW218210   3.233   3.738   5.151  1.3309 -0.2116  1.0193
 2193SOL     OW18211   3.507   3.863   7.304 -0.1035 -0.4988 -0.4743
 2193SOL    HW118212   3.552   3.794   7.352  0.9062  0.0371 -0.6436
 2193SOL    HW218213   3.582   3.915   7.275 -0.2742 -0.3622 -0.6698
 2194SOL     OW18214   0.433   1.208  10.952  0.0598  0.0180  0.8205
 2194SOL    HW118215   0.518   1.223  10.994 -0.2749 -2.0856  2.2847
 2194SOL    HW218216   0.460   1.175  10.867  0.9087  0.2778  0.9954
 2195SOL     OW18217   0.093   2.017   1.651  0.0713 -0.1550  0.7650
 2195SOL    HW118218   0.143   2.088   1.690  0.0260  0.5446 -0.4677
 2195SOL    HW218219   0.006   2.054   1.637  1.5291  1.7931 -3.0135
 2196SOL     OW18220   1.638   2.178   5.653 -0.1480  0.0753 -0.3623
 2196SOL    HW118221   1.662   2.269   5.639 -0.0376  0.5674  2.8915
 2196SOL    HW218222   1.717   2.139   5.691 -0.2091 -1.4449 -1.7672
 2197SOL     OW18223   1.130   4.444   2.066 -0.6378 -0.1336  0.6419
 2197SOL    HW118224   1.064   4.375   2.065 -0.9025  0.1423 -0.5628
 2197SOL    HW218225   1.189   4.405   2.131  1.0452 -1.5122 -1.6989
 2198SOL     OW18226   3.820   1.266  17.288 -0.0289 -0.1917  0.0243
 2198SOL    HW118227   3.909   1.289  17.313  0.0018 -0.4835  0.1802
 2198SOL    HW218228   3.780   1.233  17.369  0.7488  0.6804  0.7709
 2199SOL     OW18229   3.600   2.097   2.830  0.2657 -0.2997 -0.0778
 2199SOL    HW118230   3.639   2.121   2.915  1.5995  1.0063 -1.0557
 2199SOL    HW218231   3.551   2.020   2.859  1.6174 -0.1923  2.5572
 2200SOL     OW18232   3.863   0.286   1.017  0.1355  0.8965 -0.2747
 2200SOL    HW118233   3.785   0.333   0.988  0.2531  1.3131  0.0787
 2200SOL    HW218234   3.828   0.262   1.103 -0.1224  0.2447 -0.5629
 2201SOL     OW18235   4.622   0.559   3.343 -0.1799  0.1649 -0.3029
 2201SOL    HW118236   4.669   0.583   3.263  0.1973 -1.8957 -0.7005
 2201SOL    HW218237   4.635   0.465   3.357 -0.0944 -0.0014 -1.4839
 2202SOL     OW18238   3.545   0.707   2.858 -0.1224  0.5769  0.2361
 2202SOL    HW118239   3.567   0.780   2.914  0.9532  0.5244 -0.1261
 2202SOL    HW218240   3.618   0.650   2.882 -0.3225 -0.1694 -0.8990
 2203SOL     OW18241   1.891   0.323   2.215  0.3249 -0.0084 -0.8430
 2203SOL    HW118242   1.879   0.244   2.162 -0.6464 -2.2763  2.7722
 2203SOL    HW218243   1.855   0.300   2.300 -2.0442  1.1057 -1.5370
 2204SOL     OW18244   3.348   0.355   8.447  0.2516  0.5343 -0.5095
 2204SOL    HW118245   3.341   0.292   8.519  1.0802 -1.5297 -2.2567
 2204SOL    HW218246   3.414   0.417   8.478  0.9886 -0.4887 -0.0451
 2205SOL     OW18247   3.785   0.972  16.615  0.0241 -0.4661  0.1265
 2205SOL    HW118248   3.759   1.029  16.543 -0.0774 -0.0666  0.4732
 2205SOL    HW218249   3.706   0.920  16.627 -0.0268  0.0291  1.9821
 2206SOL     OW18250   0.316   2.986  17.561 -0.3517  0.1716  0.0476
 2206SOL    HW118251   0.370   3.056  17.599  0.1425 -0.3546  0.3182
 2206SOL    HW218252   0.294   2.926  17.633  0.0387 -2.3075 -1.8977
 2207SOL     OW18253   3.553   4.203   2.066  0.0372 -0.3605  0.1641
 2207SOL    HW118254   3.560   4.285   2.114  4.1752 -0.6750  0.1149
 2207SOL    HW218255   3.564   4.133   2.131  0.1710  0.2530  0.8035
 2208SOL     OW18256   3.794   4.661   0.597  0.0491 -0.3757 -0.2312
 2208SOL    HW118257   3.885   4.635   0.608  0.1233  0.4697  1.1374
 2208SOL    HW218258   3.776   4.634   0.506  0.4753 -1.0048 -0.1266
 2209SOL     OW18259   0.817   4.566   3.463  0.1394  0.3474 -0.2972
 2209SOL    HW118260   0.742   4.592   3.410 -2.0184  0.6923  2.9571
 2209SOL    HW218261   0.889   4.612   3.420  0.4337  1.7311  1.6615
 2210SOL     OW18262   1.922   3.264  12.796 -0.3074  0.6680 -0.0947
 2210SOL    HW118263   1.864   3.188  12.784 -0.6731  0.7776  0.9717
 2210SOL    HW218264   1.898   3.286  12.886  1.8146 -0.7215  0.8168
 2211SOL     OW18265   0.613   0.476   4.762  0.6841 -0.9086  0.1173
 2211SOL    HW118266   0.554   0.401   4.773  0.7193 -1.1810 -1.4922
 2211SOL    HW218267   0.557   0.546   4.727 -1.2224 -1.7862  1.4067
 2212SOL     OW18268   1.566   4.110   5.175 -0.4693  0.0306 -0.2480
 2212SOL    HW118269   1.654   4.132   5.206 -1.1744  1.9649  0.3930
 2212SOL    HW218270   1.522   4.106   5.260  0.2313 -0.6985  0.0741
 2213SOL     OW18271   4.631   2.346   8.838  0.4803  0.5335 -0.1357
 2213SOL    HW118272   4.667   2.300   8.913 -2.3886  1.5126  1.8704
 2213SOL    HW218273   4.663   2.291   8.767 -0.9113 -0.9226  0.3631
 2214SOL     OW18274   2.028   3.665  16.138  0.0681  0.2661  1.1408
 2214SOL    HW118275   2.059   3.574  16.137  1.0722  0.6383 -0.3710
 2214SOL    HW218276   2.099   3.702  16.087  0.7537 -0.2058  1.7524
 2215SOL     OW18277   0.621   3.101  16.923 -0.0423 -0.3109  0.0156
 2215SOL    HW118278   0.603   3.163  16.994  2.3721  1.3658 -0.8338
 2215SOL    HW218279   0.629   3.165  16.853  0.2532 -1.6860 -1.2064
 2216SOL     OW18280   3.110   3.308   8.104  0.1784  0.4794 -0.0827
 2216SOL    HW118281   3.073   3.220   8.107 -1.5519  1.2581  1.5275
 2216SOL    HW218282   3.166   3.298   8.027  0.1230  2.2271 -0.3404
 2217SOL     OW18283   0.770   2.649  16.547 -0.5125  0.2319 -0.5876
 2217SOL    HW118284   0.795   2.556  16.548 -0.4822  0.2075 -2.8901
 2217SOL    HW218285   0.853   2.682  16.512 -0.1218  0.5669  0.6499
 2218SOL     OW18286   2.621   2.281  12.273  0.0187  0.3054  0.4439
 2218SOL    HW118287   2.689   2.250  12.333 -1.0402  0.7861  1.9039
 2218SOL    HW218288   2.659   2.267  12.186  0.6639 -0.1631  0.7956
 2219SOL     OW18289   1.465   2.734   4.574  0.4673  0.1042 -0.0610
 2219SOL    HW118290   1.504   2.692   4.497  0.4399 -1.2878  0.6916
 2219SOL    HW218291   1.481   2.826   4.551 -1.4286  0.4106 -0.1792
 2220SOL     OW18292   2.223   1.530   9.043  0.0473 -0.3028  0.2327
 2220SOL    HW118293   2.293   1.571   9.093  0.5265 -3.0770  1.8420
 2220SOL    HW218294   2.221   1.584   8.964 -0.1669 -0.0606  0.4015
 2221SOL     OW18295   0.297   4.160   3.892  0.2878  0.1914  0.3733
 2221SOL    HW118296   0.382   4.202   3.900 -0.4231  1.4980  1.1161
 2221SOL    HW218297   0.240   4.234   3.911 -0.2226  0.2687 -1.5340
 2222SOL     OW18298   2.932   4.188   2.711 -0.0615 -0.4359  0.3452
 2222SOL    HW118299   2.862   4.253   2.718  0.2207 -0.1358  0.3997
 2222SOL    HW218300   2.931   4.165   2.804 -0.3368 -0.0540  0.4390
 2223SOL     OW18301   0.758   1.770   6.264 -0.2779 -0.1187  0.1906
 2223SOL    HW118302   0.831   1.799   6.318  0.0332 -0.3036 -0.1325
 2223SOL    HW218303   0.702   1.725   6.328  0.5987  0.6452  1.4975
 2224SOL     OW18304   3.813   0.161   0.377 -0.2592 -0.2765  0.4489
 2224SOL    HW118305   3.907   0.182   0.371 -0.3488  0.1382  0.4771
 2224SOL    HW218306   3.805   0.109   0.298  0.6838  0.9738 -0.4828
 2225SOL     OW18307   1.161   0.846   9.247  0.3688  0.7771  0.2068
 2225SOL    HW118308   1.109   0.769   9.222  1.8685  0.5452 -2.1712
 2225SOL    HW218309   1.235   0.805   9.291 -1.5010  0.7450  3.2994
 2226SOL     OW18310   0.141   1.715   6.148 -0.6954 -0.1547  0.5271
 2226SOL    HW118311   0.059   1.682   6.184 -0.4385 -1.4605 -0.0811
 2226SOL    HW218312   0.201   1.643   6.169  0.2646  0.1822 -1.0342
 2227SOL     OW18313   4.134   0.620   7.556 -0.4129  0.3744  0.3431
 2227SOL    HW118314   4.080   0.658   7.487  1.3147 -0.0160 -1.1951
 2227SOL    HW218315   4.131   0.700   7.609  0.5409  1.3230 -1.0544
 2228SOL     OW18316   2.980   2.310   3.600 -0.0432  0.3658 -0.0912
 2228SOL    HW118317   3.022   2.387   3.563 -0.4463  0.4193 -0.4363
 2228SOL    HW218318   2.910   2.285   3.539 -0.6862  1.8666  0.0308
 2229SOL     OW18319   2.894   0.781  15.315  0.0336 -0.1457  0.1420
 2229SOL    HW118320   2.962   0.781  15.248 -2.0502  0.4556 -1.9873
 2229SOL    HW218321   2.869   0.690  15.329 -1.5251  0.8084  3.4269
 2230SOL     OW18322   4.307   4.308   1.132  0.2090 -0.0585 -0.6883
 2230SOL    HW118323   4.323   4.217   1.105 -0.0426 -0.0721 -0.7889
 2230SOL    HW218324   4.213   4.314   1.118 -0.0512  0.0721  1.1378
 2231SOL     OW18325   0.718   0.938   8.744  0.3328  0.7561  0.1232
 2231SOL    HW118326   0.760   0.981   8.819 -0.1921  1.7923 -0.1819
 2231SOL    HW218327   0.626   0.957   8.764  0.3632 -0.3038  1.2698
 2232SOL     OW18328   2.319   2.697  10.454 -0.2429  0.1390  1.0842
 2232SOL    HW118329   2.229   2.671  10.474 -0.0755 -0.7308  0.6750
 2232SOL    HW218330   2.370   2.628  10.495 -0.4256 -0.1534  0.8187
 2233SOL     OW18331   3.618   0.289   7.888 -0.1368  0.4573 -0.0680
 2233SOL    HW118332   3.598   0.366   7.941 -2.7092 -0.0201 -0.3616
 2233SOL    HW218333   3.623   0.221   7.955  2.6322  0.0361 -0.6827
 2234SOL     OW18334   3.041   4.003   6.038  0.6110 -0.2915  0.1363
 2234SOL    HW118335   3.080   3.925   6.077  1.7135  0.3459  0.3280
 2234SOL    HW218336   2.967   3.974   5.985  1.2368 -1.0712 -0.3035
 2235SOL     OW18337   3.934   4.267  13.213 -0.1054 -0.4887  0.7458
 2235SOL    HW118338   3.936   4.360  13.233 -1.5490 -0.0451 -1.1771
 2235SOL    HW218339   3.985   4.240  13.290  1.0298  1.9835  0.8606
 2236SOL     OW18340   0.576   3.054  15.790  0.4711 -0.4996  0.3448
 2236SOL    HW118341   0.490   3.090  15.813  0.2185 -0.3512 -0.7832
 2236SOL    HW218342   0.603   3.021  15.875  1.7265 -0.8809 -0.1990
 2237SOL     OW18343   1.245   3.351   2.469  0.0435  0.4828  0.1716
 2237SOL    HW118344   1.306   3.399   2.414 -2.4742  1.1104 -2.0808
 2237SOL    HW218345   1.305   3.329   2.541  1.1087 -2.8605 -1.7570
 2238SOL     OW18346   1.292   1.974   7.707  0.3777  0.2682 -0.6046
 2238SOL    HW118347   1.228   1.910   7.739  1.6548 -0.5852  0.2493
 2238SOL    HW218348   1.256   1.985   7.619  0.2932  1.9955 -0.3487
 2239SOL     OW18349   2.060   3.948   1.132 -0.1593 -0.0736  0.3793
 2239SOL    HW118350   2.101   3.967   1.216  1.7756  0.3394 -0.6536
 2239SOL    HW218351   2.082   4.029   1.085  1.0218 -1.0149 -0.6767
 2240SOL     OW18352   2.800   3.446  13.693  0.2299 -0.2662 -0.4385
 2240SOL    HW118353   2.880   3.406  13.728 -0.6451 -2.0656 -0.4761
 2240SOL    HW218354   2.786   3.404  13.608  1.9644  1.0889 -1.3776
 2241SOL     OW18355   1.728   0.689   0.175  0.3899 -0.0553 -0.3883
 2241SOL    HW118356   1.758   0.767   0.222 -0.1588  0.3903 -0.7630
 2241SOL    HW218357   1.809   0.655   0.138  0.6403  1.2377 -1.0319
 2242SOL     OW18358   2.938   0.774  10.705  0.3164  0.4569 -0.1642
 2242SOL    HW118359   3.016   0.830  10.709  1.3869 -1.1961  2.5652
 2242SOL    HW218360   2.978   0.692  10.678 -2.1162 -0.3700 -1.2744
 2243SOL     OW18361   0.851   3.252  16.065 -0.2838 -0.2269  0.7410
 2243SOL    HW118362   0.927   3.301  16.096  0.9769 -0.4898 -1.8848
 2243SOL    HW218363   0.872   3.242  15.972 -0.4273 -2.2945  0.9187
 2244SOL     OW18364   4.625   4.615   7.557  0.6137  0.4212 -0.0852
 2244SOL    HW118365   4.538   4.618   7.519  0.3523  2.5992  0.7060
 2244SOL    HW218366   4.627   4.550   7.627 -0.3526 -0.4592 -0.8754
 2245SOL     OW18367   0.362   0.543  12.629 -0.2356  0.3513  0.2161
 2245SOL    HW118368   0.386   0.505  12.545  0.2011 -0.5157  0.7384
 2245SOL    HW218369   0.292   0.607  12.610 -3.0972 -2.1527  2.3559
 2246SOL     OW18370   3.600   1.271   6.114  0.0216  0.8170  0.3195
 2246SOL    HW118371   3.614   1.339   6.048 -3.7570  0.7896 -0.4834
 2246SOL    HW218372   3.605   1.186   6.070  1.4525  0.0815  1.8851
 2247SOL     OW18373   3.151   1.903   6.510  0.5964  0.0497  0.4807
 2247SOL    HW118374   3.203   1.962   6.455 -0.5337  0.8699  0.3096
 2247SOL    HW218375   3.081   1.888   6.447  2.9529 -3.0935 -1.3872
 2248SOL     OW18376   1.666   0.839   5.000  0.5643  0.1416 -0.4051
 2248SOL    HW118377   1.666   0.933   5.018 -2.5902 -0.0622  0.5492
 2248SOL    HW218378   1.630   0.847   4.912  1.8345 -0.8292 -1.0274
 2249SOL     OW18379   3.244   1.744  15.704 -0.2627  0.2563 -0.4595
 2249SOL    HW118380   3.169   1.728  15.647 -0.1711 -1.5606 -0.0506
 2249SOL    HW218381   3.204   1.821  15.745 -0.9150 -1.6290  2.4191
 2250SOL     OW18382   4.094   3.608  11.876  0.1509  0.2619 -0.0061
 2250SOL    HW118383   4.064   3.578  11.962 -3.0111 -2.2390 -1.9757
 2250SOL    HW218384   4.110   3.701  11.895 -0.5792  0.6455 -1.3079
 2251SOL     OW18385   3.694   4.034   4.975  0.0358 -0.2694  0.4012
 2251SOL    HW118386   3.657   4.029   4.886  0.3443 -2.8007  0.4243
 2251SOL    HW218387   3.686   3.940   4.990 -2.1245 -0.0540  0.6019
 2252SOL     OW18388   0.124   1.649   7.193 -0.3005  0.1290 -0.5890
 2252SOL    HW118389   0.179   1.715   7.236 -0.0435 -0.0758 -0.6006
 2252SOL    HW218390   0.171   1.571   7.221  0.8458  0.2874 -2.0251
 2253SOL     OW18391   3.065   0.962   8.304  0.1202  0.1564 -0.1901
 2253SOL    HW118392   3.081   0.959   8.209  1.0403 -0.9896  0.0104
 2253SOL    HW218393   3.106   1.039   8.342  1.7929 -0.1360 -1.4289
 2254SOL     OW18394   4.267   2.277  15.959 -0.1215  0.0616  0.3098
 2254SOL    HW118395   4.306   2.298  15.874 -0.9418  2.6846  0.5845
 2254SOL    HW218396   4.184   2.232  15.941 -0.2155  0.0077  0.8697
 2255SOL     OW18397   0.068   1.147  17.380 -0.0870 -1.1950  0.1881
 2255SOL    HW118398   0.094   1.055  17.388  2.5457 -0.3887  0.9950
 2255SOL    HW218399   0.097   1.165  17.290 -0.4516  0.3742  0.3933
 2256SOL     OW18400   0.792   3.780   3.731 -0.2230 -0.3098  0.2085
 2256SOL    HW118401   0.808   3.853   3.672 -1.8494 -0.7255 -0.7486
 2256SOL    HW218402   0.716   3.735   3.694 -0.7089  0.1488  0.6597
 2257SOL     OW18403   0.265   4.576   0.291 -0.3425  0.8569 -0.2071
 2257SOL    HW118404   0.326   4.613   0.228  0.0260 -0.8260 -0.8161
 2257SOL    HW218405   0.287   4.483   0.288  1.7583  1.3269  0.3216
 2258SOL     OW18406   1.741   2.932   5.038 -0.2780 -0.3606  0.6749
 2258SOL    HW118407   1.788   3.007   5.072  0.7105 -0.4702 -0.4449
 2258SOL    HW218408   1.814   2.870   5.030 -0.4969 -0.3789 -1.1272
 2259SOL     OW18409   0.212   2.961   7.931 -0.4702 -0.3114 -0.0925
 2259SOL    HW118410   0.133   3.002   7.895  0.6464  2.9132  1.0766
 2259SOL    HW218411   0.189   2.935   8.020  3.4666  2.7631  1.8556
 2260SOL     OW18412   1.587   0.166  10.229  0.1374  0.4517  0.2820
 2260SOL    HW118413   1.675   0.203  10.228 -0.1401  1.1559  2.4367
 2260SOL    HW218414   1.561   0.153  10.138 -0.2859 -0.4672  0.5268
 2261SOL     OW18415   0.840   4.712  16.826 -0.4115 -0.4997 -0.0196
 2261SOL    HW118416   0.852   4.619  16.846 -0.5575 -0.4002  0.5211
 2261SOL    HW218417   0.756   4.713  16.778  0.3676 -0.6826 -1.4056
 2262SOL     OW18418   2.016   0.941  13.275 -0.0920 -0.2275  0.5060
 2262SOL    HW118419   2.043   0.879  13.207  0.4815  0.5622  0.0076
 2262SOL    HW218420   2.099   0.960  13.319  0.6537 -0.6040 -0.7188
 2263SOL     OW18421   1.328   2.252   9.955 -0.6164  0.3495  0.3540
 2263SOL    HW118422   1.364   2.299  10.031 -2.0408  1.0495  0.6062
 2263SOL    HW218423   1.237   2.282   9.948 -0.7215 -0.0431  0.0972
 2264SOL     OW18424   1.354   0.534   3.017 -0.3665  0.1451  0.1806
 2264SOL    HW118425   1.284   0.572   2.963  0.0703  2.5424  1.3119
 2264SOL    HW218426   1.426   0.589   2.986  0.2004 -0.1231  1.0156
 2265SOL     OW18427   1.205   2.223   7.769 -0.0474 -0.1690  0.3553
 2265SOL    HW118428   1.254   2.146   7.739  1.7033  1.0160  0.1329
 2265SOL    HW218429   1.248   2.296   7.724 -1.7961  1.1185  0.7875
 2266SOL     OW18430   3.489   0.654  10.503  0.8845  0.1738 -0.1811
 2266SOL    HW118431   3.405   0.629  10.543  0.0389  2.2257 -0.6705
 2266SOL    HW218432   3.482   0.750  10.509  1.2503  0.2926 -1.6134
 2267SOL     OW18433   0.743   0.412  12.992 -0.0927  0.4910 -0.1458
 2267SOL    HW118434   0.657   0.369  12.985  0.6801 -1.1455  0.3952
 2267SOL    HW218435   0.731   0.479  12.926  1.3063  0.3645 -0.5091
 2268SOL     OW18436   0.792   1.312   7.203 -0.1038  0.4545  0.0727
 2268SOL    HW118437   0.742   1.292   7.282 -2.5542  0.0565 -1.6002
 2268SOL    HW218438   0.745   1.394   7.186 -1.5666 -0.4566 -0.2250
 2269SOL     OW18439   0.834   2.475   5.408  0.2985 -0.2917  0.6838
 2269SOL    HW118440   0.878   2.524   5.339 -0.7840  1.1896  1.0388
 2269SOL    HW218441   0.895   2.484   5.481  0.3032 -1.0228  0.7717
 2270SOL     OW18442   4.609   1.655   6.660  0.5053  0.8317 -0.0697
 2270SOL    HW118443   4.591   1.601   6.736 -0.6334  0.6931 -0.4349
 2270SOL    HW218444   4.669   1.596   6.614 -0.4983  0.5979 -1.0963
 2271SOL     OW18445   2.305   2.237  10.682 -0.1419 -0.0914  0.5735
 2271SOL    HW118446   2.281   2.170  10.746 -1.2735  1.4137  1.7501
 2271SOL    HW218447   2.378   2.286  10.722 -0.0973  0.4574 -0.1791
 2272SOL     OW18448   4.681   3.069   0.116  0.7706 -0.6032 -0.5994
 2272SOL    HW118449   4.588   3.057   0.134  0.7539 -0.3744 -0.5325
 2272SOL    HW218450   4.682   3.033   0.027  0.9957  0.1736 -0.9146
 2273SOL     OW18451   0.107   4.103   9.198 -0.5271 -0.0255 -0.3017
 2273SOL    HW118452   0.084   4.059   9.280  0.4792 -2.2739 -1.2157
 2273SOL    HW218453   0.201   4.122   9.209 -0.4223 -1.3687  1.0368
 2274SOL     OW18454   2.692   1.625   4.716 -0.2044 -0.1304  0.1094
 2274SOL    HW118455   2.735   1.663   4.640  0.9044 -1.5655  0.0201
 2274SOL    HW218456   2.618   1.580   4.674 -0.0653  2.0444 -2.4095
 2275SOL     OW18457   0.916   2.778   7.413 -0.0849  0.5615 -0.3623
 2275SOL    HW118458   0.972   2.850   7.384 -0.6259  1.2196  0.2252
 2275SOL    HW218459   0.954   2.715   7.351  0.3722 -1.9165  2.4214
 2276SOL     OW18460   2.001   1.301   6.217  0.0028 -0.4163  0.0207
 2276SOL    HW118461   2.068   1.356   6.256 -0.3352 -0.2616  0.3886
 2276SOL    HW218462   2.041   1.288   6.131 -3.3290 -1.5022 -1.3649
 2277SOL     OW18463   0.913   2.542   0.454 -0.4538 -0.1360  0.3667
 2277SOL    HW118464   0.839   2.602   0.448 -2.0479 -1.8946  2.4385
 2277SOL    HW218465   0.985   2.604   0.446 -0.3880 -0.1206  1.1316
 2278SOL     OW18466   0.091   0.408   3.624  0.1647  0.0306 -0.5947
 2278SOL    HW118467   0.027   0.443   3.686  0.8515  1.0770 -0.4900
 2278SOL    HW218468   0.173   0.431   3.667 -1.2878  1.5342  1.4219
 2279SOL     OW18469   0.980   0.123   6.858  0.7942 -0.0451 -0.2749
 2279SOL    HW118470   0.978   0.029   6.843 -1.4582 -0.0789  0.1167
 2279SOL    HW218471   0.930   0.133   6.939  2.4860  0.4739  0.7105
 2280SOL     OW18472   4.250   4.125   3.091  0.1253  0.0917 -0.2939
 2280SOL    HW118473   4.184   4.093   3.151  0.5855  0.5125  0.4378
 2280SOL    HW218474   4.218   4.102   3.004  0.9167  0.8364 -0.7899
 2281SOL     OW18475   2.430   2.402   1.698  0.6810  0.2472 -0.1541
 2281SOL    HW118476   2.359   2.465   1.713 -0.8163 -1.6607  0.7081
 2281SOL    HW218477   2.412   2.350   1.776 -0.1371 -0.3086 -0.7078
 2282SOL     OW18478   3.197   1.978  14.162  0.2765  0.1759  0.0773
 2282SOL    HW118479   3.208   1.924  14.084 -1.1189 -1.2541  0.8618
 2282SOL    HW218480   3.279   1.992  14.209  1.0784 -0.4188 -1.1589
 2283SOL     OW18481   0.848   1.097   8.046 -1.0070 -0.7206  0.1238
 2283SOL    HW118482   0.863   1.013   8.004 -1.7731  0.9298 -3.4756
 2283SOL    HW218483   0.858   1.085   8.140  2.3346  0.8170 -0.0236
 2284SOL     OW18484   1.409   2.953  13.612 -0.0190 -0.3539 -0.8806
 2284SOL    HW118485   1.397   2.907  13.695 -0.4262  0.2113 -0.6240
 2284SOL    HW218486   1.431   3.039  13.649 -1.2258  0.1868 -1.4573
 2285SOL     OW18487   3.138   1.830  16.208 -0.8209 -0.5458  0.8198
 2285SOL    HW118488   3.150   1.741  16.241  1.1017 -0.8970 -0.8307
 2285SOL    HW218489   3.043   1.842  16.211 -0.7478  0.1713  0.4218
 2286SOL     OW18490   3.437   3.072   2.165 -0.3897  0.1214  0.2147
 2286SOL    HW118491   3.484   3.044   2.086  0.4287  0.7364  0.4864
 2286SOL    HW218492   3.376   2.998   2.165 -0.4730  0.1813 -1.1998
 2287SOL     OW18493   1.678   2.262   4.923  0.1202  0.7862 -0.2670
 2287SOL    HW118494   1.703   2.292   4.836 -2.1225 -0.7909 -1.4523
 2287SOL    HW218495   1.583   2.254   4.913 -0.2255  0.4870  3.2119
 2288SOL     OW18496   2.072   1.420   2.936 -0.3389 -0.1518  0.5543
 2288SOL    HW118497   2.015   1.430   3.012  0.2285 -0.1375  0.9748
 2288SOL    HW218498   2.112   1.334   2.948  2.1981  0.9426  0.1021
 2289SOL     OW18499   0.775   1.547   3.714  0.3751  0.2360 -0.0386
 2289SOL    HW118500   0.861   1.567   3.750  0.4172  0.9917 -0.5905
 2289SOL    HW218501   0.787   1.527   3.622  0.4114  2.6223 -0.5368
 2290SOL     OW18502   3.663   3.601   9.403 -0.3020 -0.1422  0.0416
 2290SOL    HW118503   3.751   3.569   9.423  0.1442  2.1403  1.7877
 2290SOL    HW218504   3.664   3.665   9.474  0.2026  1.5762 -1.5261
 2291SOL     OW18505   3.707   3.252  11.354  0.0540  0.3388 -0.0088
 2291SOL    HW118506   3.777   3.202  11.314  1.1827  1.7010  0.2713
 2291SOL    HW218507   3.759   3.295  11.422  1.8003 -1.4309 -0.2382
 2292SOL     OW18508   2.774   2.638   8.721 -0.0219  0.0493 -0.4571
 2292SOL    HW118509   2.709   2.598   8.663  0.4396  1.2905 -1.8416
 2292SOL    HW218510   2.828   2.566   8.753 -1.5849 -0.8887  0.0481
 2293SOL     OW18511   0.003   0.058  12.237 -0.6577 -0.0184 -0.8244
 2293SOL    HW118512   4.722   0.015  12.320 -1.0494 -1.5986 -1.7469
 2293SOL    HW218513   0.083   0.108  12.255 -1.5778  1.3595 -0.5764
 2294SOL     OW18514   0.066   1.482   6.672 -0.3609 -0.0396  0.1468
 2294SOL    HW118515   0.120   1.502   6.748 -0.0683  1.1126 -0.3670
 2294SOL    HW218516   0.135   1.490   6.606  0.3892  0.2586  0.9642
 2295SOL     OW18517   1.319   2.143   6.289 -0.2760  0.2680  0.0157
 2295SOL    HW118518   1.341   2.092   6.211  0.3575  0.0311  0.3495
 2295SOL    HW218519   1.374   2.221   6.281  0.4187  0.0373  2.3869
 2296SOL     OW18520   0.473   1.729  15.683  0.6603  0.5110 -0.2271
 2296SOL    HW118521   0.506   1.692  15.601  2.9933 -1.9195  1.7836
 2296SOL    HW218522   0.520   1.813  15.684  1.0590  0.2999 -0.7897
 2297SOL     OW18523   3.961   0.156  14.221 -0.2510  0.0777  0.1032
 2297SOL    HW118524   3.907   0.078  14.212  0.5103 -0.2156 -2.0985
 2297SOL    HW218525   4.047   0.114  14.230  0.1288  1.2113  1.8114
 2298SOL     OW18526   3.815   1.914   7.982  0.3624 -0.7771  0.1059
 2298SOL    HW118527   3.723   1.939   7.973 -0.0269 -2.7576 -1.5852
 2298SOL    HW218528   3.871   1.983   7.946 -0.7546 -0.7611 -1.6226
 2299SOL     OW18529   4.639   0.791   7.540  0.4643  0.2898  0.2607
 2299SOL    HW118530   4.546   0.781   7.561  0.4046 -1.9049 -1.0857
 2299SOL    HW218531   4.682   0.777   7.624  0.2461 -0.1046  0.3063
 2300SOL     OW18532   3.757   3.269   6.662 -0.4512 -0.1538 -0.2998
 2300SOL    HW118533   3.689   3.326   6.628 -0.4860 -0.1547 -0.2327
 2300SOL    HW218534   3.837   3.308   6.628 -1.1541  1.6389  0.0974
 2301SOL     OW18535   1.006   3.782  17.642  0.0147 -0.4829 -0.7352
 2301SOL    HW118536   1.011   3.871  17.608  1.9050 -1.3522 -2.6829
 2301SOL    HW218537   1.086   3.743  17.608 -0.6169 -2.4229 -0.0126
 2302SOL     OW18538   3.524   2.840   7.230  0.8074  0.3192 -0.0662
 2302SOL    HW118539   3.527   2.750   7.264  2.5460  0.7033  0.7960
 2302SOL    HW218540   3.482   2.825   7.146  0.3731 -0.7911  0.3444
 2303SOL     OW18541   3.054   1.292  12.912 -0.2907  0.2260  0.3688
 2303SOL    HW118542   3.072   1.232  12.839 -1.6892  0.1755  0.0668
 2303SOL    HW218543   3.114   1.365  12.896  0.4962 -0.3012  0.9221
 2304SOL     OW18544   0.958   1.059  12.003 -0.0533  0.1032 -0.1494
 2304SOL    HW118545   0.930   1.146  11.975 -1.9426 -0.8761 -1.3319
 2304SOL    HW218546   1.027   1.084  12.065 -1.3705  0.1988  1.2719
 2305SOL     OW18547   0.480   4.351   0.000 -0.2577  0.2559 -0.5660
 2305SOL    HW118548   0.435   4.352   0.084  1.3254 -0.1295  0.2914
 2305SOL    HW218549   0.420   4.384  17.691  1.7335  1.6102 -1.6783
 2306SOL     OW18550   0.738   0.966   4.378 -0.1436 -0.2265 -0.3773
 2306SOL    HW118551   0.653   0.924   4.386  0.4927 -1.3318  0.5363
 2306SOL    HW218552   0.801   0.895   4.361 -1.4648 -1.8780  1.6621
 2307SOL     OW18553   3.517   4.232   7.261  0.1208  0.2720  0.5311
 2307SOL    HW118554   3.533   4.319   7.224 -0.5305  0.3080  0.3253
 2307SOL    HW218555   3.571   4.184   7.198 -0.0977  0.6486  0.0559
 2308SOL     OW18556   2.752   4.239   8.745 -0.3757  0.6899  0.1962
 2308SOL    HW118557   2.732   4.146   8.756 -0.7933  1.0622  2.5748
 2308SOL    HW218558   2.745   4.274   8.834 -3.1383 -1.0848  0.6738
 2309SOL     OW18559   4.405   2.777   8.986  0.1338 -0.0366 -0.5081
 2309SOL    HW118560   4.441   2.697   8.949  0.6388 -0.9408  1.8945
 2309SOL    HW218561   4.423   2.769   9.080 -1.9358  0.3245 -0.0735
 2310SOL     OW18562   0.848   2.475   3.906 -0.2650  0.1949  0.2470
 2310SOL    HW118563   0.826   2.505   3.818  0.8265  1.3655  0.3799
 2310SOL    HW218564   0.833   2.555   3.956 -1.5240 -0.7059  1.3301
 2311SOL     OW18565   1.041   1.719   3.220  0.0824 -0.4228 -0.1774
 2311SOL    HW118566   1.132   1.733   3.192  0.0556 -0.4520 -0.2785
 2311SOL    HW218567   0.996   1.784   3.167 -0.9493  0.1846  1.4707
 2312SOL     OW18568   3.167   1.869   7.391  0.0565  0.1252  0.0036
 2312SOL    HW118569   3.230   1.798   7.378 -1.5969 -1.3666  0.1246
 2312SOL    HW218570   3.140   1.872   7.300 -0.6287  0.3610  0.2165
 2313SOL     OW18571   0.689   4.129  10.916 -0.6732 -0.4761  0.3783
 2313SOL    HW118572   0.619   4.126  10.981 -0.2634 -1.6610  0.7668
 2313SOL    HW218573   0.639   4.160  10.840 -0.8293 -0.4155  0.5054
 2314SOL     OW18574   4.066   4.033  14.805 -0.0881  0.0575  0.3735
 2314SOL    HW118575   3.974   4.018  14.826 -0.0225  0.3808  0.8859
 2314SOL    HW218576   4.084   4.114  14.854  1.2733 -1.4942  2.4301
 2315SOL     OW18577   0.034   2.099   5.089  0.1929  0.0685  0.9247
 2315SOL    HW118578   0.063   2.020   5.043  0.9441  1.0353 -0.2550
 2315SOL    HW218579   4.678   2.095   5.094 -0.0468  0.8830 -2.8858
 2316SOL     OW18580   2.309   2.948   3.660 -0.2529 -0.5059  0.2110
 2316SOL    HW118581   2.262   2.980   3.736 -1.0287 -1.6115  0.2032
 2316SOL    HW218582   2.353   2.873   3.702  2.3406 -0.7068 -2.8541
 2317SOL     OW18583   1.526   4.173   6.711  0.4312 -0.3014  0.4870
 2317SOL    HW118584   1.499   4.081   6.712  0.8505 -0.4101  1.8507
 2317SOL    HW218585   1.596   4.161   6.647 -1.3838 -2.0560 -1.1922
 2318SOL     OW18586   1.900   4.109   6.262 -0.1556  0.3713  0.2622
 2318SOL    HW118587   1.845   4.087   6.337  3.8946 -2.9909  2.2141
 2318SOL    HW218588   1.952   4.183   6.291  0.1516  0.5887 -0.8355
 2319SOL     OW18589   0.903   4.185   3.099  0.1718 -0.0271  0.5254
 2319SOL    HW118590   0.943   4.273   3.105 -0.5814  0.5180 -2.3197
 2319SOL    HW218591   0.976   4.135   3.136  0.0460  0.2359  1.1230
 2320SOL     OW18592   2.515   3.766   4.045  0.4526  0.0959  0.5527
 2320SOL    HW118593   2.463   3.809   3.977 -0.4183  0.4962  1.4658
 2320SOL    HW218594   2.451   3.702   4.076 -0.2576  0.6239  0.2035
 2321SOL     OW18595   4.527   1.462   3.036 -0.0473 -0.4055  0.0322
 2321SOL    HW118596   4.616   1.450   3.004  0.2084  1.2914  0.0954
 2321SOL    HW218597   4.548   1.478   3.128  2.1276 -2.4551 -0.1126
 2322SOL     OW18598   0.938   1.312   4.207  0.3090  0.2822 -0.0529
 2322SOL    HW118599   0.966   1.226   4.175  1.9382  0.9344 -0.4089
 2322SOL    HW218600   0.860   1.295   4.259 -0.8730  0.3348 -1.7884
 2323SOL     OW18601   3.039   2.883   4.538  0.4801  0.0871 -0.2315
 2323SOL    HW118602   2.970   2.896   4.603 -2.2010 -0.7681 -2.9116
 2323SOL    HW218603   3.114   2.882   4.598  0.4787  1.8007 -0.1967
 2324SOL     OW18604   1.470   0.901   6.925  0.5009 -0.2042 -0.1401
 2324SOL    HW118605   1.524   0.962   6.875 -1.5838  2.1640  0.5163
 2324SOL    HW218606   1.402   0.967   6.939  1.8280  1.2091 -0.3970
 2325SOL     OW18607   3.472   1.797   0.333  0.1371 -0.0335 -0.4106
 2325SOL    HW118608   3.480   1.729   0.400 -0.8764 -0.2472 -0.5011
 2325SOL    HW218609   3.538   1.862   0.357 -3.1457  2.3826  1.9862
 2326SOL     OW18610   2.923   4.091   0.208 -0.6590 -0.0031 -0.5953
 2326SOL    HW118611   2.953   4.176   0.238  0.0319 -0.5440  0.2576
 2326SOL    HW218612   2.997   4.076   0.150 -0.6184  0.1582 -0.5850
 2327SOL     OW18613   1.872   0.681  11.662  0.0254 -0.0492  0.2767
 2327SOL    HW118614   1.892   0.603  11.610 -0.1397 -0.2284  0.4807
 2327SOL    HW218615   1.830   0.732  11.593  2.0416  0.1556 -0.7921
 2328SOL     OW18616   4.013   3.592   3.508 -0.1111 -0.4657  0.2278
 2328SOL    HW118617   3.922   3.572   3.532 -0.1442 -0.5569  0.0302
 2328SOL    HW218618   4.061   3.530   3.562 -0.0782 -2.6908 -2.3895
 2329SOL     OW18619   2.736   1.418  13.827 -0.0726 -0.1496 -0.7015
 2329SOL    HW118620   2.715   1.413  13.734  0.1656  1.3892 -0.8320
 2329SOL    HW218621   2.822   1.375  13.825  0.9013  1.8793 -1.7546
 2330SOL     OW18622   0.900   1.747   0.880 -0.2257  0.1559  0.4829
 2330SOL    HW118623   0.913   1.777   0.970  0.3237  2.9899 -0.5244
 2330SOL    HW218624   0.969   1.682   0.865  0.4794  0.7932  0.9719
 2331SOL     OW18625   2.566   3.576   9.804  0.5098  0.3169 -0.0625
 2331SOL    HW118626   2.652   3.536   9.798  0.2904 -0.5395  2.9138
 2331SOL    HW218627   2.514   3.519   9.747 -0.1528  0.8299  0.0303
 2332SOL     OW18628   0.969   0.456  14.517 -0.1093 -0.6609 -0.0514
 2332SOL    HW118629   0.987   0.417  14.432  2.6055  0.9505 -0.2113
 2332SOL    HW218630   1.006   0.379  14.561  0.9011 -0.3064 -0.2859
 2333SOL     OW18631   0.367   4.466   1.365 -0.0755 -0.3945 -0.4388
 2333SOL    HW118632   0.321   4.391   1.404  1.0428 -0.8037  0.1115
 2333SOL    HW218633   0.372   4.525   1.440 -0.8391 -1.4028  0.4140
 2334SOL     OW18634   3.305   3.030  10.466 -0.0398  0.4138 -0.0353
 2334SOL    HW118635   3.232   3.056  10.523  0.8255  1.2278  0.7131
 2334SOL    HW218636   3.318   3.110  10.416 -1.6390  0.1455 -0.8972
 2335SOL     OW18637   2.324   0.353   4.209 -0.3058 -0.4458 -0.3247
 2335SOL    HW118638   2.308   0.402   4.128  0.1580 -1.2614 -0.9017
 2335SOL    HW218639   2.391   0.392   4.265  0.5902 -1.1448 -0.9214
 2336SOL     OW18640   1.973   2.233   5.722  0.2947  0.1716  0.1513
 2336SOL    HW118641   1.954   2.154   5.773  3.2245 -0.0779  0.8687
 2336SOL    HW218642   1.889   2.278   5.722 -1.2038 -2.6555 -0.6729
 2337SOL     OW18643   1.851   0.439   8.716  0.0644  0.5316  0.3363
 2337SOL    HW118644   1.846   0.476   8.628  1.7632  1.4928  0.6514
 2337SOL    HW218645   1.946   0.446   8.728  0.0064  0.8738  0.5757
 2338SOL     OW18646   2.319   4.288   7.402 -0.1176  0.5355  0.1186
 2338SOL    HW118647   2.377   4.334   7.341 -0.6733 -0.3147 -1.0534
 2338SOL    HW218648   2.309   4.205   7.356  0.7863 -0.0080  0.9019
 2339SOL     OW18649   0.595   3.908  13.107  0.3517  0.0432 -0.7152
 2339SOL    HW118650   0.640   3.918  13.191 -0.0870  0.6050 -0.5433
 2339SOL    HW218651   0.534   3.981  13.113  3.0726  2.4046 -1.7536
 2340SOL     OW18652   4.156   3.532   9.042  0.0445 -0.7597 -0.0764
 2340SOL    HW118653   4.182   3.601   8.982 -1.2224 -0.0605  0.1812
 2340SOL    HW218654   4.060   3.536   9.038  0.0008  0.7034  2.3728
 2341SOL     OW18655   3.822   0.255  12.566  0.1633  0.2615  0.1018
 2341SOL    HW118656   3.756   0.297  12.621  1.6227  0.6726  1.5429
 2341SOL    HW218657   3.790   0.170  12.535  0.8369 -0.3746  1.1483
 2342SOL     OW18658   4.171   0.098   6.912  0.4741  0.0320  0.6171
 2342SOL    HW118659   4.209   0.013   6.936  1.4714  1.2177  3.2981
 2342SOL    HW218660   4.094   0.107   6.968  0.1913 -3.3396  0.7627
 2343SOL     OW18661   4.380   3.561   3.124 -0.0435  0.2073  0.1721
 2343SOL    HW118662   4.322   3.586   3.195 -0.3076 -1.7912  0.6622
 2343SOL    HW218663   4.415   3.647   3.100  2.2750 -0.1865  2.1017
 2344SOL     OW18664   3.051   1.424  15.346  0.8536 -0.1481  0.2685
 2344SOL    HW118665   3.044   1.340  15.300 -1.5310 -0.0393  0.4080
 2344SOL    HW218666   3.061   1.479  15.269  0.8533 -0.1648  0.2563
 2345SOL     OW18667   0.630   0.596  16.494  0.0491  0.3072  0.1556
 2345SOL    HW118668   0.539   0.624  16.491  0.4780  1.6985 -0.0150
 2345SOL    HW218669   0.638   0.596  16.399 -0.0497 -1.5193  0.1426
 2346SOL     OW18670   4.560   1.295   9.139  0.1110 -0.9216  0.0721
 2346SOL    HW118671   4.640   1.332   9.177  0.3265 -1.4437  0.1314
 2346SOL    HW218672   4.496   1.366   9.140  0.0504 -0.9746 -0.0523
 2347SOL     OW18673   0.122   2.586   8.809 -0.3991 -0.7382  0.6073
 2347SOL    HW118674   0.077   2.540   8.880 -2.0765  0.1750  0.1331
 2347SOL    HW218675   0.209   2.547   8.812 -0.6983 -1.4493 -0.1382
 2348SOL     OW18676   3.818   0.543   5.770  0.2084  0.1381 -0.0378
 2348SOL    HW118677   3.819   0.627   5.816 -3.2098  0.1598  0.0360
 2348SOL    HW218678   3.768   0.490   5.832 -0.1850  2.0592  1.2655
 2349SOL     OW18679   3.981   0.690   8.461  0.4967  0.3242 -0.0005
 2349SOL    HW118680   4.052   0.746   8.428  2.4373 -0.0494  3.6065
 2349SOL    HW218681   3.977   0.617   8.399 -1.4913 -0.9352  1.6334
 2350SOL     OW18682   1.438   0.466  14.407  0.6804 -0.1595 -0.2715
 2350SOL    HW118683   1.474   0.400  14.466  1.2005 -1.7185 -2.3427
 2350SOL    HW218684   1.419   0.529  14.476 -2.6640 -1.2853 -0.1319
 2351SOL     OW18685   4.492   1.911   5.077  0.1269 -0.2365  0.3666
 2351SOL    HW118686   4.493   1.845   5.145 -0.8570 -1.2762 -0.6263
 2351SOL    HW218687   4.551   1.878   5.009  1.0947  0.3872  0.8931
 2352SOL     OW18688   3.836   0.513   2.392 -0.1914  0.0512 -0.1528
 2352SOL    HW118689   3.790   0.543   2.471  2.2202  1.2413  0.8232
 2352SOL    HW218690   3.919   0.477   2.424 -0.4096 -0.2382  0.0835
 2353SOL     OW18691   2.580   3.556   7.440 -0.2525  0.5001  0.1868
 2353SOL    HW118692   2.498   3.595   7.471 -0.4885 -0.4217  0.7425
 2353SOL    HW218693   2.631   3.593   7.513  2.4459  0.5343 -1.7171
 2354SOL     OW18694   1.634   3.026   9.127 -0.0025  0.2196  0.1449
 2354SOL    HW118695   1.595   3.072   9.201  3.6683  2.3473  0.7916
 2354SOL    HW218696   1.558   2.976   9.097 -0.3812 -0.4061  2.1736
 2355SOL     OW18697   4.290   0.483   3.270 -0.2504  0.2800 -0.4072
 2355SOL    HW118698   4.237   0.501   3.347 -0.9588  1.4888 -1.1803
 2355SOL    HW218699   4.227   0.502   3.200 -1.9703  1.5738  1.4965
 2356SOL     OW18700   0.234   2.079   3.563 -0.1673 -0.7537 -0.4099
 2356SOL    HW118701   0.188   2.156   3.527 -1.7439 -0.8382  1.4556
 2356SOL    HW218702   0.165   2.024   3.600 -1.4139 -0.5597 -2.4464
 2357SOL     OW18703   3.661   0.279  13.975  0.3518  0.1848 -0.6425
 2357SOL    HW118704   3.594   0.337  13.938  1.3021  0.8311 -1.3773
 2357SOL    HW218705   3.624   0.191  13.968  3.3837 -1.0840 -0.8674
 2358SOL     OW18706   2.232   0.476   5.953 -0.0698 -0.3495  0.4121
 2358SOL    HW118707   2.162   0.533   5.924 -0.0325 -0.1174  0.7773
 2358SOL    HW218708   2.262   0.462   5.863  1.2836  0.0730  0.7935
 2359SOL     OW18709   1.053   3.880   3.423 -0.2695  0.1336 -0.2908
 2359SOL    HW118710   1.094   3.938   3.359 -1.0925  1.0760  0.0390
 2359SOL    HW218711   1.131   3.836   3.456  0.8573  1.1617 -1.5585
 2360SOL     OW18712   2.358   0.721  12.019 -0.2132 -0.1696 -0.2952
 2360SOL    HW118713   2.331   0.710  12.110 -0.2869  3.0504  0.0482
 2360SOL    HW218714   2.318   0.643  11.980 -1.3377  0.4999 -0.4909
 2361SOL     OW18715   3.176   3.698   0.330 -0.3967 -0.2677  0.0442
 2361SOL    HW118716   3.087   3.668   0.313 -0.7993  1.3739 -0.6854
 2361SOL    HW218717   3.189   3.640   0.405 -2.6050 -0.6714  0.1265
 2362SOL     OW18718   2.160   3.357  11.633 -0.6257 -0.5019 -0.1981
 2362SOL    HW118719   2.122   3.390  11.714  1.9909  0.7758  0.4913
 2362SOL    HW218720   2.181   3.266  11.651 -0.2023 -0.4554 -0.4703
 2363SOL     OW18721   4.608   3.440   2.450  0.2099  0.2990  0.5982
 2363SOL    HW118722   4.659   3.494   2.510  1.2974 -1.5056  1.2743
 2363SOL    HW218723   4.609   3.504   2.379  1.5177  0.5572  0.8516
 2364SOL     OW18724   3.931   1.428   6.370 -0.0587  0.2913  0.0987
 2364SOL    HW118725   3.903   1.491   6.304 -0.5682 -0.8093 -0.7511
 2364SOL    HW218726   3.894   1.347   6.334  1.5939 -0.0218 -0.9029
 2365SOL     OW18727   0.661   0.653  11.901  0.3182 -0.2826  0.1840
 2365SOL    HW118728   0.623   0.650  11.813  0.8507 -1.7303  0.0048
 2365SOL    HW218729   0.738   0.703  11.874  1.0050 -1.7271 -0.5022
 2366SOL     OW18730   1.975   0.847   5.085 -0.1379  0.0302 -0.1360
 2366SOL    HW118731   1.919   0.874   5.158  0.0533 -0.0319  0.0334
 2366SOL    HW218732   1.913   0.810   5.021  0.6387 -0.7228 -0.4564
 2367SOL     OW18733   0.675   0.624   6.904  0.1963 -0.2897  0.5808
 2367SOL    HW118734   0.697   0.688   6.836 -2.9714  0.3780  0.1753
 2367SOL    HW218735   0.765   0.614   6.936 -0.2336 -2.4941  1.1110
 2368SOL     OW18736   1.941   3.791  13.713 -0.1887 -0.0333 -0.3385
 2368SOL    HW118737   1.892   3.786  13.796  0.4395  0.7153  0.0806
 2368SOL    HW218738   2.019   3.841  13.738 -1.0826  1.0795  0.2400
 2369SOL     OW18739   2.448   2.544   7.332 -0.0620 -0.1064  0.0095
 2369SOL    HW118740   2.471   2.561   7.241 -2.3094 -0.8565 -0.6896
 2369SOL    HW218741   2.538   2.532   7.364 -0.6778 -2.0819  0.9977
 2370SOL     OW18742   3.268   2.730   6.682 -0.2628  0.3684  0.3353
 2370SOL    HW118743   3.183   2.719   6.639  1.1140 -0.4691 -2.1975
 2370SOL    HW218744   3.307   2.643   6.671  0.4572  0.7621 -0.2057
 2371SOL     OW18745   0.188   0.154  14.063 -0.1672  0.2003 -0.5979
 2371SOL    HW118746   0.101   0.143  14.024 -0.3805 -3.0700  0.7737
 2371SOL    HW218747   0.177   0.248  14.080 -0.2153 -0.1494  1.3662
 2372SOL     OW18748   0.394   1.958   2.391 -0.1479 -0.0473  0.4635
 2372SOL    HW118749   0.341   1.895   2.440 -0.6952  0.8303  0.9818
 2372SOL    HW218750   0.468   1.900   2.371 -0.6200  0.5483 -3.1479
 2373SOL     OW18751   1.646   1.362   6.314  0.5520 -0.1293 -0.3032
 2373SOL    HW118752   1.706   1.288   6.322 -0.2562 -0.8559 -0.9398
 2373SOL    HW218753   1.658   1.424   6.386 -0.5376 -0.6262  0.3220
 2374SOL     OW18754   4.059   4.231   2.153  0.3926 -0.1158 -0.5820
 2374SOL    HW118755   4.031   4.302   2.095 -0.5053  0.8672  1.0394
 2374SOL    HW218756   3.982   4.207   2.205  1.7677 -4.4849 -0.5606
 2375SOL     OW18757   0.809   3.582   6.716 -0.2777 -0.0518 -0.1554
 2375SOL    HW118758   0.773   3.631   6.789  0.1551 -2.6173  1.8009
 2375SOL    HW218759   0.857   3.508   6.754  1.5546  0.2226 -1.9694
 2376SOL     OW18760   1.114   2.997   9.603  0.0166 -0.3623 -0.1417
 2376SOL    HW118761   1.170   3.070   9.628 -0.3426 -0.0972 -0.1165
 2376SOL    HW218762   1.102   3.021   9.511 -1.4892 -4.3876 -1.0346
 2377SOL     OW18763   1.468   2.183   9.233 -0.4632 -0.3588  0.6030
 2377SOL    HW118764   1.498   2.092   9.232 -1.2701 -0.6139  0.3284
 2377SOL    HW218765   1.404   2.178   9.303 -0.9353  2.7615  0.3850
 2378SOL     OW18766   1.257   2.944   3.143  0.0580  0.2981 -0.1458
 2378SOL    HW118767   1.316   2.910   3.076  0.8735  1.9063 -0.2401
 2378SOL    HW218768   1.312   2.915   3.216 -0.1232  0.9973  0.2638
 2379SOL     OW18769   4.045   3.260   1.692  0.8012  0.3566 -0.4022
 2379SOL    HW118770   3.968   3.236   1.640  0.8713  1.4994 -1.0330
 2379SOL    HW218771   4.116   3.288   1.634  1.9823 -2.0134 -0.0883
 2380SOL     OW18772   2.348   4.237  16.375  0.0864  0.0643  0.2189
 2380SOL    HW118773   2.356   4.160  16.319  0.8074  1.2406 -1.3285
 2380SOL    HW218774   2.331   4.198  16.461  0.0099 -0.0491  0.1516
 2381SOL     OW18775   2.753   0.444   8.275 -0.0641  0.0498 -0.0228
 2381SOL    HW118776   2.751   0.505   8.349  1.2565  0.5895 -0.4412
 2381SOL    HW218777   2.782   0.499   8.202  1.0803 -0.9796 -0.3355
 2382SOL     OW18778   2.724   4.616  14.473  0.1311  0.1088  0.4212
 2382SOL    HW118779   2.734   4.528  14.508 -0.5990  0.9159  2.6523
 2382SOL    HW218780   2.636   4.636  14.506  0.9348 -1.4192  3.5211
 2383SOL     OW18781   3.805   2.469   2.679 -0.9440  0.6346  0.0442
 2383SOL    HW118782   3.711   2.466   2.665 -0.9832 -0.4911  0.5171
 2383SOL    HW218783   3.813   2.394   2.737 -1.0317 -1.0227 -2.0865
 2384SOL     OW18784   2.303   2.992   5.064 -0.2228  0.5893  0.4552
 2384SOL    HW118785   2.299   3.087   5.076 -0.9345  0.5941  0.2251
 2384SOL    HW218786   2.336   2.964   5.149 -1.3307 -0.3996  0.5554
 2385SOL     OW18787   1.440   3.723   2.390 -0.8124  0.1087  0.3335
 2385SOL    HW118788   1.491   3.703   2.469  1.8023 -0.2123 -1.4397
 2385SOL    HW218789   1.447   3.637   2.348 -0.5096  1.3764 -2.1377
 2386SOL     OW18790   4.692   3.535   2.716  0.3192  0.2071  0.0076
 2386SOL    HW118791   0.007   3.540   2.794  1.7770  1.3758 -1.1042
 2386SOL    HW218792   4.627   3.603   2.736  0.8919  0.5798  0.6010
 2387SOL     OW18793   2.281   1.712  13.998  0.0674 -0.1627  0.3973
 2387SOL    HW118794   2.267   1.664  14.080 -0.3457  0.8343  0.9009
 2387SOL    HW218795   2.366   1.677  13.971  0.2091  0.4366  0.0654
 2388SOL     OW18796   4.655   3.529  10.932 -0.9197  0.7129  0.2747
 2388SOL    HW118797   4.560   3.532  10.944 -0.8428 -3.6196  2.0550
 2388SOL    HW218798   4.679   3.478  11.009  1.2717  1.8580  0.3469
 2389SOL     OW18799   3.638   2.809  10.710 -0.7121 -0.2402  0.8154
 2389SOL    HW118800   3.686   2.737  10.670  0.2695  1.2244 -0.6190
 2389SOL    HW218801   3.625   2.776  10.799 -1.0907 -1.1467  0.4271
 2390SOL     OW18802   1.089   4.214   5.353 -0.1479  0.0137 -0.1255
 2390SOL    HW118803   1.081   4.127   5.392 -0.2083  0.6015  1.1701
 2390SOL    HW218804   1.179   4.242   5.366 -0.0910 -0.0825 -0.3008
 2391SOL     OW18805   1.152   0.744   3.673  0.0192 -1.1466  0.0169
 2391SOL    HW118806   1.198   0.826   3.652 -1.6796  0.0497  0.9721
 2391SOL    HW218807   1.063   0.767   3.647  0.8602  0.4958 -1.4145
 2392SOL     OW18808   0.111   3.266  15.690 -0.0679  0.0037  0.0935
 2392SOL    HW118809   0.046   3.243  15.756 -0.6779  0.9575 -0.1770
 2392SOL    HW218810   0.059   3.330  15.643  0.3712 -0.3943 -0.9383
 2393SOL     OW18811   1.533   3.007   4.544  0.0431  0.1747  0.4693
 2393SOL    HW118812   1.458   3.013   4.485 -0.9616 -0.4696  1.6835
 2393SOL    HW218813   1.598   3.044   4.485 -0.6636  1.7893  0.6724
 2394SOL     OW18814   2.676   0.363   7.516  0.1522  0.1943  0.2083
 2394SOL    HW118815   2.716   0.447   7.541  0.5340  0.5447 -1.6212
 2394SOL    HW218816   2.654   0.331   7.604 -0.7986  0.7886  0.1906
 2395SOL     OW18817   2.727   1.734   8.501  0.1127  0.0314 -0.4573
 2395SOL    HW118818   2.649   1.770   8.544  0.0567 -0.1425 -0.4167
 2395SOL    HW218819   2.713   1.645   8.531 -1.2940  0.3218 -0.2540
 2396SOL     OW18820   0.059   1.701   7.913  0.8497  0.8517  0.2539
 2396SOL    HW118821   0.035   1.761   7.843  0.8054 -0.7445 -1.0923
 2396SOL    HW218822   0.083   1.760   7.985  1.7704 -0.9286  1.4216
 2397SOL     OW18823   4.263   3.262   4.818  0.3165  0.3637  0.5284
 2397SOL    HW118824   4.204   3.189   4.839 -0.1514  1.4742  2.9946
 2397SOL    HW218825   4.289   3.232   4.731  1.8804  0.8131  0.8373
 2398SOL     OW18826   1.696   0.170   8.426  0.7138  0.3985  0.0482
 2398SOL    HW118827   1.687   0.258   8.389  0.0299 -0.0790 -0.9124
 2398SOL    HW218828   1.789   0.147   8.417  0.4055 -1.6312  2.0649
 2399SOL     OW18829   2.545   0.422   5.395  0.1867 -0.1987 -0.0971
 2399SOL    HW118830   2.548   0.357   5.465 -0.0964 -2.0009 -1.7551
 2399SOL    HW218831   2.458   0.407   5.359 -0.2028 -0.3941  0.9185
 2400SOL     OW18832   3.675   2.785   3.601  0.1154  0.2293  0.0558
 2400SOL    HW118833   3.636   2.799   3.688  0.0301  0.2805  0.0101
 2400SOL    HW218834   3.745   2.849   3.600 -0.1612  0.5781  1.6538
 2401SOL     OW18835   0.263   0.888   2.507  0.0293  0.2587  0.4619
 2401SOL    HW118836   0.229   0.960   2.560  1.0489 -0.0481  1.5396
 2401SOL    HW218837   0.305   0.951   2.448  0.3405 -0.4255 -0.0369
 2402SOL     OW18838   3.747   1.239   1.921  0.0568 -0.5548 -0.2560
 2402SOL    HW118839   3.840   1.253   1.908 -0.2045 -0.5462 -2.2119
 2402SOL    HW218840   3.749   1.148   1.951 -2.6677 -1.0080 -1.3816
 2403SOL     OW18841   1.118   2.919   5.711  0.2697 -0.5033  0.1591
 2403SOL    HW118842   1.034   2.887   5.680 -0.1612 -0.4102  1.2177
 2403SOL    HW218843   1.088   3.005   5.738 -1.0052 -0.3063 -1.9198
 2404SOL     OW18844   1.596   3.570  13.537  0.2027 -0.1542 -0.0921
 2404SOL    HW118845   1.642   3.558  13.620 -1.1676 -0.6817  0.5823
 2404SOL    HW218846   1.661   3.612  13.480  1.2963 -1.6450  0.0312
 2405SOL     OW18847   3.790   0.354   6.493 -0.2716 -0.4104  0.2911
 2405SOL    HW118848   3.717   0.333   6.550 -0.6575 -0.3839 -0.1986
 2405SOL    HW218849   3.831   0.406   6.562  2.1654 -0.6279 -0.9785
 2406SOL     OW18850   1.555   3.694   7.601 -0.8948  0.1658  0.3505
 2406SOL    HW118851   1.625   3.655   7.549 -1.1700  1.9372 -1.3557
 2406SOL    HW218852   1.482   3.694   7.539  0.8617  0.2656 -1.7218
 2407SOL     OW18853   2.796   2.393   2.999  0.7957 -0.6539 -0.0734
 2407SOL    HW118854   2.769   2.366   2.911 -0.3285 -0.0847  0.0999
 2407SOL    HW218855   2.735   2.465   3.015  0.4589 -1.0433  0.3962
 2408SOL     OW18856   3.962   2.534   5.442 -0.2545  0.0562 -0.1755
 2408SOL    HW118857   4.054   2.529   5.418 -0.5674 -4.1642 -0.4874
 2408SOL    HW218858   3.963   2.539   5.538 -1.6213  2.9616 -0.3266
 2409SOL     OW18859   2.350   2.635   8.993 -0.4962 -0.2111 -0.2708
 2409SOL    HW118860   2.334   2.546   9.026  2.1438 -0.4629  0.3158
 2409SOL    HW218861   2.268   2.675   9.023  0.8422  1.4413  1.1949
 2410SOL     OW18862   3.273   3.326   8.339 -0.3000 -0.0016 -0.4851
 2410SOL    HW118863   3.216   3.325   8.262 -2.1456  0.1223  0.8975
 2410SOL    HW218864   3.208   3.286   8.396  0.7767  0.2691  0.9411
 2411SOL     OW18865   0.996   2.573   2.470  0.3971  0.3141  0.5010
 2411SOL    HW118866   0.961   2.550   2.556 -1.2719  2.6109  0.4394
 2411SOL    HW218867   1.020   2.486   2.441 -0.0836  0.8626 -1.5665
 2412SOL     OW18868   4.245   4.520  17.175  0.0210  0.5205 -0.1340
 2412SOL    HW118869   4.307   4.592  17.189  0.4213 -0.7071  4.3260
 2412SOL    HW218870   4.303   4.474  17.115  0.3056 -0.8416  1.1953
 2413SOL     OW18871   2.792   3.453   5.821  0.1785  0.5846  0.8284
 2413SOL    HW118872   2.797   3.441   5.726 -0.9503 -0.2164  0.8736
 2413SOL    HW218873   2.885   3.465   5.840  0.6765 -0.4845 -0.9725
 2414SOL     OW18874   2.815   3.220  12.713 -0.3579  0.0141 -0.4256
 2414SOL    HW118875   2.738   3.218  12.657 -0.1541 -1.0136 -0.6813
 2414SOL    HW218876   2.849   3.308  12.697 -1.7033  0.5135 -0.4572
 2415SOL     OW18877   0.883   0.735  12.152 -0.1064 -0.3294 -0.1360
 2415SOL    HW118878   0.856   0.764  12.065 -1.1798 -0.9560 -0.0085
 2415SOL    HW218879   0.964   0.785  12.163  1.6499 -2.8026 -1.7269
 2416SOL     OW18880   1.155   1.693   9.043  0.0187 -0.7052 -0.2502
 2416SOL    HW118881   1.069   1.656   9.026  0.3492 -0.9480 -1.4004
 2416SOL    HW218882   1.205   1.612   9.044  2.3126  0.6918  0.3788
 2417SOL     OW18883   1.010   3.903   9.246  0.1865  0.2200  0.5333
 2417SOL    HW118884   0.924   3.917   9.286 -0.3009 -2.2024  0.3315
 2417SOL    HW218885   1.006   3.807   9.249 -1.3283  0.3012  1.0250
 2418SOL     OW18886   2.226   4.082  11.129 -0.3003  0.6718  0.1007
 2418SOL    HW118887   2.183   4.159  11.092 -0.2297 -0.8452 -3.1060
 2418SOL    HW218888   2.255   4.036  11.050 -1.1272  1.3260 -0.5852
 2419SOL     OW18889   3.040   0.729  15.874  0.4281 -0.2139  0.0530
 2419SOL    HW118890   3.096   0.805  15.859  4.2867 -2.7957  1.3508
 2419SOL    HW218891   2.990   0.739  15.793  2.3880  0.7089 -1.0476
 2420SOL     OW18892   0.891   1.716   2.356 -0.5417 -0.2643  0.3245
 2420SOL    HW118893   0.987   1.711   2.359 -0.5296 -0.0481  0.2984
 2420SOL    HW218894   0.858   1.628   2.338  0.8426 -1.4007  3.5078
 2421SOL     OW18895   4.519   3.371  10.719 -0.0081 -0.1640  0.0448
 2421SOL    HW118896   4.556   3.335  10.638 -2.4624 -0.3838 -0.9779
 2421SOL    HW218897   4.589   3.413  10.770 -0.3087 -0.9936  1.1162
 2422SOL     OW18898   3.502   3.210  11.124  0.0195  0.4718 -0.1222
 2422SOL    HW118899   3.593   3.228  11.148 -0.1404  0.7480  0.2760
 2422SOL    HW218900   3.449   3.276  11.168  0.0836  1.0282 -0.9011
 2423SOL     OW18901   3.729   2.620   5.337 -0.2711 -0.6701 -0.4955
 2423SOL    HW118902   3.755   2.712   5.341  2.7138 -1.4901 -0.7157
 2423SOL    HW218903   3.808   2.578   5.370 -1.1139 -0.9003  1.2027
 2424SOL     OW18904   3.230   3.996   3.487  0.6215 -0.0432 -0.1300
 2424SOL    HW118905   3.178   3.977   3.565  1.3110 -1.8210 -0.1139
 2424SOL    HW218906   3.179   3.964   3.413  0.9667 -1.2158  0.1506
 2425SOL     OW18907   4.475   2.116  15.606  0.5905 -0.1023 -0.4898
 2425SOL    HW118908   4.448   2.205  15.629  1.5946 -0.0065  0.3056
 2425SOL    HW218909   4.407   2.075  15.659 -2.3870  0.5633 -3.7810
 2426SOL     OW18910   2.174   4.720   5.701  0.4424  0.0828  0.3613
 2426SOL    HW118911   2.143   0.060   5.658  2.1619 -1.1107 -3.1345
 2426SOL    HW218912   2.239   4.695   5.634 -1.0995 -0.1584 -1.0425
 2427SOL     OW18913   2.516   0.703   5.585 -0.2446  0.0927 -0.2237
 2427SOL    HW118914   2.536   0.785   5.541  2.9886 -0.3587  0.3677
 2427SOL    HW218915   2.569   0.643   5.532  1.5784 -0.6178  2.4135
 2428SOL     OW18916   0.538   2.767   5.033 -0.1803 -0.0775 -0.4167
 2428SOL    HW118917   0.466   2.752   4.972  1.0022  0.3057 -1.9222
 2428SOL    HW218918   0.504   2.717   5.107  0.0535  0.0021 -0.2575
 2429SOL     OW18919   1.688   0.910   5.530  0.3212 -0.1506  0.4914
 2429SOL    HW118920   1.621   0.977   5.516  2.0826  2.0922  2.7153
 2429SOL    HW218921   1.648   0.858   5.600 -1.1376 -0.0936 -0.3070
 2430SOL     OW18922   2.579   3.478   3.633 -0.2498  0.7428 -0.7177
 2430SOL    HW118923   2.617   3.557   3.673  1.9411 -0.7687  0.1834
 2430SOL    HW218924   2.553   3.522   3.553 -0.1642  2.4417  0.1827
 2431SOL     OW18925   2.671   2.493   2.545  0.3630  0.0723 -0.0344
 2431SOL    HW118926   2.643   2.568   2.493  1.2896 -0.9579 -1.9790
 2431SOL    HW218927   2.645   2.531   2.629 -1.7741 -0.8387 -0.2728
 2432SOL     OW18928   0.049   3.744  10.872  0.1367  0.1958 -0.2065
 2432SOL    HW118929   0.013   3.765  10.787 -1.6258  1.7673  0.9301
 2432SOL    HW218930   4.734   3.671  10.901  0.3838  0.0894  0.0012
 2433SOL     OW18931   1.188   2.167  11.762  0.1868 -0.1145 -0.2467
 2433SOL    HW118932   1.118   2.140  11.822  0.2945 -1.6892 -0.8173
 2433SOL    HW218933   1.231   2.246  11.794  0.5134  0.1252 -1.2724
 2434SOL     OW18934   3.140   3.650   6.786  0.2088  0.3294 -0.0036
 2434SOL    HW118935   3.067   3.661   6.847  0.8817 -1.3109  1.0983
 2434SOL    HW218936   3.080   3.655   6.711 -0.9726 -0.7286  0.8672
 2435SOL     OW18937   0.521   1.594   4.887 -0.3483  0.1444 -0.0798
 2435SOL    HW118938   0.577   1.619   4.814  2.3790  0.2922  2.0747
 2435SOL    HW218939   0.534   1.662   4.952 -0.7386 -0.0363  0.1900
 2436SOL     OW18940   4.200   0.593   6.143  0.0694  0.0634 -0.1211
 2436SOL    HW118941   4.256   0.552   6.078  2.6422  4.6863 -0.7942
 2436SOL    HW218942   4.257   0.665   6.171 -1.4980  0.9232  0.8821
 2437SOL     OW18943   1.075   0.165   2.120  0.3955 -0.3546 -0.5037
 2437SOL    HW118944   1.055   0.179   2.027 -2.6377  1.3451  0.4356
 2437SOL    HW218945   1.091   0.249   2.163 -0.6098 -1.3733  1.8732
 2438SOL     OW18946   1.944   1.640   6.229  0.5524  0.4306  0.3616
 2438SOL    HW118947   2.038   1.652   6.214  0.6926 -0.9729  0.1034
 2438SOL    HW218948   1.913   1.577   6.163 -0.9165  0.7573  0.7380
 2439SOL     OW18949   4.716   1.423  16.141  0.6232 -0.0145  0.0762
 2439SOL    HW118950   4.716   1.330  16.122  0.2314  0.1019 -0.4984
 2439SOL    HW218951   4.670   1.453  16.063  0.2091 -2.1644 -0.5010
 2440SOL     OW18952   4.071   4.121  15.769  0.1902  0.1845  0.0864
 2440SOL    HW118953   4.065   4.026  15.767 -1.7390  0.2826  0.4444
 2440SOL    HW218954   4.034   4.148  15.854 -0.6553  0.2344 -0.2983
 2441SOL     OW18955   0.388   4.496   9.425  0.0288  0.3904  0.4513
 2441SOL    HW118956   0.420   4.480   9.336 -0.2420  2.0977  0.0496
 2441SOL    HW218957   0.471   4.508   9.471  0.0415  2.6088 -0.1445
 2442SOL     OW18958   1.465   3.025   1.436 -0.2119  0.2509 -0.2952
 2442SOL    HW118959   1.431   2.937   1.422 -2.6396  0.9896  1.0303
 2442SOL    HW218960   1.403   3.068   1.495  0.5188  2.4382 -1.0876
 2443SOL     OW18961   4.437   3.745  13.384 -0.2867  0.3053 -0.3462
 2443SOL    HW118962   4.498   3.722  13.454 -0.5172  1.2705  0.1616
 2443SOL    HW218963   4.460   3.680  13.318 -0.0844  0.9878 -0.9410
 2444SOL     OW18964   1.526   4.258  12.631 -0.1500  0.1341  0.2146
 2444SOL    HW118965   1.531   4.345  12.670  3.2743  0.6937 -1.4737
 2444SOL    HW218966   1.542   4.195  12.701 -0.1516  1.9157  1.7988
 2445SOL     OW18967   3.774   1.790   8.671  0.0937 -0.9173  0.1011
 2445SOL    HW118968   3.797   1.709   8.716 -0.5476 -0.2785  1.5552
 2445SOL    HW218969   3.701   1.770   8.613  0.7397 -2.4034 -0.1977
 2446SOL     OW18970   1.969   4.068  14.513  0.0570 -0.3172  0.4555
 2446SOL    HW118971   1.927   4.131  14.454 -0.2273  0.4860  1.5157
 2446SOL    HW218972   1.888   4.019  14.528 -0.4645  0.1458 -0.8384
 2447SOL     OW18973   2.915   3.647   6.932 -0.4604 -0.0997  0.0674
 2447SOL    HW118974   2.921   3.706   7.007  1.4968  0.5168 -0.5646
 2447SOL    HW218975   2.849   3.678   6.870  1.9255 -0.5556 -2.7107
 2448SOL     OW18976   0.213   4.697   4.469  0.0175  0.3078 -0.0746
 2448SOL    HW118977   0.226   4.664   4.380 -2.8744 -2.4523  0.5141
 2448SOL    HW218978   0.289   4.663   4.516  0.2456  1.2536  0.2505
 2449SOL     OW18979   0.915   4.255  12.632  0.7979 -0.0947 -0.9838
 2449SOL    HW118980   0.898   4.166  12.601  1.2445 -0.3763 -0.4236
 2449SOL    HW218981   0.880   4.311  12.563 -3.2199 -2.8019 -1.1349
 2450SOL     OW18982   0.811   3.399   3.041  0.0222 -0.0331 -0.0055
 2450SOL    HW118983   0.857   3.356   2.970 -1.3089 -1.6620  0.1105
 2450SOL    HW218984   0.720   3.395   3.010  0.2304  0.8511 -0.7250
 2451SOL     OW18985   4.347   0.217  12.149 -0.2617 -0.4616 -0.3000
 2451SOL    HW118986   4.411   0.287  12.164 -1.6091  0.6569  0.2164
 2451SOL    HW218987   4.371   0.199  12.058 -1.4937 -0.8125 -0.5574
 2452SOL     OW18988   2.309   0.570   3.232 -0.1902 -0.2912 -0.1767
 2452SOL    HW118989   2.227   0.544   3.274 -0.1526 -0.9427 -0.5181
 2452SOL    HW218990   2.345   0.638   3.290 -2.3055  0.0761  0.7363
 2453SOL     OW18991   3.011   3.850   7.582 -0.1042 -0.3036  0.8740
 2453SOL    HW118992   3.037   3.879   7.670  0.0252 -0.2478  0.8179
 2453SOL    HW218993   2.994   3.930   7.532  2.8858 -1.8644 -2.6848
 2454SOL     OW18994   1.801   3.597   8.598 -0.4418 -0.5369 -0.3923
 2454SOL    HW118995   1.895   3.579   8.605 -0.8868 -2.3217  0.9742
 2454SOL    HW218996   1.800   3.692   8.611 -0.0517  0.1421 -5.3139
 2455SOL     OW18997   4.367   0.716  12.534 -0.8126  0.1003  0.2554
 2455SOL    HW118998   4.430   0.680  12.597 -0.7294  1.0429  0.7109
 2455SOL    HW218999   4.344   0.805  12.561 -0.8123 -0.2948  1.5418
 2456SOL     OW19000   4.073   3.362   5.747 -0.3555 -0.8000 -0.3827
 2456SOL    HW119001   4.093   3.402   5.662  1.6006 -0.4059  0.2568
 2456SOL    HW219002   3.979   3.349   5.741 -0.4060  0.1998 -2.1431
 2457SOL     OW19003   3.564   0.888   4.488 -0.2997 -0.1011 -0.3726
 2457SOL    HW119004   3.599   0.895   4.576  0.8238  1.3097 -0.9280
 2457SOL    HW219005   3.515   0.970   4.481  0.9562  0.6075 -1.0574
 2458SOL     OW19006   1.837   4.618  15.187 -0.0101  0.4921  0.2753
 2458SOL    HW119007   1.763   4.631  15.246 -1.1747  2.8069 -1.6878
 2458SOL    HW219008   1.901   4.589  15.252  1.4309  0.4110 -1.1743
 2459SOL     OW19009   3.248   4.016  17.293 -0.2074  0.9296  0.1365
 2459SOL    HW119010   3.322   4.045  17.239 -0.0389  0.4843  0.1329
 2459SOL    HW219011   3.181   4.046  17.232 -1.5011 -1.1368  0.5500
 2460SOL     OW19012   0.226   2.550   3.203 -0.2398 -0.3619 -0.3417
 2460SOL    HW119013   0.134   2.573   3.188 -0.6764 -0.7106  1.8060
 2460SOL    HW219014   0.263   2.596   3.127 -1.4975  1.6505  0.2775
 2461SOL     OW19015   0.185   4.356   7.087  0.5407  0.0667 -0.0959
 2461SOL    HW119016   0.240   4.350   7.009  2.7381  1.0179  1.3529
 2461SOL    HW219017   0.218   4.441   7.117 -1.7097 -0.5496  4.0875
 2462SOL     OW19018   1.134   2.372   7.407 -0.3749  0.2710  0.0847
 2462SOL    HW119019   1.048   2.413   7.409 -0.3869  0.2722 -0.4571
 2462SOL    HW219020   1.165   2.380   7.317 -0.1546  1.1521  0.2407
 2463SOL     OW19021   2.779   3.294   6.541 -0.7674 -0.2918  0.0969
 2463SOL    HW119022   2.821   3.297   6.627 -2.0331 -2.3439  0.7963
 2463SOL    HW219023   2.736   3.379   6.538 -0.6107 -0.2113  0.1566
 2464SOL     OW19024   2.533   3.692   0.977 -0.5817 -0.1502  0.1480
 2464SOL    HW119025   2.616   3.661   1.014  0.3626 -0.6449 -2.4006
 2464SOL    HW219026   2.551   3.670   0.886 -1.8953 -0.8389  0.0561
 2465SOL     OW19027   4.455   4.034   8.756 -0.5034 -0.1284 -0.4440
 2465SOL    HW119028   4.367   4.005   8.730 -1.9590  3.4346  0.5808
 2465SOL    HW219029   4.516   4.030   8.683 -0.4615  1.2402 -0.4813
 2466SOL     OW19030   4.583   1.769  11.272 -0.0661  0.0612  0.3383
 2466SOL    HW119031   4.640   1.838  11.237 -0.1586 -0.6871 -1.2985
 2466SOL    HW219032   4.645   1.711  11.316  1.7543  1.2996 -0.5806
 2467SOL     OW19033   3.395   0.138   8.966  0.0575 -0.6782  0.0088
 2467SOL    HW119034   3.430   0.177   9.045 -2.7420  0.5925  0.6334
 2467SOL    HW219035   3.443   0.056   8.956 -1.3978 -1.3916 -1.3575
 2468SOL     OW19036   3.606   1.478   5.912  0.1204 -0.4928  0.4333
 2468SOL    HW119037   3.577   1.438   5.830  0.4993  0.1277  0.0023
 2468SOL    HW219038   3.667   1.544   5.879  2.6515 -1.4023  3.3032
 2469SOL     OW19039   4.446   3.069   3.423  0.1750 -0.4137 -0.1504
 2469SOL    HW119040   4.369   3.065   3.367 -1.0246  1.1143  1.3537
 2469SOL    HW219041   4.512   3.092   3.358  0.0535  0.3991  0.0112
 2470SOL     OW19042   1.764   4.712   3.618 -0.3908 -0.9603 -0.7827
 2470SOL    HW119043   1.833   4.658   3.656  0.0188 -0.9907 -1.5650
 2470SOL    HW219044   1.765   4.683   3.526  0.1211 -0.9044 -0.7916
 2471SOL     OW19045   2.760   0.604   2.533 -0.2396  0.0458  0.2056
 2471SOL    HW119046   2.782   0.581   2.443  1.5121 -1.2930  0.9886
 2471SOL    HW219047   2.738   0.515   2.560  1.3106  0.1777  1.8989
 2472SOL     OW19048   4.232   2.366  17.695  0.1822 -0.2707  0.7261
 2472SOL    HW119049   4.254   2.395   0.026  1.3645 -0.1106  0.3945
 2472SOL    HW219050   4.181   2.440  17.662 -1.4772 -2.4107 -1.5353
 2473SOL     OW19051   0.811   1.831   4.791  0.2530 -0.1146  0.0725
 2473SOL    HW119052   0.820   1.915   4.745  0.9115 -1.0131 -1.4283
 2473SOL    HW219053   0.850   1.861   4.873  1.3754 -1.9831  0.2300
 2474SOL     OW19054   0.252   3.431  15.096  0.8703 -0.2250  0.1050
 2474SOL    HW119055   0.200   3.353  15.115 -0.7545  0.6833 -0.5540
 2474SOL    HW219056   0.195   3.493  15.142 -1.0329  1.0517 -3.9459
 2475SOL     OW19057   1.605   3.130   3.826  0.2166 -0.3872  0.2656
 2475SOL    HW119058   1.616   3.121   3.731  1.6705 -0.3469  0.4302
 2475SOL    HW219059   1.510   3.129   3.840 -0.0580  1.5632 -1.4418
 2476SOL     OW19060   2.044   2.619  15.900  0.5201 -0.3933 -0.9953
 2476SOL    HW119061   1.979   2.550  15.891  1.2647 -1.3648  1.0925
 2476SOL    HW219062   1.999   2.690  15.855 -2.0625 -1.2230  0.3009
 2477SOL     OW19063   2.123   1.134   5.734 -0.4386 -0.1842 -0.0678
 2477SOL    HW119064   2.064   1.059   5.731  0.8204 -1.2209  1.6363
 2477SOL    HW219065   2.105   1.177   5.650 -1.9066 -0.3251  0.1658
 2478SOL     OW19066   1.435   2.225   8.705 -0.4973 -0.0713 -0.1898
 2478SOL    HW119067   1.430   2.130   8.697 -1.8311  0.0731 -1.0357
 2478SOL    HW219068   1.478   2.236   8.790  1.8683  0.6541 -1.4647
 2479SOL     OW19069   1.914   4.425  12.747  0.4951 -0.0613 -0.5756
 2479SOL    HW119070   1.942   4.405  12.837  0.4901  0.1333 -0.5319
 2479SOL    HW219071   1.904   4.336  12.713 -1.7644 -0.1086  0.2070
 2480SOL     OW19072   4.184   3.593   1.833  0.0923 -0.3514  0.2093
 2480SOL    HW119073   4.123   3.663   1.809  0.0152 -0.4821  0.0285
 2480SOL    HW219074   4.255   3.652   1.859 -0.9304  0.5318  1.0098
 2481SOL     OW19075   0.109   0.636  12.665 -0.4090 -0.1341 -0.4856
 2481SOL    HW119076   0.087   0.590  12.745 -1.3445  2.0926  0.5225
 2481SOL    HW219077   0.102   0.729  12.684  0.1174  0.3902 -2.7646
 2482SOL     OW19078   3.724   2.135  11.458 -0.0130  0.1853  0.1120
 2482SOL    HW119079   3.765   2.049  11.453  0.2973  0.3315  0.1397
 2482SOL    HW219080   3.685   2.124  11.545 -2.8260  0.1282 -1.1276
 2483SOL     OW19081   2.238   2.242  11.759 -0.0554 -0.3644 -0.2598
 2483SOL    HW119082   2.165   2.281  11.807  1.0266  1.5297 -0.1950
 2483SOL    HW219083   2.271   2.174  11.819 -0.7121 -2.7791 -2.6159
 2484SOL     OW19084   4.003   4.410   5.289  0.2628  0.0517  0.2977
 2484SOL    HW119085   3.996   4.315   5.283 -0.6463  0.0903  0.6646
 2484SOL    HW219086   3.915   4.448   5.291  1.2419  2.3788 -0.9288
 2485SOL     OW19087   2.656   1.748   6.826 -0.3171 -0.0644 -0.1643
 2485SOL    HW119088   2.688   1.660   6.842  2.0694  1.0117  1.0081
 2485SOL    HW219089   2.567   1.720   6.802 -0.4085 -1.3961  1.7436
 2486SOL     OW19090   0.972   0.162   9.891  0.3665  0.4045 -0.4199
 2486SOL    HW119091   1.024   0.176   9.970  0.6278 -2.3223 -0.1270
 2486SOL    HW219092   0.908   0.099   9.924 -1.4146  1.9149 -0.9575
 2487SOL     OW19093   2.528   1.672  15.406  0.5095  0.0640 -0.1814
 2487SOL    HW119094   2.513   1.593  15.458 -1.5296 -0.1906 -1.1636
 2487SOL    HW219095   2.440   1.694  15.375  1.4293  0.7441 -2.2923
 2488SOL     OW19096   0.238   2.921  16.787  0.1805 -0.4759 -0.0730
 2488SOL    HW119097   0.311   2.894  16.732  0.6423 -0.9947  0.7849
 2488SOL    HW219098   0.261   3.012  16.806  0.4549 -0.5774  0.0896
 2489SOL     OW19099   4.437   2.582   3.386 -0.0109 -0.3733 -0.2946
 2489SOL    HW119100   4.433   2.505   3.443 -1.3509  0.1017  0.2632
 2489SOL    HW219101   4.459   2.643   3.456 -0.9031 -0.2892 -0.0825
 2490SOL     OW19102   0.097   3.507  15.390  0.3745  0.1402 -0.2778
 2490SOL    HW119103   0.118   3.427  15.342 -0.1849  1.4808 -2.7713
 2490SOL    HW219104   0.002   3.498  15.393  0.4244  0.6425  2.7595
 2491SOL     OW19105   0.387   2.309   2.619  0.3210 -0.3312  0.1735
 2491SOL    HW119106   0.333   2.354   2.554 -1.5930 -0.4243  1.7014
 2491SOL    HW219107   0.356   2.346   2.701  0.3392  1.4526 -0.6161
 2492SOL     OW19108   0.350   1.579   5.222  0.4367  0.2540  0.6634
 2492SOL    HW119109   0.403   1.502   5.244 -0.1098 -1.3342 -3.6218
 2492SOL    HW219110   0.321   1.592   5.312 -0.6347  2.7767 -0.0540
 2493SOL     OW19111   4.616   2.538   4.187 -0.0731  0.1247  0.7282
 2493SOL    HW119112   4.661   2.473   4.132 -2.1137 -2.7714  2.4945
 2493SOL    HW219113   4.675   2.547   4.262  1.6054  1.7235 -0.7789
 2494SOL     OW19114   1.123   0.289   5.208 -0.2650 -0.0804 -0.0001
 2494SOL    HW119115   1.114   0.287   5.303 -0.6206 -1.1489 -0.0582
 2494SOL    HW219116   1.218   0.303   5.207 -0.0236 -1.4353  3.1772
 2495SOL     OW19117   0.653   2.146   3.924  0.0340  0.3461  0.2631
 2495SOL    HW119118   0.652   2.062   3.878  0.7934  0.1163  0.6747
 2495SOL    HW219119   0.703   2.201   3.865  0.5774 -1.2054 -0.7149
 2496SOL     OW19120   2.870   1.949   2.349 -0.4244  0.4733 -0.0376
 2496SOL    HW119121   2.897   1.927   2.260  2.1663  1.1479  0.5588
 2496SOL    HW219122   2.781   1.915   2.359  0.0731 -1.1784 -1.3322
 2497SOL     OW19123   2.079   3.515   3.744  0.0388  0.0474  0.4220
 2497SOL    HW119124   1.998   3.469   3.766  0.1226 -0.7456 -0.9652
 2497SOL    HW219125   2.127   3.437   3.717  0.4427  0.2614  0.5313
 2498SOL     OW19126   3.711   1.475   8.252 -0.2070  0.5144 -0.2270
 2498SOL    HW119127   3.632   1.447   8.205  0.1493  0.9868 -1.0998
 2498SOL    HW219128   3.781   1.427   8.208 -0.2583  1.3902 -1.2687
 2499SOL     OW19129   2.124   1.380   8.506 -0.0824  0.5664 -0.6554
 2499SOL    HW119130   2.114   1.428   8.588 -0.7593  0.8977 -0.9322
 2499SOL    HW219131   2.100   1.290   8.525  1.0428  0.2715 -0.6694
 2500SOL     OW19132   0.519   0.337   2.405  0.8399  0.6313  0.0714
 2500SOL    HW119133   0.494   0.326   2.314  0.8066  0.8008  0.0606
 2500SOL    HW219134   0.567   0.420   2.410 -0.6304  1.6040 -2.2289
 2501SOL     OW19135   4.135   3.161  11.454  0.5338  0.3095  0.4619
 2501SOL    HW119136   4.115   3.236  11.398 -0.4794  0.2312  0.7245
 2501SOL    HW219137   4.064   3.106  11.420  1.0609  0.2650 -0.5856
 2502SOL     OW19138   1.767   0.357   4.469  0.4138  0.1183  0.0734
 2502SOL    HW119139   1.785   0.323   4.557  1.0300  0.1213 -0.0522
 2502SOL    HW219140   1.856   0.356   4.435 -0.7553 -0.5665 -2.9286
 2503SOL     OW19141   2.948   3.468   3.786  0.1045 -0.0017 -0.1886
 2503SOL    HW119142   3.034   3.496   3.817  0.1504  1.1703 -1.3771
 2503SOL    HW219143   2.898   3.550   3.795 -1.6240 -0.7857 -2.7875
 2504SOL     OW19144   2.995   3.561   1.192 -0.0587  0.2909 -0.0131
 2504SOL    HW119145   2.976   3.524   1.279 -1.3536  2.5106  0.6360
 2504SOL    HW219146   2.934   3.634   1.194 -0.2351  0.1235  0.6407
 2505SOL     OW19147   0.718   0.504   4.484 -0.6676  0.1662 -0.7278
 2505SOL    HW119148   0.713   0.408   4.481  0.1110  0.0345  2.0738
 2505SOL    HW219149   0.697   0.521   4.576 -0.5588  0.8142 -0.8245
 2506SOL     OW19150   2.281   4.365   4.469  0.2427 -0.3420 -0.3021
 2506SOL    HW119151   2.247   4.280   4.442  1.3185 -0.8803  0.0325
 2506SOL    HW219152   2.216   4.427   4.435  0.0683  0.2467  1.1125
 2507SOL     OW19153   0.760   0.417  13.251  0.3103  0.4769 -0.0156
 2507SOL    HW119154   0.746   0.413  13.156 -0.7808  0.6530  0.1390
 2507SOL    HW219155   0.840   0.365  13.260  0.6319  0.6592 -1.6911
 2508SOL     OW19156   2.362   4.538   0.627  0.9261 -0.1194  0.0711
 2508SOL    HW119157   2.418   4.564   0.554 -0.8058  1.5347 -0.6609
 2508SOL    HW219158   2.352   4.616   0.682 -3.1718  0.1542 -1.0929
 2509SOL     OW19159   1.947   1.844  11.426 -0.7234 -0.4929  0.0125
 2509SOL    HW119160   1.977   1.919  11.477 -1.8604 -0.3137  0.4234
 2509SOL    HW219161   1.966   1.777  11.492 -0.0460 -0.7332 -0.4202
 2510SOL     OW19162   3.794   4.325   1.339  0.2254 -0.0166  0.2484
 2510SOL    HW119163   3.757   4.269   1.271  0.3925 -2.0115  1.8056
 2510SOL    HW219164   3.721   4.316   1.400  0.2114  0.2056  0.2638
 2511SOL     OW19165   2.335   1.077   3.778 -0.2200  0.4876 -0.2551
 2511SOL    HW119166   2.254   1.027   3.782  0.5420 -0.4818  3.2084
 2511SOL    HW219167   2.372   1.084   3.866 -0.0573  2.2254 -0.4585
 2512SOL     OW19168   1.582   2.006  14.049  0.1108 -0.3454 -0.3814
 2512SOL    HW119169   1.616   2.075  14.107 -1.1759  1.2552 -1.5346
 2512SOL    HW219170   1.488   2.021  14.049  0.2416  0.4607  1.9155
 2513SOL     OW19171   0.263   4.609   5.993 -0.4839  0.1389  0.2771
 2513SOL    HW119172   0.221   4.525   6.012 -2.1323  0.6468 -1.1158
 2513SOL    HW219173   0.316   4.579   5.919  0.5481  0.3258  0.9298
 2514SOL     OW19174   1.792   0.853   8.854  0.4975 -0.8792 -0.6230
 2514SOL    HW119175   1.797   0.816   8.942  1.7750  0.2632 -0.2197
 2514SOL    HW219176   1.703   0.820   8.836 -0.4679  2.6616 -2.3159
 2515SOL     OW19177   4.002   3.227   4.605  0.1897  0.0906  0.1475
 2515SOL    HW119178   3.954   3.182   4.676  1.4827  1.4900  1.9142
 2515SOL    HW219179   4.048   3.150   4.572 -2.5950 -1.7394  0.5750
 2516SOL     OW19180   0.322   1.626   8.850  0.9954 -0.5869 -0.3461
 2516SOL    HW119181   0.402   1.587   8.887  0.0108  0.0350  2.4245
 2516SOL    HW219182   0.326   1.599   8.758 -1.5771 -2.2656  0.0360
 2517SOL     OW19183   2.620   2.432   7.736 -0.1389  0.4277  0.2800
 2517SOL    HW119184   2.554   2.456   7.801 -1.6596 -0.8193 -0.8219
 2517SOL    HW219185   2.693   2.404   7.791 -0.1961 -0.6524 -0.1867
 2518SOL     OW19186   0.175   1.364   3.300 -0.2697 -0.6695 -0.5194
 2518SOL    HW119187   0.155   1.288   3.356 -0.4413 -0.6089 -0.4999
 2518SOL    HW219188   0.248   1.330   3.248 -0.0764 -2.8777  1.1711
 2519SOL     OW19189   1.913   2.130   9.270  0.1342  0.6049  0.3041
 2519SOL    HW119190   1.990   2.114   9.324  0.3160 -1.4353 -0.5732
 2519SOL    HW219191   1.854   2.181   9.325  0.9545  2.8067 -0.8544
 2520SOL     OW19192   3.726   2.053   8.780 -0.5271 -0.4026  0.1732
 2520SOL    HW119193   3.738   1.961   8.755  0.7719 -0.1643 -0.0948
 2520SOL    HW219194   3.631   2.062   8.787 -0.5275 -0.7791  0.6276
 2521SOL     OW19195   4.358   0.199  14.470  0.4095 -0.0052 -0.2358
 2521SOL    HW119196   4.391   0.174  14.384 -0.3218  1.2643 -0.8865
 2521SOL    HW219197   4.440   0.212  14.518 -0.8760  0.1472  1.9154
 2522SOL     OW19198   0.995   3.849   7.440  0.2127  0.3165 -0.3789
 2522SOL    HW119199   1.061   3.895   7.389  1.4183  1.1146  1.9146
 2522SOL    HW219200   0.982   3.916   7.507  0.3624 -0.9458  0.9211
 2523SOL     OW19201   0.483   1.911   8.171 -0.4383 -0.1142  0.1665
 2523SOL    HW119202   0.454   1.821   8.155 -0.4502 -0.3851  1.7639
 2523SOL    HW219203   0.415   1.953   8.224  1.4034  1.0959  1.5548
 2524SOL     OW19204   4.044   0.301  15.691  0.1063 -0.3741  0.0172
 2524SOL    HW119205   3.970   0.359  15.674  0.2305  0.0357  0.8772
 2524SOL    HW219206   4.056   0.302  15.786 -0.6323  2.6489  0.0821
 2525SOL     OW19207   0.954   3.494   0.919 -0.0247 -0.1847 -0.3458
 2525SOL    HW119208   0.892   3.517   0.988 -1.0124 -2.5057 -0.4866
 2525SOL    HW219209   0.986   3.584   0.909 -0.3563  0.0364  0.5289
 2526SOL     OW19210   1.715   4.362   4.372 -0.3470 -0.0556  0.2249
 2526SOL    HW119211   1.682   4.281   4.333  0.2187 -0.4425  0.5635
 2526SOL    HW219212   1.794   4.324   4.410  0.7786 -0.1063 -2.1741
 2527SOL     OW19213   4.300   1.109   3.997 -0.9479  0.0423 -0.1246
 2527SOL    HW119214   4.292   1.152   4.082  0.5737 -2.1252  1.1301
 2527SOL    HW219215   4.254   1.167   3.937  0.1354 -1.3990 -2.3281
 2528SOL     OW19216   2.795   0.091  14.660 -0.1125 -0.7319  0.6883
 2528SOL    HW119217   2.759   0.025  14.601 -1.5792  1.4544 -0.8574
 2528SOL    HW219218   2.735   0.166  14.653 -1.4648 -1.8344  0.4431
 2529SOL     OW19219   0.432   2.157   6.544  0.0033 -0.2589 -0.8097
 2529SOL    HW119220   0.507   2.105   6.574  0.9258  1.0012 -0.9269
 2529SOL    HW219221   0.463   2.213   6.473  0.7871  0.1482 -0.1479
 2530SOL     OW19222   0.478   1.317   5.189 -0.5939  0.0456 -0.0940
 2530SOL    HW119223   0.571   1.301   5.173 -0.2711  3.4782 -1.6285
 2530SOL    HW219224   0.437   1.305   5.103 -0.8453 -1.4429  0.2414
 2531SOL     OW19225   2.681   2.592   5.138 -0.1554 -0.0059 -0.2782
 2531SOL    HW119226   2.714   2.681   5.124 -1.5718  0.5876  0.1880
 2531SOL    HW219227   2.763   2.543   5.148  1.2049  2.3089 -0.2072
 2532SOL     OW19228   3.972   1.973  16.139 -0.7715  0.1748 -0.3441
 2532SOL    HW119229   3.878   1.977  16.159 -0.3252  0.9410  1.6607
 2532SOL    HW219230   3.994   1.961  16.232 -0.3072  0.0779 -0.4678
 2533SOL     OW19231   2.091   0.789   6.410 -0.0172  0.6473 -0.1141
 2533SOL    HW119232   2.048   0.828   6.486 -3.0322 -0.0621 -1.4345
 2533SOL    HW219233   2.049   0.704   6.400 -0.6189  1.1897 -2.2938
 2534SOL     OW19234   2.560   0.119   3.088 -0.4556 -0.1464 -0.5829
 2534SOL    HW119235   2.556   0.042   3.030 -2.4760  0.3196 -1.0476
 2534SOL    HW219236   2.632   0.096   3.147  0.4513  1.0830 -1.2025
 2535SOL     OW19237   2.646   3.762   4.422  0.5723  0.5615 -0.4122
 2535SOL    HW119238   2.591   3.718   4.358  0.2992  0.3380 -0.0252
 2535SOL    HW219239   2.676   3.837   4.371  1.4375 -0.2242 -1.0377
 2536SOL     OW19240   0.477   4.422   3.722 -0.1123  0.1585  0.1657
 2536SOL    HW119241   0.482   4.378   3.807  1.1081  0.8599  0.4440
 2536SOL    HW219242   0.385   4.447   3.721  0.3235  1.6032 -2.7688
 2537SOL     OW19243   2.847   1.064  15.358 -0.2235  0.5906 -0.2021
 2537SOL    HW119244   2.901   1.067  15.437 -0.8333 -1.8668  0.3160
 2537SOL    HW219245   2.871   0.973  15.340 -0.5531  0.0810  2.0028
 2538SOL     OW19246   1.152   1.855   2.485 -0.2540 -0.2242 -0.1933
 2538SOL    HW119247   1.171   1.806   2.405 -0.7024 -0.9041  0.1163
 2538SOL    HW219248   1.223   1.919   2.481 -0.6275  0.1834 -0.2872
 2539SOL     OW19249   2.458   1.561   2.281  0.4603  0.0366 -0.5262
 2539SOL    HW119250   2.456   1.465   2.280  2.0324  0.0110 -0.4066
 2539SOL    HW219251   2.550   1.573   2.256  0.5278  0.7532  0.0824
 2540SOL     OW19252   0.841   4.274   6.569  0.2825 -0.2233 -0.6968
 2540SOL    HW119253   0.906   4.331   6.610 -0.3554 -0.3148  0.4328
 2540SOL    HW219254   0.897   4.203   6.540  1.0630  0.5368 -1.0665
 2541SOL     OW19255   2.963   0.658   3.896 -0.5465 -0.5827  0.1837
 2541SOL    HW119256   2.911   0.597   3.845 -0.5093  0.2923 -0.9137
 2541SOL    HW219257   2.951   0.744   3.855 -1.4717  0.0799  1.8643
 2542SOL     OW19258   3.269   0.905   1.888 -0.1251 -0.1284 -0.5127
 2542SOL    HW119259   3.194   0.846   1.885 -0.3419  0.1875 -1.4666
 2542SOL    HW219260   3.294   0.890   1.979  1.3618  0.3594 -0.8313
 2543SOL     OW19261   4.334   3.826   2.958 -0.3910  0.9262 -0.5954
 2543SOL    HW119262   4.370   3.906   2.997 -2.4150  1.5242  0.0551
 2543SOL    HW219263   4.272   3.800   3.026 -1.4336  0.5365 -1.6822
 2544SOL     OW19264   1.374   0.689   3.940  0.9056 -0.1300  0.2195
 2544SOL    HW119265   1.356   0.737   4.020 -1.7104 -0.9690  0.1324
 2544SOL    HW219266   1.294   0.639   3.923  1.8655 -2.0493  1.4404
 2545SOL     OW19267   2.261   0.727  15.029  0.4381  0.0359  0.2327
 2545SOL    HW119268   2.263   0.823  15.029  2.5079 -0.0135 -0.3055
 2545SOL    HW219269   2.276   0.725  15.123 -1.2068  0.7510  0.5202
 2546SOL     OW19270   2.050   4.068   0.553 -0.3456  0.2244 -0.2052
 2546SOL    HW119271   2.036   4.049   0.460  2.8677 -1.1772 -0.4048
 2546SOL    HW219272   2.103   4.146   0.537 -0.3992  0.2829 -0.0930
 2547SOL     OW19273   4.369   1.938   5.534  0.2362 -0.0862  0.1693
 2547SOL    HW119274   4.380   1.843   5.540 -0.4470 -0.1427  0.5844
 2547SOL    HW219275   4.349   1.966   5.623  2.5624 -1.2942  1.0767
 2548SOL     OW19276   1.443   1.885   6.497  0.0698  0.6430 -0.5148
 2548SOL    HW119277   1.393   1.805   6.479 -0.0954  0.8004 -0.7383
 2548SOL    HW219278   1.395   1.945   6.554 -2.6853 -1.5825 -0.5058
 2549SOL     OW19279   3.438   0.492  16.637 -0.1784 -0.2197 -0.0321
 2549SOL    HW119280   3.491   0.456  16.708  1.1762 -0.3276 -1.0938
 2549SOL    HW219281   3.501   0.549  16.591 -1.5650  1.8064  0.5586
 2550SOL     OW19282   3.435   1.453   4.230  0.3980 -0.3796 -0.3265
 2550SOL    HW119283   3.414   1.361   4.213 -1.1589 -0.0273 -0.2572
 2550SOL    HW219284   3.377   1.500   4.171  1.1461 -1.2124 -1.7434
 2551SOL     OW19285   3.626   1.669   5.371 -0.3875  0.3632 -0.1469
 2551SOL    HW119286   3.662   1.586   5.339 -1.7577 -1.1419  2.2061
 2551SOL    HW219287   3.578   1.702   5.296 -1.2557 -1.9632 -0.6273
 2552SOL     OW19288   4.153   4.444   7.203  0.2011  0.3897  0.0451
 2552SOL    HW119289   4.151   4.434   7.298 -0.0124 -2.1216 -0.2202
 2552SOL    HW219290   4.246   4.456   7.182  0.5590 -1.7036  0.3636
 2553SOL     OW19291   1.695   3.571   6.568  0.1394  0.6166  0.1032
 2553SOL    HW119292   1.729   3.539   6.484  0.1445  0.8746  0.0083
 2553SOL    HW219293   1.600   3.580   6.558  0.2641  4.0297  2.0991
 2554SOL     OW19294   3.067   2.999   2.925  0.3274 -0.2072 -0.4090
 2554SOL    HW119295   3.045   3.047   2.846  1.1945 -0.6114 -0.8958
 2554SOL    HW219296   3.019   3.042   2.995  0.5312  1.1647 -1.1308
 2555SOL     OW19297   3.147   4.088   4.135 -0.4803 -0.0078  0.2807
 2555SOL    HW119298   3.084   4.159   4.148  0.0784  0.6027 -0.2853
 2555SOL    HW219299   3.118   4.036   4.210  0.9340 -1.4687 -0.1789
 2556SOL     OW19300   1.607   0.692   4.238 -0.2739  0.1649  0.1322
 2556SOL    HW119301   1.645   0.630   4.176 -0.4643  1.9458 -1.7467
 2556SOL    HW219302   1.514   0.671   4.230  0.3995 -2.1831 -1.7562
 2557SOL     OW19303   2.335   0.604   0.699 -0.1788 -0.8002  0.1291
 2557SOL    HW119304   2.258   0.577   0.649 -0.6147  1.5471 -0.4712
 2557SOL    HW219305   2.403   0.574   0.639 -2.2309  1.1463 -3.1719
 2558SOL     OW19306   0.540   4.562   2.350 -0.4581  0.4234 -0.6769
 2558SOL    HW119307   0.553   4.652   2.381  0.7271 -0.1987  0.6285
 2558SOL    HW219308   0.629   4.546   2.320 -0.4431  1.3439 -1.1390
 2559SOL     OW19309   1.301   3.145   8.261  0.1337  0.3365 -0.4080
 2559SOL    HW119310   1.272   3.169   8.349  0.1601 -4.3730  0.9079
 2559SOL    HW219311   1.373   3.085   8.280  0.5026  1.0589  0.4505
 2560SOL     OW19312   3.089   1.373   9.734  0.2939 -0.3585 -0.8013
 2560SOL    HW119313   3.085   1.409   9.645 -0.9519 -0.2390 -0.6852
 2560SOL    HW219314   3.069   1.446   9.793  1.5352 -0.0337 -0.7809
 2561SOL     OW19315   4.052   4.395   1.208  0.1418 -0.2209 -0.0123
 2561SOL    HW119316   3.984   4.372   1.272 -0.3672 -1.4091 -0.9681
 2561SOL    HW219317   4.075   4.483   1.236  1.0215 -0.7003  0.7442
 2562SOL     OW19318   0.976   4.632   7.285 -0.2873 -0.0087  0.0207
 2562SOL    HW119319   1.007   4.679   7.362 -0.9766 -1.1895  1.0223
 2562SOL    HW219320   0.978   4.699   7.217 -2.9007 -0.2657 -0.2946
 2563SOL     OW19321   0.830   1.533   9.417  0.1640  0.3967 -0.2753
 2563SOL    HW119322   0.912   1.488   9.396  0.0317 -0.0829  0.2229
 2563SOL    HW219323   0.826   1.518   9.512  0.0174 -0.8868 -0.4826
 2564SOL     OW19324   2.310   4.415   9.213 -0.4098 -0.0625  0.4185
 2564SOL    HW119325   2.298   4.361   9.134 -2.6254  2.4107 -0.9259
 2564SOL    HW219326   2.352   4.355   9.275 -0.3001 -0.2708  0.1435
 2565SOL     OW19327   1.460   0.852   9.992  0.3401 -0.5146 -1.0580
 2565SOL    HW119328   1.391   0.897   9.943 -0.0385  0.4878  0.4038
 2565SOL    HW219329   1.427   0.763   9.981 -2.3212  0.0786  1.8890
 2566SOL     OW19330   2.153   0.990  10.791  0.1475 -0.0941 -0.0080
 2566SOL    HW119331   2.090   1.061  10.807  0.2338  0.2474 -1.1134
 2566SOL    HW219332   2.231   1.039  10.818  1.1655 -1.3766 -0.6001
 2567SOL     OW19333   3.404   2.424   2.025 -0.1814  0.0373  0.1511
 2567SOL    HW119334   3.467   2.381   2.083 -0.4421 -1.2203 -0.4964
 2567SOL    HW219335   3.407   2.357   1.957 -1.7336  0.2420 -0.1118
 2568SOL     OW19336   2.828   0.045  16.443  0.8881  0.1067 -0.3961
 2568SOL    HW119337   2.886   0.120  16.459  2.3548 -0.9054 -0.9598
 2568SOL    HW219338   2.773   0.077  16.371  2.0420 -0.6837 -1.6388
 2569SOL     OW19339   1.912   1.500  10.752 -0.2820  0.4423 -0.8941
 2569SOL    HW119340   1.963   1.485  10.672 -0.0757 -1.2627 -0.4516
 2569SOL    HW219341   1.985   1.494  10.813 -0.0769 -0.2531 -1.2051
 2570SOL     OW19342   3.066   4.034   7.150  0.4584  1.0023  0.5184
 2570SOL    HW119343   3.148   4.082   7.154 -1.6436  4.5727  0.3075
 2570SOL    HW219344   3.048   4.012   7.241  0.1438  2.5467  0.8271
 2571SOL     OW19345   3.713   0.451   8.778 -0.0644 -0.3365  0.4977
 2571SOL    HW119346   3.690   0.502   8.855  0.8560 -0.4493  0.8440
 2571SOL    HW219347   3.791   0.504   8.761 -0.5209 -0.3005 -1.5657
 2572SOL     OW19348   0.516   2.627  16.973  0.0656 -0.4012  0.0820
 2572SOL    HW119349   0.525   2.621  17.068 -0.9054  1.8352  0.3133
 2572SOL    HW219350   0.593   2.681  16.958  0.9213 -1.6178  0.0730
 2573SOL     OW19351   3.629   4.064   2.602  0.0286  0.0355  0.0268
 2573SOL    HW119352   3.708   4.050   2.550 -0.5865  2.7261 -1.6368
 2573SOL    HW219353   3.627   4.159   2.612 -1.3914 -0.2783  2.9561
 2574SOL     OW19354   4.716   1.258   4.057 -0.4304 -0.1138 -0.2247
 2574SOL    HW119355   4.673   1.294   4.134  0.4061 -1.8848  1.0808
 2574SOL    HW219356   4.644   1.208   4.018 -1.2585  1.4047 -0.6086
 2575SOL     OW19357   2.414   2.567   6.162  0.5290  0.6875 -0.0018
 2575SOL    HW119358   2.500   2.595   6.193  0.7168 -2.1072  1.9420
 2575SOL    HW219359   2.386   2.523   6.242 -2.3737 -0.2050 -1.5081
 2576SOL     OW19360   2.737   0.842   8.869  0.1855  0.5524  0.2324
 2576SOL    HW119361   2.684   0.828   8.790 -1.3306  2.0550  0.9929
 2576SOL    HW219362   2.668   0.849   8.934 -0.5640  0.6111 -0.5595
 2577SOL     OW19363   2.247   4.390   1.413 -0.0933  0.4961  0.8520
 2577SOL    HW119364   2.329   4.432   1.384  0.5023 -0.8703  0.5673
 2577SOL    HW219365   2.184   4.419   1.347 -0.1631 -2.4431 -0.3582
 2578SOL     OW19366   3.516   1.098   2.184  0.6972 -0.1303 -0.0838
 2578SOL    HW119367   3.560   1.178   2.155 -0.9911  0.9858  0.4376
 2578SOL    HW219368   3.425   1.112   2.158  0.6775 -0.0987  0.0011
 2579SOL     OW19369   0.599   2.487   3.142  0.4361 -0.0330 -0.2278
 2579SOL    HW119370   0.541   2.432   3.090  0.0188 -0.1984  0.4056
 2579SOL    HW219371   0.643   2.535   3.072 -0.0532  3.3484  1.7656
 2580SOL     OW19372   2.480   3.806   0.222  0.2565 -0.3215 -0.0820
 2580SOL    HW119373   2.540   3.876   0.248  1.0832 -1.7362  1.8101
 2580SOL    HW219374   2.431   3.849   0.152  2.5205 -0.5763 -1.8303
 2581SOL     OW19375   2.687   1.076   5.960 -0.1830  0.1614 -0.1172
 2581SOL    HW119376   2.622   1.019   6.001 -0.6613 -0.3273 -1.5503
 2581SOL    HW219377   2.733   1.111   6.036 -0.2590  1.1218 -0.5133
 2582SOL     OW19378   0.752   2.459  14.236 -0.9593 -0.1370  0.7663
 2582SOL    HW119379   0.799   2.414  14.165 -1.3794  1.1779 -0.3448
 2582SOL    HW219380   0.689   2.519  14.196  0.4323  0.2308 -0.8940
 2583SOL     OW19381   0.387   2.272  12.785 -0.1860 -0.4205  0.3581
 2583SOL    HW119382   0.393   2.367  12.778 -2.6150 -0.4078 -1.8017
 2583SOL    HW219383   0.367   2.254  12.693 -1.6235  0.8321  0.4093
 2584SOL     OW19384   3.119   2.724   1.117 -0.2750 -0.5532 -0.2791
 2584SOL    HW119385   3.083   2.734   1.205 -1.3354 -0.8236 -0.6847
 2584SOL    HW219386   3.125   2.817   1.097  2.0313 -1.0252 -1.7843
 2585SOL     OW19387   4.335   2.956   5.203 -0.3075 -0.1917  0.7870
 2585SOL    HW119388   4.377   3.024   5.150 -1.1244 -1.4000 -1.3900
 2585SOL    HW219389   4.376   2.881   5.161 -2.6342 -0.2540 -1.3977
 2586SOL     OW19390   0.431   0.688   4.689 -0.4021 -0.5282  0.8399
 2586SOL    HW119391   0.436   0.740   4.770 -1.0317 -0.5462  0.8860
 2586SOL    HW219392   0.337   0.671   4.680 -0.7491  0.8865  1.8377
 2587SOL     OW19393   2.908   2.116  17.307 -0.5280 -0.0828  0.2845
 2587SOL    HW119394   2.954   2.195  17.278  0.1467 -0.6767 -0.2715
 2587SOL    HW219395   2.819   2.126  17.275 -1.3986 -0.1603  2.6657
 2588SOL     OW19396   4.679   4.502   6.619 -0.1037  0.0091  0.4067
 2588SOL    HW119397   0.023   4.485   6.577 -1.1738  0.4015 -1.9443
 2588SOL    HW219398   4.682   4.456   6.703 -0.4716 -0.7324  0.0186
 2589SOL     OW19399   1.997   0.075   5.323  0.1075  0.5333  0.3408
 2589SOL    HW119400   1.963   0.110   5.405 -1.9931 -1.3848  0.2961
 2589SOL    HW219401   2.035   0.155   5.286  2.3145 -1.4730 -1.8013
 2590SOL     OW19402   1.618   4.468  16.028 -0.0441 -0.5730 -0.5700
 2590SOL    HW119403   1.538   4.430  16.065  0.9214 -0.5292  1.5768
 2590SOL    HW219404   1.610   4.561  16.048 -2.1482 -0.7379 -0.6483
 2591SOL     OW19405   2.307   0.350   6.272  0.4429 -0.0772  0.3019
 2591SOL    HW119406   2.260   0.266   6.270  0.2236 -0.0361  3.9842
 2591SOL    HW219407   2.378   0.319   6.216  0.4367 -0.8436  0.7125
 2592SOL     OW19408   4.400   1.590   2.131 -0.1666 -0.6932  0.2293
 2592SOL    HW119409   4.434   1.501   2.140 -0.9087 -0.7197  2.6574
 2592SOL    HW219410   4.325   1.575   2.073  0.2282 -0.3219 -0.3775
 2593SOL     OW19411   0.458   2.622   9.949  0.2454 -0.2135  0.1847
 2593SOL    HW119412   0.426   2.649   9.863  0.1255  2.6211  1.1074
 2593SOL    HW219413   0.450   2.702  10.001  0.4638 -1.4611  2.1135
 2594SOL     OW19414   1.001   2.647   7.685  0.4899 -0.3308  0.7000
 2594SOL    HW119415   0.949   2.599   7.620 -0.5862 -0.9689  2.0287
 2594SOL    HW219416   1.051   2.700   7.623 -0.2842 -0.6457 -0.2076
 2595SOL     OW19417   0.907   1.200   3.325 -0.1719 -0.2567  0.5342
 2595SOL    HW119418   0.936   1.234   3.410  0.7978 -0.0985  0.1400
 2595SOL    HW219419   0.908   1.284   3.280 -0.9174 -0.0408  0.9172
 2596SOL     OW19420   1.382   2.316  11.234 -0.2723  0.0250  0.4805
 2596SOL    HW119421   1.326   2.298  11.310 -0.4782 -0.1827  0.2786
 2596SOL    HW219422   1.466   2.303  11.277 -0.8415  1.1370  1.9151
 2597SOL     OW19423   2.885   3.347   7.830 -0.1102 -0.6951  0.4029
 2597SOL    HW119424   2.870   3.339   7.924  0.7057 -3.6405  0.2614
 2597SOL    HW219425   2.842   3.432   7.818 -0.1653 -0.8586 -0.5773
 2598SOL     OW19426   0.952   3.754   6.980  0.0508 -1.0895  0.0553
 2598SOL    HW119427   0.912   3.835   7.013  2.1259 -0.8386  1.9313
 2598SOL    HW219428   0.881   3.695   7.005 -0.8131 -0.0010  0.2007
 2599SOL     OW19429   1.188   3.051   2.882  0.3703  0.2756  0.0738
 2599SOL    HW119430   1.199   3.005   2.965  0.8650  1.3341  0.6055
 2599SOL    HW219431   1.137   2.988   2.832  0.7043  1.2781 -1.5303
 2600SOL     OW19432   3.476   4.027   8.265 -0.5773 -0.0057  0.2385
 2600SOL    HW119433   3.485   3.947   8.316 -2.0925 -0.5684 -0.3638
 2600SOL    HW219434   3.494   3.998   8.175 -1.7698 -2.1330  0.6711
 2601SOL     OW19435   1.490   3.340   5.803 -0.2964 -0.4506 -0.2242
 2601SOL    HW119436   1.547   3.346   5.726  0.7216  0.4094  0.5968
 2601SOL    HW219437   1.436   3.419   5.802  2.1743  1.2386  0.6908
 2602SOL     OW19438   4.168   4.455  15.375  0.4230 -0.3688  0.3707
 2602SOL    HW119439   4.213   4.412  15.302  0.5744  1.2538 -0.5102
 2602SOL    HW219440   4.179   4.383  15.437 -1.9442 -1.4352 -0.4641
 2603SOL     OW19441   1.077   3.283   7.118 -0.6306 -0.0625  0.7786
 2603SOL    HW119442   1.054   3.376   7.115 -0.8229 -0.2238 -1.9440
 2603SOL    HW219443   1.086   3.275   7.213  2.0522 -0.0381  0.5218
 2604SOL     OW19444   3.662   0.047   9.936 -0.6212 -0.3546  0.3078
 2604SOL    HW119445   3.685   0.107  10.007  0.7141 -0.6243  0.1033
 2604SOL    HW219446   3.643   4.706   9.985 -2.4617 -0.9554 -1.3796
 2605SOL     OW19447   1.184   2.102   8.869  0.4313 -0.4767 -0.2331
 2605SOL    HW119448   1.255   2.049   8.904 -0.2323 -0.3575  1.2710
 2605SOL    HW219449   1.133   2.108   8.949  0.0745 -0.1057 -0.4898
 2606SOL     OW19450   4.292   1.062   1.851 -0.3438 -0.5595 -0.2201
 2606SOL    HW119451   4.311   1.139   1.796 -1.0385 -0.0115  0.3073
 2606SOL    HW219452   4.367   1.008   1.826 -1.3568 -2.5227  1.0045
 2607SOL     OW19453   2.297   3.388   8.077 -0.6419 -0.5042  0.4889
 2607SOL    HW119454   2.218   3.418   8.031  0.1682 -1.4753 -1.5528
 2607SOL    HW219455   2.316   3.302   8.040 -0.5528  0.3499 -1.4276
 2608SOL     OW19456   1.373   1.233   4.907  0.0530  0.1156 -0.6978
 2608SOL    HW119457   1.358   1.143   4.878  3.4185 -1.2289  1.6382
 2608SOL    HW219458   1.430   1.265   4.837  1.0636 -1.3832 -0.5875
 2609SOL     OW19459   1.184   3.300   2.802 -0.0330  0.3604  0.1012
 2609SOL    HW119460   1.275   3.305   2.772  0.4006  0.2804  1.4061
 2609SOL    HW219461   1.183   3.212   2.840  0.0721  0.6393  0.7439
 2610SOL     OW19462   2.066   1.282   6.604 -0.6251 -0.6224  0.5495
 2610SOL    HW119463   2.138   1.304   6.663 -0.4063  1.3356 -0.4604
 2610SOL    HW219464   1.998   1.264   6.669 -0.8354  0.2164  0.5618
 2611SOL     OW19465   1.888   3.912  13.456 -0.3489  0.1078  0.2847
 2611SOL    HW119466   1.962   3.972  13.458  0.1654 -0.5028 -0.8835
 2611SOL    HW219467   1.907   3.853  13.529  1.0339  1.7518  1.2594
 2612SOL     OW19468   0.765   3.192  15.304  0.1878  0.3794  0.1126
 2612SOL    HW119469   0.760   3.202  15.399 -0.9354 -1.6360  0.2514
 2612SOL    HW219470   0.683   3.236  15.281  1.4157  0.8970 -3.3328
 2613SOL     OW19471   4.496   1.075   8.775 -0.1296  0.5012 -0.1108
 2613SOL    HW119472   4.412   1.043   8.740  0.2849 -1.0981  0.3462
 2613SOL    HW219473   4.515   1.137   8.705 -1.4846 -0.4579 -1.3403
 2614SOL     OW19474   1.266   0.019  10.974 -0.3807  0.9346  0.4722
 2614SOL    HW119475   1.279   4.679  11.025 -0.6150  1.1427  0.8550
 2614SOL    HW219476   1.350   0.027  10.929 -0.9169 -2.7287 -1.1857
 2615SOL     OW19477   1.928   0.500  14.283  0.1836  0.3349  0.0287
 2615SOL    HW119478   1.883   0.428  14.326 -2.1198  2.4684  1.1858
 2615SOL    HW219479   1.866   0.573  14.284  1.8473  1.7886 -3.1352
 2616SOL     OW19480   3.177   3.017   2.493  0.5513  0.1916 -0.0164
 2616SOL    HW119481   3.188   2.975   2.578  0.5129  5.9761  2.8333
 2616SOL    HW219482   3.232   3.093   2.512 -1.0068  1.6088 -1.1327
 2617SOL     OW19483   3.799   0.771  12.436  0.0356 -0.0802  0.3526
 2617SOL    HW119484   3.878   0.739  12.480 -1.2012 -0.9229  1.9249
 2617SOL    HW219485   3.824   0.752  12.345 -0.6838 -2.7051  0.7311
 2618SOL     OW19486   2.963   2.850   4.298 -0.8580 -1.0692 -0.3403
 2618SOL    HW119487   3.042   2.797   4.281 -0.1262 -0.4582  1.1317
 2618SOL    HW219488   2.982   2.870   4.389 -0.4424 -2.9518 -0.0126
 2619SOL     OW19489   2.582   1.646   7.277  0.0468 -0.2058 -0.7182
 2619SOL    HW119490   2.590   1.733   7.237 -0.2259  0.5006  0.7381
 2619SOL    HW219491   2.489   1.626   7.263 -0.8254  2.9384  0.5883
 2620SOL     OW19492   1.381   3.898   6.650  0.0082  0.0554 -0.4302
 2620SOL    HW119493   1.388   3.820   6.596 -0.0917  0.4127 -0.9653
 2620SOL    HW219494   1.312   3.941   6.598 -0.5111  1.6856  1.6202
 2621SOL     OW19495   2.884   2.583  14.939  0.1199 -0.2367  0.5793
 2621SOL    HW119496   2.974   2.613  14.932 -0.3162  0.8283 -0.5706
 2621SOL    HW219497   2.876   2.522  14.866 -0.2894  0.4631  0.0335
 2622SOL     OW19498   3.726   0.671   2.602  0.3621  0.1842 -0.4041
 2622SOL    HW119499   3.777   0.672   2.683  0.3843 -1.2102 -0.4013
 2622SOL    HW219500   3.771   0.748   2.566 -0.8318 -0.0651 -2.4104
 2623SOL     OW19501   4.599   1.482   2.357 -0.7595 -0.8505 -0.0820
 2623SOL    HW119502   4.620   1.527   2.439 -3.2043  0.6261 -0.2659
 2623SOL    HW219503   4.532   1.426   2.395 -0.6176 -0.3305  0.9556
 2624SOL     OW19504   2.676   3.106   1.059 -0.1919  0.0175  0.3819
 2624SOL    HW119505   2.587   3.101   1.024  0.1690 -2.5163 -0.1639
 2624SOL    HW219506   2.685   3.201   1.062 -2.9488  0.2540  1.3039
 2625SOL     OW19507   1.230   2.290   4.109 -0.2604 -0.3327 -0.5240
 2625SOL    HW119508   1.141   2.256   4.100 -0.3265  0.0343 -1.2180
 2625SOL    HW219509   1.204   2.381   4.117 -0.6894 -0.5950  1.1094
 2626SOL     OW19510   4.515   4.737  10.858  0.1148 -0.3185 -0.0577
 2626SOL    HW119511   4.445   4.674  10.839 -1.5494  1.1555  1.1287
 2626SOL    HW219512   4.470   0.082  10.859  0.1568 -0.2832 -1.7005
 2627SOL     OW19513   2.627   1.328   3.445  0.5691 -0.3811 -0.5291
 2627SOL    HW119514   2.553   1.385   3.427  0.0994 -1.0445 -0.6763
 2627SOL    HW219515   2.673   1.333   3.362  1.2903 -0.9066 -0.1601
 2628SOL     OW19516   1.829   0.272   4.719 -0.6248  0.6689  0.2789
 2628SOL    HW119517   1.814   0.207   4.788 -1.7733 -0.9377 -1.5083
 2628SOL    HW219518   1.890   0.324   4.772 -0.5097  1.3079 -0.4752
 2629SOL     OW19519   3.140   2.843  10.313  0.0606 -0.4132 -0.7017
 2629SOL    HW119520   3.142   2.784  10.389  0.5148 -1.0150 -1.1720
 2629SOL    HW219521   3.187   2.921  10.341 -0.3362 -0.5908  0.4460
 2630SOL     OW19522   3.083   0.665   9.411  0.1463 -0.5039  0.1840
 2630SOL    HW119523   3.004   0.710   9.442 -1.2188 -3.9506  1.7027
 2630SOL    HW219524   3.154   0.724   9.437 -0.1023  0.4786 -1.4074
 2631SOL     OW19525   4.423   0.997  16.441 -0.5218 -0.0114  0.1583
 2631SOL    HW119526   4.441   1.010  16.347 -0.6946 -0.1621  0.1033
 2631SOL    HW219527   4.386   1.083  16.462 -0.3177 -0.1847  1.2017
 2632SOL     OW19528   0.463   4.295  11.838  0.0975 -0.4137  0.6660
 2632SOL    HW119529   0.435   4.217  11.790  1.0052  1.3048 -2.6723
 2632SOL    HW219530   0.384   4.312  11.889 -0.4105 -1.0498  0.1038
 2633SOL     OW19531   2.607   3.824   3.699  1.0226 -0.1602 -0.5145
 2633SOL    HW119532   2.651   3.822   3.614  2.6627 -0.7844  0.3462
 2633SOL    HW219533   2.516   3.816   3.673  0.6135 -0.2179  0.9326
 2634SOL     OW19534   3.798   0.534   6.261 -0.2854  0.1531  0.0554
 2634SOL    HW119535   3.861   0.500   6.197 -0.9773 -1.8082  0.3922
 2634SOL    HW219536   3.809   0.459   6.319  0.1446 -1.4429 -2.0829
 2635SOL     OW19537   0.622   3.379   3.624 -0.1555  0.2049  0.6210
 2635SOL    HW119538   0.640   3.303   3.679  0.0385  0.6191  1.1296
 2635SOL    HW219539   0.687   3.370   3.554  0.2235  1.8090  0.7627
 2636SOL     OW19540   2.429   2.358   5.231  0.0704 -0.3786 -0.0120
 2636SOL    HW119541   2.425   2.357   5.327 -1.3510 -0.1060 -0.0641
 2636SOL    HW219542   2.520   2.367   5.203 -1.4079  5.5700 -2.9089
 2637SOL     OW19543   4.000   3.881   4.248  0.1425  0.2043  0.0042
 2637SOL    HW119544   4.041   3.904   4.332 -3.5134 -1.7528  2.3564
 2637SOL    HW219545   3.914   3.873   4.289 -1.2671  0.2270 -3.0166
 2638SOL     OW19546   4.176   0.277  12.931 -0.1987 -0.2283 -0.0962
 2638SOL    HW119547   4.139   0.247  13.014  2.7200 -1.8972  0.6231
 2638SOL    HW219548   4.097   0.306  12.886  1.2116  1.0275 -1.7805
 2639SOL     OW19549   1.490   0.178  16.172 -0.5125  0.7751  0.2764
 2639SOL    HW119550   1.579   0.209  16.185 -0.4364  0.7100 -0.1191
 2639SOL    HW219551   1.491   0.143  16.083 -0.1310 -1.3030  1.1078
 2640SOL     OW19552   2.072   3.206   2.491  0.2165  0.2252  0.3496
 2640SOL    HW119553   2.124   3.250   2.558 -0.8086 -1.7340  2.4285
 2640SOL    HW219554   2.061   3.271   2.422 -1.3388 -0.0413  0.3371
 2641SOL     OW19555   1.749   2.364   4.683  0.7143  0.3122 -0.0945
 2641SOL    HW119556   1.771   2.456   4.667  0.0648  0.2989 -1.0828
 2641SOL    HW219557   1.814   2.332   4.620  0.4593 -1.2429  0.4473
 2642SOL     OW19558   4.517   4.435  10.198 -0.5179  0.3396 -0.0638
 2642SOL    HW119559   4.558   4.484  10.127 -0.1862 -0.0003 -0.1106
 2642SOL    HW219560   4.453   4.376  10.158 -0.1510 -1.1554  1.5352
 2643SOL     OW19561   4.493   0.505  17.320 -0.3716 -0.2026  0.3503
 2643SOL    HW119562   4.447   0.572  17.269  2.5607  0.0734 -1.9450
 2643SOL    HW219563   4.441   0.508  17.400 -1.7592 -0.2949 -0.5446
 2644SOL     OW19564   2.766   4.073   7.783  0.3267  0.1432  0.5861
 2644SOL    HW119565   2.851   4.046   7.818  0.3100 -1.0214 -0.2752
 2644SOL    HW219566   2.744   4.006   7.718  3.1740 -0.5765  0.3813
 2645SOL     OW19567   2.055   1.424   1.212  0.4493 -0.6313 -0.7645
 2645SOL    HW119568   2.065   1.512   1.177  1.8610  0.1179  1.5942
 2645SOL    HW219569   2.089   1.433   1.301 -0.2444 -0.7389 -0.4870
 2646SOL     OW19570   2.402   0.670   5.260 -0.7029 -0.3838 -0.2074
 2646SOL    HW119571   2.343   0.683   5.186 -2.1311  0.0163  0.9947
 2646SOL    HW219572   2.482   0.661   5.210 -0.1101 -0.8825  0.8172
 2647SOL     OW19573   4.122   1.272   3.858  0.5506 -0.6032  0.1270
 2647SOL    HW119574   4.125   1.278   3.762 -0.5407 -2.3371 -0.0051
 2647SOL    HW219575   4.030   1.268   3.884  0.8963 -2.1032  1.1128
 2648SOL     OW19576   3.655   2.044  10.218 -0.0858 -0.2300 -0.5495
 2648SOL    HW119577   3.649   2.004  10.304 -2.0447  0.6419 -0.2656
 2648SOL    HW219578   3.744   2.018  10.195 -0.9830 -3.5116 -0.2638
 2649SOL     OW19579   4.709   4.122  10.149  0.2247 -0.5434 -0.7682
 2649SOL    HW119580   4.622   4.157  10.168  0.9149 -0.1459  1.6403
 2649SOL    HW219581   4.711   4.124  10.053 -2.0964  1.7221 -0.7787
 2650SOL     OW19582   4.597   1.063   8.375 -0.3904  0.0208  0.0290
 2650SOL    HW119583   4.510   1.093   8.347 -1.5848 -0.9976  2.7036
 2650SOL    HW219584   4.611   1.120   8.450 -1.8269  0.6065 -0.1303
 2651SOL     OW19585   4.340   0.153   5.682  0.5024 -0.5210 -0.5146
 2651SOL    HW119586   4.248   0.134   5.697  0.4419  0.7773  0.7336
 2651SOL    HW219587   4.340   0.112   5.595  1.1226 -0.7525 -0.4067
 2652SOL     OW19588   0.659   3.774   9.200  0.4449  0.7485  0.8256
 2652SOL    HW119589   0.574   3.730   9.196 -0.4449  2.5098  0.2451
 2652SOL    HW219590   0.663   3.805   9.110  0.5456 -1.9285 -0.0713
 2653SOL     OW19591   2.035   2.734   8.526 -0.2249  0.0514  0.3776
 2653SOL    HW119592   2.039   2.785   8.445 -0.3435  0.7466  0.8109
 2653SOL    HW219593   1.973   2.666   8.499 -1.5216  1.7659 -0.9517
 2654SOL     OW19594   3.191   1.717   2.701 -0.2996  0.0780  0.3388
 2654SOL    HW119595   3.218   1.661   2.774 -1.6888 -1.1084 -0.0685
 2654SOL    HW219596   3.279   1.729   2.665  0.0265  1.0959  1.4871
 2655SOL     OW19597   3.137   2.955   8.801  0.3540  0.3200 -0.4197
 2655SOL    HW119598   3.096   2.979   8.885  1.0933 -0.6417  0.2137
 2655SOL    HW219599   3.227   2.945   8.834  1.1990  1.7899 -2.2618
 2656SOL     OW19600   3.110   0.648   8.073 -0.0059  0.1888 -0.9124
 2656SOL    HW119601   3.150   0.580   8.019  1.9901 -1.0593  2.1491
 2656SOL    HW219602   3.161   0.729   8.069 -0.8016  0.7364 -0.1754
 2657SOL     OW19603   4.344   1.693   9.663 -0.3484 -0.2769 -0.0952
 2657SOL    HW119604   4.310   1.766   9.714  0.4211  1.6577 -2.3425
 2657SOL    HW219605   4.361   1.742   9.583  0.2485  0.7703  0.6833
 2658SOL     OW19606   0.016   4.474   3.231  0.4109 -0.3001 -0.0610
 2658SOL    HW119607   4.710   4.438   3.308 -2.4973  1.9592 -0.7397
 2658SOL    HW219608   0.081   4.525   3.279  1.5473 -0.5365 -1.3572
 2659SOL     OW19609   2.846   2.820   5.174  0.7819  0.3514  0.1755
 2659SOL    HW119610   2.941   2.834   5.180  0.6856  0.6804  0.9405
 2659SOL    HW219611   2.814   2.910   5.175  1.9664  0.7892 -1.3432
 2660SOL     OW19612   3.683   1.150   2.693 -0.4510  0.2167  0.0426
 2660SOL    HW119613   3.773   1.164   2.663 -0.6030 -0.9207 -0.9940
 2660SOL    HW219614   3.647   1.105   2.616 -0.0498 -0.1424  0.0649
 2661SOL     OW19615   4.577   1.560   5.926 -0.2210 -0.7896  0.0256
 2661SOL    HW119616   4.529   1.641   5.909  0.8694 -0.0219  0.6301
 2661SOL    HW219617   4.511   1.522   5.985  0.4958 -1.5709  0.3394
 2662SOL     OW19618   4.676   3.985  16.900  0.2208 -0.6484 -0.1416
 2662SOL    HW119619   4.681   3.930  16.978 -2.1753 -1.6845 -0.7346
 2662SOL    HW219620   0.005   3.946  16.846 -1.0999 -2.1959 -0.7147
 2663SOL     OW19621   0.775   2.825   4.931 -0.0707  0.2248 -0.7393
 2663SOL    HW119622   0.738   2.832   4.843  0.0087 -1.1036 -0.8882
 2663SOL    HW219623   0.694   2.801   4.975  0.1313  1.8657  0.5331
 2664SOL     OW19624   2.338   4.645  11.928 -0.2936  0.3859  0.7256
 2664SOL    HW119625   2.247   4.619  11.948 -0.7110  1.3589  0.0802
 2664SOL    HW219626   2.330   4.736  11.900  0.5222  0.7332  1.6410
 2665SOL     OW19627   2.092   2.718   8.170  0.0834 -0.0495 -0.0783
 2665SOL    HW119628   2.015   2.668   8.143 -1.0296  1.4808  0.2505
 2665SOL    HW219629   2.096   2.784   8.101 -1.7166 -1.1247 -1.2097
 2666SOL     OW19630   1.222   1.521  14.596  0.1177 -0.5726 -0.4338
 2666SOL    HW119631   1.147   1.471  14.627  0.3757 -1.0265 -0.5350
 2666SOL    HW219632   1.180   1.544  14.513  0.6925  1.1229 -0.2602
 2667SOL     OW19633   4.627   2.038   3.226  0.2184 -0.2463 -0.1757
 2667SOL    HW119634   4.715   2.022   3.261  0.0196  0.6262  0.6982
 2667SOL    HW219635   4.629   2.133   3.221 -1.3525 -0.1770  0.5982
 2668SOL     OW19636   2.325   4.129   6.895  0.0413 -0.8030  0.0085
 2668SOL    HW119637   2.359   4.096   6.978  0.4526 -0.5258 -0.0499
 2668SOL    HW219638   2.402   4.131   6.838 -2.5358 -0.3937 -3.5052
 2669SOL     OW19639   0.319   0.380   4.944 -0.0605 -0.2064 -0.0773
 2669SOL    HW119640   0.339   0.462   4.988 -2.8851  1.4781 -1.9363
 2669SOL    HW219641   0.324   0.320   5.019  0.6615 -1.5737 -1.2178
 2670SOL     OW19642   0.066   2.213  16.717 -0.7542  0.4725 -0.5347
 2670SOL    HW119643   0.066   2.189  16.624 -1.0285 -0.2110 -0.3612
 2670SOL    HW219644   0.158   2.207  16.743 -0.3560  2.1962 -1.5324
 2671SOL     OW19645   1.289   1.986   3.444  0.0694 -0.1583  0.6282
 2671SOL    HW119646   1.308   1.983   3.350 -1.7750  0.3219  0.2402
 2671SOL    HW219647   1.228   2.060   3.444  0.8212  0.4567 -0.9895
 2672SOL     OW19648   3.646   1.702   2.633  0.2020 -0.0778  0.1440
 2672SOL    HW119649   3.576   1.762   2.657  1.2154 -0.0405  3.0064
 2672SOL    HW219650   3.711   1.764   2.598 -0.2424  0.2332 -0.1292
 2673SOL     OW19651   0.435   1.147   2.709  0.1762  0.1252  0.4780
 2673SOL    HW119652   0.369   1.163   2.777 -1.6391 -2.5221 -0.6524
 2673SOL    HW219653   0.383   1.167   2.631  0.6352 -2.4521 -0.4805
 2674SOL     OW19654   0.547   2.605  14.057 -0.3799  0.3135  0.8617
 2674SOL    HW119655   0.625   2.646  14.019 -0.8344  0.2921 -0.1050
 2674SOL    HW219656   0.504   2.584  13.974  1.5757  0.8260 -0.2987
 2675SOL     OW19657   3.949   1.106  15.999  0.2371 -0.4062 -0.2761
 2675SOL    HW119658   3.940   1.170  15.928  0.0982  1.3327  1.3222
 2675SOL    HW219659   3.865   1.131  16.037  1.7751  2.4343  1.2192
 2676SOL     OW19660   2.536   3.263  16.475  0.3106  0.5900  0.1136
 2676SOL    HW119661   2.521   3.274  16.381 -0.7556  5.4939  0.8759
 2676SOL    HW219662   2.629   3.285  16.478  0.6947 -1.0416  0.1769
 2677SOL     OW19663   0.620   0.954   5.232  0.1927  0.8741  0.0147
 2677SOL    HW119664   0.526   0.963   5.218  0.3064 -1.0112 -1.8275
 2677SOL    HW219665   0.650   0.971   5.143  1.3505  1.2299  0.4661
 2678SOL     OW19666   1.418   1.604  13.269  0.3092 -0.5038 -0.0216
 2678SOL    HW119667   1.363   1.528  13.288  1.9406 -2.1720 -1.9678
 2678SOL    HW219668   1.361   1.677  13.244 -1.2106 -0.7817  2.6436
 2679SOL     OW19669   3.915   1.169   2.173  0.1111  0.5787  0.0205
 2679SOL    HW119670   3.954   1.233   2.114  1.2625  0.4464  0.6497
 2679SOL    HW219671   3.828   1.170   2.131 -0.0487  1.1046  0.3695
 2680SOL     OW19672   3.318   2.980   6.638  0.1053 -0.1589 -0.5588
 2680SOL    HW119673   3.272   2.965   6.555 -0.3405 -0.5317 -0.2446
 2680SOL    HW219674   3.307   2.895   6.680  0.7263 -1.0612 -2.2136
 2681SOL     OW19675   3.454   3.384   7.731  0.7047  0.0799 -0.3726
 2681SOL    HW119676   3.371   3.427   7.708  0.2580 -0.9025 -0.5952
 2681SOL    HW219677   3.490   3.370   7.643  1.1057  0.2678 -0.2363
 2682SOL     OW19678   2.307   2.393  16.248 -0.6846  0.0188 -0.3842
 2682SOL    HW119679   2.254   2.370  16.324  0.6367 -1.0133  0.2377
 2682SOL    HW219680   2.398   2.380  16.274 -0.1565  0.1587 -2.1194
 2683SOL     OW19681   1.960   4.272   4.487 -0.2602 -0.3559 -0.5100
 2683SOL    HW119682   1.968   4.189   4.440 -0.7329 -2.0568  2.3752
 2683SOL    HW219683   1.897   4.251   4.557 -0.3095  0.6247 -0.2622
 2684SOL     OW19684   3.179   4.727  11.425 -0.2650 -0.5622 -0.1102
 2684SOL    HW119685   3.109   0.032  11.473  0.5983 -1.1149  1.6872
 2684SOL    HW219686   3.218   4.684  11.501  1.6006  1.5663  0.1453
 2685SOL     OW19687   3.597   3.076   9.097 -0.2495  0.0689 -0.6665
 2685SOL    HW119688   3.674   3.103   9.048  1.5419 -2.3733  0.7973
 2685SOL    HW219689   3.634   3.017   9.163  0.1067  1.7011  0.5758
 2686SOL     OW19690   1.556   3.633   7.117 -0.0205 -0.2110  0.3376
 2686SOL    HW119691   1.505   3.683   7.181 -0.3989 -0.8106  0.5049
 2686SOL    HW219692   1.498   3.611   7.044 -0.4085 -1.2299  0.9505
 2687SOL     OW19693   0.050   3.544   3.009  0.4683  0.1635  0.0384
 2687SOL    HW119694   0.139   3.575   3.030  0.0327  1.5808 -0.1616
 2687SOL    HW219695   0.027   3.504   3.093  3.0024 -0.7499  0.3074
 2688SOL     OW19696   2.996   0.333  17.258 -0.6455 -0.0800 -0.3534
 2688SOL    HW119697   2.942   0.384  17.318  1.1526  2.3593 -0.7857
 2688SOL    HW219698   3.012   0.255  17.312 -3.4350 -1.0279 -0.9275
 2689SOL     OW19699   2.713   0.642   0.475  0.0212  0.0312 -0.0377
 2689SOL    HW119700   2.712   0.733   0.447  1.2282  0.4218  1.2494
 2689SOL    HW219701   2.803   0.638   0.508  0.5415  1.6095 -1.2700
 2690SOL     OW19702   2.151   3.012  13.648 -0.4412 -0.0375 -0.3799
 2690SOL    HW119703   2.074   3.038  13.699 -0.1662 -1.1013  0.5817
 2690SOL    HW219704   2.184   2.950  13.713 -0.1643 -0.8085 -1.2521
 2691SOL     OW19705   4.189   2.140   7.637 -0.6750 -0.4084  0.4231
 2691SOL    HW119706   4.214   2.173   7.723  0.0227  0.6692 -0.1949
 2691SOL    HW219707   4.266   2.178   7.595 -1.1946  2.3090  1.8795
 2692SOL     OW19708   2.401   3.144   8.007  0.5539  0.1523  0.1748
 2692SOL    HW119709   2.463   3.105   8.069 -0.1043  1.4617  1.6624
 2692SOL    HW219710   2.456   3.180   7.938 -0.5406  0.1197 -0.6989
 2693SOL     OW19711   1.746   1.524   3.843 -0.8783  0.0166 -0.0864
 2693SOL    HW119712   1.698   1.606   3.835  1.0678  1.1109 -0.5996
 2693SOL    HW219713   1.720   1.473   3.767  0.5346  0.9075 -1.1619
 2694SOL     OW19714   3.617   0.655   9.393 -0.2826  0.3841  0.1274
 2694SOL    HW119715   3.626   0.571   9.348  2.6820 -0.1152  1.6612
 2694SOL    HW219716   3.617   0.726   9.329  0.4268  0.1882 -0.0861
 2695SOL     OW19717   2.505   4.537  17.177 -0.1616  0.3778  0.1291
 2695SOL    HW119718   2.422   4.533  17.130 -0.7520 -2.2761  1.4110
 2695SOL    HW219719   2.554   4.608  17.135  0.2485  0.9733  1.6361
 2696SOL     OW19720   1.543   0.874   6.659  0.2091 -0.3580  0.6364
 2696SOL    HW119721   1.628   0.900   6.622 -0.4358 -1.8525 -1.9480
 2696SOL    HW219722   1.564   0.842   6.746 -3.2171 -2.7977  0.5814
 2697SOL     OW19723   0.105   3.371   3.769 -0.5345 -0.3987 -0.1272
 2697SOL    HW119724   0.020   3.414   3.756  0.1681  1.0921  0.1357
 2697SOL    HW219725   0.142   3.356   3.682 -1.5142  0.8300 -0.7582
 2698SOL     OW19726   2.239   3.165  15.631 -0.0311  0.1562 -0.2142
 2698SOL    HW119727   2.252   3.173  15.725 -0.7474  1.6294 -0.2390
 2698SOL    HW219728   2.231   3.070  15.625  1.4713 -0.0054  0.3474
 2699SOL     OW19729   1.774   3.667  13.365 -0.1450 -0.6409 -0.4028
 2699SOL    HW119730   1.763   3.679  13.270  0.0005  2.0803 -0.0931
 2699SOL    HW219731   1.840   3.735  13.384  0.2479 -1.3142  0.6360
 2700SOL     OW19732   3.110   3.175  10.643  0.4962  0.1782 -0.5371
 2700SOL    HW119733   3.085   3.110  10.709  1.0953 -0.8225 -1.2950
 2700SOL    HW219734   3.126   3.255  10.693 -0.3345  1.3112 -2.0527
 2701SOL     OW19735   3.782   0.942   8.514  0.4448  0.4014  0.2670
 2701SOL    HW119736   3.855   0.958   8.455 -0.5710 -2.2593 -1.6946
 2701SOL    HW219737   3.832   0.936   8.596  1.8269 -1.1908 -0.6896
 2702SOL     OW19738   2.099   0.290   5.173  0.4544  0.5168 -0.2774
 2702SOL    HW119739   2.058   0.358   5.227 -0.0176 -1.0447  1.3002
 2702SOL    HW219740   2.176   0.339   5.144  2.5285 -0.8844  2.8867
 2703SOL     OW19741   4.401   1.272  12.534  0.6856 -0.7169 -0.6971
 2703SOL    HW119742   4.323   1.290  12.587 -0.1083  1.4723 -2.5645
 2703SOL    HW219743   4.367   1.234  12.453 -1.2015  0.1359 -0.3122
 2704SOL     OW19744   0.790   3.050   5.472 -0.4019  0.4377 -0.1176
 2704SOL    HW119745   0.707   3.019   5.507 -1.3970  3.0105 -0.1785
 2704SOL    HW219746   0.773   3.144   5.483  0.2988  0.6738 -1.0431
 2705SOL     OW19747   0.815   3.350   4.330 -0.2104  0.2848  0.6211
 2705SOL    HW119748   0.862   3.277   4.291  0.4530  1.1580 -0.1987
 2705SOL    HW219749   0.824   3.412   4.257  0.1268  0.2260  0.6111
 2706SOL     OW19750   1.144   3.148  16.377 -0.6147 -0.8164 -0.0035
 2706SOL    HW119751   1.232   3.183  16.367 -0.7670 -0.9781 -1.8677
 2706SOL    HW219752   1.113   3.185  16.295 -0.7168  0.2089  0.5016
 2707SOL     OW19753   2.650   1.567   4.069  0.1004  0.1252 -0.0826
 2707SOL    HW119754   2.715   1.497   4.072 -0.0450 -0.0136 -0.2241
 2707SOL    HW219755   2.708   1.628   4.024  1.1816 -0.7119  0.1698
 2708SOL     OW19756   1.963   0.199   8.035  0.0680 -0.3304 -0.6869
 2708SOL    HW119757   1.939   0.219   8.126 -0.9050 -0.5583 -0.8850
 2708SOL    HW219758   2.058   0.207   8.044 -0.0040 -1.4011  1.2011
 2709SOL     OW19759   3.571   3.342   4.502  0.3879  0.0418  0.2571
 2709SOL    HW119760   3.574   3.424   4.453 -1.7950 -0.1142 -0.1663
 2709SOL    HW219761   3.529   3.380   4.579  1.7474  0.5895  0.7267
 2710SOL     OW19762   4.409   1.639  17.141 -0.0562 -0.0127  0.6286
 2710SOL    HW119763   4.459   1.605  17.067  1.6451  0.1433  1.7029
 2710SOL    HW219764   4.484   1.631  17.200  0.1956  0.0252  0.3187
 2711SOL     OW19765   3.881   4.041   6.569  0.8337  0.2770 -0.1947
 2711SOL    HW119766   3.788   4.032   6.590  0.7952  1.5299  0.2230
 2711SOL    HW219767   3.881   4.090   6.486 -0.5021  1.3433  0.4120
 2712SOL     OW19768   4.139   3.957   6.977 -0.5150 -0.5140  0.3083
 2712SOL    HW119769   4.167   3.916   7.059 -0.5886  3.1255  2.1421
 2712SOL    HW219770   4.166   3.883   6.924  1.1062  0.3502 -0.0609
 2713SOL     OW19771   2.023   0.318   0.824  0.4129  0.1976  0.4094
 2713SOL    HW119772   2.089   0.338   0.757  0.0798 -1.6082 -0.4755
 2713SOL    HW219773   1.942   0.349   0.783  0.5268 -0.2656 -0.1713
 2714SOL     OW19774   4.610   1.485   8.523 -0.2772 -0.2358  0.6544
 2714SOL    HW119775   4.677   1.548   8.497 -0.8825  0.9971  2.1171
 2714SOL    HW219776   4.524   1.526   8.513 -0.6964 -0.5852  2.9574
 2715SOL     OW19777   3.066   3.577   5.871  0.5808 -0.1726 -0.6021
 2715SOL    HW119778   3.070   3.671   5.854  0.5894  0.3186  2.0666
 2715SOL    HW219779   3.108   3.566   5.957  2.4681  0.9800 -1.3838
 2716SOL     OW19780   2.823   1.091   8.372  0.3754  0.5665 -0.2047
 2716SOL    HW119781   2.841   1.171   8.323  1.7259  1.2252  1.3557
 2716SOL    HW219782   2.891   1.032   8.339  0.5652 -0.0776  1.3423
 2717SOL     OW19783   2.849   4.401   2.381  0.3435 -0.2806 -0.3874
 2717SOL    HW119784   2.944   4.403   2.369  0.2853 -0.1947 -0.8350
 2717SOL    HW219785   2.817   4.373   2.296 -1.1766 -2.9734  1.0614
 2718SOL     OW19786   2.033   3.790   5.531 -0.0262  0.2132 -0.1327
 2718SOL    HW119787   2.048   3.707   5.577 -2.1945 -0.3409 -0.4333
 2718SOL    HW219788   2.095   3.782   5.458 -0.1972  0.1382 -0.2699
 2719SOL     OW19789   3.024   4.332  16.705  0.3832 -0.1152 -0.3090
 2719SOL    HW119790   3.055   4.416  16.669  1.4810  0.3069  1.6007
 2719SOL    HW219791   3.007   4.281  16.626 -2.2194 -0.1741  0.2927
 2720SOL     OW19792   4.578   3.775  17.059 -0.5604  0.2102 -0.1364
 2720SOL    HW119793   4.595   3.683  17.080 -1.0536 -0.2841 -1.9489
 2720SOL    HW219794   4.548   3.807  17.144 -0.0770  0.2423  0.0236
 2721SOL     OW19795   0.121   3.885   3.036 -0.0556  0.7371  0.1584
 2721SOL    HW119796   0.180   3.889   2.961 -0.2569 -0.2200 -0.0427
 2721SOL    HW219797   0.176   3.920   3.106 -0.2018  2.7331 -0.7088
 2722SOL     OW19798   0.396   1.783   7.800  0.5824  1.1248 -0.4876
 2722SOL    HW119799   0.387   1.702   7.852 -1.3279 -0.3763 -3.1167
 2722SOL    HW219800   0.345   1.765   7.721 -0.6037  0.7568  0.3530
 2723SOL     OW19801   1.012   2.492   9.549 -0.4317  0.0668 -0.0419
 2723SOL    HW119802   1.038   2.417   9.497 -0.2116 -0.8251  1.3401
 2723SOL    HW219803   0.935   2.459   9.596 -1.2380 -0.3274 -1.6698
 2724SOL     OW19804   1.423   4.422   6.338 -0.7546 -0.0534  0.6418
 2724SOL    HW119805   1.510   4.433   6.377 -0.9570  1.0514  0.7596
 2724SOL    HW219806   1.432   4.330   6.310 -1.7581 -0.1725  0.7033
 2725SOL     OW19807   0.385   2.436  12.145 -0.6630  0.4141  0.2698
 2725SOL    HW119808   0.408   2.355  12.189 -0.0591 -1.0474 -2.7222
 2725SOL    HW219809   0.295   2.451  12.175 -0.8970 -1.6571  0.5782
 2726SOL     OW19810   1.858   2.439  12.946  0.1253 -0.0506 -0.0224
 2726SOL    HW119811   1.934   2.493  12.969 -0.2629  0.7870 -0.7239
 2726SOL    HW219812   1.860   2.461  12.853  1.1927 -0.9720 -0.2190
 2727SOL     OW19813   3.030   2.034   2.577 -0.0769 -0.5635 -0.1117
 2727SOL    HW119814   2.989   2.038   2.490  0.1079  1.4024 -0.1067
 2727SOL    HW219815   2.963   1.976   2.614 -1.3817  0.9606 -0.0755
 2728SOL     OW19816   0.789   3.329   5.544  0.4351  0.4907  0.2875
 2728SOL    HW119817   0.751   3.363   5.463 -0.4782  1.2168  1.0129
 2728SOL    HW219818   0.751   3.394   5.603 -0.2222 -0.4852  0.9461
 2729SOL     OW19819   1.401   1.450   3.089 -0.0468  0.0282 -0.2035
 2729SOL    HW119820   1.488   1.479   3.060  0.0465  0.1181  0.1656
 2729SOL    HW219821   1.383   1.506   3.165 -0.6490 -1.9398  1.0957
 2730SOL     OW19822   3.392   0.862   9.324 -0.6850  0.0813 -0.1729
 2730SOL    HW119823   3.397   0.793   9.391 -0.3553 -0.2623 -0.5556
 2730SOL    HW219824   3.399   0.812   9.243 -0.0756 -0.3821  0.1610
 2731SOL     OW19825   3.662   1.627  10.184 -0.1617  0.1747 -0.4785
 2731SOL    HW119826   3.661   1.532  10.171 -0.6748  0.3802 -1.9553
 2731SOL    HW219827   3.673   1.659  10.094 -1.0331  1.1352 -0.2306
 2732SOL     OW19828   0.217   1.684  16.796  1.1488 -0.1760 -0.0963
 2732SOL    HW119829   0.237   1.708  16.706  1.6994  1.7699  0.5434
 2732SOL    HW219830   0.197   1.769  16.835 -1.2323 -0.6450 -0.2998
 2733SOL     OW19831   2.009   4.534   2.121  0.4320 -0.4853 -0.4213
 2733SOL    HW119832   2.063   4.479   2.177 -0.6272 -2.3199 -1.1703
 2733SOL    HW219833   1.936   4.474   2.101  1.1852 -1.2976 -0.7290
 2734SOL     OW19834   3.656   4.728   7.013  0.0702 -0.8767 -0.2255
 2734SOL    HW119835   3.738   4.707   7.057  0.2818 -0.8593 -0.6087
 2734SOL    HW219836   3.650   4.664   6.942 -0.3749 -1.6764  0.5258
 2735SOL     OW19837   0.352   1.533   7.446 -0.5289 -0.1137  0.4550
 2735SOL    HW119838   0.420   1.532   7.513 -1.1336 -1.3488  1.0461
 2735SOL    HW219839   0.294   1.470   7.487 -0.8532  0.8941  1.5449
 2736SOL     OW19840   1.688   2.312   6.064 -0.3582 -0.3781 -0.0350
 2736SOL    HW119841   1.624   2.243   6.047 -1.4982  1.0420 -1.5084
 2736SOL    HW219842   1.768   2.259   6.074  0.4016  0.4100 -1.9934
 2737SOL     OW19843   1.984   0.325   2.906 -0.2670  0.2379  0.3990
 2737SOL    HW119844   2.079   0.314   2.900 -0.5510 -1.6150 -0.6236
 2737SOL    HW219845   1.961   0.364   2.822 -0.6249 -0.6946  0.0634
 2738SOL     OW19846   1.199   2.760   8.078 -0.4672  0.3850 -0.0224
 2738SOL    HW119847   1.166   2.671   8.068  1.5016 -0.5265  1.7454
 2738SOL    HW219848   1.191   2.770   8.173  0.8951 -0.7935  0.2086
 2739SOL     OW19849   2.243   1.716   5.488 -0.2256 -0.5754 -0.4127
 2739SOL    HW119850   2.295   1.795   5.473 -1.2957 -0.0442 -1.3375
 2739SOL    HW219851   2.234   1.680   5.400  2.3585  1.0703 -1.3386
 2740SOL     OW19852   0.651   2.048  10.801  0.3648  0.0644  0.0868
 2740SOL    HW119853   0.643   2.067  10.708  0.2059 -1.0639 -0.1319
 2740SOL    HW219854   0.734   2.000  10.800  1.1676  1.4575  0.5082
 2741SOL     OW19855   4.356   3.456   9.834 -0.2922 -0.5437 -0.1320
 2741SOL    HW119856   4.427   3.452   9.899 -0.1606  1.6115 -0.1371
 2741SOL    HW219857   4.344   3.550   9.826  0.2417 -0.7198 -2.9528
 2742SOL     OW19858   3.584   3.875  10.131 -0.5504 -0.0253  0.2304
 2742SOL    HW119859   3.521   3.805  10.114 -0.1441 -0.4259  0.3778
 2742SOL    HW219860   3.523   3.938  10.170  0.0135  0.6930 -0.0481
 2743SOL     OW19861   1.508   2.855   8.252  0.3556 -0.3064 -0.5319
 2743SOL    HW119862   1.487   2.762   8.253  1.6935 -0.6017  0.2125
 2743SOL    HW219863   1.603   2.854   8.245  0.4296 -0.4888  0.4397
 2744SOL     OW19864   1.464   4.651   3.017  0.0632 -0.2932 -0.3376
 2744SOL    HW119865   1.441   4.726   3.072  2.2701 -0.0510  0.2676
 2744SOL    HW219866   1.411   4.665   2.939 -1.3857  1.4457  0.9747
 2745SOL     OW19867   1.586   1.992  12.620  0.2635  0.5807 -0.4458
 2745SOL    HW119868   1.660   2.005  12.561 -0.2049  3.0033 -0.4880
 2745SOL    HW219869   1.514   1.972  12.562  3.2719 -0.2379 -3.8708
 2746SOL     OW19870   1.226   1.957   4.712 -0.2395 -0.6994  0.2905
 2746SOL    HW119871   1.205   1.941   4.804 -0.9352  1.0818  0.4507
 2746SOL    HW219872   1.154   1.910   4.669  0.9397 -0.0577 -2.3557
 2747SOL     OW19873   3.173   4.616  13.691  0.3092  0.1670 -0.2108
 2747SOL    HW119874   3.266   4.619  13.716  0.2944 -0.3634 -0.0806
 2747SOL    HW219875   3.138   4.599  13.779 -1.2973 -2.2537 -1.3301
 2748SOL     OW19876   1.867   1.807   5.463 -0.0856  0.1735 -0.0258
 2748SOL    HW119877   1.794   1.778   5.517  1.0537  1.4360  2.2092
 2748SOL    HW219878   1.872   1.735   5.399 -0.3412 -0.9494  1.2221
 2749SOL     OW19879   3.030   3.852   3.007 -0.3949 -0.3049  0.2454
 2749SOL    HW119880   3.047   3.791   2.935 -0.1084 -1.6057  1.4133
 2749SOL    HW219881   2.952   3.897   2.974  0.4204 -0.1484 -1.4520
 2750SOL     OW19882   4.036   0.200  12.236  0.1835  0.0934 -0.3599
 2750SOL    HW119883   4.021   0.111  12.206 -0.3871  0.9884 -2.7545
 2750SOL    HW219884   4.104   0.227  12.174 -0.4761 -0.4634 -1.3256
 2751SOL     OW19885   2.174   0.113   7.411  0.1935 -0.0125  0.5823
 2751SOL    HW119886   2.206   0.025   7.389 -1.3498 -0.0082 -1.5975
 2751SOL    HW219887   2.114   0.084   7.480 -0.9592 -1.3517 -0.9760
 2752SOL     OW19888   2.026   2.091   3.319  0.1161  0.0227  0.1149
 2752SOL    HW119889   2.006   2.114   3.228  2.2381 -1.0641 -0.6253
 2752SOL    HW219890   1.972   2.015   3.344 -1.3182  1.7349  2.3010
 2753SOL     OW19891   1.315   3.444   8.267 -0.5065 -0.6712  0.2926
 2753SOL    HW119892   1.260   3.366   8.279 -0.3146 -0.8493  0.0142
 2753SOL    HW219893   1.288   3.469   8.179  1.0064 -1.3246 -0.3627
 2754SOL     OW19894   0.359   2.291   5.846  0.1146 -0.0994  0.1211
 2754SOL    HW119895   0.419   2.302   5.920  0.8481 -1.7637 -0.2341
 2754SOL    HW219896   0.431   2.263   5.790 -0.1155  1.6662 -1.0686
 2755SOL     OW19897   3.951   1.920   0.852  0.0953 -0.4799 -0.3829
 2755SOL    HW119898   3.966   1.865   0.775 -1.8268  2.0326 -2.5218
 2755SOL    HW219899   3.949   2.008   0.816 -1.3955 -1.4501 -2.7271
 2756SOL     OW19900   1.617   1.818  17.549 -0.6773 -0.2582  0.0275
 2756SOL    HW119901   1.576   1.900  17.574 -0.6591 -0.3370  0.3095
 2756SOL    HW219902   1.627   1.769  17.631 -1.5080 -1.3968 -0.5473
 2757SOL     OW19903   1.642   1.012   0.874  0.2443 -0.2919  0.1668
 2757SOL    HW119904   1.702   0.975   0.810  1.6160  1.9087  0.1769
 2757SOL    HW219905   1.599   1.079   0.821 -0.1162 -0.5430  0.1405
 2758SOL     OW19906   0.902   3.171   6.751 -0.0753 -0.0362 -0.0802
 2758SOL    HW119907   0.939   3.087   6.778 -1.1855 -0.6157 -0.3674
 2758SOL    HW219908   0.838   3.141   6.687  0.4547  0.5380 -0.8879
 2759SOL     OW19909   4.283   2.582   6.369  0.1043  0.5604 -0.1596
 2759SOL    HW119910   4.206   2.576   6.425  0.4086 -2.0928 -0.0212
 2759SOL    HW219911   4.238   2.573   6.285  0.5059 -1.4611 -0.1622
 2760SOL     OW19912   0.604   1.841   7.271  0.2120  0.3090  0.3133
 2760SOL    HW119913   0.611   1.883   7.357  1.0192 -0.8682  0.8236
 2760SOL    HW219914   0.605   1.919   7.215 -0.0985 -0.3762 -0.6378
 2761SOL     OW19915   3.856   1.299  14.783  0.0217 -0.4859  0.1207
 2761SOL    HW119916   3.882   1.217  14.742  0.2436  0.1887 -1.0838
 2761SOL    HW219917   3.805   1.342  14.714  2.0093  0.2649 -0.8705
 2762SOL     OW19918   1.624   3.938   6.351  0.5239 -0.2916 -0.4472
 2762SOL    HW119919   1.647   3.858   6.397  0.5323 -0.2653 -0.4053
 2762SOL    HW219920   1.585   3.907   6.270 -1.7817  3.6145 -0.8617
 2763SOL     OW19921   1.622   1.838  13.088  0.4008 -0.0770 -0.3299
 2763SOL    HW119922   1.553   1.778  13.115  0.6322 -1.1077 -2.0446
 2763SOL    HW219923   1.636   1.827  12.994  0.6738 -1.7312 -0.0970
 2764SOL     OW19924   0.960   3.476   2.768 -0.3741  0.3119  0.3649
 2764SOL    HW119925   0.926   3.397   2.728  0.7034  0.6474 -1.2119
 2764SOL    HW219926   1.048   3.440   2.778 -0.1325  0.7419 -0.1866
 2765SOL     OW19927   4.110   1.062   4.332  0.0854  0.5844  0.1798
 2765SOL    HW119928   4.022   1.028   4.318 -0.9518  2.8193  1.2871
 2765SOL    HW219929   4.112   1.051   4.427  3.0345 -0.7493 -0.0345
 2766SOL     OW19930   2.567   0.982  11.782 -0.0133  0.6360  0.9466
 2766SOL    HW119931   2.548   1.000  11.874 -1.4934  3.0493  0.1488
 2766SOL    HW219932   2.521   1.058  11.748  1.1707  1.2121  0.6459
 2767SOL     OW19933   4.138   2.029   4.001  0.6907 -0.0183  0.5537
 2767SOL    HW119934   4.083   2.102   3.973  0.3168 -0.2191  0.7775
 2767SOL    HW219935   4.223   2.074   3.994  0.0078  1.2599  0.3544
 2768SOL     OW19936   2.980   1.275   1.839 -0.2430 -0.0065  0.2414
 2768SOL    HW119937   3.035   1.332   1.891  1.6641 -1.0523 -0.6006
 2768SOL    HW219938   3.019   1.290   1.753  1.9155 -3.0866  0.6584
 2769SOL     OW19939   3.208   0.253   2.342  0.3595 -0.0359  0.4700
 2769SOL    HW119940   3.258   0.264   2.423  0.7995 -1.5901  0.4038
 2769SOL    HW219941   3.216   0.160   2.319  1.5607  0.3953 -0.8822
 2770SOL     OW19942   4.060   2.093   9.229  0.3468  0.3340 -0.4940
 2770SOL    HW119943   3.996   2.135   9.286 -0.8784 -1.7312 -0.3539
 2770SOL    HW219944   3.996   2.080   9.159  0.6501  1.2530 -0.9431
 2771SOL     OW19945   3.722   1.186  15.775  0.7288 -0.2008  0.4756
 2771SOL    HW119946   3.748   1.267  15.819 -1.5300 -0.2310  1.8688
 2771SOL    HW219947   3.741   1.217  15.687 -1.8156 -0.2493 -0.0995
 2772SOL     OW19948   2.242   0.081   4.593 -0.1930 -0.7578  0.1349
 2772SOL    HW119949   2.256   0.097   4.500  0.6480 -0.3647  0.3265
 2772SOL    HW219950   2.330   0.062   4.627  0.6408  0.6261 -1.2433
 2773SOL     OW19951   2.104   2.762   3.750  0.2722 -0.3968  0.0025
 2773SOL    HW119952   2.092   2.815   3.828 -0.0200  1.6643 -1.4393
 2773SOL    HW219953   2.197   2.750   3.764  0.2920 -0.7668 -0.4315
 2774SOL     OW19954   2.064   3.937   0.792  0.2407  0.0628  0.4139
 2774SOL    HW119955   2.155   3.968   0.794  0.7735 -1.5261  0.4344
 2774SOL    HW219956   2.049   3.924   0.699  1.4373  3.8388 -0.3256
 2775SOL     OW19957   3.293   3.194   6.206  0.7283  0.6956  0.2418
 2775SOL    HW119958   3.327   3.229   6.124  0.7353 -2.9726 -1.3061
 2775SOL    HW219959   3.349   3.237   6.271  0.5052  0.2294  0.7491
 2776SOL     OW19960   1.564   3.073   6.996 -0.4984 -0.2215 -0.0581
 2776SOL    HW119961   1.485   3.125   6.990 -1.5641 -1.8526 -0.1072
 2776SOL    HW219962   1.574   3.045   6.905 -0.1541 -1.9719  0.5140
 2777SOL     OW19963   2.791   3.684   0.493 -0.0316  0.4029 -0.0618
 2777SOL    HW119964   2.864   3.742   0.515  2.2820 -2.7636  0.5889
 2777SOL    HW219965   2.825   3.649   0.411  0.2241  0.8894 -0.1627
 2778SOL     OW19966   0.774   2.669   6.767 -0.2223 -0.3972  0.5482
 2778SOL    HW119967   0.764   2.614   6.689  0.1897  1.3600 -0.7645
 2778SOL    HW219968   0.839   2.616   6.814 -0.1145 -0.9099 -0.1719
 2779SOL     OW19969   4.278   2.863  11.082  0.0286 -0.2933  0.1796
 2779SOL    HW119970   4.226   2.806  11.138 -0.8346 -0.7281 -1.0553
 2779SOL    HW219971   4.355   2.883  11.136  0.4446  1.6930 -1.1217
 2780SOL     OW19972   2.487   2.080   3.211 -0.3702  0.0857 -0.2363
 2780SOL    HW119973   2.458   2.127   3.133 -1.6246  0.6366  0.5682
 2780SOL    HW219974   2.581   2.100   3.210 -0.7177  1.6887 -0.8006
 2781SOL     OW19975   3.643   3.110  13.402 -0.3697 -0.1444  0.2798
 2781SOL    HW119976   3.630   3.204  13.387  1.2115  0.3050  1.7395
 2781SOL    HW219977   3.658   3.079  13.313  0.6701  1.8269 -0.2405
 2782SOL     OW19978   2.304   3.332   4.099  0.1423  0.0066  0.1262
 2782SOL    HW119979   2.294   3.424   4.074 -0.8694 -0.2110 -0.2845
 2782SOL    HW219980   2.269   3.324   4.188  3.3359  1.2875  1.4865
 2783SOL     OW19981   2.177   0.541   3.996  0.2042  0.1796  0.2067
 2783SOL    HW119982   2.143   0.464   4.041 -2.5845  1.8674  1.0323
 2783SOL    HW219983   2.133   0.607   4.050  1.0982  1.8485 -1.1105
 2784SOL     OW19984   1.269   0.515   3.617  0.6492  0.1402  0.5820
 2784SOL    HW119985   1.345   0.563   3.584 -0.6609  1.0417 -1.1640
 2784SOL    HW219986   1.209   0.590   3.625  0.7936  0.1616  1.4980
 2785SOL     OW19987   0.705   2.156   4.891 -0.1257  0.0896  0.5206
 2785SOL    HW119988   0.750   2.141   4.808  0.2296  1.0853  0.5389
 2785SOL    HW219989   0.613   2.167   4.865 -0.4796  0.0532  1.7582
 2786SOL     OW19990   0.382   4.740   9.135 -1.1894 -0.2714  0.0457
 2786SOL    HW119991   0.391   4.648   9.161 -1.5375 -0.4918 -0.6067
 2786SOL    HW219992   0.366   4.735   9.041 -0.2143 -0.4470 -0.1117
 2787SOL     OW19993   3.084   3.110   7.724  0.0153 -0.4139  0.8444
 2787SOL    HW119994   3.062   3.137   7.813  0.7486  0.5222  0.7395
 2787SOL    HW219995   3.023   3.166   7.675 -1.1545 -0.8391  1.8136
 2788SOL     OW19996   1.605   1.569   4.439  0.5793  0.4218 -0.0273
 2788SOL    HW119997   1.656   1.627   4.380  1.2731  2.3092  2.4258
 2788SOL    HW219998   1.535   1.627   4.468  1.1019 -0.2970  2.6185
 2789SOL     OW19999   0.449   0.173   2.975  0.0617  0.2594  0.0633
 2789SOL    HW120000   0.403   0.165   2.891 -2.0452  1.2100  1.1234
 2789SOL    HW220001   0.376   0.130   3.021  0.6887 -2.3737 -1.3903
 2790SOL     OW20002   3.705   0.611   2.184 -0.6536 -0.1824 -0.0875
 2790SOL    HW120003   3.653   0.687   2.209  1.9197  1.6121 -0.1623
 2790SOL    HW220004   3.745   0.577   2.264  1.1906 -0.8472 -1.2888
 2791SOL     OW20005   1.349   1.047   5.778  0.4215  0.3255  0.5330
 2791SOL    HW120006   1.326   1.133   5.813 -2.5106  0.1537 -0.9641
 2791SOL    HW220007   1.385   1.003   5.855 -0.0930 -1.8656 -0.4724
 2792SOL     OW20008   3.344   1.230   7.895 -0.4530  0.6237  0.1049
 2792SOL    HW120009   3.264   1.241   7.845  0.2417  1.5755 -0.8165
 2792SOL    HW220010   3.380   1.319   7.896 -0.2115  0.5483 -1.6711
 2793SOL     OW20011   1.789   0.162   8.923  0.5310 -0.5783  0.2913
 2793SOL    HW120012   1.819   0.187   8.835 -1.8726 -0.5649 -0.5218
 2793SOL    HW220013   1.700   0.141   8.896  0.7572 -0.5590 -0.4927
 2794SOL     OW20014   0.500   2.749  14.295 -0.3443  0.4784 -0.1319
 2794SOL    HW120015   0.582   2.798  14.308 -0.2875  0.5173 -0.6311
 2794SOL    HW220016   0.515   2.706  14.211 -3.0096 -2.7975  1.0717
 2795SOL     OW20017   2.367   0.159   5.224 -0.0907 -0.1380 -0.1020
 2795SOL    HW120018   2.277   0.141   5.196 -0.6862  2.4087  0.1655
 2795SOL    HW220019   2.384   0.246   5.188 -0.5998  0.2252  0.5278
 2796SOL     OW20020   0.831   2.254   9.349  0.7152  0.8830  0.3120
 2796SOL    HW120021   0.889   2.179   9.339  0.5211  0.8346 -0.5094
 2796SOL    HW220022   0.750   2.215   9.382 -0.3867 -0.5164 -4.0551
 2797SOL     OW20023   2.009   1.248  11.893 -0.2820  0.3788  0.4184
 2797SOL    HW120024   1.954   1.179  11.856  0.2092  0.5244 -0.6104
 2797SOL    HW220025   2.082   1.196  11.926 -0.3099 -0.4825 -0.8484
 2798SOL     OW20026   1.930   1.776   1.465  0.4852  0.2084 -0.1282
 2798SOL    HW120027   2.012   1.806   1.426  1.6367 -3.3253 -0.3767
 2798SOL    HW220028   1.874   1.786   1.388  0.0904  2.3468  0.4313
 2799SOL     OW20029   4.201   4.161   2.363 -0.3931  0.7125  0.4223
 2799SOL    HW120030   4.160   4.176   2.278 -0.0015  0.2868  0.1616
 2799SOL    HW220031   4.225   4.251   2.385  0.2545  0.4116  0.9330
 2800SOL     OW20032   4.214   4.517   8.146  0.2757  0.6059  0.5378
 2800SOL    HW120033   4.279   4.556   8.203  1.1482  2.3172 -1.6281
 2800SOL    HW220034   4.146   4.584   8.143  0.2256  0.4972 -1.1533
 2801SOL     OW20035   1.525   3.685   2.650  0.2324  0.0856 -0.0014
 2801SOL    HW120036   1.445   3.737   2.647 -0.5418 -1.2218 -1.6938
 2801SOL    HW220037   1.543   3.697   2.743  1.4260  0.0713 -0.2248
 2802SOL     OW20038   2.528   4.218   5.558 -0.8583 -0.5010  0.2359
 2802SOL    HW120039   2.518   4.225   5.653  1.5744 -0.1634  0.4617
 2802SOL    HW220040   2.442   4.177   5.548 -1.3557  0.9556 -1.3567
 2803SOL     OW20041   3.010   3.063   8.031  0.2792 -0.5869  0.0120
 2803SOL    HW120042   2.918   3.087   8.023  0.0549 -0.9335  1.7779
 2803SOL    HW220043   3.001   2.989   8.090 -0.2794 -0.3691  0.1987
 2804SOL     OW20044   2.378   3.326  10.147 -0.0626  0.1753  0.4957
 2804SOL    HW120045   2.292   3.286  10.159  0.3708 -0.5908  0.9825
 2804SOL    HW220046   2.437   3.256  10.119 -1.9889 -1.1155 -0.3324
 2805SOL     OW20047   0.797   0.081   8.026 -0.8163  0.3121  0.2793
 2805SOL    HW120048   0.816   4.740   7.978  0.5031  1.5395 -1.3016
 2805SOL    HW220049   0.878   0.128   8.005  0.5506 -2.3286 -0.4464
 2806SOL     OW20050   0.864   3.266   7.582  0.0207  0.2182 -0.6351
 2806SOL    HW120051   0.867   3.218   7.664  1.9304  0.5180 -0.5290
 2806SOL    HW220052   0.847   3.359   7.599  2.5836  0.8882 -1.7109
 2807SOL     OW20053   1.420   3.374   2.670  0.1484  0.4408  0.0245
 2807SOL    HW120054   1.459   3.422   2.597  1.3403 -0.1201  0.2876
 2807SOL    HW220055   1.499   3.377   2.724 -0.7345 -0.1042  1.3518
 2808SOL     OW20056   2.327   4.561   3.239 -0.2840  0.0856  0.3539
 2808SOL    HW120057   2.339   4.603   3.324  3.2358 -1.2070  0.4496
 2808SOL    HW220058   2.404   4.590   3.190 -1.3214  1.5852 -0.4148
 2809SOL     OW20059   2.375   1.418   3.396 -0.1260  0.4405  0.3480
 2809SOL    HW120060   2.299   1.410   3.338  1.7622 -0.8620 -1.9738
 2809SOL    HW220061   2.347   1.402   3.486 -2.3409 -1.7374 -0.7311
 2810SOL     OW20062   0.601   4.695   3.293 -0.0757  0.3389 -0.8062
 2810SOL    HW120063   0.646   4.711   3.211 -2.5848  1.7859 -1.9083
 2810SOL    HW220064   0.543   0.031   3.290  1.3673  1.5199  0.8554
 2811SOL     OW20065   3.925   2.850   3.268 -0.2672 -0.5673 -0.2808
 2811SOL    HW120066   3.838   2.812   3.265 -0.2816 -0.4793 -0.8523
 2811SOL    HW220067   3.966   2.818   3.187  1.0005  1.1977 -0.3397
 2812SOL     OW20068   1.421   0.263   8.351  0.4836  0.1109 -0.2931
 2812SOL    HW120069   1.368   0.218   8.285  1.9882  0.7648 -1.9416
 2812SOL    HW220070   1.504   0.273   8.304 -0.0683  1.6946 -0.9312
 2813SOL     OW20071   3.424   4.576   5.109  0.0032 -0.2137  0.0871
 2813SOL    HW120072   3.380   4.519   5.172 -1.4618 -1.1047 -1.7092
 2813SOL    HW220073   3.487   4.633   5.153 -2.1399  1.1188  1.3946
 2814SOL     OW20074   2.400   3.353   7.117 -0.0733  0.4060 -0.2385
 2814SOL    HW120075   2.377   3.376   7.027 -0.4304  1.3412  0.0938
 2814SOL    HW220076   2.459   3.423   7.143  0.3280  0.7703 -2.1687
 2815SOL     OW20077   3.880   4.202  12.955 -0.4602  0.0772  0.3444
 2815SOL    HW120078   3.805   4.259  12.942  0.6166  1.0306 -1.7541
 2815SOL    HW220079   3.887   4.213  13.050 -0.5215 -1.6762  0.5575
 2816SOL     OW20080   1.897   3.622  14.412 -0.4275 -0.1005 -0.1411
 2816SOL    HW120081   1.803   3.624  14.399 -0.6796  0.7639  1.8027
 2816SOL    HW220082   1.933   3.607  14.325 -0.0981 -0.6301  0.0853
 2817SOL     OW20083   3.694   4.548   9.106  0.1819 -0.0170 -0.1168
 2817SOL    HW120084   3.636   4.560   9.181 -0.2722 -1.3771 -0.2482
 2817SOL    HW220085   3.660   4.619   9.051  0.5671 -0.0152 -0.3588
 2818SOL     OW20086   2.164   2.892   6.071  0.4939 -0.0529 -0.2445
 2818SOL    HW120087   2.167   2.881   5.976 -1.3515 -0.8930 -0.2144
 2818SOL    HW220088   2.254   2.872   6.094  0.5752 -0.4723 -0.9219
 2819SOL     OW20089   1.644   0.600   3.888 -0.3290 -0.3528 -0.1179
 2819SOL    HW120090   1.667   0.579   3.979  2.5140  1.4335 -0.4256
 2819SOL    HW220091   1.549   0.606   3.892 -0.2973 -0.5930  1.1767
 2820SOL     OW20092   3.717   0.856   4.715 -0.0536  0.1821  0.1339
 2820SOL    HW120093   3.703   0.847   4.809  3.9840 -0.0684  0.6856
 2820SOL    HW220094   3.804   0.817   4.711  0.0932  0.5039  0.1654
 2821SOL     OW20095   0.323   1.589  10.264  0.3879 -0.6251 -0.0217
 2821SOL    HW120096   0.385   1.585  10.336 -1.0083 -1.4402  1.1251
 2821SOL    HW220097   0.307   1.495  10.254 -1.7965 -0.3524  0.7759
 2822SOL     OW20098   4.328   4.112   9.713  0.0584  0.1069 -0.1652
 2822SOL    HW120099   4.241   4.151   9.721  0.0292 -0.4901  2.3717
 2822SOL    HW220100   4.336   4.085   9.804  1.0789 -1.8795 -0.8366
 2823SOL     OW20101   2.014   1.724   8.155  0.2389  0.1390 -0.6949
 2823SOL    HW120102   1.936   1.669   8.152  0.1318  0.2679 -0.2520
 2823SOL    HW220103   2.046   1.707   8.244  1.5926  1.1823 -0.9811
 2824SOL     OW20104   0.206   2.111   2.596 -0.2496  0.5553 -0.0932
 2824SOL    HW120105   0.247   2.086   2.514 -0.3620  2.5707 -0.7649
 2824SOL    HW220106   0.272   2.170   2.632 -0.5397  0.4470  0.6161
 2825SOL     OW20107   0.758   2.493  13.884  0.7498  0.2500  0.0436
 2825SOL    HW120108   0.827   2.488  13.818 -0.0888  0.3022 -0.8428
 2825SOL    HW220109   0.732   2.402  13.897  1.8681 -0.2770 -1.4112
 2826SOL     OW20110   2.600   0.790   6.729 -0.1431  0.3406  0.4442
 2826SOL    HW120111   2.678   0.735   6.736 -0.5448 -0.2828  0.0511
 2826SOL    HW220112   2.527   0.741   6.691  1.4002  0.4376 -2.6674
 2827SOL     OW20113   4.165   1.308   7.092 -0.0354 -0.7445  0.0398
 2827SOL    HW120114   4.157   1.255   7.172  0.8919  1.3989  1.5713
 2827SOL    HW220115   4.231   1.260   7.043 -0.6049 -0.3148 -1.1432
 2828SOL     OW20116   0.687   1.460   5.421 -0.1495 -0.0919  0.2454
 2828SOL    HW120117   0.757   1.525   5.430 -1.0405  1.0160 -0.8121
 2828SOL    HW220118   0.701   1.434   5.329 -0.1416 -0.4283  0.3417
 2829SOL     OW20119   0.823   0.320   5.272 -0.7115  0.6307  0.3241
 2829SOL    HW120120   0.757   0.324   5.341  0.6520 -1.6970  1.7797
 2829SOL    HW220121   0.898   0.307   5.331 -2.0649  2.4496  2.4398
 2830SOL     OW20122   0.496   0.949   6.820  0.0065  0.2805  0.5121
 2830SOL    HW120123   0.426   1.012   6.805  0.1791  0.3771  0.1263
 2830SOL    HW220124   0.462   0.885   6.883  0.7713  1.2113  1.8754
 2831SOL     OW20125   3.365   0.037   8.305 -0.0439 -0.4381 -0.3458
 2831SOL    HW120126   3.418   4.726   8.366  0.4162 -1.0624 -1.2713
 2831SOL    HW220127   3.283   0.040   8.354 -0.0805 -3.8381 -0.2227
 2832SOL     OW20128   4.217   3.103   3.263  0.3048  0.3752 -0.0624
 2832SOL    HW120129   4.228   3.157   3.185 -1.8860 -0.3164 -0.8308
 2832SOL    HW220130   4.139   3.150   3.291  0.0520 -0.3082  0.3772
 2833SOL     OW20131   4.304   4.694   0.147  0.7701 -0.0201 -0.3420
 2833SOL    HW120132   4.379   4.643   0.117  1.7552 -0.4209  2.7476
 2833SOL    HW220133   4.245   4.710   0.074  1.6264  2.5062 -0.4779
 2834SOL     OW20134   2.033   3.136  13.043  0.2063  0.0062 -0.5437
 2834SOL    HW120135   2.047   3.227  13.017 -1.0526 -0.5520 -3.1222
 2834SOL    HW220136   2.051   3.146  13.137 -0.8774 -0.7396 -0.2576
 2835SOL     OW20137   4.205   1.258   5.059 -0.4780  0.5408 -0.4841
 2835SOL    HW120138   4.199   1.348   5.030 -0.4522  0.5042 -0.6037
 2835SOL    HW220139   4.114   1.229   5.067  0.5944 -2.1891  1.7557
 2836SOL     OW20140   0.462   3.980   4.729  0.4188 -0.1194  0.0529
 2836SOL    HW120141   0.426   3.937   4.651  2.2864  0.3188 -1.0350
 2836SOL    HW220142   0.540   4.020   4.692  1.6293  0.4247  3.2378
 2837SOL     OW20143   1.611   0.065  11.289 -0.4920  0.4074  0.5832
 2837SOL    HW120144   1.628   0.073  11.383 -1.2908 -1.0286  0.8499
 2837SOL    HW220145   1.678   0.110  11.238  0.6545 -0.2194  1.5181
 2838SOL     OW20146   2.036   2.864   5.123  0.3775  0.5657  0.4400
 2838SOL    HW120147   2.048   2.809   5.200 -0.0927 -2.7580 -1.8125
 2838SOL    HW220148   2.103   2.932   5.130  0.2683  0.7693 -0.4626
 2839SOL     OW20149   4.396   3.578   0.113  0.0332 -0.1820 -0.8742
 2839SOL    HW120150   4.413   3.484   0.120 -2.1805 -0.5158  0.0094
 2839SOL    HW220151   4.446   3.585   0.032  0.2784 -1.3647 -0.8344
 2840SOL     OW20152   4.465   0.307  12.565  0.1779  0.2002  0.8994
 2840SOL    HW120153   4.434   0.382  12.515  2.4299  0.7915  0.3669
 2840SOL    HW220154   4.551   0.344  12.585  0.4753  0.0666 -0.1235
 2841SOL     OW20155   0.576   3.565   5.101  0.7149  0.7009  0.0616
 2841SOL    HW120156   0.538   3.625   5.038 -0.9787 -0.4056  0.0376
 2841SOL    HW220157   0.525   3.487   5.080  0.7771  0.6213  0.2033
 2842SOL     OW20158   4.444   3.373   8.957  0.7838 -0.0251 -0.2169
 2842SOL    HW120159   4.447   3.289   9.002  0.7971  0.7684  1.2611
 2842SOL    HW220160   4.495   3.433   9.012 -0.8000  0.5410  0.6175
 2843SOL     OW20161   3.330   3.511   1.332  0.0143  0.3620 -0.2840
 2843SOL    HW120162   3.250   3.478   1.291 -0.2205 -0.3278  0.7267
 2843SOL    HW220163   3.392   3.444   1.301  0.1460 -0.0305  0.8484
 2844SOL     OW20164   1.256   3.419   6.735  0.0870  0.3955  0.0576
 2844SOL    HW120165   1.270   3.416   6.640  0.4018 -0.0863  0.1160
 2844SOL    HW220166   1.162   3.434   6.741 -0.1698 -1.6767  1.1632
 2845SOL     OW20167   3.558   0.692   7.907 -0.7190 -0.4235  0.3244
 2845SOL    HW120168   3.572   0.632   7.980 -0.1768 -0.8186 -0.1051
 2845SOL    HW220169   3.537   0.633   7.835  0.5482 -0.3551 -0.0999
 2846SOL     OW20170   1.738   3.287  12.255 -0.1799  0.3246  0.3525
 2846SOL    HW120171   1.643   3.293  12.243  0.1765 -2.0164 -3.9881
 2846SOL    HW220172   1.746   3.267  12.348  0.9132 -0.2454  0.1402
 2847SOL     OW20173   1.148   2.560   4.161 -0.0958 -0.0239 -0.1061
 2847SOL    HW120174   1.059   2.592   4.174 -0.3004  0.2916 -2.2897
 2847SOL    HW220175   1.207   2.599   4.224  1.5774 -0.9655 -1.0900
 2848SOL     OW20176   3.828   1.130   3.584 -0.0515  0.3948 -0.1115
 2848SOL    HW120177   3.768   1.077   3.637 -1.6917 -0.4870 -2.8575
 2848SOL    HW220178   3.823   1.216   3.624  1.1370  0.0108  0.8415
 2849SOL     OW20179   0.223   1.893  10.082 -0.0308 -0.1248 -0.7534
 2849SOL    HW120180   0.193   1.977  10.118 -3.3442 -0.5823 -2.3892
 2849SOL    HW220181   0.263   1.857  10.161  0.7697  1.3846 -0.4770
 2850SOL     OW20182   1.694   4.317   2.885 -0.0759 -0.1119  0.0235
 2850SOL    HW120183   1.652   4.396   2.850  2.3847  1.1091 -0.1361
 2850SOL    HW220184   1.666   4.249   2.824 -2.8287  2.0846 -1.1698
 2851SOL     OW20185   0.675   2.381   2.227  0.7069 -0.0862 -0.0700
 2851SOL    HW120186   0.717   2.333   2.298 -0.7068 -1.0822  0.0925
 2851SOL    HW220187   0.745   2.394   2.163 -1.3052  0.3357 -2.1933
 2852SOL     OW20188   1.799   0.208   9.824  0.1768  0.3063  0.3856
 2852SOL    HW120189   1.803   0.180   9.916  0.0028  1.9787  0.8996
 2852SOL    HW220190   1.836   0.296   9.832  1.9535 -0.5776  1.9705
 2853SOL     OW20191   3.362   1.731   8.563  0.3426  0.2693 -0.7685
 2853SOL    HW120192   3.431   1.690   8.615  0.7757  0.0071 -1.5424
 2853SOL    HW220193   3.407   1.816   8.554  0.0511  0.9474  4.0035
 2854SOL     OW20194   4.083   0.291   2.043 -0.0636  0.0122  0.1932
 2854SOL    HW120195   3.997   0.326   2.022 -0.2509 -0.8627 -0.5008
 2854SOL    HW220196   4.130   0.321   1.966  0.3685 -2.5421 -0.5567
 2855SOL     OW20197   3.045   1.826   6.746  0.3320 -0.2728  0.1169
 2855SOL    HW120198   3.072   1.856   6.659 -1.0855  0.1239 -0.1874
 2855SOL    HW220199   3.085   1.740   6.753 -0.1417 -0.6833 -2.3546
 2856SOL     OW20200   2.341   0.681   8.238 -0.4755  0.1534  0.2237
 2856SOL    HW120201   2.279   0.736   8.190 -0.8267  1.0322  1.6520
 2856SOL    HW220202   2.398   0.749   8.275 -0.8214  0.5179  0.0821
 2857SOL     OW20203   2.402   3.854   5.670  0.5239  0.3600 -0.7084
 2857SOL    HW120204   2.401   3.902   5.587 -0.0108  0.7025 -0.5055
 2857SOL    HW220205   2.424   3.766   5.640 -1.7869 -0.7342  0.7983
 2858SOL     OW20206   2.803   4.425   4.855  0.0993 -0.3531  0.2223
 2858SOL    HW120207   2.725   4.377   4.828  0.9112  0.2317 -3.1183
 2858SOL    HW220208   2.801   4.407   4.949  0.5864  2.5097  0.8020
 2859SOL     OW20209   2.276   1.143   7.169 -0.0637  1.0301  0.0426
 2859SOL    HW120210   2.336   1.213   7.146  1.5493 -0.8855 -1.6256
 2859SOL    HW220211   2.187   1.176   7.153 -0.7638 -0.0784  1.6521
 2860SOL     OW20212   1.072   2.453   8.397  0.1387  0.2160  0.2348
 2860SOL    HW120213   1.142   2.389   8.384  1.5451  1.7666  0.2474
 2860SOL    HW220214   1.006   2.393   8.433 -3.5225  3.1257 -1.6562
 2861SOL     OW20215   2.108   4.190   7.925  0.3159 -0.0138 -0.0191
 2861SOL    HW120216   2.185   4.187   7.868  1.1166 -1.5158  1.1310
 2861SOL    HW220217   2.095   4.096   7.941 -0.9695  0.0577 -0.6703
 2862SOL     OW20218   3.932   4.291  16.537 -0.0576  0.8345 -0.2611
 2862SOL    HW120219   4.013   4.297  16.588 -0.1570 -0.8685  0.1220
 2862SOL    HW220220   3.894   4.373  16.567  0.9746  1.3210 -0.2997
 2863SOL     OW20221   0.376   1.254   8.692 -0.1664  0.5709 -0.9017
 2863SOL    HW120222   0.446   1.255   8.627  0.7549  1.2784  0.0945
 2863SOL    HW220223   0.349   1.345   8.681 -0.1654  0.5852 -0.7819
 2864SOL     OW20224   3.667   0.411   3.706  0.7381 -0.1842 -0.4056
 2864SOL    HW120225   3.733   0.470   3.671  1.7660 -0.7287  0.6396
 2864SOL    HW220226   3.713   0.353   3.766  2.2838 -0.3393 -1.7520
 2865SOL     OW20227   0.654   2.125   9.071 -0.3609 -0.1728  0.1331
 2865SOL    HW120228   0.586   2.184   9.105 -1.4050 -1.6380  0.5883
 2865SOL    HW220229   0.727   2.187   9.062 -0.9530  0.4376 -0.4956
 2866SOL     OW20230   0.318   2.846   8.875  0.3985 -0.1529  0.0189
 2866SOL    HW120231   0.270   2.775   8.918 -0.3449 -0.4448 -1.3151
 2866SOL    HW220232   0.409   2.815   8.869 -0.1036 -1.5737 -0.1394
 2867SOL     OW20233   3.387   3.309   8.865 -0.3601 -0.4752  0.3353
 2867SOL    HW120234   3.326   3.382   8.860 -0.3109 -0.2315  3.1194
 2867SOL    HW220235   3.357   3.256   8.939 -0.4621 -2.7670 -1.3419
 2868SOL     OW20236   0.748   2.600  12.110 -0.1328  0.0626 -0.3418
 2868SOL    HW120237   0.784   2.545  12.180  1.3473  1.4128 -0.0312
 2868SOL    HW220238   0.768   2.552  12.030  2.4506  2.1866 -0.9862
 2869SOL     OW20239   0.050   4.675   1.879  0.3072 -0.3356  0.4239
 2869SOL    HW120240   0.131   4.709   1.839 -0.2667 -0.1506 -0.5695
 2869SOL    HW220241   0.039   4.585   1.850  0.4410 -0.5349  0.9868
 2870SOL     OW20242   2.407   2.611   9.715  0.0346 -0.3600  0.0755
 2870SOL    HW120243   2.499   2.636   9.729  0.6905 -0.8833 -3.3616
 2870SOL    HW220244   2.369   2.630   9.801  0.8223 -0.3535  0.4294
 2871SOL     OW20245   4.123   3.905   7.953 -0.4484  0.1671  0.7028
 2871SOL    HW120246   4.072   3.825   7.969  0.6156 -0.7846 -0.6943
 2871SOL    HW220247   4.172   3.909   8.035  0.3897 -1.0392  0.2513
 2872SOL     OW20248   3.838   4.034   1.900  0.1700 -0.2085  0.4111
 2872SOL    HW120249   3.763   3.983   1.929  0.4770 -0.1070  1.3910
 2872SOL    HW220250   3.887   4.051   1.981 -1.3176  2.2382  0.7896
 2873SOL     OW20251   1.743   2.578   8.865 -0.0936 -0.5553  0.2792
 2873SOL    HW120252   1.692   2.657   8.848  1.8437  0.6960  0.3043
 2873SOL    HW220253   1.678   2.524   8.910 -1.9474  0.6662 -0.9307
 2874SOL     OW20254   2.808   0.195   1.733 -0.4692  0.2026  0.0306
 2874SOL    HW120255   2.716   0.220   1.739 -0.3547  0.3916  0.9478
 2874SOL    HW220256   2.830   0.169   1.822 -2.6197  0.3148  0.5904
 2875SOL     OW20257   3.083   1.933   8.925 -0.5170  0.8402 -0.6482
 2875SOL    HW120258   3.131   2.003   8.879  0.2757  0.6715 -0.0851
 2875SOL    HW220259   3.146   1.935   8.998 -0.1737 -0.9707 -0.9085
 2876SOL     OW20260   4.624   4.733   1.161  0.4172  0.3466  0.1034
 2876SOL    HW120261   4.666   4.693   1.237 -0.5820  1.4834  1.2509
 2876SOL    HW220262   4.539   0.020   1.197 -0.5833 -1.2988 -1.0085
 2877SOL     OW20263   2.981   2.234  13.411 -0.3280 -0.4978  0.6730
 2877SOL    HW120264   2.954   2.326  13.409 -0.3397 -0.5359 -0.9834
 2877SOL    HW220265   3.020   2.237  13.323  0.9845 -0.2921  1.2584
 2878SOL     OW20266   2.740   4.208   4.429 -0.2348  0.5396  0.1457
 2878SOL    HW120267   2.781   4.294   4.437  1.3858 -0.1848 -0.3207
 2878SOL    HW220268   2.677   4.227   4.359  0.3074 -0.3606 -0.5904
 2879SOL     OW20269   4.445   0.248   2.102 -0.6636 -0.0977 -0.6107
 2879SOL    HW120270   4.426   0.338   2.129 -1.0619 -0.0663 -0.9790
 2879SOL    HW220271   4.517   0.269   2.042 -1.6891  1.2588 -1.3788
 2880SOL     OW20272   1.502   0.068   8.613  0.2044 -0.5926 -0.2902
 2880SOL    HW120273   1.431   0.109   8.565  0.2822 -0.8784 -0.6539
 2880SOL    HW220274   1.578   0.111   8.574 -0.0460 -1.3706 -1.6680
 2881SOL     OW20275   0.411   0.409  12.198 -0.1687 -0.3182  0.2164
 2881SOL    HW120276   0.366   0.456  12.127  1.0955  0.2410 -0.2029
 2881SOL    HW220277   0.503   0.422  12.175 -0.4756 -1.2776 -1.6357
 2882SOL     OW20278   3.276   2.100  13.226  0.0545  0.2182 -0.1139
 2882SOL    HW120279   3.215   2.029  13.246  1.0422 -0.7146 -0.4673
 2882SOL    HW220280   3.219   2.170  13.194 -1.3108 -0.8449 -0.0127
 2883SOL     OW20281   0.856   2.016  12.328  0.5689  0.0760 -0.4969
 2883SOL    HW120282   0.828   1.951  12.263  0.1955  1.2002 -1.4548
 2883SOL    HW220283   0.866   1.962  12.407  1.9216  1.3704  0.1981
 2884SOL     OW20284   2.879   4.076   6.938 -0.5670 -1.0689 -0.1528
 2884SOL    HW120285   2.952   4.049   6.995 -1.9013 -2.8193  0.7414
 2884SOL    HW220286   2.843   4.003   6.888  0.2773 -0.4079 -1.7225
 2885SOL     OW20287   0.566   2.257   6.022 -0.4642 -0.5249  0.2460
 2885SOL    HW120288   0.591   2.180   6.073  1.5653  0.0323  0.1311
 2885SOL    HW220289   0.653   2.289   5.996 -1.2010  1.3486  0.0572
 2886SOL     OW20290   2.157   0.087   6.823 -0.2270  0.1381 -0.1571
 2886SOL    HW120291   2.200   0.173   6.829 -1.9805  0.8858  1.8305
 2886SOL    HW220292   2.201   0.045   6.897  0.0808  0.4719 -0.1522
 2887SOL     OW20293   3.109   2.575   9.460  0.1581 -0.1737  0.0563
 2887SOL    HW120294   3.181   2.624   9.499  0.6788 -0.4444 -0.5655
 2887SOL    HW220295   3.067   2.544   9.541 -1.1433 -0.3858 -0.6907
 2888SOL     OW20296   3.370   2.969   8.958  0.3106 -0.2647  0.0449
 2888SOL    HW120297   3.397   2.881   8.984 -0.7968 -1.3173 -2.3850
 2888SOL    HW220298   3.451   3.015   8.980 -0.8152  1.9116 -0.3089
 2889SOL     OW20299   3.711   1.138  16.137  0.4341  0.1796 -0.5885
 2889SOL    HW120300   3.734   1.214  16.190 -1.3726 -0.0029  0.4607
 2889SOL    HW220301   3.618   1.131  16.160  1.1169  2.2142  2.7639
 2890SOL     OW20302   3.019   3.218   3.119 -0.0588  0.1044 -0.9013
 2890SOL    HW120303   3.095   3.276   3.122  1.0279 -1.2960 -1.5614
 2890SOL    HW220304   2.950   3.278   3.148  0.9987  0.9893 -0.2240
 2891SOL     OW20305   3.760   4.323   5.574 -0.2036  0.4306 -0.8432
 2891SOL    HW120306   3.783   4.389   5.639  1.5407 -1.4218  0.4328
 2891SOL    HW220307   3.840   4.272   5.562 -0.5814 -0.7514  1.8199
 2892SOL     OW20308   3.807   3.808  12.228  0.4108  0.0162  0.4944
 2892SOL    HW120309   3.795   3.714  12.239  1.4270 -0.3005 -1.1052
 2892SOL    HW220310   3.848   3.824  12.314  2.8163  2.0241 -1.0107
 2893SOL     OW20311   1.004   4.434   5.931  0.1174  0.3902 -0.0724
 2893SOL    HW120312   0.974   4.403   6.016 -2.2094  0.9746 -0.6831
 2893SOL    HW220313   1.044   4.352   5.899 -1.2978 -0.7858  1.1807
 2894SOL     OW20314   1.604   4.603   4.341 -0.1718 -0.0005 -0.1989
 2894SOL    HW120315   1.631   4.626   4.430 -0.3709  0.4047 -0.2426
 2894SOL    HW220316   1.642   4.515   4.340 -1.3813 -0.5471  2.1712
 2895SOL     OW20317   1.718   4.453   5.091  0.3248 -0.0027 -0.3019
 2895SOL    HW120318   1.725   4.527   5.151  0.0896 -0.4890  0.3305
 2895SOL    HW220319   1.749   4.387   5.154 -3.1515  1.1775  2.6704
 2896SOL     OW20320   1.462   2.886  14.331 -0.1468  0.4809  0.5436
 2896SOL    HW120321   1.517   2.841  14.395  0.9004  0.5939 -0.2784
 2896SOL    HW220322   1.388   2.825  14.325 -1.1729  1.6898  0.9530
 2897SOL     OW20323   1.945   3.700   1.902 -0.1032 -0.0671  0.0507
 2897SOL    HW120324   1.899   3.771   1.859 -0.0416  1.0874  1.8978
 2897SOL    HW220325   1.994   3.747   1.969  0.2061 -2.0278  1.2113
 2898SOL     OW20326   2.121   2.532   4.146  0.0818 -0.0917 -0.1936
 2898SOL    HW120327   2.125   2.437   4.157 -0.5904 -0.0116  0.7681
 2898SOL    HW220328   2.097   2.541   4.054  0.5451  2.5228 -0.0718
 2899SOL     OW20329   0.952   4.674   3.247 -0.0929 -0.6818  0.1141
 2899SOL    HW120330   0.886   4.731   3.207  2.4563  2.4889  0.3759
 2899SOL    HW220331   1.017   0.004   3.258 -0.1300 -0.6718  0.2728
 2900SOL     OW20332   3.058   2.038  11.120  0.7223 -0.1603  0.0548
 2900SOL    HW120333   3.019   2.005  11.038  0.6599 -0.9258  0.3909
 2900SOL    HW220334   3.025   2.127  11.127  2.2325  0.3803  0.3591
 2901SOL     OW20335   4.710   3.349  11.124 -0.5366  0.2275  0.1215
 2901SOL    HW120336   4.696   3.260  11.156  2.5766  0.1169  1.1524
 2901SOL    HW220337   0.028   3.328  11.051 -1.3080  2.2106 -1.0778
 2902SOL     OW20338   4.255   4.353  15.074 -0.6656  0.1000  0.1957
 2902SOL    HW120339   4.209   4.302  15.008  0.4081 -1.9806  1.0364
 2902SOL    HW220340   4.250   4.443  15.041 -0.6153 -0.2605 -0.7911
 2903SOL     OW20341   1.628   1.348   8.983 -0.2769 -0.0283 -0.4619
 2903SOL    HW120342   1.548   1.366   8.933 -0.7970 -0.9308  0.0388
 2903SOL    HW220343   1.612   1.258   9.012 -0.2668  0.4668  1.0845
 2904SOL     OW20344   1.058   3.179   2.540  0.4251  0.5299 -0.0324
 2904SOL    HW120345   1.096   3.139   2.462 -0.9341 -0.1640 -0.3286
 2904SOL    HW220346   1.129   3.243   2.552  1.9553 -1.4714  1.6398
 2905SOL     OW20347   0.222   4.201   3.457  0.5263  0.1368 -0.7866
 2905SOL    HW120348   0.186   4.273   3.509  2.2766  0.2610  0.2619
 2905SOL    HW220349   0.233   4.243   3.372  2.4741 -0.6466 -0.9159
 2906SOL     OW20350   3.623   0.866   3.043 -0.0944  0.2886  0.1993
 2906SOL    HW120351   3.617   0.899   3.132  0.7237  0.2913  0.2585
 2906SOL    HW220352   3.686   0.932   3.013  1.0034 -0.4139  0.9544
 2907SOL     OW20353   3.816   1.532   8.724 -0.0412 -0.3895  0.6587
 2907SOL    HW120354   3.857   1.499   8.644  0.3853 -1.6903  1.4186
 2907SOL    HW220355   3.872   1.504   8.796  3.3480  1.0933 -1.4213
 2908SOL     OW20356   1.890   2.387  13.214 -0.2505 -0.2015 -0.0805
 2908SOL    HW120357   1.804   2.380  13.255 -0.5207 -1.5834 -0.9079
 2908SOL    HW220358   1.869   2.397  13.122  0.3506  0.8603 -0.1061
 2909SOL     OW20359   4.519   3.310  14.800  0.4424 -0.0751  0.3185
 2909SOL    HW120360   4.427   3.327  14.820  0.8199  0.8599  1.2987
 2909SOL    HW220361   4.522   3.243  14.733  0.1205  1.2383 -1.0191
 2910SOL     OW20362   3.147   4.149  15.354 -0.0379 -0.2561 -0.0765
 2910SOL    HW120363   3.091   4.202  15.298  0.8296  0.1102 -0.5963
 2910SOL    HW220364   3.109   4.062  15.339 -0.0482 -0.0017 -1.5545
 2911SOL     OW20365   4.006   4.704   8.082  0.3585 -0.0235  0.3167
 2911SOL    HW120366   4.041   0.049   8.058  1.4822 -0.9540 -1.3183
 2911SOL    HW220367   4.011   4.714   8.177  1.1842 -0.1367  0.2816
 2912SOL     OW20368   1.717   3.838   3.064 -0.1379  0.6779  0.2515
 2912SOL    HW120369   1.736   3.792   3.146 -1.0804  0.0005  0.0869
 2912SOL    HW220370   1.700   3.924   3.104 -1.8919 -0.1180  1.1944
 2913SOL     OW20371   1.327   2.871   7.309  0.1239 -0.2754  0.3012
 2913SOL    HW120372   1.373   2.892   7.228  3.2847 -0.1469  2.1161
 2913SOL    HW220373   1.259   2.939   7.306 -0.3717 -0.7973 -0.3870
 2914SOL     OW20374   1.864   2.114  16.647 -0.1180  0.3641 -0.0900
 2914SOL    HW120375   1.911   2.196  16.629  1.1993 -1.1143 -3.4513
 2914SOL    HW220376   1.818   2.140  16.727 -2.3902 -0.1770 -1.2140
 2915SOL     OW20377   2.707   3.962   8.752 -0.6406 -0.0770  0.6268
 2915SOL    HW120378   2.721   3.902   8.678  2.1840 -2.7260  3.3624
 2915SOL    HW220379   2.800   3.968   8.773 -0.9699  1.9340  1.4461
 2916SOL     OW20380   1.752   0.895   3.254 -0.2926 -0.6421  0.1674
 2916SOL    HW120381   1.745   0.801   3.273 -0.9644 -0.5585  0.3490
 2916SOL    HW220382   1.678   0.905   3.194 -1.0083 -2.1039  0.7895
 2917SOL     OW20383   1.903   1.733  10.974  0.0922  0.0711  0.1875
 2917SOL    HW120384   1.948   1.660  10.931 -0.7691  1.6484 -3.3681
 2917SOL    HW220385   1.978   1.780  11.012 -0.8596 -0.0432  2.2312
 2918SOL     OW20386   4.735   0.022   1.527 -0.4236 -0.5349 -0.1431
 2918SOL    HW120387   4.641   0.042   1.526 -0.5250 -0.9212  1.4039
 2918SOL    HW220388   4.735   4.688   1.466 -1.7220 -0.2644 -0.4716
 2919SOL     OW20389   0.929   1.981  10.791  0.8066 -0.2004  0.2498
 2919SOL    HW120390   0.959   2.027  10.869 -2.6820 -0.1017  1.4945
 2919SOL    HW220391   0.999   1.996  10.727  0.5805 -0.8969 -0.1629
 2920SOL     OW20392   2.366   0.757  11.747 -0.0206  0.1800 -0.3775
 2920SOL    HW120393   2.361   0.766  11.843  1.4398  2.8352 -0.5736
 2920SOL    HW220394   2.411   0.837  11.723  0.1642  0.2357  0.1415
 2921SOL     OW20395   3.239   4.056   8.034  0.0192  0.3304 -0.3260
 2921SOL    HW120396   3.227   4.144   8.071 -2.0268  0.1136 -0.4940
 2921SOL    HW220397   3.332   4.036   8.041 -0.1519  0.0763  1.3479
 2922SOL     OW20398   3.944   3.591   2.257 -0.5469 -0.7676 -0.5460
 2922SOL    HW120399   4.028   3.571   2.300  0.5549 -0.4542 -2.5479
 2922SOL    HW220400   3.970   3.666   2.203 -0.6755 -1.4977 -1.5968
 2923SOL     OW20401   1.319   1.279  12.887  0.1426  0.3448  0.3347
 2923SOL    HW120402   1.250   1.234  12.936 -0.0328 -1.4713 -1.5849
 2923SOL    HW220403   1.364   1.321  12.960 -0.7645  2.0169 -0.0423
 2924SOL     OW20404   3.943   4.253   0.499 -0.0957  0.3165 -0.5366
 2924SOL    HW120405   3.854   4.284   0.518 -0.5286 -0.3285 -1.5273
 2924SOL    HW220406   3.937   4.160   0.477 -2.5464 -0.1263  1.9312
 2925SOL     OW20407   3.119   2.820   8.289  0.0119  0.1316  0.2791
 2925SOL    HW120408   3.108   2.811   8.384  1.4135  0.1031  0.4434
 2925SOL    HW220409   3.027   2.802   8.272 -0.0358 -1.8630  2.6427
 2926SOL     OW20410   4.490   3.714   2.746  0.4630  0.0865  0.0369
 2926SOL    HW120411   4.528   3.787   2.697  0.7116 -1.0845 -1.5076
 2926SOL    HW220412   4.452   3.761   2.820 -1.2723 -1.4872  0.1616
 2927SOL     OW20413   2.143   1.837   3.494  0.1559 -0.6321  0.5759
 2927SOL    HW120414   2.232   1.806   3.510 -0.1609 -1.7021  0.2835
 2927SOL    HW220415   2.113   1.840   3.585  0.2047  0.3874  0.5601
 2928SOL     OW20416   1.386   1.118  16.817 -0.3795 -0.5645 -0.3358
 2928SOL    HW120417   1.318   1.131  16.750  0.8372 -0.5045 -1.5552
 2928SOL    HW220418   1.406   1.025  16.810 -0.0811 -0.4810 -0.5794
 2929SOL     OW20419   2.188   0.750   4.811  0.4134 -0.4044  0.0227
 2929SOL    HW120420   2.188   0.785   4.722  1.1936 -0.2231  0.0918
 2929SOL    HW220421   2.118   0.688   4.793  0.3635 -0.3000 -0.1379
 2930SOL     OW20422   1.733   2.164   3.909  0.3953 -0.7717 -0.2897
 2930SOL    HW120423   1.744   2.095   3.844  0.7342 -0.2014 -0.8392
 2930SOL    HW220424   1.822   2.174   3.942  0.1899  2.7339 -0.7557
 2931SOL     OW20425   2.473   2.177   5.732  0.1672  0.3997 -0.1423
 2931SOL    HW120426   2.385   2.141   5.728  0.2755  0.3625 -2.1094
 2931SOL    HW220427   2.455   2.258   5.684 -0.3168  1.0660  1.1734
 2932SOL     OW20428   0.921   4.333   8.249 -0.2144 -0.0202  0.0788
 2932SOL    HW120429   1.010   4.363   8.231 -0.9848  2.1632 -0.0085
 2932SOL    HW220430   0.900   4.386   8.325  0.4199 -0.5025  0.5877
 2933SOL     OW20431   1.882   3.068   9.671 -0.0475  0.2836  0.3884
 2933SOL    HW120432   1.840   3.129   9.611  1.2138  1.6611  0.8947
 2933SOL    HW220433   1.933   3.126   9.727  0.1481  0.3818  0.1078
 2934SOL     OW20434   0.398   3.402   5.342 -0.3209 -0.2020  0.2293
 2934SOL    HW120435   0.377   3.410   5.250 -2.3731  0.8868  0.8086
 2934SOL    HW220436   0.434   3.485   5.374 -1.4434  0.8868 -1.4029
 2935SOL     OW20437   1.960   1.423  15.445  0.4803  0.6964  0.0711
 2935SOL    HW120438   1.941   1.416  15.539 -1.8543 -0.5433 -0.5061
 2935SOL    HW220439   1.959   1.519  15.439 -2.3175  0.4954 -2.6886
 2936SOL     OW20440   2.571   3.106  10.874  0.0267 -0.3283 -0.0543
 2936SOL    HW120441   2.575   3.137  10.964  1.3837 -1.0075  0.1095
 2936SOL    HW220442   2.623   3.175  10.831 -0.8896  1.4115  1.6468
 2937SOL     OW20443   3.738   3.399   0.328 -0.1378 -0.4126 -0.2025
 2937SOL    HW120444   3.654   3.357   0.307 -0.2437 -0.4924  0.3913
 2937SOL    HW220445   3.767   3.407   0.237 -1.5621 -1.1817 -0.7355
 2938SOL     OW20446   3.184   4.471   9.373 -0.4505  0.0634 -0.0254
 2938SOL    HW120447   3.171   4.565   9.362  0.6604  0.0067 -1.9316
 2938SOL    HW220448   3.228   4.457   9.457  2.9708 -1.4420 -2.0615
 2939SOL     OW20449   1.290   2.212   2.676 -0.1504 -0.4265  0.7352
 2939SOL    HW120450   1.384   2.230   2.668 -0.1346 -0.4273  0.9249
 2939SOL    HW220451   1.273   2.151   2.605 -0.0158 -0.4566  0.7283
 2940SOL     OW20452   0.573   1.382  13.374  0.3149 -0.5886 -0.4129
 2940SOL    HW120453   0.554   1.386  13.281 -0.4870  1.0170 -0.1782
 2940SOL    HW220454   0.616   1.296  13.376 -0.0513 -0.7292  2.0430
 2941SOL     OW20455   2.611   1.871  17.230  0.8187 -0.0398  0.1492
 2941SOL    HW120456   2.700   1.836  17.227  1.2259  1.1663 -1.7864
 2941SOL    HW220457   2.563   1.835  17.157  0.7511 -1.7044  1.0219
 2942SOL     OW20458   1.648   4.239   0.874  0.5099  0.2896  0.6769
 2942SOL    HW120459   1.656   4.323   0.829  1.6925 -0.4868 -0.5637
 2942SOL    HW220460   1.606   4.185   0.807  1.0211  0.4894  0.1971
 2943SOL     OW20461   4.220   3.903   2.476 -0.1281 -0.2742 -0.0292
 2943SOL    HW120462   4.229   3.988   2.433  3.2047 -0.7655 -0.2871
 2943SOL    HW220463   4.284   3.857   2.421  0.6516  1.2632 -0.4126
 2944SOL     OW20464   2.095   0.726  10.856  0.3309  0.2043 -0.4857
 2944SOL    HW120465   2.062   0.753  10.942  1.2812  1.6358 -0.5792
 2944SOL    HW220466   2.131   0.807  10.821 -0.0798  0.6462  0.1157
 2945SOL     OW20467   3.052   0.505  16.936 -0.0191  0.3113  0.0192
 2945SOL    HW120468   3.104   0.431  16.906 -0.8386  0.5878 -2.0739
 2945SOL    HW220469   3.103   0.584  16.916  0.3353 -0.3958 -1.8838
 2946SOL     OW20470   0.119   0.377   4.117 -0.5949  0.2090 -0.0109
 2946SOL    HW120471   0.171   0.298   4.116 -0.3104  0.3943  0.1392
 2946SOL    HW220472   0.184   0.447   4.108  1.5473 -1.6591  1.0734
 2947SOL     OW20473   4.252   3.271  14.679 -0.4723 -0.0957 -0.1408
 2947SOL    HW120474   4.287   3.182  14.691  0.4722  0.1748 -0.9517
 2947SOL    HW220475   4.299   3.292  14.598 -1.5615  0.2895 -0.6646
 2948SOL     OW20476   3.023   4.542   5.817 -0.0213  0.4366  0.0669
 2948SOL    HW120477   3.028   4.510   5.907 -1.6681 -0.4383 -0.1530
 2948SOL    HW220478   2.960   4.477   5.786  0.4378 -0.9574  2.0805
 2949SOL     OW20479   3.957   0.628  14.203 -0.6303 -0.5221 -0.3078
 2949SOL    HW120480   3.889   0.634  14.269 -2.0268 -0.5308 -1.7612
 2949SOL    HW220481   3.931   0.549  14.155  0.6987 -1.1999  0.0791
 2950SOL     OW20482   0.327   3.848  15.188 -0.2171  0.1941 -0.5509
 2950SOL    HW120483   0.362   3.935  15.205  1.8017 -0.5811 -0.6566
 2950SOL    HW220484   0.367   3.781  15.244 -1.6705  1.4912  2.0215
 2951SOL     OW20485   1.764   3.914   0.620 -0.1620 -0.3929  0.2900
 2951SOL    HW120486   1.810   3.830   0.622 -2.0229 -1.3632  2.7841
 2951SOL    HW220487   1.778   3.933   0.528 -1.4143  2.1586  0.6472
 2952SOL     OW20488   4.660   0.984   2.601 -0.7483  0.1826  0.2089
 2952SOL    HW120489   4.681   1.031   2.682 -2.6948  2.6080 -0.7032
 2952SOL    HW220490   4.569   1.008   2.585 -0.4216  1.1301 -0.2288
 2953SOL     OW20491   2.550   4.673   1.917  0.0185  0.1487 -0.2074
 2953SOL    HW120492   2.538   4.672   2.012 -0.5395 -0.9313 -0.2897
 2953SOL    HW220493   2.484   4.611   1.888  0.1732 -0.1302  0.0359
 2954SOL     OW20494   4.313   0.297  15.224 -0.3126 -0.1960 -0.4883
 2954SOL    HW120495   4.281   0.250  15.300 -0.7504 -0.3230 -0.7493
 2954SOL    HW220496   4.392   0.340  15.258 -0.6929  0.7277 -0.7513
 2955SOL     OW20497   3.217   1.010   3.242 -0.5443 -0.4203 -0.2728
 2955SOL    HW120498   3.205   0.983   3.151  1.9302  2.2872 -1.3918
 2955SOL    HW220499   3.134   1.050   3.268  0.0558 -0.6167  1.9547
 2956SOL     OW20500   0.720   1.814   2.779 -0.0744  0.1265 -0.2939
 2956SOL    HW120501   0.682   1.773   2.702 -1.4414 -0.4128  0.6707
 2956SOL    HW220502   0.814   1.802   2.765 -0.2046 -1.0521 -0.1055
 2957SOL     OW20503   2.658   2.065   2.606  0.1670  0.2330 -0.3364
 2957SOL    HW120504   2.583   2.024   2.561  0.0475 -0.4429  0.4795
 2957SOL    HW220505   2.706   2.094   2.529  0.3149  2.2392  0.5264
 2958SOL     OW20506   3.328   3.794  16.009  0.2316  0.5707  0.5302
 2958SOL    HW120507   3.279   3.860  15.959 -1.9797 -1.9048 -0.5755
 2958SOL    HW220508   3.407   3.774  15.959 -1.4638 -1.5405 -1.2916
 2959SOL     OW20509   2.179   1.611   7.976 -0.1938  0.9118 -0.2570
 2959SOL    HW120510   2.156   1.521   7.955  0.7046  0.7299 -0.4671
 2959SOL    HW220511   2.110   1.648   8.031  1.8979 -0.7045  3.4434
 2960SOL     OW20512   1.563   3.129  11.641 -0.2117 -0.7892 -0.0719
 2960SOL    HW120513   1.614   3.105  11.718 -0.1407  0.0570  0.1461
 2960SOL    HW220514   1.633   3.131  11.575 -0.3139  0.0614 -0.1597
 2961SOL     OW20515   4.165   3.832   6.208  0.3240  0.2814 -0.3123
 2961SOL    HW120516   4.086   3.786   6.236  1.3825 -0.8207  0.8742
 2961SOL    HW220517   4.220   3.833   6.286 -2.5644  0.5695  1.7034
 2962SOL     OW20518   0.075   3.349   8.563  0.5869 -0.4396 -0.5988
 2962SOL    HW120519   0.053   3.301   8.642 -2.3158  1.5313 -0.2014
 2962SOL    HW220520   0.099   3.291   8.491  3.8630 -1.1629  1.0507
 2963SOL     OW20521   1.128   2.110  12.030  0.1437  0.8465  0.1635
 2963SOL    HW120522   1.073   2.148  12.099 -0.6445  1.9490 -1.0912
 2963SOL    HW220523   1.213   2.108  12.076  0.8180  3.0990 -0.9957
 2964SOL     OW20524   4.065   1.159   7.339  0.1047 -0.8089 -0.5496
 2964SOL    HW120525   4.032   1.249   7.341 -0.0672 -0.8291 -2.7822
 2964SOL    HW220526   4.028   1.117   7.417 -0.1155  0.4196  0.0094
 2965SOL     OW20527   4.042   4.266   4.741 -0.7826 -0.1288 -0.2246
 2965SOL    HW120528   4.083   4.195   4.791  0.9270  0.4050 -0.8697
 2965SOL    HW220529   3.981   4.224   4.680  0.8128 -0.4233 -1.6337
 2966SOL     OW20530   0.765   0.896   2.476  0.5432 -0.1906 -0.0321
 2966SOL    HW120531   0.755   0.807   2.509  1.2737  0.0523  0.8431
 2966SOL    HW220532   0.746   0.951   2.553  1.0481  0.9802 -0.7442
 2967SOL     OW20533   1.217   1.132   3.402  0.4816 -0.1826 -0.6278
 2967SOL    HW120534   1.148   1.076   3.367  2.3342 -2.2656 -0.9970
 2967SOL    HW220535   1.162   1.208   3.420 -2.0721 -1.9154 -1.1395
 2968SOL     OW20536   3.015   4.107  17.613 -0.4252 -0.7408 -0.1591
 2968SOL    HW120537   3.037   4.019  17.581 -1.4690 -0.6898 -1.0215
 2968SOL    HW220538   3.071   4.109  17.690 -1.9641  0.1781  0.9321
 2969SOL     OW20539   4.154   1.011   6.376 -0.6214 -0.1132  0.1513
 2969SOL    HW120540   4.136   1.078   6.309  0.7782 -0.9715 -1.1078
 2969SOL    HW220541   4.088   1.018   6.444  0.8930 -0.0651  1.6157
 2970SOL     OW20542   1.178   4.511   3.956  0.1269 -0.8585  0.3478
 2970SOL    HW120543   1.142   4.600   3.957  1.3053 -0.3824  0.7217
 2970SOL    HW220544   1.244   4.508   4.025  1.4634  0.0262 -0.8903
 2971SOL     OW20545   2.024   1.264  11.438 -0.2810  0.2653  0.1110
 2971SOL    HW120546   1.956   1.326  11.411 -2.1037 -0.2300  3.5596
 2971SOL    HW220547   1.968   1.196  11.475  1.1320 -1.5090 -1.0171
 2972SOL     OW20548   1.129   0.624   2.892 -0.4290  0.1494  0.0416
 2972SOL    HW120549   1.075   0.689   2.846  1.9600  1.2936 -1.0997
 2972SOL    HW220550   1.066   0.594   2.958  1.9827 -2.2229  1.2329
 2973SOL     OW20551   3.001   2.572   3.507  0.0926  0.0930 -0.4672
 2973SOL    HW120552   3.066   2.622   3.558 -0.3203  2.0057 -1.8051
 2973SOL    HW220553   2.922   2.581   3.560  1.0902 -1.6297  1.3331
 2974SOL     OW20554   4.208   3.182   5.333  0.1024  0.3967  0.3446
 2974SOL    HW120555   4.241   3.098   5.301  0.1615  0.7091 -0.3994
 2974SOL    HW220556   4.291   3.224   5.356  1.4034 -1.5493 -0.8423
 2975SOL     OW20557   4.258   3.713   9.780  0.6322 -0.0371 -0.6928
 2975SOL    HW120558   4.164   3.699   9.776  0.4286  1.2072 -0.0844
 2975SOL    HW220559   4.273   3.770   9.856 -0.0911 -0.3666 -0.3056
 2976SOL     OW20560   4.700   0.477   3.896  0.0498 -0.4319  0.9413
 2976SOL    HW120561   0.008   0.419   3.955  1.2262 -1.3585 -0.8999
 2976SOL    HW220562   4.623   0.492   3.951 -2.3320 -1.5985 -2.0273
 2977SOL     OW20563   1.234   4.261  16.637  0.1046 -0.1425  0.0061
 2977SOL    HW120564   1.203   4.337  16.685 -1.9835 -1.1059  0.2036
 2977SOL    HW220565   1.231   4.293  16.547 -0.9545  1.0978  0.4782
 2978SOL     OW20566   1.544   3.932   9.813  0.7670 -0.1753  0.1215
 2978SOL    HW120567   1.596   3.876   9.870 -1.2656 -0.8491  1.2991
 2978SOL    HW220568   1.554   3.898   9.724  1.0946 -2.1669  0.9081
 2979SOL     OW20569   1.684   1.738  14.619 -0.1592  0.1635  0.3291
 2979SOL    HW120570   1.614   1.694  14.668 -0.6133 -0.3768 -0.8070
 2979SOL    HW220571   1.678   1.690  14.537  1.4476  2.4371 -1.1160
 2980SOL     OW20572   2.736   2.704   7.670  0.7004  0.0670  0.4598
 2980SOL    HW120573   2.693   2.654   7.739  1.3428 -0.0561  0.7676
 2980SOL    HW220574   2.696   2.791   7.667  0.0104 -0.3012 -1.2200
 2981SOL     OW20575   0.528   2.778   6.630 -0.4600  0.6913 -0.2184
 2981SOL    HW120576   0.482   2.696   6.618  0.6090 -0.0589  0.7962
 2981SOL    HW220577   0.583   2.751   6.704 -2.0069 -1.1623  0.2427
 2982SOL     OW20578   1.798   2.819   9.416 -0.5570 -0.7406 -0.3661
 2982SOL    HW120579   1.735   2.779   9.356 -1.4965 -0.4998  0.4450
 2982SOL    HW220580   1.732   2.826   9.485 -0.0064  0.6212  0.0143
 2983SOL     OW20581   2.452   2.838   7.931 -0.4494  0.2556  0.8409
 2983SOL    HW120582   2.359   2.854   7.920  0.0306  2.5783  0.2242
 2983SOL    HW220583   2.453   2.825   8.026  0.2920  0.2693  0.8360
 2984SOL     OW20584   0.458   3.031   2.289  0.0942 -0.4658  1.3992
 2984SOL    HW120585   0.371   2.997   2.311  0.5782 -1.8442  1.1532
 2984SOL    HW220586   0.419   3.097   2.231 -0.9107 -0.9959  1.4778
 2985SOL     OW20587   2.144   4.186   4.718 -0.1159 -0.0985  0.0635
 2985SOL    HW120588   2.212   4.119   4.708 -1.1784 -1.1756  0.0446
 2985SOL    HW220589   2.175   4.255   4.659  0.7571 -1.5218 -1.1844
 2986SOL     OW20590   2.772   0.933   5.030  0.2051 -0.2965 -0.1127
 2986SOL    HW120591   2.793   0.885   4.949  1.7218  2.4607 -1.3662
 2986SOL    HW220592   2.754   1.023   5.001 -2.1814 -0.6591  0.2708
 2987SOL     OW20593   4.236   2.137   3.672 -0.1693  0.3702  0.4491
 2987SOL    HW120594   4.265   2.073   3.737  0.3791 -0.7209 -0.8675
 2987SOL    HW220595   4.304   2.123   3.606  0.7573  1.3660  1.2000
 2988SOL     OW20596   0.467   2.625   3.350  0.5413 -0.3655 -0.6694
 2988SOL    HW120597   0.392   2.648   3.297  0.4568  1.4348  0.2163
 2988SOL    HW220598   0.522   2.575   3.290 -0.3029 -0.4711 -1.3517
 2989SOL     OW20599   4.275   0.855   0.823  0.0225  0.4494 -0.5396
 2989SOL    HW120600   4.198   0.801   0.802  0.8061 -1.6675  2.0290
 2989SOL    HW220601   4.337   0.838   0.752  1.4871  0.5036  0.7390
 2990SOL     OW20602   0.500   4.253   5.818  0.1533 -0.1076 -0.2632
 2990SOL    HW120603   0.592   4.229   5.832  0.7219  1.2360 -1.6382
 2990SOL    HW220604   0.469   4.210   5.738 -1.0551 -0.2676  0.3057
 2991SOL     OW20605   3.828   1.525   2.775 -0.1999 -0.4116  0.2218
 2991SOL    HW120606   3.758   1.587   2.751  1.2134  0.5817 -1.3981
 2991SOL    HW220607   3.811   1.460   2.707  0.4956  0.0551 -0.3994
 2992SOL     OW20608   0.158   1.297   5.772 -0.7887  0.1457 -0.0381
 2992SOL    HW120609   0.216   1.333   5.706  0.0365  0.4851  0.8710
 2992SOL    HW220610   0.152   1.203   5.754 -1.1065  0.2570 -0.5155
 2993SOL     OW20611   2.470   3.601   4.259 -0.4826 -0.0047 -0.1375
 2993SOL    HW120612   2.408   3.564   4.322 -0.5654 -1.0148 -0.8130
 2993SOL    HW220613   2.548   3.549   4.279 -1.1156 -1.7355 -2.2446
 2994SOL     OW20614   1.576   1.541  11.935 -0.2544 -0.1091 -0.6868
 2994SOL    HW120615   1.637   1.469  11.953 -0.4547 -0.3607 -1.0173
 2994SOL    HW220616   1.624   1.591  11.868  0.5711 -0.7094 -0.5487
 2995SOL     OW20617   0.366   1.071  15.149  0.2645 -0.4447  0.0327
 2995SOL    HW120618   0.274   1.095  15.136  0.5111  1.8064  2.3663
 2995SOL    HW220619   0.357   0.979  15.171 -0.2336 -0.4688 -0.2816
 2996SOL     OW20620   1.009   1.036   3.868 -0.2690  0.1782 -0.5130
 2996SOL    HW120621   1.094   0.993   3.872  0.1753  1.2517  1.2483
 2996SOL    HW220622   1.036   1.124   3.842  0.3965  0.7680  2.2115
 2997SOL     OW20623   2.726   4.132   9.270  0.1388  0.1729  0.3668
 2997SOL    HW120624   2.666   4.072   9.225 -1.7199 -0.2192  3.3226
 2997SOL    HW220625   2.672   4.136   9.349 -1.1348 -0.9147 -0.4552
 2998SOL     OW20626   0.627   4.261  17.183  0.1202 -0.0940 -0.0756
 2998SOL    HW120627   0.670   4.320  17.244  0.7300 -1.1539  0.5295
 2998SOL    HW220628   0.695   4.199  17.157  0.2487 -0.9022  2.2743
 2999SOL     OW20629   3.509   3.175   8.300  0.1398  0.0090 -0.4291
 2999SOL    HW120630   3.579   3.238   8.309  0.0115  0.3862 -2.0975
 2999SOL    HW220631   3.431   3.219   8.335  0.6739  0.4940  0.1329
 3000SOL     OW20632   4.365   4.603   7.430 -0.0272 -0.3899  0.4913
 3000SOL    HW120633   4.315   4.682   7.407 -0.0573  0.0247  1.9657
 3000SOL    HW220634   4.403   4.559   7.354 -0.9445  1.3655 -0.9920
 3001SOL     OW20635   0.923   0.230   2.964  0.5771  0.3445 -0.3080
 3001SOL    HW120636   0.896   0.289   2.894  0.9038  1.6377  0.6709
 3001SOL    HW220637   0.995   0.182   2.923  1.4517 -0.9001  2.7267
 3002SOL     OW20638   4.602   1.646  10.985  1.0362 -0.3293  0.4167
 3002SOL    HW120639   4.583   1.698  11.063  0.7041 -0.3066  0.3222
 3002SOL    HW220640   4.599   1.558  11.022  0.8495 -0.3190  0.4305
 3003SOL     OW20641   0.416   2.239   4.853 -0.0165 -0.3580 -0.1335
 3003SOL    HW120642   0.381   2.206   4.936 -0.6260  0.3713 -0.1013
 3003SOL    HW220643   0.394   2.330   4.870 -0.0183  0.1297 -2.8223
 3004SOL     OW20644   4.608   4.382   4.849 -0.4228 -0.7648  0.5558
 3004SOL    HW120645   4.525   4.362   4.808  0.7206 -1.1116 -1.6020
 3004SOL    HW220646   4.663   4.321   4.800  0.2951 -1.5968  2.4276
 3005SOL     OW20647   3.635   4.082   5.521  0.1933  0.3935  0.1043
 3005SOL    HW120648   3.674   4.169   5.514  0.3394  0.3672  0.6011
 3005SOL    HW220649   3.630   4.068   5.615 -0.9790  2.6335  0.3768
 3006SOL     OW20650   1.271   3.660   5.209  0.8898 -0.0961  0.3750
 3006SOL    HW120651   1.178   3.645   5.193  0.8611  0.9102 -0.4020
 3006SOL    HW220652   1.260   3.703   5.293  3.3143 -0.5322  0.9283
 3007SOL     OW20653   0.088   1.358   2.957 -0.1703 -0.1457  0.3188
 3007SOL    HW120654   0.151   1.324   3.020  1.2522  0.8178 -0.5967
 3007SOL    HW220655   0.142   1.424   2.914 -0.3184 -0.1301  0.1550
 3008SOL     OW20656   2.825   3.920  13.258 -0.3195  0.3062 -0.4481
 3008SOL    HW120657   2.892   3.913  13.189 -0.0448  1.0031 -0.2428
 3008SOL    HW220658   2.856   3.995  13.308 -0.6006  1.7988 -2.5092
 3009SOL     OW20659   3.356   1.839  16.565 -0.3337 -0.0057 -0.1741
 3009SOL    HW120660   3.260   1.841  16.564 -0.3376 -0.5069 -1.0386
 3009SOL    HW220661   3.374   1.825  16.658  2.6535 -1.4742 -0.9614
 3010SOL     OW20662   1.706   3.377   6.352 -0.2954  0.1198  0.2685
 3010SOL    HW120663   1.640   3.308   6.361 -2.4331  2.3959  1.6891
 3010SOL    HW220664   1.787   3.330   6.332 -0.8038 -0.3565 -0.6790
 3011SOL     OW20665   2.123   4.557   7.947 -0.4388  0.0611  0.3489
 3011SOL    HW120666   2.200   4.505   7.926  0.1703  1.5798 -1.1520
 3011SOL    HW220667   2.159   4.638   7.983 -1.2809  0.3109  0.6240
 3012SOL     OW20668   4.134   3.394   9.683 -0.5751 -0.1514 -0.1282
 3012SOL    HW120669   4.213   3.400   9.737 -0.3458  0.8905 -0.5714
 3012SOL    HW220670   4.145   3.474   9.631  1.6156 -0.3332  0.0576
 3013SOL     OW20671   2.406   3.762   7.235 -0.3982 -0.1101  0.4481
 3013SOL    HW120672   2.457   3.703   7.179 -1.5828  0.8829 -1.6408
 3013SOL    HW220673   2.357   3.698   7.286  1.1271 -0.6807  1.2180
 3014SOL     OW20674   0.851   1.337   5.857 -0.5021  0.6040  0.0547
 3014SOL    HW120675   0.769   1.375   5.889 -0.0057  1.8757 -0.1954
 3014SOL    HW220676   0.871   1.259   5.909 -1.1709  0.7587  0.5344
 3015SOL     OW20677   0.330   4.654   4.187 -0.5500  0.0003  0.7749
 3015SOL    HW120678   0.276   4.619   4.116 -0.7707 -0.0855  0.9869
 3015SOL    HW220679   0.401   4.591   4.183 -0.5836 -0.2443  3.8052
 3016SOL     OW20680   1.724   1.695   5.665  0.5980 -0.1085  0.2147
 3016SOL    HW120681   1.710   1.601   5.678 -1.9388  0.1880 -0.2476
 3016SOL    HW220682   1.679   1.734   5.741  1.6191  1.0894  0.2015
 3017SOL     OW20683   0.281   1.497  10.644 -0.3014 -0.1463  0.2615
 3017SOL    HW120684   0.217   1.542  10.589 -0.6935  0.2913  1.0709
 3017SOL    HW220685   0.303   1.416  10.598 -1.7667 -1.8915  2.6474
 3018SOL     OW20686   3.046   3.304   8.855  0.1281  0.3710 -0.6123
 3018SOL    HW120687   3.075   3.299   8.946 -0.3531  1.7235 -0.3933
 3018SOL    HW220688   3.048   3.398   8.840  0.7911  0.3281 -0.7822
 3019SOL     OW20689   3.769   2.176   4.419  0.1378  0.1159 -0.1647
 3019SOL    HW120690   3.822   2.252   4.391  0.1203 -0.1152 -0.8176
 3019SOL    HW220691   3.717   2.173   4.339  0.9697 -1.3337 -0.6413
 3020SOL     OW20692   2.546   4.311  11.216  0.5628 -0.3404 -0.0352
 3020SOL    HW120693   2.580   4.389  11.174  1.0872 -0.6169 -0.1187
 3020SOL    HW220694   2.624   4.256  11.214  2.0198  1.7479 -0.2072
 3021SOL     OW20695   3.671   4.047   5.787  0.5708  0.3834  0.1732
 3021SOL    HW120696   3.686   3.991   5.864 -0.1118  0.7211  0.5496
 3021SOL    HW220697   3.685   4.129   5.834 -0.0067  0.6960 -0.2031
 3022SOL     OW20698   2.152   0.213   1.103 -0.5156 -0.0058 -0.0235
 3022SOL    HW120699   2.237   0.169   1.094 -0.2233  0.3036  1.1256
 3022SOL    HW220700   2.135   0.244   1.014  0.1242  2.5399  0.7214
 3023SOL     OW20701   2.357   1.028  11.096  0.2054 -0.1347  0.0607
 3023SOL    HW120702   2.304   1.107  11.097  0.1525 -0.1653 -0.4409
 3023SOL    HW220703   2.303   0.958  11.132  0.3644 -0.4167 -0.2456
 3024SOL     OW20704   3.440   0.937   8.186 -0.2157 -0.3650 -0.0617
 3024SOL    HW120705   3.424   0.846   8.210  3.2436 -1.0876 -0.5223
 3024SOL    HW220706   3.489   0.978   8.257  2.6188 -0.3126 -2.0206
 3025SOL     OW20707   0.653   1.667   4.027 -0.0773 -0.1857 -0.5275
 3025SOL    HW120708   0.740   1.628   4.021  0.6840  1.4015  0.1645
 3025SOL    HW220709   0.650   1.714   4.111  2.4041  1.5246 -1.4187
 3026SOL     OW20710   1.410   3.795  13.342 -0.0896 -0.5715 -0.1044
 3026SOL    HW120711   1.342   3.746  13.388 -0.7616  0.6263  0.1889
 3026SOL    HW220712   1.489   3.752  13.374  1.2989  0.2384 -2.4545
 3027SOL     OW20713   0.982   3.928   5.450 -0.1298 -0.5504 -0.4482
 3027SOL    HW120714   0.923   3.961   5.518 -0.2727 -1.9269  0.0786
 3027SOL    HW220715   0.927   3.859   5.415 -0.7875 -0.4639  0.4181
 3028SOL     OW20716   1.535   1.875   6.827  0.1117  0.2110 -0.0393
 3028SOL    HW120717   1.575   1.896   6.743  2.3079  0.7149  1.1528
 3028SOL    HW220718   1.557   1.783   6.841  0.1651  0.1554 -0.5126
 3029SOL     OW20719   3.886   4.547   7.130 -0.1541  0.0016  0.4609
 3029SOL    HW120720   3.888   4.524   7.223 -0.2704 -0.6147  0.3155
 3029SOL    HW220721   3.978   4.557   7.107  0.2775 -0.0480  2.1625
 3030SOL     OW20722   3.615   3.563   5.267 -0.5550 -0.2638  0.4706
 3030SOL    HW120723   3.706   3.591   5.259 -0.9372  1.5661  2.5200
 3030SOL    HW220724   3.623   3.475   5.304  3.1724 -0.0041  0.2278
 3031SOL     OW20725   1.815   0.611   4.995 -0.9431 -0.3231  0.3242
 3031SOL    HW120726   1.759   0.689   5.003  0.0205  0.2621  1.3764
 3031SOL    HW220727   1.789   0.551   5.065 -2.2056  0.4452  0.5201
 3032SOL     OW20728   2.371   3.533   0.582 -0.0383 -0.3093 -0.1681
 3032SOL    HW120729   2.440   3.593   0.610  0.2970 -0.5384 -0.5032
 3032SOL    HW220730   2.371   3.552   0.488  1.5192 -0.5269 -0.2164
 3033SOL     OW20731   4.611   2.002   6.013 -0.7774 -0.1859 -0.1493
 3033SOL    HW120732   4.566   1.924   5.979 -1.1513 -0.0614  0.0595
 3033SOL    HW220733   4.703   1.980   6.029 -0.6234  0.9901  0.5760
 3034SOL     OW20734   4.502   2.868   7.492  0.2177  0.0848 -0.0207
 3034SOL    HW120735   4.566   2.847   7.424 -1.1067 -1.0430 -0.8990
 3034SOL    HW220736   4.525   2.813   7.568 -2.1289 -0.1318  0.5157
 3035SOL     OW20737   0.202   1.403   4.001 -0.0849 -0.4434  0.1396
 3035SOL    HW120738   0.127   1.352   4.033  0.5938 -0.4098  1.7936
 3035SOL    HW220739   0.239   1.336   3.944  1.7169  2.1305 -1.6692
 3036SOL     OW20740   4.522   0.130   9.987 -0.0076 -0.0525 -0.0545
 3036SOL    HW120741   4.460   0.131  10.060  1.6386  1.5636  1.3276
 3036SOL    HW220742   4.466   0.157   9.914 -0.7884  0.0243  0.5734
 3037SOL     OW20743   1.162   3.763   6.515  0.1536  0.1636  0.1340
 3037SOL    HW120744   1.144   3.739   6.606  0.1073  0.9987  0.3446
 3037SOL    HW220745   1.074   3.766   6.478 -0.6456 -1.9089  1.8791
 3038SOL     OW20746   2.377   3.971   9.648  0.3742  0.1537  0.2092
 3038SOL    HW120747   2.449   3.932   9.598  1.1534 -2.4585  3.3610
 3038SOL    HW220748   2.343   4.037   9.587 -0.8208 -0.7728 -0.1103
 3039SOL     OW20749   0.528   2.429   9.596  0.0920  0.3279  1.0173
 3039SOL    HW120750   0.534   2.347   9.645  1.6914  0.2743  0.7322
 3039SOL    HW220751   0.602   2.477   9.633  1.5139 -0.2075 -1.1269
 3040SOL     OW20752   4.219   4.061   0.297 -0.3797  0.2389  0.1881
 3040SOL    HW120753   4.159   4.129   0.267 -0.1389  0.2601 -0.2485
 3040SOL    HW220754   4.211   3.992   0.231 -1.7720  0.8320 -0.2573
 3041SOL     OW20755   1.470   4.419   2.749  0.0446  0.4042 -0.7008
 3041SOL    HW120756   1.529   4.490   2.724 -1.1091  0.7731 -2.4345
 3041SOL    HW220757   1.400   4.461   2.799 -0.1505 -2.8264  1.6756
 3042SOL     OW20758   0.572   3.350   7.446 -0.2868  0.3595  0.9095
 3042SOL    HW120759   0.503   3.290   7.474  0.6080 -2.2215 -2.4089
 3042SOL    HW220760   0.629   3.361   7.522 -1.5782 -3.9581  2.4985
 3043SOL     OW20761   2.659   2.763   6.178 -0.0047 -0.0074 -0.0575
 3043SOL    HW120762   2.702   2.687   6.216  2.2337  1.4040  0.2326
 3043SOL    HW220763   2.637   2.736   6.089 -0.1691  1.7671 -0.5550
 3044SOL     OW20764   2.542   4.688   6.279 -0.2239  0.2610  0.1853
 3044SOL    HW120765   2.586   4.606   6.256  0.3692 -0.1479  2.7677
 3044SOL    HW220766   2.457   4.675   6.237  0.6915 -1.3637 -1.1936
 3045SOL     OW20767   1.725   0.446  11.074  0.0844 -0.1938  0.0055
 3045SOL    HW120768   1.794   0.460  11.139  0.5087 -1.5180 -0.1746
 3045SOL    HW220769   1.656   0.484  11.129  1.7291  1.5117  0.8917
 3046SOL     OW20770   3.379   1.259   6.277  0.0884  0.1411 -0.2444
 3046SOL    HW120771   3.400   1.343   6.318  3.0403 -0.2594 -0.8998
 3046SOL    HW220772   3.456   1.244   6.222  0.0986  0.5120 -0.3386
 3047SOL     OW20773   1.803   1.909   9.156  0.3968 -0.4616  0.1459
 3047SOL    HW120774   1.859   1.867   9.222  1.4412 -1.1650 -1.1967
 3047SOL    HW220775   1.826   2.001   9.166 -0.7529 -0.0146 -1.3419
 3048SOL     OW20776   4.650   4.076   8.546  0.0349 -0.0013 -0.2754
 3048SOL    HW120777   4.734   4.122   8.550  0.4470 -0.7197 -0.6915
 3048SOL    HW220778   4.605   4.141   8.491 -2.5121 -2.9553 -1.6493
 3049SOL     OW20779   4.187   3.841   7.581 -0.4180 -0.9267  0.4791
 3049SOL    HW120780   4.256   3.813   7.642 -0.2736 -1.7609 -0.0697
 3049SOL    HW220781   4.153   3.755   7.557  2.3725 -1.8856  0.0781
 3050SOL     OW20782   3.915   2.245   2.448  0.3459 -0.1915  0.2273
 3050SOL    HW120783   3.940   2.155   2.427  3.8554  0.4140  1.8338
 3050SOL    HW220784   3.820   2.241   2.457  0.2893 -0.8728 -0.6383
 3051SOL     OW20785   3.647   1.167  16.474 -0.4653  0.2442  0.5637
 3051SOL    HW120786   3.665   1.216  16.555 -0.3109  1.4460 -0.2021
 3051SOL    HW220787   3.711   1.211  16.417  0.0539 -2.7462 -1.1253
 3052SOL     OW20788   4.289   4.352  14.592 -0.3930  0.4283 -0.0421
 3052SOL    HW120789   4.347   4.402  14.536  1.9762 -1.8848  0.3528
 3052SOL    HW220790   4.212   4.330  14.538 -1.2106 -0.2718  1.4044
 3053SOL     OW20791   1.108   4.431   8.950 -0.2770 -0.0052 -0.1920
 3053SOL    HW120792   1.193   4.387   8.944 -0.2952 -0.2088  0.9343
 3053SOL    HW220793   1.143   4.480   9.025 -2.6921  2.1147 -0.4617
 3054SOL     OW20794   0.797   0.549   5.079 -0.8125  0.2895  0.4849
 3054SOL    HW120795   0.818   0.610   5.150  0.1462 -0.0872  0.5250
 3054SOL    HW220796   0.816   0.465   5.121 -1.6244 -1.1103 -1.9804
 3055SOL     OW20797   3.002   3.277   1.144 -0.2685 -0.0418 -0.6240
 3055SOL    HW120798   2.948   3.272   1.065 -0.7786  2.4035 -0.4289
 3055SOL    HW220799   3.002   3.372   1.141 -3.1402 -0.0686 -0.7971
 3056SOL     OW20800   1.149   3.194   8.060  0.2559  0.1479 -0.0737
 3056SOL    HW120801   1.079   3.184   8.123  0.4279  2.1094  0.4153
 3056SOL    HW220802   1.218   3.177   8.124  0.3069  3.7854  0.8001
 3057SOL     OW20803   3.812   4.630  16.665 -0.0663 -0.0905  0.2613
 3057SOL    HW120804   3.833   4.646  16.574  0.3637  1.0149  0.5542
 3057SOL    HW220805   3.900   4.614  16.699 -0.0052 -2.1079 -0.8999
 3058SOL     OW20806   1.576   0.017  16.396 -0.0038  0.2620 -0.0256
 3058SOL    HW120807   1.580   0.052  16.485  0.3941 -0.1438  0.1151
 3058SOL    HW220808   1.540   0.097  16.356 -2.2034  0.6937  2.8821
 3059SOL     OW20809   4.699   1.661  16.412  0.0867  0.0852 -0.0084
 3059SOL    HW120810   4.655   1.577  16.429  1.1880  0.0056  2.5205
 3059SOL    HW220811   4.624   1.720  16.419  0.1195  0.3392 -1.9826
 3060SOL     OW20812   4.465   0.384   7.545  0.4914  0.0827  0.1242
 3060SOL    HW120813   4.520   0.342   7.479 -1.1627  0.8907 -1.7521
 3060SOL    HW220814   4.381   0.371   7.501  0.7073 -3.4535  0.7806
 3061SOL     OW20815   4.589   2.238  12.300 -0.7383 -0.0492  0.4638
 3061SOL    HW120816   4.622   2.285  12.377  3.6984 -0.1666 -1.3511
 3061SOL    HW220817   4.663   2.179  12.286 -1.3460 -1.1134  1.6967
 3062SOL     OW20818   4.071   0.506   8.991  0.6021 -0.0613 -0.1333
 3062SOL    HW120819   4.113   0.588   8.964 -0.1583 -0.4988 -2.6456
 3062SOL    HW220820   4.136   0.438   8.971 -0.7045 -1.6839  1.1427
 3063SOL     OW20821   3.425   1.097   4.515  0.2951 -0.6415 -0.2495
 3063SOL    HW120822   3.430   1.166   4.581  0.7201  0.3214 -1.2950
 3063SOL    HW220823   3.334   1.070   4.527 -0.2193  0.8900 -0.6300
 3064SOL     OW20824   2.556   1.054   6.694 -0.2755 -0.0624  0.3427
 3064SOL    HW120825   2.639   1.100   6.711 -0.6856  0.5771  0.6246
 3064SOL    HW220826   2.584   0.963   6.703 -2.0768 -0.7141 -0.7709
 3065SOL     OW20827   2.330   2.792  10.193 -0.2478  0.5968 -0.0681
 3065SOL    HW120828   2.356   2.775  10.283  0.5495 -0.1059 -0.4370
 3065SOL    HW220829   2.412   2.830  10.162 -1.0920  0.8285 -2.0401
 3066SOL     OW20830   3.203   1.891   4.544 -0.1920  0.2305  0.4205
 3066SOL    HW120831   3.240   1.804   4.562 -0.2002 -0.4466 -2.8563
 3066SOL    HW220832   3.263   1.930   4.481 -0.7475 -0.9485 -0.8356
 3067SOL     OW20833   4.222   1.659  17.630  0.4090 -0.2990  0.8296
 3067SOL    HW120834   4.222   1.749  17.597  1.6681 -1.2098 -1.6768
 3067SOL    HW220835   4.317   1.644  17.635  0.1733 -2.5014 -1.3467
 3068SOL     OW20836   0.445   1.540   4.323  0.0387  0.2311 -0.5282
 3068SOL    HW120837   0.451   1.447   4.302  2.7875 -0.4659  3.3358
 3068SOL    HW220838   0.527   1.557   4.370  0.5034  0.9753 -1.5946
 3069SOL     OW20839   4.038   0.144   0.750  0.0026  1.0008 -0.1491
 3069SOL    HW120840   3.958   0.102   0.781  1.3888  0.4434  2.6682
 3069SOL    HW220841   4.105   0.084   0.783 -0.0173  1.1474  0.1633
 3070SOL     OW20842   1.738   2.634   2.892 -0.0158  0.3074 -0.1185
 3070SOL    HW120843   1.741   2.659   2.984  1.1775 -1.7775  0.3959
 3070SOL    HW220844   1.792   2.701   2.850 -0.6719  1.0546  0.2312
 3071SOL     OW20845   3.285   2.878   9.305 -0.1656 -0.0965  0.1153
 3071SOL    HW120846   3.267   2.844   9.392  1.1531  0.5890  0.6551
 3071SOL    HW220847   3.342   2.951   9.330 -0.8363 -0.1854  1.9135
 3072SOL     OW20848   4.387   1.733   5.888  0.3723 -0.3261 -0.0114
 3072SOL    HW120849   4.317   1.706   5.947 -0.0467  0.7177 -0.0404
 3072SOL    HW220850   4.338   1.798   5.837  0.5379 -0.1359  0.0711
 3073SOL     OW20851   2.524   2.599  11.435 -0.2452  0.4629  0.3068
 3073SOL    HW120852   2.584   2.620  11.506  0.0541 -0.1017  0.2181
 3073SOL    HW220853   2.526   2.503  11.437  0.6583  0.4604 -0.7158
 3074SOL     OW20854   3.470   0.579   0.476  0.1431  0.5439  0.8982
 3074SOL    HW120855   3.541   0.515   0.479 -1.6018 -1.4505 -0.3082
 3074SOL    HW220856   3.487   0.633   0.554  0.1952 -1.4086  2.2410
 3075SOL     OW20857   2.546   2.644  14.776 -0.4659 -0.0811  0.0120
 3075SOL    HW120858   2.521   2.656  14.684  4.0936  0.5314 -1.1563
 3075SOL    HW220859   2.591   2.728  14.784 -2.2358  0.9521 -0.7091
 3076SOL     OW20860   0.793   2.489  16.132 -0.0656 -0.6423  0.3557
 3076SOL    HW120861   0.873   2.498  16.080 -0.5712 -0.0200 -0.3208
 3076SOL    HW220862   0.792   2.580  16.162  0.4412 -0.9939  1.4491
 3077SOL     OW20863   0.812   3.775   3.347 -0.3358 -0.0718  0.7427
 3077SOL    HW120864   0.809   3.817   3.261  0.5969  0.1013  0.7957
 3077SOL    HW220865   0.900   3.803   3.371  0.4855 -1.9686 -0.1045
 3078SOL     OW20866   1.547   0.751   2.914  0.2579 -0.7061 -0.7124
 3078SOL    HW120867   1.602   0.672   2.915  2.6656  0.9967  0.7239
 3078SOL    HW220868   1.591   0.805   2.848 -0.6729  0.4791 -0.3550
 3079SOL     OW20869   1.016   1.185   2.227 -0.5930  0.0100  0.6101
 3079SOL    HW120870   1.087   1.181   2.290 -0.0211  0.1618 -0.0237
 3079SOL    HW220871   1.001   1.093   2.206 -0.6879  0.1856 -0.0953
 3080SOL     OW20872   2.140   1.196  15.899  0.0919  0.2437  0.3793
 3080SOL    HW120873   2.100   1.179  15.814 -0.7706  1.9950  0.4444
 3080SOL    HW220874   2.109   1.120  15.948  1.5993  0.4327  1.6461
 3081SOL     OW20875   1.099   3.979   1.418  0.5813  0.0851  0.6109
 3081SOL    HW120876   1.161   3.921   1.374  1.3833  1.2478  0.1926
 3081SOL    HW220877   1.097   4.051   1.355 -2.4147 -0.5825 -0.0453
 3082SOL     OW20878   2.931   0.036   9.109 -0.1106 -0.1771 -0.1042
 3082SOL    HW120879   2.908   4.720   9.183 -0.7588 -0.1830 -0.3066
 3082SOL    HW220880   2.925   0.128   9.133 -0.5279 -0.3626  0.4890
 3083SOL     OW20881   1.499   0.153   3.149 -0.2275 -0.6451 -0.2820
 3083SOL    HW120882   1.506   0.248   3.152  1.7742 -0.8215  0.4836
 3083SOL    HW220883   1.554   0.125   3.222  0.1697  1.3599  0.1897
 3084SOL     OW20884   0.892   2.570  14.929  0.6404 -0.2242 -0.0381
 3084SOL    HW120885   0.920   2.487  14.968 -1.9496  0.1473  2.5983
 3084SOL    HW220886   0.887   2.626  15.006  1.6522 -0.3738  0.1377
 3085SOL     OW20887   4.286   3.307   6.860 -0.2598 -0.3784  0.4795
 3085SOL    HW120888   4.353   3.372   6.838  2.1980 -2.1720  2.6194
 3085SOL    HW220889   4.235   3.329   6.938  0.3476 -0.4146  0.8948
 3086SOL     OW20890   2.335   0.318   2.343 -0.2892 -0.5450  0.3713
 3086SOL    HW120891   2.249   0.349   2.370  0.6130  0.7862  1.6853
 3086SOL    HW220892   2.382   0.378   2.401  0.0375  0.4082 -0.8797
 3087SOL     OW20893   2.410   0.399   2.038 -0.5791  0.0741  0.3137
 3087SOL    HW120894   2.318   0.376   2.028 -1.2414  2.2867  1.5067
 3087SOL    HW220895   2.421   0.386   2.132  1.9946 -0.2384 -0.0064
 3088SOL     OW20896   2.280   2.464   9.390  0.0389  0.5531 -0.1422
 3088SOL    HW120897   2.310   2.423   9.470 -1.2460 -1.8797 -0.9168
 3088SOL    HW220898   2.185   2.452   9.396  0.0041  2.1722  2.4142
 3089SOL     OW20899   3.756   3.994   0.453 -0.1903  0.3169 -0.5051
 3089SOL    HW120900   3.838   3.951   0.429  0.4039  0.7926  0.6597
 3089SOL    HW220901   3.724   4.016   0.365 -4.2122 -1.6157  0.4562
 3090SOL     OW20902   4.140   0.854   6.819 -0.2249  0.0671  0.4688
 3090SOL    HW120903   4.192   0.789   6.771  0.4641  1.3673 -0.5364
 3090SOL    HW220904   4.164   0.936   6.776 -1.1082  0.0022 -0.1535
 3091SOL     OW20905   4.019   3.727  13.932  0.4646  0.1620  0.2907
 3091SOL    HW120906   3.925   3.739  13.946  0.8514  3.2587  0.2029
 3091SOL    HW220907   4.048   3.810  13.969  0.0920 -0.0054  0.9432
 3092SOL     OW20908   2.516   4.629   8.297  0.2320 -0.1396  0.5036
 3092SOL    HW120909   2.523   4.720   8.326  0.5873  0.1497 -0.4849
 3092SOL    HW220910   2.560   4.636   8.212  0.7586  2.0392  0.9425
 3093SOL     OW20911   3.781   3.331   3.936  0.0566 -0.1745 -0.4987
 3093SOL    HW120912   3.690   3.310   3.916 -0.0346 -1.2818  1.0530
 3093SOL    HW220913   3.772   3.338   4.031  2.7225  1.2204 -0.3394
 3094SOL     OW20914   3.230   0.394   7.935  0.4314 -0.4327  0.0099
 3094SOL    HW120915   3.303   0.380   7.875 -1.1875  2.3741 -2.6189
 3094SOL    HW220916   3.260   0.346   8.013  3.5813 -1.3118 -1.7169
 3095SOL     OW20917   4.172   2.534   8.040 -0.2280 -0.1543 -0.0539
 3095SOL    HW120918   4.179   2.547   8.134 -0.3467 -0.2388 -0.0328
 3095SOL    HW220919   4.161   2.623   8.007  0.6853 -0.9465 -2.5561
 3096SOL     OW20920   1.700   0.644   3.401  0.0151  0.2121  0.7695
 3096SOL    HW120921   1.682   0.557   3.366  0.1829  1.2469 -1.8326
 3096SOL    HW220922   1.704   0.612   3.491  0.7109 -1.9246 -0.0344
 3097SOL     OW20923   1.345   1.080   6.623 -0.0755  0.3107 -0.5278
 3097SOL    HW120924   1.405   1.010   6.647  1.0290  1.2362 -0.5684
 3097SOL    HW220925   1.270   1.030   6.593 -0.0763 -1.2733  2.1413
 3098SOL     OW20926   4.684   1.830   7.672 -0.1360  0.4614 -1.3077
 3098SOL    HW120927   4.664   1.779   7.593 -1.1837 -1.2677  0.0576
 3098SOL    HW220928   4.598   1.822   7.713  0.7430 -0.5262  0.3894
 3099SOL     OW20929   1.526   0.961  10.265  0.6399 -0.0919  0.2605
 3099SOL    HW120930   1.455   1.022  10.282  0.6027  0.1647 -0.8317
 3099SOL    HW220931   1.494   0.922  10.184 -0.6491  0.8496  0.3195
 3100SOL     OW20932   4.480   1.383  14.484 -0.2295 -0.1427  0.1500
 3100SOL    HW120933   4.515   1.331  14.412  4.9093 -0.6028  3.0099
 3100SOL    HW220934   4.387   1.367  14.467 -0.3893  0.0601  0.8131
 3101SOL     OW20935   4.176   3.012   6.269 -0.1744 -0.2079 -0.1859
 3101SOL    HW120936   4.110   3.031   6.335 -0.2599 -1.1717  0.0046
 3101SOL    HW220937   4.123   2.956   6.213  1.1272 -2.8209  1.2131
 3102SOL     OW20938   3.942   0.756   6.054 -0.3217 -0.3012  0.1611
 3102SOL    HW120939   4.023   0.705   6.062  0.5293  0.7320 -1.6288
 3102SOL    HW220940   3.934   0.767   5.959 -0.4087  0.1603  0.2209
 3103SOL     OW20941   4.146   2.948   5.526  0.1467  0.2385 -0.5125
 3103SOL    HW120942   4.080   3.006   5.488  0.3015  0.1432 -0.9379
 3103SOL    HW220943   4.156   2.898   5.444  0.2784 -0.8325  0.1592
 3104SOL     OW20944   2.396   3.319  15.494 -0.3064  0.3893 -0.5246
 3104SOL    HW120945   2.368   3.269  15.417  1.2950  2.1664 -2.2699
 3104SOL    HW220946   2.332   3.277  15.551  0.1550 -0.6616 -0.7781
 3105SOL     OW20947   2.967   3.892   3.958 -0.5954  0.3520 -0.0992
 3105SOL    HW120948   2.890   3.835   3.953  1.0927 -2.1041  1.8040
 3105SOL    HW220949   2.992   3.874   4.048  0.5219 -0.9296 -0.6618
 3106SOL     OW20950   3.034   2.704   6.495  0.2557 -0.2194 -0.1726
 3106SOL    HW120951   3.058   2.622   6.453 -1.4642 -1.6224  1.5941
 3106SOL    HW220952   2.951   2.680   6.537  0.0226  0.7086 -0.0919
 3107SOL     OW20953   3.092   3.699   2.766  0.0216 -0.6837 -0.0021
 3107SOL    HW120954   3.029   3.688   2.695  0.9397 -0.0944 -0.9061
 3107SOL    HW220955   3.146   3.622   2.749 -1.7303 -1.7991 -0.4512
 3108SOL     OW20956   1.521   3.678   0.296  0.3695  0.4533 -0.3922
 3108SOL    HW120957   1.440   3.627   0.292 -0.4518  1.6174  1.1019
 3108SOL    HW220958   1.515   3.718   0.209 -2.8470  1.4784  0.3131
 3109SOL     OW20959   3.127   3.590   4.367 -0.4369  0.4209  0.8297
 3109SOL    HW120960   3.215   3.561   4.391  0.0833  0.3304 -1.1555
 3109SOL    HW220961   3.092   3.503   4.350  1.1946 -0.4216  1.8435
 3110SOL     OW20962   0.446   2.099  10.034 -0.0766  0.1039  0.2740
 3110SOL    HW120963   0.455   2.183   9.989 -2.1501  1.1630  1.8481
 3110SOL    HW220964   0.442   2.128  10.125 -0.0622  1.7893 -0.2615
 3111SOL     OW20965   1.612   0.215   2.733  0.1637  0.3034  0.2289
 3111SOL    HW120966   1.603   0.224   2.828 -0.9713  0.9219  0.0574
 3111SOL    HW220967   1.550   0.283   2.708  0.5280  0.1587 -1.0780
 3112SOL     OW20968   1.286   2.881   6.170  0.1246 -0.2784 -0.4880
 3112SOL    HW120969   1.253   2.943   6.104  0.7902 -1.7491 -2.2175
 3112SOL    HW220970   1.212   2.881   6.229  1.2873 -1.5481  0.9600
 3113SOL     OW20971   2.860   1.757   7.497 -0.1881 -0.1082 -0.1853
 3113SOL    HW120972   2.818   1.715   7.422 -0.9890  0.1428  0.1341
 3113SOL    HW220973   2.919   1.824   7.460 -2.3990  2.8047  1.5624
 3114SOL     OW20974   1.593   3.499   8.779  0.3200 -0.5528 -0.3303
 3114SOL    HW120975   1.637   3.542   8.706  0.5071  1.5291  1.0129
 3114SOL    HW220976   1.523   3.458   8.727 -0.7674 -1.1542  1.6150
 3115SOL     OW20977   2.898   3.382   7.021 -0.0864 -0.1642 -0.4650
 3115SOL    HW120978   2.944   3.459   6.989  0.9657  0.6034  2.9745
 3115SOL    HW220979   2.915   3.386   7.115 -1.0031 -1.7444 -0.2233
 3116SOL     OW20980   4.337   1.894  17.047 -0.5436 -0.0085 -0.4121
 3116SOL    HW120981   4.325   1.815  17.100  1.0149  1.6111  2.3351
 3116SOL    HW220982   4.336   1.861  16.957  1.6882  1.1888 -0.8688
 3117SOL     OW20983   0.966   3.998   7.714 -0.0146 -0.1076  0.5593
 3117SOL    HW120984   0.948   4.087   7.741 -1.5474 -0.2241 -0.0773
 3117SOL    HW220985   1.057   4.002   7.744  0.3142  0.3910 -0.4857
 3118SOL     OW20986   1.628   1.496   2.687 -0.4501 -0.2701 -0.3737
 3118SOL    HW120987   1.564   1.427   2.668 -1.8491  1.6927 -2.7650
 3118SOL    HW220988   1.699   1.433   2.675  1.0903  1.2276  0.9883
 3119SOL     OW20989   1.017   0.028   6.037 -0.7878  0.3536  0.0530
 3119SOL    HW120990   0.992   0.058   5.950 -0.2561 -0.3279 -0.3378
 3119SOL    HW220991   0.988   0.107   6.084 -2.0175 -0.2391  0.3056
 3120SOL     OW20992   2.680   3.623   3.126 -0.0570 -0.0227  0.2670
 3120SOL    HW120993   2.669   3.668   3.043  1.1659  1.3284  0.8453
 3120SOL    HW220994   2.755   3.564   3.116  0.4756  0.5978  0.6326
 3121SOL     OW20995   4.012   0.505   4.571 -0.0471 -0.2388 -0.0405
 3121SOL    HW120996   3.945   0.448   4.610 -0.3996 -0.0929 -0.4344
 3121SOL    HW220997   3.944   0.558   4.529 -1.5021 -1.6577  0.4890
 3122SOL     OW20998   3.283   2.529   5.499 -0.4186  0.9915  0.5698
 3122SOL    HW120999   3.353   2.579   5.455  1.4643 -3.2799 -1.3230
 3122SOL    HW221000   3.288   2.572   5.584  1.1174 -3.5160  2.7695
 3123SOL     OW21001   0.416   3.952  10.154  0.0162 -0.1686  0.0920
 3123SOL    HW121002   0.459   3.970  10.070  1.5688 -1.8525  0.5256
 3123SOL    HW221003   0.384   4.038  10.179 -1.1789 -1.2547  2.3464
 3124SOL     OW21004   0.125   0.321  15.519  0.3098 -0.1078  0.6955
 3124SOL    HW121005   0.117   0.376  15.441 -0.1023 -1.2832 -0.1015
 3124SOL    HW221006   0.202   0.267  15.505 -1.1250 -1.6235 -1.4915
 3125SOL     OW21007   1.084   2.121   9.927 -0.6051  0.1032  0.2761
 3125SOL    HW121008   1.021   2.098   9.858 -0.2444 -1.1925  0.3780
 3125SOL    HW221009   1.086   2.216   9.917  0.5557 -0.1863 -2.2221
 3126SOL     OW21010   3.645   0.929   3.300 -0.0240  0.7518  0.2702
 3126SOL    HW121011   3.660   1.023   3.309 -2.1625  1.2977 -1.9075
 3126SOL    HW221012   3.556   0.910   3.327  0.4958 -3.5712 -1.0103
 3127SOL     OW21013   1.658   1.556  10.844 -0.3416 -0.2847 -0.1879
 3127SOL    HW121014   1.749   1.533  10.825 -0.9440  0.4420 -3.8321
 3127SOL    HW221015   1.681   1.604  10.924 -3.2807 -0.1791  0.5760
 3128SOL     OW21016   0.133   4.353   7.999 -0.4205  0.3366  0.2184
 3128SOL    HW121017   0.053   4.318   7.960 -2.1676  3.5286  0.8735
 3128SOL    HW221018   0.121   4.448   8.011  1.4006  0.5123  0.7356
 3129SOL     OW21019   2.273   0.312   6.927 -0.0307 -0.0050  0.3719
 3129SOL    HW121020   2.342   0.267   6.977  0.0959  1.1048  1.2033
 3129SOL    HW221021   2.203   0.310   6.992  1.9878 -0.6131  2.5555
 3130SOL     OW21022   0.150   1.907   4.140 -0.6866 -0.0873 -0.6583
 3130SOL    HW121023   0.221   1.903   4.076  2.3679  0.0425  2.6872
 3130SOL    HW221024   0.185   1.852   4.210 -0.5009  1.8865  0.7781
 3131SOL     OW21025   2.088   1.885  11.166  0.4087 -0.3919 -0.1563
 3131SOL    HW121026   2.035   1.879  11.245  0.4493  0.2649 -0.0724
 3131SOL    HW221027   2.067   1.973  11.133  0.4121 -0.6132 -0.7432
 3132SOL     OW21028   3.897   2.849   6.592 -0.3814 -0.3189  0.1730
 3132SOL    HW121029   3.898   2.768   6.541 -1.7819 -0.1127 -0.2076
 3132SOL    HW221030   3.912   2.822   6.682  0.2947 -1.2443 -0.2177
 3133SOL     OW21031   1.566   1.494   5.122  0.3803  0.3279 -0.0625
 3133SOL    HW121032   1.562   1.492   5.027  2.1049  1.3586 -0.1524
 3133SOL    HW221033   1.544   1.401   5.130  1.8925  0.0844  1.2126
 3134SOL     OW21034   2.120   3.546   5.124 -0.8559  0.3759  0.6578
 3134SOL    HW121035   2.094   3.470   5.176  0.0274 -1.1370 -1.1489
 3134SOL    HW221036   2.033   3.565   5.090  0.1338 -1.3185 -2.8272
 3135SOL     OW21037   0.111   3.641   3.883 -0.7344 -0.2651  0.0603
 3135SOL    HW121038   0.180   3.708   3.886 -0.8458 -0.3199  3.6667
 3135SOL    HW221039   0.141   3.587   3.810  0.7690  0.0512  0.4547
 3136SOL     OW21040   2.313   2.809   8.563  0.5359  0.0681 -0.1116
 3136SOL    HW121041   2.339   2.724   8.598  1.4260  1.5743  2.8511
 3136SOL    HW221042   2.219   2.810   8.580  1.1318  2.8457  2.8514
 3137SOL     OW21043   4.509   1.799  17.408 -0.4389 -0.0844 -0.7828
 3137SOL    HW121044   4.550   1.880  17.377  0.3360 -0.5762 -1.0289
 3137SOL    HW221045   4.416   1.822  17.400 -0.1442  0.5411 -2.3713
 3138SOL     OW21046   1.346   2.711   5.048  0.0641 -0.5826 -0.2241
 3138SOL    HW121047   1.410   2.672   4.988 -0.2333 -0.1673 -0.8125
 3138SOL    HW221048   1.395   2.790   5.073 -1.2826  0.3792 -0.6340
 3139SOL     OW21049   0.393   1.085   2.361 -0.4564 -0.3137 -0.5791
 3139SOL    HW121050   0.319   1.140   2.336 -0.0280  0.2350 -0.6460
 3139SOL    HW221051   0.467   1.145   2.358 -0.1534 -0.7062 -0.9663
 3140SOL     OW21052   4.721   3.571  13.760  0.0781 -0.6354 -0.1400
 3140SOL    HW121053   0.026   3.655  13.769 -3.5593  1.4560 -1.5387
 3140SOL    HW221054   0.055   3.513  13.741  0.1355 -0.8770  0.8213
 3141SOL     OW21055   2.467   4.471   5.443 -0.1952 -0.6885  0.0150
 3141SOL    HW121056   2.528   4.506   5.378 -2.0561 -0.2168 -1.4840
 3141SOL    HW221057   2.474   4.376   5.446  0.3881 -0.5763  2.2674
 3142SOL     OW21058   0.776   3.718  16.507  0.2428  0.3887  0.3719
 3142SOL    HW121059   0.731   3.656  16.565  0.9066 -0.3855  0.0717
 3142SOL    HW221060   0.766   3.692  16.415  0.0682  2.4420 -0.1836
 3143SOL     OW21061   0.393   3.751   9.272 -0.5437  0.4208 -0.2597
 3143SOL    HW121062   0.362   3.840   9.260 -1.3508  0.1450 -0.2485
 3143SOL    HW221063   0.383   3.750   9.367  0.1679 -2.2089 -0.2193
 3144SOL     OW21064   3.703   3.238   3.310 -0.0774 -0.0863 -0.1337
 3144SOL    HW121065   3.672   3.181   3.380 -0.0517 -0.4676 -0.4315
 3144SOL    HW221066   3.792   3.203   3.322  0.4382  1.0748 -0.5885
 3145SOL     OW21067   1.070   1.412   6.541  0.0691 -0.3806 -0.0201
 3145SOL    HW121068   1.079   1.410   6.636  0.7558 -1.4708 -0.1132
 3145SOL    HW221069   1.156   1.376   6.518  0.6247  0.9639 -0.0133
 3146SOL     OW21070   2.223   1.945   3.195  0.0823 -0.0888 -0.0411
 3146SOL    HW121071   2.163   1.981   3.260  0.4654  0.4523  0.0148
 3146SOL    HW221072   2.303   1.986   3.228  0.6389 -2.5645  1.6707
 3147SOL     OW21073   3.060   2.860   7.804  0.7281  0.0978 -0.1056
 3147SOL    HW121074   3.085   2.949   7.777 -1.6336  1.0671  0.9378
 3147SOL    HW221075   2.991   2.881   7.866  0.5580 -1.5281  0.2429
 3148SOL     OW21076   2.369   1.117   4.920  0.1376  0.2997 -0.4126
 3148SOL    HW121077   2.366   1.137   5.014 -0.5086  1.6323 -0.7233
 3148SOL    HW221078   2.285   1.154   4.892 -0.5087 -1.4168 -0.7394
 3149SOL     OW21079   3.392   3.601   5.416 -0.7824  0.0431  0.4977
 3149SOL    HW121080   3.327   3.646   5.361  0.5201 -0.2493 -1.2910
 3149SOL    HW221081   3.468   3.605   5.357 -1.1973  0.3166 -0.0219
 3150SOL     OW21082   2.533   1.327   6.123 -0.6401  0.0491  0.3785
 3150SOL    HW121083   2.496   1.331   6.211 -0.5656 -2.1129  0.5001
 3150SOL    HW221084   2.458   1.301   6.070  1.4860  0.5960 -2.9294
 3151SOL     OW21085   1.899   1.036   7.412 -0.0389 -0.4288 -0.4940
 3151SOL    HW121086   1.975   0.990   7.448 -1.3160 -2.1951 -0.0468
 3151SOL    HW221087   1.856   0.958   7.376 -1.0633 -0.7611  1.4918
 3152SOL     OW21088   3.584   0.164   3.980  0.6433 -0.3147 -0.1371
 3152SOL    HW121089   3.644   0.145   4.052  0.6525  1.9733  0.4397
 3152SOL    HW221090   3.552   0.252   3.996  0.3492 -0.6122  0.8955
 3153SOL     OW21091   2.128   0.221   9.166  0.0914  0.0074  0.5536
 3153SOL    HW121092   2.113   0.140   9.117 -1.5657  0.2030  0.7623
 3153SOL    HW221093   2.188   0.187   9.232  0.4028  3.1438  1.8644
 3154SOL     OW21094   3.929   1.571   3.895 -0.5206  0.5984 -0.6467
 3154SOL    HW121095   3.900   1.512   3.826 -2.0402  1.4431 -0.7353
 3154SOL    HW221096   3.951   1.512   3.967  1.6329  2.3470  0.1147
 3155SOL     OW21097   2.222   2.113   5.688 -0.1474 -0.5210 -0.1109
 3155SOL    HW121098   2.221   2.039   5.749  1.3182  0.7375  1.4252
 3155SOL    HW221099   2.141   2.155   5.716  0.1323  0.7296 -1.2033
 3156SOL     OW21100   1.314   4.162   7.436 -0.2089  0.5362 -0.3678
 3156SOL    HW121101   1.403   4.196   7.441 -0.2333  1.0332 -3.1490
 3156SOL    HW221102   1.282   4.237   7.386  3.7858  2.9412  0.7500
 3157SOL     OW21103   4.148   2.797   8.824 -0.6323 -0.1389  0.0381
 3157SOL    HW121104   4.230   2.827   8.863 -1.1085 -1.0806  1.7564
 3157SOL    HW221105   4.095   2.761   8.895  0.3683 -0.1470  0.7847
 3158SOL     OW21106   3.679   0.869   9.218 -0.7565  0.0053 -0.5065
 3158SOL    HW121107   3.703   0.847   9.128 -0.2458  2.6344 -1.0021
 3158SOL    HW221108   3.696   0.961   9.238  2.8753 -0.7353 -0.2387
 3159SOL     OW21109   1.471   1.273   2.782 -0.1208  0.0123 -0.0743
 3159SOL    HW121110   1.448   1.218   2.856 -2.8148 -2.6964 -2.9373
 3159SOL    HW221111   1.388   1.321   2.774 -0.5627 -0.6065  0.8496
 3160SOL     OW21112   0.982   2.235   4.007  0.8610  0.6943  0.5897
 3160SOL    HW121113   0.934   2.158   3.977  4.6261 -1.4423  0.0628
 3160SOL    HW221114   0.914   2.301   4.018  0.5794  0.7007 -1.2278
 3161SOL     OW21115   1.308   2.285  16.682 -0.1242 -0.1965  0.1769
 3161SOL    HW121116   1.340   2.257  16.768  0.1688  0.6959  0.3686
 3161SOL    HW221117   1.292   2.205  16.633 -0.1211  1.1643 -2.0578
 3162SOL     OW21118   1.460   2.342   8.200  0.3147 -0.2007 -0.3123
 3162SOL    HW121119   1.385   2.364   8.145  0.8227  0.9958 -0.5191
 3162SOL    HW221120   1.487   2.258   8.163 -1.2835 -1.5661  1.5982
 3163SOL     OW21121   4.341   2.078  15.184 -0.1738  0.2283  0.2306
 3163SOL    HW121122   4.414   2.105  15.128  0.8089  1.7816  2.2683
 3163SOL    HW221123   4.278   2.066  15.112 -2.1105  2.2253  1.5830
 3164SOL     OW21124   1.513   2.484   9.121  0.9142  0.3052  0.3659
 3164SOL    HW121125   1.529   2.390   9.127  2.6422  0.4542 -1.8226
 3164SOL    HW221126   1.447   2.478   9.053 -1.2844  0.5374  2.4897
 3165SOL     OW21127   3.163   4.521  17.564 -0.6077  0.4261 -0.0192
 3165SOL    HW121128   3.245   4.542  17.609 -0.9003 -0.7803  1.0751
 3165SOL    HW221129   3.180   4.565  17.480  0.6944 -0.8334 -0.4287
 3166SOL     OW21130   1.809   3.571   6.005  0.3584 -0.6328 -0.9991
 3166SOL    HW121131   1.895   3.542   5.975  0.4470 -0.1504 -1.2057
 3166SOL    HW221132   1.761   3.540   5.928  0.8228 -0.1349 -1.4864
 3167SOL     OW21133   3.904   2.151  14.327 -0.1522  0.0595  0.0123
 3167SOL    HW121134   3.997   2.162  14.346 -0.7825  0.1461  2.9300
 3167SOL    HW221135   3.857   2.213  14.382  1.9652  3.0733 -1.5216
 3168SOL     OW21136   3.193   3.993   8.369 -0.3365  0.3499 -0.1433
 3168SOL    HW121137   3.158   3.960   8.286 -0.1188  0.1789 -0.1663
 3168SOL    HW221138   3.282   4.025   8.357  0.1008 -0.9033 -0.2641
 3169SOL     OW21139   0.802   0.289   2.304  0.6214  0.5822 -0.1093
 3169SOL    HW121140   0.744   0.238   2.360  0.8217 -0.4077 -0.7970
 3169SOL    HW221141   0.788   0.248   2.218 -1.8019 -0.0249  0.5681
 3170SOL     OW21142   1.804   4.049   7.027  0.3778 -0.3796 -0.0045
 3170SOL    HW121143   1.807   4.130   6.977  1.9863 -0.1730  0.4544
 3170SOL    HW221144   1.832   4.097   7.105 -0.5739  1.3753 -0.7520
 3171SOL     OW21145   1.034   4.552   4.485 -0.0698  0.0205  0.1694
 3171SOL    HW121146   1.002   4.576   4.572  0.0396  1.0447 -0.0618
 3171SOL    HW221147   1.113   4.500   4.501  0.5847  0.8673 -0.2610
 3172SOL     OW21148   2.879   3.413   4.860 -0.2246  0.3016 -0.0832
 3172SOL    HW121149   2.940   3.458   4.803  1.2619 -0.4819  0.8984
 3172SOL    HW221150   2.852   3.469   4.933  0.7310 -1.4883  1.6542
 3173SOL     OW21151   1.259   1.241   4.561 -0.5883  0.3220 -0.2646
 3173SOL    HW121152   1.197   1.232   4.634 -0.8404  0.7034 -0.4272
 3173SOL    HW221153   1.248   1.157   4.518 -2.3751  1.3202 -1.7873
 3174SOL     OW21154   3.827   2.896  16.318  0.4634  0.3112  0.2089
 3174SOL    HW121155   3.807   2.989  16.333  3.6867  1.2318 -1.2327
 3174SOL    HW221156   3.907   2.907  16.266  0.2169  1.4874  0.0648
 3175SOL     OW21157   1.366   2.904   4.011  0.1378 -0.3067 -0.4548
 3175SOL    HW121158   1.435   2.915   4.077  0.9433 -0.8393 -1.2193
 3175SOL    HW221159   1.366   2.809   4.003 -1.4092 -0.3881  0.5107
 3176SOL     OW21160   1.328   1.053   9.364  0.0509  0.3247 -0.5984
 3176SOL    HW121161   1.318   1.120   9.296 -0.3392  0.1709 -0.6908
 3176SOL    HW221162   1.265   0.992   9.327  0.0973 -0.6063  0.8676
 3177SOL     OW21163   1.352   0.229   0.868 -0.0433 -0.8500 -0.3163
 3177SOL    HW121164   1.367   0.145   0.911  0.3228 -0.3254  0.5834
 3177SOL    HW221165   1.278   0.266   0.917  1.0083  1.5872 -0.6136
 3178SOL     OW21166   1.336   1.944   5.253  0.1911 -0.0581  0.0166
 3178SOL    HW121167   1.263   1.961   5.311 -0.1631  0.3814 -0.5583
 3178SOL    HW221168   1.412   1.980   5.298  0.7469 -1.8029  0.4961
 3179SOL     OW21169   0.704   3.591   0.429 -0.3713  0.0915 -0.2547
 3179SOL    HW121170   0.630   3.553   0.476 -0.3698  0.6864  0.2318
 3179SOL    HW221171   0.657   3.625   0.353  0.2918  0.0903 -0.6684
 3180SOL     OW21172   2.030   1.633   9.412  1.0245 -0.3846 -0.0714
 3180SOL    HW121173   2.029   1.658   9.505  4.1148 -1.6463  0.2969
 3180SOL    HW221174   2.068   1.714   9.379  1.3606 -0.9316 -1.0123
 3181SOL     OW21175   1.879   2.030  12.886 -0.5685 -0.1069  0.4226
 3181SOL    HW121176   1.941   2.009  12.816 -1.3092 -1.2863  0.1195
 3181SOL    HW221177   1.846   1.941  12.894 -0.8623 -0.0347  0.0546
 3182SOL     OW21178   2.665   3.157   7.317 -0.4888 -0.0400  0.7587
 3182SOL    HW121179   2.687   3.064   7.313 -1.0410 -0.1387 -0.1906
 3182SOL    HW221180   2.753   3.192   7.326  0.1473 -1.6359  0.7618
 3183SOL     OW21181   0.275   1.628  17.691  0.1660  0.1254  0.0684
 3183SOL    HW121182   0.341   1.672  17.637 -0.9074 -0.8385 -2.0009
 3183SOL    HW221183   0.223   1.704  17.718  2.3056  1.3176  0.8967
 3184SOL     OW21184   1.567   0.345   2.138  0.1913 -0.3273  0.2988
 3184SOL    HW121185   1.569   0.355   2.234  0.0600  0.7307  0.1959
 3184SOL    HW221186   1.474   0.354   2.118 -0.5419 -1.2656  3.3178
 3185SOL     OW21187   2.713   2.283   8.904  0.0071 -0.4706  0.2474
 3185SOL    HW121188   2.647   2.214   8.904 -0.5021  0.0131  0.0273
 3185SOL    HW221189   2.783   2.235   8.948  0.5720  1.1532  1.1294
 3186SOL     OW21190   2.496   3.328  15.209  0.4510  0.5776  0.1282
 3186SOL    HW121191   2.450   3.384  15.147 -0.9375  0.4992  1.0988
 3186SOL    HW221192   2.430   3.260  15.217 -0.0817  0.9877 -0.7662
 3187SOL     OW21193   2.597   4.535   3.964  0.5951 -1.0156 -0.0430
 3187SOL    HW121194   2.522   4.553   3.907 -1.1094  1.0730  2.8554
 3187SOL    HW221195   2.663   4.489   3.913  0.0908 -0.0360 -1.6008
 3188SOL     OW21196   0.017   2.383   4.020 -0.4826  0.2659 -0.0904
 3188SOL    HW121197   0.094   2.435   4.000 -0.6100  0.5276  0.1020
 3188SOL    HW221198   0.031   2.309   3.961 -4.3743  1.2011 -2.2188
 3189SOL     OW21199   3.989   1.375   4.601  0.6108  0.1573  0.4908
 3189SOL    HW121200   3.995   1.469   4.586  0.6179  0.4125  2.0249
 3189SOL    HW221201   4.045   1.348   4.529  0.8002 -3.3166  1.9590
 3190SOL     OW21202   2.216   3.266   3.786 -0.2090  0.0399 -0.9537
 3190SOL    HW121203   2.235   3.287   3.877  1.0658  0.5931 -1.3382
 3190SOL    HW221204   2.299   3.262   3.738 -1.0276 -0.6421 -2.3168
 3191SOL     OW21205   4.546   3.060   8.164 -0.2299  0.2371 -0.2814
 3191SOL    HW121206   4.501   3.008   8.230 -0.9766  0.2652 -0.7632
 3191SOL    HW221207   4.484   3.049   8.092 -1.0251  3.8609 -0.1927
 3192SOL     OW21208   4.205   0.181   4.136 -0.1971  0.2534 -0.0262
 3192SOL    HW121209   4.225   0.121   4.208 -0.0055 -0.7964 -0.9634
 3192SOL    HW221210   4.178   0.123   4.065  0.7210  1.2118 -1.1517
 3193SOL     OW21211   2.324   1.439   8.263  0.2122  0.3866 -0.4200
 3193SOL    HW121212   2.341   1.527   8.298  0.6978  0.1050  0.0633
 3193SOL    HW221213   2.404   1.420   8.214  0.1455 -2.3110  0.5200
 3194SOL     OW21214   1.509   3.697   3.367 -0.5398 -0.2456  0.1159
 3194SOL    HW121215   1.537   3.715   3.457 -1.0067  3.2982 -0.4472
 3194SOL    HW221216   1.593   3.699   3.320 -1.8174 -0.8387 -2.2065
 3195SOL     OW21217   4.180   2.213   5.860  0.4557 -0.2289  0.8317
 3195SOL    HW121218   4.182   2.252   5.773 -0.6794 -2.0041  0.0296
 3195SOL    HW221219   4.270   2.188   5.879  1.1445  2.7270  1.5566
 3196SOL     OW21220   1.743   1.685   5.065  0.1657  0.1262 -0.0108
 3196SOL    HW121221   1.791   1.606   5.042 -0.4326  0.4220 -2.3287
 3196SOL    HW221222   1.656   1.646   5.078  0.2065  0.3116  0.8398
 3197SOL     OW21223   0.985   3.591   5.330 -0.8327 -0.3791  0.5590
 3197SOL    HW121224   0.913   3.528   5.322 -2.2716  1.4840 -1.2800
 3197SOL    HW221225   0.987   3.603   5.425  2.3265  0.9159  0.3102
 3198SOL     OW21226   4.067   1.114  17.017 -0.3338 -0.3617  0.2752
 3198SOL    HW121227   4.025   1.193  16.982 -0.9799 -0.1099  1.6010
 3198SOL    HW221228   4.025   1.046  16.964 -0.4562  0.0581 -0.1631
 3199SOL     OW21229   0.276   1.098   9.493  0.4396  0.2558 -0.0505
 3199SOL    HW121230   0.267   1.189   9.518 -0.6804 -0.0780  0.7641
 3199SOL    HW221231   0.338   1.062   9.557  0.7801 -0.3801 -0.7269
 3200SOL     OW21232   3.235   2.007   9.145  0.0256 -0.1368  0.3455
 3200SOL    HW121233   3.205   2.098   9.150  2.6107  0.6958  0.5783
 3200SOL    HW221234   3.321   2.016   9.187  0.0641  1.0586  0.0046
 3201SOL     OW21235   0.262   4.245   5.528  0.1095  1.0821 -0.2033
 3201SOL    HW121236   0.207   4.324   5.521 -0.9212  0.3692 -0.1020
 3201SOL    HW221237   0.347   4.280   5.500  1.1251 -1.6501 -0.5637
 3202SOL     OW21238   1.532   4.061   9.083  0.3295  0.2198  0.1837
 3202SOL    HW121239   1.616   4.052   9.129  0.2571 -0.1329  0.2424
 3202SOL    HW221240   1.560   4.098   8.999 -0.1033 -0.0587 -0.0831
 3203SOL     OW21241   0.901   2.536   5.796 -0.3365 -0.3200  0.2232
 3203SOL    HW121242   0.840   2.609   5.795 -0.3796 -0.3486  0.7741
 3203SOL    HW221243   0.943   2.551   5.881  1.7475  2.6460 -1.3539
 3204SOL     OW21244   0.996   2.701   8.298 -0.7437 -0.0983 -0.4260
 3204SOL    HW121245   1.066   2.743   8.348  0.6544 -1.7204 -1.0250
 3204SOL    HW221246   1.017   2.613   8.328 -1.6560  0.2743  1.3169
 3205SOL     OW21247   3.878   2.696   7.174 -0.4475 -0.3892  0.4380
 3205SOL    HW121248   3.864   2.715   7.267 -3.5557  1.7444 -0.4616
 3205SOL    HW221249   3.974   2.696   7.176 -0.3760 -1.4545 -2.5192
 3206SOL     OW21250   4.402   2.498   6.933  0.0164 -0.0692 -0.8135
 3206SOL    HW121251   4.479   2.452   6.964 -0.0169 -0.0801 -0.7472
 3206SOL    HW221252   4.425   2.511   6.841 -1.7657  2.7217 -0.8645
 3207SOL     OW21253   4.257   2.758   5.803  0.2752 -0.0645 -0.1459
 3207SOL    HW121254   4.307   2.786   5.726  0.8987 -1.2515 -0.1869
 3207SOL    HW221255   4.271   2.665   5.787 -0.0058  0.0288 -0.9165
 3208SOL     OW21256   1.006   3.662   4.976 -0.3801 -0.0954 -0.0307
 3208SOL    HW121257   1.068   3.589   4.974 -1.0493 -0.6726  0.1409
 3208SOL    HW221258   0.933   3.622   4.930 -0.0433  0.7626 -1.3017
 3209SOL     OW21259   4.028   3.717   0.569  0.2178  0.2354 -0.2211
 3209SOL    HW121260   4.053   3.707   0.660  1.3316 -0.6865 -0.6298
 3209SOL    HW221261   3.967   3.644   0.559 -0.5394  0.7114  0.9163
 3210SOL     OW21262   3.882   0.232   5.980 -0.3897  0.2708 -0.6472
 3210SOL    HW121263   3.943   0.280   6.037 -0.0210  0.4480 -1.1882
 3210SOL    HW221264   3.872   0.149   6.025  1.6355  1.1265  1.4033
 3211SOL     OW21265   2.186   2.936  13.360  0.7100  0.5058 -0.4575
 3211SOL    HW121266   2.199   3.028  13.337 -1.4863  0.9344 -0.0389
 3211SOL    HW221267   2.147   2.947  13.447  0.0526  0.2182 -0.7131
 3212SOL     OW21268   0.707   0.361   1.368  0.1919  0.5536  0.0300
 3212SOL    HW121269   0.628   0.332   1.323 -0.3462 -0.3928  1.5780
 3212SOL    HW221270   0.781   0.315   1.328 -1.3098 -0.1603 -1.9259
 3213SOL     OW21271   2.483   1.902   4.038  0.3983 -0.0265  0.8332
 3213SOL    HW121272   2.523   1.948   3.964  1.7892  1.2712  2.3818
 3213SOL    HW221273   2.560   1.896   4.095  0.0112  1.2398  1.4847
 3214SOL     OW21274   2.074   3.099   7.079 -0.8720  1.1297 -0.0435
 3214SOL    HW121275   2.075   3.179   7.026  0.2950 -0.1058 -1.8767
 3214SOL    HW221276   2.160   3.066   7.054 -0.9407  0.4483  0.6225
 3215SOL     OW21277   3.314   3.719   9.561 -0.3005  0.4654  0.2803
 3215SOL    HW121278   3.293   3.628   9.582  2.5281 -0.2403  0.0558
 3215SOL    HW221279   3.232   3.756   9.529 -0.0584  1.3823  0.7256
 3216SOL     OW21280   4.063   3.874  17.621  0.7595 -0.1051  0.2326
 3216SOL    HW121281   4.047   3.965  17.646 -1.9855 -0.9200  1.3999
 3216SOL    HW221282   4.026   3.858  17.534  2.9284 -0.0530 -0.6916
 3217SOL     OW21283   2.103   3.208   5.799 -0.4066  0.4554  0.0642
 3217SOL    HW121284   2.075   3.260   5.874  2.0680  0.2939  1.0931
 3217SOL    HW221285   2.197   3.225   5.801 -0.2220 -0.5174 -0.0829
 3218SOL     OW21286   1.310   1.945   8.045 -0.4310  0.3739  0.2287
 3218SOL    HW121287   1.269   1.933   8.130 -0.6390  0.3069  0.1201
 3218SOL    HW221288   1.396   1.986   8.058 -0.6446  0.9445 -0.1728
 3219SOL     OW21289   3.685   3.982   8.828 -0.8475 -0.3783 -0.2278
 3219SOL    HW121290   3.692   4.077   8.818  2.6862 -0.7725 -1.4209
 3219SOL    HW221291   3.706   3.976   8.921 -0.6247  1.4086 -0.1570
 3220SOL     OW21292   2.306   1.767   2.185  0.6081  0.2542  0.4049
 3220SOL    HW121293   2.352   1.689   2.216 -0.0660 -0.1257  0.4506
 3220SOL    HW221294   2.347   1.794   2.103 -0.0151  3.0978  1.0128
 3221SOL     OW21295   3.592   0.219   5.702 -0.5533 -0.1212  0.2083
 3221SOL    HW121296   3.513   0.180   5.739 -0.4969 -0.2767  0.1616
 3221SOL    HW221297   3.564   0.304   5.666  4.3556  0.9863 -1.0223
 3222SOL     OW21298   4.609   3.734   3.137 -0.4694 -0.2395  0.0858
 3222SOL    HW121299   4.687   3.741   3.082 -0.7023 -0.6473 -0.2915
 3222SOL    HW221300   4.583   3.825   3.147  1.2605  0.2554  0.0713
 3223SOL     OW21301   3.393   4.003   5.131  0.3338 -0.0797  0.1813
 3223SOL    HW121302   3.417   3.910   5.124  0.9276  0.0947 -0.1488
 3223SOL    HW221303   3.473   4.051   5.109 -1.9929  4.7987  2.3759
 3224SOL     OW21304   1.046   0.852   8.152 -0.3233 -0.3330  0.2673
 3224SOL    HW121305   1.061   0.762   8.180 -0.2853 -0.3777  0.1063
 3224SOL    HW221306   0.951   0.862   8.146 -0.4944 -1.5397  0.8586
 3225SOL     OW21307   1.798   4.092  10.168  0.3290 -0.0110 -0.3247
 3225SOL    HW121308   1.866   4.122  10.108  1.3754  1.2578  1.4943
 3225SOL    HW221309   1.725   4.118  10.111  0.4169 -1.6515 -1.1788
 3226SOL     OW21310   2.560   0.461   4.964 -0.3441 -0.5577  0.0005
 3226SOL    HW121311   2.577   0.435   4.873  3.0410  0.1097  0.4174
 3226SOL    HW221312   2.535   0.552   4.953 -0.6675 -0.5428  0.8739
 3227SOL     OW21313   2.350   4.384  10.158 -0.1382 -0.6220 -0.2272
 3227SOL    HW121314   2.287   4.455  10.167 -0.1704 -0.3070 -2.8368
 3227SOL    HW221315   2.334   4.329  10.235 -3.0609  1.4437  0.5987
 3228SOL     OW21316   1.202   1.745   6.791 -0.3931  0.1846 -0.2396
 3228SOL    HW121317   1.245   1.815   6.742  2.3251 -1.7314 -0.5777
 3228SOL    HW221318   1.139   1.803   6.833 -0.0861 -1.3683  2.3678
 3229SOL     OW21319   1.753   3.862  12.587  0.1478  0.7093  0.2388
 3229SOL    HW121320   1.672   3.856  12.638  0.6508  1.4831  1.1196
 3229SOL    HW221321   1.778   3.770  12.574 -1.4233  0.2500  0.4505
 3230SOL     OW21322   1.715   1.937   2.773  0.2252  0.0098 -0.4816
 3230SOL    HW121323   1.684   1.960   2.860  1.0022 -3.2227  0.6421
 3230SOL    HW221324   1.646   1.878   2.742 -0.5194  0.1858  0.8278
 3231SOL     OW21325   3.237   2.875  10.027 -0.4923 -0.3361  0.6495
 3231SOL    HW121326   3.212   2.893  10.117 -0.4179  3.1806 -0.0151
 3231SOL    HW221327   3.327   2.909  10.027 -0.4125 -0.5233 -0.4911
 3232SOL     OW21328   0.349   4.074  11.621  0.3603  0.0241  0.4987
 3232SOL    HW121329   0.263   4.092  11.661  0.0663 -1.7875  0.6777
 3232SOL    HW221330   0.326   4.059  11.530 -0.5525  0.0775  0.7107
 3233SOL     OW21331   3.572   2.825  15.063 -0.0117  0.1942  0.2964
 3233SOL    HW121332   3.644   2.791  15.011  1.9487  3.0709  1.1186
 3233SOL    HW221333   3.517   2.748  15.049 -0.7333  0.5020  1.4193
 3234SOL     OW21334   1.991   4.063  16.230  0.2146  0.4368 -0.0138
 3234SOL    HW121335   1.953   4.015  16.304  0.7004 -0.4772 -0.3568
 3234SOL    HW221336   1.915   4.101  16.186 -1.2914 -0.4505  1.8081
 3235SOL     OW21337   4.702   4.698   3.881  0.2387 -0.4265  0.0945
 3235SOL    HW121338   0.035   0.019   3.883  0.7840 -1.0364 -1.1257
 3235SOL    HW221339   4.721   4.637   3.953  1.9827 -0.0936 -0.0825
 3236SOL     OW21340   4.540   0.846   8.121 -0.4501 -0.3668  0.0947
 3236SOL    HW121341   4.583   0.772   8.077 -1.9722 -1.1682 -0.0177
 3236SOL    HW221342   4.614   0.861   8.180 -0.3989 -1.0628  0.2184
 3237SOL     OW21343   3.172   4.727   5.967  0.0336  0.0548 -0.2805
 3237SOL    HW121344   3.128   4.659   5.916  0.1131  0.2225 -0.5764
 3237SOL    HW221345   3.099   0.013   6.024  2.4801  3.3424  1.3226
 3238SOL     OW21346   1.748   0.389   5.141 -0.1519 -0.2416 -0.2176
 3238SOL    HW121347   1.773   0.305   5.101  0.7863 -0.6482  1.2237
 3238SOL    HW221348   1.831   0.410   5.184 -0.9010 -1.2020  1.6862
 3239SOL     OW21349   2.061   3.572   5.906 -0.6095  0.1968  1.0687
 3239SOL    HW121350   2.143   3.540   5.943 -0.1317 -1.2302 -1.2143
 3239SOL    HW221351   2.075   3.666   5.907 -2.4948  0.4981 -0.7159
 3240SOL     OW21352   2.176   1.149   0.318  0.2535  0.2899  0.4220
 3240SOL    HW121353   2.176   1.241   0.345 -1.2625  0.0930  1.0560
 3240SOL    HW221354   2.131   1.120   0.398  0.5734  1.4396  1.0199
 3241SOL     OW21355   0.875   3.665  11.739  0.6135 -0.9827 -0.2884
 3241SOL    HW121356   0.878   3.613  11.659 -2.2427  0.3353 -1.2298
 3241SOL    HW221357   0.810   3.733  11.723  0.9390 -0.3249  1.1792
 3242SOL     OW21358   3.622   0.667  16.537  0.1704  0.1325  0.2427
 3242SOL    HW121359   3.568   0.732  16.491  0.3511  0.5968  0.6837
 3242SOL    HW221360   3.691   0.643  16.475  0.6247 -0.8032  1.1054
 3243SOL     OW21361   1.382   3.555  12.860 -0.3280  0.2357  0.3664
 3243SOL    HW121362   1.359   3.632  12.809  1.5723 -0.1477 -1.1001
 3243SOL    HW221363   1.307   3.543  12.918 -0.6424 -2.3875 -0.5597
 3244SOL     OW21364   0.521   3.287  13.678 -0.2622  0.3836 -0.3827
 3244SOL    HW121365   0.591   3.297  13.743 -0.5300 -1.4549  0.1811
 3244SOL    HW221366   0.550   3.212  13.625 -2.6478 -0.8777  0.1234
 3245SOL     OW21367   0.150   2.595  13.221  0.6427 -0.5631  0.2434
 3245SOL    HW121368   0.055   2.608  13.227  0.9603  2.2557 -0.7752
 3245SOL    HW221369   0.187   2.683  13.215  1.9485 -0.9447  2.5797
 3246SOL     OW21370   2.297   2.641   2.750 -0.1898 -0.3629 -0.3940
 3246SOL    HW121371   2.229   2.574   2.742 -0.6381  0.0968 -0.4554
 3246SOL    HW221372   2.317   2.670   2.661  0.0002 -1.2150 -0.6267
 3247SOL     OW21373   4.275   3.083   2.764  0.0963  0.0994  0.0143
 3247SOL    HW121374   4.279   2.989   2.748 -1.4408 -0.3511  2.1328
 3247SOL    HW221375   4.206   3.081   2.830 -0.7116 -0.7934 -0.8578
 3248SOL     OW21376   0.938   0.040  11.731  0.1830 -0.9073  0.2929
 3248SOL    HW121377   0.844   0.028  11.742 -0.4036  3.7971  0.4757
 3248SOL    HW221378   0.932   0.022  11.637  0.8255 -1.5595  0.3775
 3249SOL     OW21379   4.066   4.508   3.072  0.1045  0.2701 -0.2297
 3249SOL    HW121380   4.070   4.453   3.150  0.6395 -0.0195 -0.4624
 3249SOL    HW221381   4.158   4.501   3.045  0.8158  2.8754  1.4835
 3250SOL     OW21382   4.485   1.413   6.322  0.1291  0.4086 -0.2042
 3250SOL    HW121383   4.397   1.438   6.295  0.2595  1.0749  0.0052
 3250SOL    HW221384   4.499   1.325   6.285  0.2435  0.1825  0.3778
 3251SOL     OW21385   1.307   3.616  13.524 -0.2522 -0.7196  0.6140
 3251SOL    HW121386   1.396   3.582  13.520  0.3713  0.9184  0.5307
 3251SOL    HW221387   1.290   3.572  13.607 -1.2575  0.6775  1.1537
 3252SOL     OW21388   3.989   0.426  12.470  0.1064  0.2750 -0.1375
 3252SOL    HW121389   3.915   0.379  12.508  0.7063  1.9554  3.0828
 3252SOL    HW221390   4.027   0.352  12.422  0.7314  0.8772 -0.5662
 3253SOL     OW21391   0.050   3.144  15.439  0.2648 -0.6942 -0.3840
 3253SOL    HW121392   0.089   3.191  15.513 -1.1745  1.9632 -1.3078
 3253SOL    HW221393   0.121   3.157  15.376  1.5447 -0.3729  1.1268
 3254SOL     OW21394   0.891   2.845   4.612 -0.3823 -0.0053 -0.3415
 3254SOL    HW121395   0.839   2.767   4.630 -1.6845  0.6779 -1.1540
 3254SOL    HW221396   0.980   2.811   4.624  0.3674  1.6862 -1.1299
 3255SOL     OW21397   3.908   2.540   1.737  0.4856  0.2852 -0.0677
 3255SOL    HW121398   3.930   2.527   1.645 -0.5830 -1.2974 -0.0973
 3255SOL    HW221399   3.978   2.484   1.773  1.4844  1.3922 -0.2875
 3256SOL     OW21400   1.517   0.313   8.957  0.7640 -0.2456 -0.2103
 3256SOL    HW121401   1.504   0.218   8.948 -1.7437  0.2076 -1.2481
 3256SOL    HW221402   1.500   0.312   9.052 -1.4298 -0.1664 -0.6018
 3257SOL     OW21403   3.530   2.577  11.905 -0.3492 -0.2726  0.4526
 3257SOL    HW121404   3.525   2.668  11.876  2.3039  0.4603  2.3315
 3257SOL    HW221405   3.578   2.585  11.987  0.4683 -0.5758 -0.0016
 3258SOL     OW21406   1.688   4.110   4.296  0.0844  0.0866 -0.2266
 3258SOL    HW121407   1.659   4.048   4.230 -2.2182 -1.6115  2.3797
 3258SOL    HW221408   1.619   4.114   4.363 -0.7620  2.1901 -1.2343
 3259SOL     OW21409   2.554   1.803   3.523 -0.3956 -0.0431  0.1751
 3259SOL    HW121410   2.527   1.762   3.605 -2.4051 -0.0374 -0.4879
 3259SOL    HW221411   2.585   1.722   3.481  1.8722  1.2777 -0.6802
 3260SOL     OW21412   0.680   2.239   3.673 -0.0827 -0.2952 -0.2954
 3260SOL    HW121413   0.751   2.301   3.689  1.8202 -2.0060 -2.3185
 3260SOL    HW221414   0.661   2.262   3.582 -0.1355 -3.5264 -1.1099
 3261SOL     OW21415   4.626   1.500  13.497 -0.0479 -0.7157 -0.1309
 3261SOL    HW121416   4.709   1.469  13.535 -1.2608 -1.6954  1.7238
 3261SOL    HW221417   4.631   1.455  13.412 -0.2466 -2.1568  0.6224
 3262SOL     OW21418   0.705   3.915   8.961 -0.6795  0.2154  0.2870
 3262SOL    HW121419   0.798   3.937   8.953 -1.1458  2.3290  0.6750
 3262SOL    HW221420   0.667   3.939   8.876 -0.1461  2.1392  0.6065
 3263SOL     OW21421   0.387   4.179   8.391 -0.8944  0.8430  0.4538
 3263SOL    HW121422   0.431   4.261   8.413 -0.4295  0.2690  1.6546
 3263SOL    HW221423   0.463   4.128   8.363 -3.3137 -1.1105 -2.5192
 3264SOL     OW21424   4.638   0.450   7.748 -0.0577 -0.2765 -0.3826
 3264SOL    HW121425   4.664   0.381   7.810  2.0880  1.8916  1.1542
 3264SOL    HW221426   4.554   0.430   7.708 -1.7640  0.8046  2.6269
 3265SOL     OW21427   0.198   0.409   6.638  0.7780  0.0319 -0.0422
 3265SOL    HW121428   0.222   0.501   6.626 -1.7660  0.8596  1.3367
 3265SOL    HW221429   0.218   0.376   6.551 -0.0878 -0.7757  0.0707
 3266SOL     OW21430   0.440   1.808  16.988  0.1174 -0.1124  0.0168
 3266SOL    HW121431   0.398   1.724  17.004 -0.2590  0.0994  0.1496
 3266SOL    HW221432   0.496   1.777  16.917  1.4359 -0.2014  1.1048
 3267SOL     OW21433   0.283   0.353  12.846 -0.4727  0.2914  0.0555
 3267SOL    HW121434   0.205   0.396  12.881 -1.7908 -1.7382 -0.3612
 3267SOL    HW221435   0.298   0.407  12.768 -3.4580 -0.2825 -0.8994
 3268SOL     OW21436   0.794   4.146   7.295 -0.3393  0.5326  0.8754
 3268SOL    HW121437   0.834   4.194   7.222 -1.3481 -1.4165 -0.9514
 3268SOL    HW221438   0.824   4.202   7.366  1.8655  0.2999  0.1393
 3269SOL     OW21439   3.612   0.231   1.442 -0.0161  0.3681  0.1546
 3269SOL    HW121440   3.537   0.264   1.491 -0.3073  1.8453 -1.2850
 3269SOL    HW221441   3.653   0.171   1.504 -0.5504 -1.5234 -1.3079
 3270SOL     OW21442   4.439   0.032  12.492 -0.3380 -0.3620  0.8034
 3270SOL    HW121443   4.442   0.127  12.504  0.9426 -0.0372 -2.1321
 3270SOL    HW221444   4.409   0.023  12.583 -2.1158 -0.3892  0.2227
 3271SOL     OW21445   2.754   3.817   6.417 -0.0169 -0.2693 -0.1944
 3271SOL    HW121446   2.750   3.803   6.322 -1.1258  2.5825 -0.5790
 3271SOL    HW221447   2.701   3.892   6.444  1.5523  0.6869  0.1899
 3272SOL     OW21448   1.187   1.691  10.239 -0.6064  0.4609  0.0450
 3272SOL    HW121449   1.250   1.651  10.179 -1.1638  0.8780 -0.8294
 3272SOL    HW221450   1.118   1.713  10.177  1.7655 -0.3268 -2.8946
 3273SOL     OW21451   4.035   4.119   5.314 -0.4194  0.8410 -0.2028
 3273SOL    HW121452   4.001   4.120   5.224  0.7956 -0.8109 -0.6767
 3273SOL    HW221453   4.128   4.137   5.295 -1.2997  3.6602 -1.7974
 3274SOL     OW21454   3.589   2.527   5.647  0.4664 -0.4881  0.2763
 3274SOL    HW121455   3.649   2.464   5.607  2.5596  1.0446  1.0060
 3274SOL    HW221456   3.515   2.467   5.655  0.1126 -0.1320 -0.3301
 3275SOL     OW21457   2.032   4.041   5.664 -0.3143 -0.3778 -0.8752
 3275SOL    HW121458   2.002   3.968   5.610  0.7239  1.2556 -3.6454
 3275SOL    HW221459   2.118   4.063   5.629 -0.3610  0.0094 -0.7439
 3276SOL     OW21460   2.242   2.424   9.132  0.4612  0.1674 -0.3904
 3276SOL    HW121461   2.197   2.339   9.140  1.3355 -0.2796 -0.2358
 3276SOL    HW221462   2.266   2.431   9.225 -0.6163 -0.3347 -0.0622
 3277SOL     OW21463   1.254   2.729  11.412  0.0023  0.4171 -0.0138
 3277SOL    HW121464   1.321   2.780  11.458  1.8520 -2.1057  0.0463
 3277SOL    HW221465   1.187   2.792  11.382  2.0856  2.1200 -1.0896
 3278SOL     OW21466   0.835   1.951   2.228 -0.7127 -0.0996 -0.1767
 3278SOL    HW121467   0.850   1.914   2.141  1.9098  0.8884 -0.1494
 3278SOL    HW221468   0.842   1.872   2.282  1.8307 -0.0055 -0.3803
 3279SOL     OW21469   0.708   0.173   7.490  0.1026 -0.8168  0.0614
 3279SOL    HW121470   0.634   0.120   7.459 -0.9955 -1.6734  4.1580
 3279SOL    HW221471   0.689   0.198   7.581  1.7934  2.5242 -0.5041
 3280SOL     OW21472   4.375   2.798   7.887  0.0594 -0.3142  0.0759
 3280SOL    HW121473   4.376   2.885   7.928  2.5374 -0.8641  1.2062
 3280SOL    HW221474   4.280   2.793   7.884  0.0963 -0.4646 -0.7000
 3281SOL     OW21475   3.941   1.498   2.271 -0.1297 -0.7062 -0.0447
 3281SOL    HW121476   3.990   1.524   2.193 -1.5335 -0.9439 -1.0140
 3281SOL    HW221477   3.852   1.527   2.251  0.7490  1.1215 -1.3014
 3282SOL     OW21478   4.552   3.180   2.832  0.5831 -0.0666 -0.5974
 3282SOL    HW121479   4.534   3.273   2.848 -1.0854 -0.1815 -1.8927
 3282SOL    HW221480   4.466   3.141   2.845  0.4373  0.0691 -1.1603
 3283SOL     OW21481   4.221   0.427   1.830  0.0915 -0.1713  0.3050
 3283SOL    HW121482   4.201   0.436   1.737 -1.2838  2.6845  0.8709
 3283SOL    HW221483   4.240   0.517   1.858 -1.0165 -0.4764  2.1055
 3284SOL     OW21484   4.119   1.606   5.462  0.3370  0.8861  0.3847
 3284SOL    HW121485   4.204   1.635   5.429  0.7527 -0.5798  0.1818
 3284SOL    HW221486   4.071   1.651   5.393  2.0579 -0.6551 -1.8076
 3285SOL     OW21487   3.318   1.411   1.843 -0.2164  0.0612 -0.2965
 3285SOL    HW121488   3.359   1.325   1.849  0.7125  0.5111 -0.1431
 3285SOL    HW221489   3.348   1.419   1.752 -1.9225  0.3701 -0.8263
 3286SOL     OW21490   4.607   4.471   7.790 -0.1559 -0.3847 -0.5109
 3286SOL    HW121491   4.585   4.398   7.847 -3.3936  2.1865  1.5888
 3286SOL    HW221492   4.539   4.531   7.822  0.1895  0.4767 -1.4011
 3287SOL     OW21493   1.998   4.246   2.708 -0.2258 -0.6880 -0.6517
 3287SOL    HW121494   1.932   4.242   2.640 -1.3278 -1.1675  0.4510
 3287SOL    HW221495   2.013   4.339   2.726  2.2059 -1.5467  1.8457
 3288SOL     OW21496   2.956   4.034   4.455 -0.2942 -0.3328 -0.0378
 3288SOL    HW121497   2.949   4.063   4.546  3.9709  1.6117 -0.3101
 3288SOL    HW221498   2.896   4.099   4.419 -1.9976 -0.3870  2.7072
 3289SOL     OW21499   0.608   1.862   3.772 -0.0512  0.7479  0.0050
 3289SOL    HW121500   0.610   1.796   3.842  1.0639  0.4584 -0.3148
 3289SOL    HW221501   0.558   1.820   3.702 -0.4271 -1.4988  1.6110
 3290SOL     OW21502   4.244   4.114   3.667 -0.5221  0.3642  0.3793
 3290SOL    HW121503   4.265   4.165   3.588  2.2447  0.0838  0.9417
 3290SOL    HW221504   4.152   4.135   3.685 -1.2718 -2.6577 -0.0092
 3291SOL     OW21505   0.307   0.053   0.999 -0.5181  0.0871  0.6561
 3291SOL    HW121506   0.263   0.045   1.084  0.8480 -0.4399  1.3095
 3291SOL    HW221507   0.257   0.118   0.950  0.8888  0.4541 -0.2851
 3292SOL     OW21508   2.136   2.694   3.101  0.3261 -0.8093 -0.5128
 3292SOL    HW121509   2.054   2.647   3.093  0.3636 -1.2721  1.8098
 3292SOL    HW221510   2.167   2.645   3.177  1.3559  0.4391 -0.1369
 3293SOL     OW21511   2.184   2.162  15.356  0.2649  0.0946  0.5821
 3293SOL    HW121512   2.222   2.079  15.386  0.5366  0.5768  1.5941
 3293SOL    HW221513   2.199   2.159  15.262  2.5646 -4.7694  1.0848
 3294SOL     OW21514   1.937   0.200  15.638 -0.7168 -0.3129 -0.0576
 3294SOL    HW121515   1.993   0.149  15.580  1.4346  1.2583  0.5891
 3294SOL    HW221516   2.000   0.271  15.654 -0.2085 -0.0755 -3.0495
 3295SOL     OW21517   2.802   3.753   9.060  0.2304 -0.1225  0.3009
 3295SOL    HW121518   2.716   3.781   9.031 -0.2867 -0.8343  1.1522
 3295SOL    HW221519   2.798   3.657   9.057  1.6407 -0.1937  0.2677
 3296SOL     OW21520   2.215   3.354   1.597  0.3085 -0.1727 -0.3305
 3296SOL    HW121521   2.208   3.340   1.503 -0.8110  1.4236 -0.4823
 3296SOL    HW221522   2.170   3.438   1.604  4.1926  1.8993  0.3885
 3297SOL     OW21523   4.120   1.134   5.721 -0.0623  0.3724 -0.7221
 3297SOL    HW121524   4.161   1.217   5.748  0.4782 -0.0187 -0.3379
 3297SOL    HW221525   4.027   1.153   5.730 -0.0267 -0.6976  1.6655
 3298SOL     OW21526   4.194   1.392   7.753 -0.1567 -0.3143 -0.2245
 3298SOL    HW121527   4.116   1.337   7.743 -0.2500  0.2473 -2.3828
 3298SOL    HW221528   4.261   1.334   7.718  0.0416 -0.8804  1.0581
 3299SOL     OW21529   3.194   3.050   3.732 -0.2256  0.4345 -0.2283
 3299SOL    HW121530   3.149   3.122   3.687 -1.6729  0.6967  1.6633
 3299SOL    HW221531   3.175   3.089   3.817 -1.7227  0.3116 -0.5000
 3300SOL     OW21532   3.392   0.753   1.698 -0.0095  0.5699  0.2498
 3300SOL    HW121533   3.370   0.819   1.764 -0.8071  0.0750  0.4753
 3300SOL    HW221534   3.384   0.670   1.744 -0.0989  0.5058  0.1184
 3301SOL     OW21535   2.957   1.765  12.470  0.1522 -0.1416 -0.3743
 3301SOL    HW121536   2.956   1.827  12.397 -1.3511  0.2145 -0.0608
 3301SOL    HW221537   2.863   1.747  12.480 -0.0558  1.8217  1.0757
 3302SOL     OW21538   1.042   2.546  10.538 -0.5201 -0.9366 -0.4047
 3302SOL    HW121539   1.047   2.503  10.624  1.3103  0.7204  0.3337
 3302SOL    HW221540   1.066   2.637  10.555  0.0997 -1.4947  1.7230
 3303SOL     OW21541   1.808   2.907  13.079  0.0899  0.3755  0.7078
 3303SOL    HW121542   1.897   2.873  13.089 -0.0350  0.3807  1.8323
 3303SOL    HW221543   1.816   2.984  13.023 -0.0843  0.1040  0.3034
 3304SOL     OW21544   1.519   2.086   1.762 -0.7932  0.8044  0.0463
 3304SOL    HW121545   1.435   2.062   1.802 -1.0294 -1.3224 -1.6969
 3304SOL    HW221546   1.553   2.000   1.736  1.6844  1.8811 -0.2837
 3305SOL     OW21547   2.290   0.275   7.588 -0.7455  0.7330 -0.2239
 3305SOL    HW121548   2.371   0.228   7.608 -1.6361  0.0522  1.8422
 3305SOL    HW221549   2.259   0.235   7.507 -0.0270  1.9685 -1.1071
 3306SOL     OW21550   0.267   3.998   8.756  0.3294 -0.2987  0.1875
 3306SOL    HW121551   0.239   3.909   8.780 -1.2855 -0.3196 -1.8333
 3306SOL    HW221552   0.203   4.046   8.807  0.4600 -1.0697  1.0859
 3307SOL     OW21553   2.913   4.214  11.846  0.6035  0.3590 -0.5146
 3307SOL    HW121554   2.832   4.237  11.800  0.6833  0.8222 -0.4293
 3307SOL    HW221555   2.956   4.299  11.840 -1.8564  1.7089  0.6411
 3308SOL     OW21556   2.140   2.968   7.306  0.5697  0.3551  0.4651
 3308SOL    HW121557   2.222   3.004   7.339  0.0050  0.7071  1.4576
 3308SOL    HW221558   2.143   3.018   7.224 -1.0196 -1.8228 -0.9063
 3309SOL     OW21559   2.060   3.565  13.648  0.0377  0.4306  0.2106
 3309SOL    HW121560   1.977   3.612  13.662 -1.3254 -1.8787 -0.1006
 3309SOL    HW221561   2.111   3.645  13.636  1.8993 -0.8924 -0.6893
 3310SOL     OW21562   1.462   2.096   4.143 -0.1024  0.1956  0.6715
 3310SOL    HW121563   1.537   2.152   4.161  0.4983 -0.7021  0.9850
 3310SOL    HW221564   1.393   2.161   4.156 -1.6368 -1.0052 -1.3613
 3311SOL     OW21565   0.453   3.163  16.231 -0.0404 -0.5410  0.1974
 3311SOL    HW121566   0.395   3.099  16.273 -0.8249 -0.0714 -0.1783
 3311SOL    HW221567   0.399   3.188  16.157 -0.3880  0.8482  0.9169
 3312SOL     OW21568   1.430   3.617   6.511 -0.0601 -0.1723  0.1564
 3312SOL    HW121569   1.348   3.666   6.507 -2.0228 -3.6343 -1.7481
 3312SOL    HW221570   1.402   3.541   6.460  1.7752  0.2172 -1.4255
 3313SOL     OW21571   3.997   4.313   5.976 -0.1776  0.4253 -0.3384
 3313SOL    HW121572   3.902   4.307   5.970 -0.3141  0.7419  1.3573
 3313SOL    HW221573   4.019   4.406   5.986  1.3639  0.1174 -0.8824
 3314SOL     OW21574   0.801   2.744   9.342  0.7827  0.1434 -0.4504
 3314SOL    HW121575   0.800   2.765   9.435  2.0943  1.5039 -0.7463
 3314SOL    HW221576   0.735   2.676   9.327  0.0188  0.7652  0.1039
 3315SOL     OW21577   3.947   2.468   4.100 -0.5736  0.3378 -0.3281
 3315SOL    HW121578   4.034   2.508   4.099 -1.0672  1.4489  0.7651
 3315SOL    HW221579   3.899   2.542   4.062  1.2915  1.5632 -0.3011
 3316SOL     OW21580   0.569   1.632   0.629 -0.1774  0.3799  0.6826
 3316SOL    HW121581   0.545   1.683   0.552 -1.6772 -0.0075  0.8890
 3316SOL    HW221582   0.644   1.576   0.608  0.7830  1.3154  1.6640
 3317SOL     OW21583   0.863   2.792  17.292  0.2041 -0.7413  0.4558
 3317SOL    HW121584   0.846   2.877  17.333  0.0653 -0.9954  0.9290
 3317SOL    HW221585   0.779   2.765  17.255  0.0080  0.1286  0.2727
 3318SOL     OW21586   4.003   3.867   0.344 -0.1453 -0.0031  0.3103
 3318SOL    HW121587   4.005   3.827   0.431 -1.7212 -1.1006 -0.1531
 3318SOL    HW221588   4.092   3.903   0.347  1.2212 -3.2464 -1.3401
 3319SOL     OW21589   1.939   2.101   6.876  1.0784  0.3296  0.1402
 3319SOL    HW121590   1.916   2.048   6.952 -2.0492  0.2673 -0.8345
 3319SOL    HW221591   1.945   2.188   6.915 -0.1559  0.8610 -0.8179
 3320SOL     OW21592   3.196   4.235  16.937  0.4605 -0.5675 -0.4255
 3320SOL    HW121593   3.167   4.244  16.847 -1.4419 -1.0807  0.1313
 3320SOL    HW221594   3.257   4.161  16.934 -1.4186 -2.0241 -2.1204
 3321SOL     OW21595   0.811   3.816   7.874  0.1213  0.0063  0.3269
 3321SOL    HW121596   0.850   3.846   7.791 -0.5611 -0.4598 -0.1615
 3321SOL    HW221597   0.864   3.861   7.940 -1.1963  2.5338 -0.3315
 3322SOL     OW21598   1.290   4.110   6.459  0.2585  0.0995 -0.4026
 3322SOL    HW121599   1.254   4.198   6.465  0.8983  0.2922  0.7482
 3322SOL    HW221600   1.356   4.119   6.390  0.2523  3.4695  0.0614
 3323SOL     OW21601   4.277   2.200   2.949 -0.0154 -0.4908 -0.5439
 3323SOL    HW121602   4.316   2.119   2.916  0.9948  0.0795 -0.7474
 3323SOL    HW221603   4.218   2.209   2.874  1.6351  1.1151 -1.6437
 3324SOL     OW21604   2.187   3.896   4.143 -0.1357  0.2016  0.2432
 3324SOL    HW121605   2.256   3.920   4.205 -0.0210  1.1416 -0.2589
 3324SOL    HW221606   2.185   3.800   4.147 -3.9278  0.3047  0.4301
 3325SOL     OW21607   0.535   2.051  11.774 -0.4069 -0.1666 -0.4454
 3325SOL    HW121608   0.495   2.015  11.853  0.0343 -0.2574 -0.2621
 3325SOL    HW221609   0.628   2.044  11.793 -0.6807 -1.7726  0.3050
 3326SOL     OW21610   3.111   4.608   7.438  0.5780  0.2571 -0.0906
 3326SOL    HW121611   3.035   4.644   7.483 -0.6263 -2.1221 -0.1841
 3326SOL    HW221612   3.087   4.625   7.347 -0.8064 -2.0070 -0.1458
 3327SOL     OW21613   4.236   2.613   9.359  0.2770 -0.3519 -0.3733
 3327SOL    HW121614   4.260   2.686   9.416  0.9476 -1.3082  0.5706
 3327SOL    HW221615   4.182   2.554   9.411 -1.4056  1.6444  0.1582
 3328SOL     OW21616   0.557   2.753   2.333  0.2103 -0.3521  0.0606
 3328SOL    HW121617   0.530   2.843   2.314  1.4836 -0.5281 -2.7152
 3328SOL    HW221618   0.626   2.767   2.398 -0.4185  0.2733  0.5824
 3329SOL     OW21619   4.210   4.632  15.035  0.3170  0.1726  0.4795
 3329SOL    HW121620   4.255   4.717  15.039  1.9206 -0.6307 -0.6628
 3329SOL    HW221621   4.122   4.668  15.049  0.2546 -0.3286  1.4040
 3330SOL     OW21622   3.805   3.963   7.940 -0.2020 -0.5898 -0.2153
 3330SOL    HW121623   3.769   3.902   8.004  1.6837  0.7610  2.1529
 3330SOL    HW221624   3.862   3.907   7.888  0.8722  1.6717 -1.4772
 3331SOL     OW21625   2.601   4.154   6.829 -0.7268  0.3389  0.1497
 3331SOL    HW121626   2.621   4.209   6.753  0.4057 -0.8585 -0.4143
 3331SOL    HW221627   2.686   4.151   6.873 -0.5771  0.8766 -0.1041
 3332SOL     OW21628   2.572   2.737   4.777 -0.0169 -0.0779  0.0331
 3332SOL    HW121629   2.499   2.779   4.823 -0.5711 -0.0318 -0.9057
 3332SOL    HW221630   2.527   2.652   4.779 -1.7086  0.8688  1.5124
 3333SOL     OW21631   3.812   3.000   8.720 -0.0339  0.2057  0.1553
 3333SOL    HW121632   3.776   3.085   8.692 -2.3154 -1.2896 -1.4629
 3333SOL    HW221633   3.836   3.024   8.810 -2.5112 -0.0821  0.8929
 3334SOL     OW21634   0.658   4.416   7.444 -0.4471  0.1184 -0.1272
 3334SOL    HW121635   0.658   4.470   7.523 -0.6347 -1.4882  0.9801
 3334SOL    HW221636   0.747   4.384   7.455 -1.8561 -3.1256  1.8115
 3335SOL     OW21637   3.231   2.099   5.104 -0.6638  0.0794  0.6369
 3335SOL    HW121638   3.248   2.005   5.113 -0.2666 -0.0534 -1.3366
 3335SOL    HW221639   3.251   2.110   5.010  0.9403 -0.8032  0.8678
 3336SOL     OW21640   1.470   3.259   8.035 -0.3464 -0.2840  0.0817
 3336SOL    HW121641   1.493   3.258   7.942  0.4575 -0.1888  0.2856
 3336SOL    HW221642   1.436   3.169   8.042 -3.3213  0.6658 -1.9360
 3337SOL     OW21643   0.874   3.744   6.493 -0.6510 -0.1366 -0.3491
 3337SOL    HW121644   0.865   3.703   6.579  0.2233 -0.2031 -0.2818
 3337SOL    HW221645   0.832   3.828   6.511 -0.2303  0.0870 -0.3994
 3338SOL     OW21646   0.588   3.034   4.156  0.4143 -0.8373 -0.0189
 3338SOL    HW121647   0.571   3.029   4.062 -2.3082  0.1680  0.4106
 3338SOL    HW221648   0.547   3.115   4.185 -0.5235 -0.8531 -1.3020
 3339SOL     OW21649   3.990   0.875   2.493 -0.0349  0.2939 -0.1446
 3339SOL    HW121650   4.083   0.865   2.474 -0.2396  1.0404 -1.5913
 3339SOL    HW221651   3.963   0.876   2.401 -1.2895  2.8499  0.2544
 3340SOL     OW21652   3.227   2.880   2.230 -0.1572 -0.6060 -0.2267
 3340SOL    HW121653   3.194   2.878   2.320 -1.4265  1.6716 -0.6543
 3340SOL    HW221654   3.267   2.793   2.221 -0.6083 -1.0240  1.7948
 3341SOL     OW21655   4.156   1.485   4.931 -0.4049  0.0384  0.1366
 3341SOL    HW121656   4.183   1.508   4.842  0.0795  1.3941  0.6389
 3341SOL    HW221657   4.070   1.528   4.934  0.4833  1.9054 -1.2784
 3342SOL     OW21658   1.021   1.059   4.141 -0.1134 -0.3526 -0.3879
 3342SOL    HW121659   0.969   1.039   4.064  0.9059  0.4205 -1.2808
 3342SOL    HW221660   1.001   0.990   4.204 -0.7917 -0.1266 -0.3555
 3343SOL     OW21661   1.303   2.249  11.507  0.2054 -0.3444 -0.4674
 3343SOL    HW121662   1.259   2.334  11.507 -0.3217 -0.6168  0.1329
 3343SOL    HW221663   1.258   2.206  11.579  1.2024 -0.0878  0.3064
 3344SOL     OW21664   3.508   3.971  16.188 -0.2615  0.1297 -0.2699
 3344SOL    HW121665   3.441   4.029  16.223  2.2056  2.0784  1.2655
 3344SOL    HW221666   3.461   3.913  16.128 -1.5321  0.0977  0.7609
 3345SOL     OW21667   1.088   1.080   7.855 -0.2707  0.6162  0.1630
 3345SOL    HW121668   1.157   1.045   7.911  1.1983  3.4671  0.1641
 3345SOL    HW221669   1.040   1.136   7.915 -0.3793  0.0092  0.6325
 3346SOL     OW21670   0.556   0.930   6.027 -0.6586 -0.7306 -0.1465
 3346SOL    HW121671   0.554   0.993   5.955  0.2942 -0.1599  0.3305
 3346SOL    HW221672   0.496   0.864   5.992 -0.2533 -1.1202 -0.1017
 3347SOL     OW21673   3.439   4.656  12.847 -0.6584 -0.5033  0.1730
 3347SOL    HW121674   3.348   4.641  12.873 -0.7357 -0.4311 -0.0555
 3347SOL    HW221675   3.465   4.565  12.830 -0.2886 -0.3125 -0.2987
 3348SOL     OW21676   0.363   3.192  15.339 -0.7172  0.0747 -0.0140
 3348SOL    HW121677   0.400   3.115  15.294 -1.1281  0.1629 -0.5038
 3348SOL    HW221678   0.402   3.261  15.286  0.3102 -1.5500 -1.3836
 3349SOL     OW21679   2.492   3.180  11.605  0.5331  0.4975 -0.3682
 3349SOL    HW121680   2.403   3.178  11.640  1.0516  2.6106  1.0894
 3349SOL    HW221681   2.521   3.270  11.620 -1.6832  1.4256 -1.6676
 3350SOL     OW21682   1.937   4.591   6.557  0.5306  0.1105  0.0411
 3350SOL    HW121683   1.978   4.677   6.546  0.4303 -0.1203 -2.2489
 3350SOL    HW221684   2.020   4.545   6.564  0.5191  0.0182 -0.3808
 3351SOL     OW21685   4.384   3.952   8.425 -0.5125  0.1349 -0.0907
 3351SOL    HW121686   4.379   3.858   8.441 -1.2419  0.0162 -0.9939
 3351SOL    HW221687   4.474   3.953   8.393 -0.7618 -0.2623 -0.8048
 3352SOL     OW21688   2.891   4.480   5.532  0.7436 -0.3867  0.4302
 3352SOL    HW121689   2.846   4.561   5.557  1.4412 -0.2847  1.3427
 3352SOL    HW221690   2.954   4.509   5.466 -1.6104 -0.0686 -1.6610
 3353SOL     OW21691   1.708   1.168   2.527  0.2747 -0.0510 -0.1533
 3353SOL    HW121692   1.707   1.248   2.474 -0.5747 -0.8408 -1.3410
 3353SOL    HW221693   1.802   1.164   2.544  0.4924 -0.3738 -1.4168
 3354SOL     OW21694   2.817   4.033   5.851  0.2181  0.7208 -0.1503
 3354SOL    HW121695   2.841   3.994   5.767  0.0650  0.5731 -0.1258
 3354SOL    HW221696   2.734   3.990   5.872  0.6740 -0.9789 -1.8724
 3355SOL     OW21697   0.093   2.842  11.723 -0.0923  0.5072 -0.2376
 3355SOL    HW121698   0.011   2.892  11.725  0.7509  1.9075 -1.2283
 3355SOL    HW221699   0.102   2.827  11.629  0.8610 -0.3734 -0.0011
 3356SOL     OW21700   4.333   0.343   3.873  0.1111 -0.4977  0.3936
 3356SOL    HW121701   4.373   0.259   3.895 -1.6189 -1.4017  0.1066
 3356SOL    HW221702   4.402   0.402   3.903 -0.4528  2.0949 -3.3581
 3357SOL     OW21703   2.824   0.933  14.950  0.1568 -0.1919 -0.0369
 3357SOL    HW121704   2.900   0.926  14.892 -0.3874  0.6386 -0.8475
 3357SOL    HW221705   2.845   1.014  14.996  0.4811 -1.1976  1.5602
 3358SOL     OW21706   2.849   0.818   2.650 -0.7695 -0.2539  0.1170
 3358SOL    HW121707   2.884   0.885   2.591 -0.4529 -0.4219  0.1123
 3358SOL    HW221708   2.831   0.758   2.578  0.5232  0.8411 -1.1097
 3359SOL     OW21709   0.448   1.379   5.606  0.5957 -0.1053 -0.6037
 3359SOL    HW121710   0.401   1.454   5.641  0.8507  0.7071 -2.0296
 3359SOL    HW221711   0.528   1.416   5.568  1.1672 -0.1767  0.5268
 3360SOL     OW21712   3.989   2.227   4.850  0.2835  0.3711  0.5859
 3360SOL    HW121713   3.907   2.254   4.891 -0.1752 -0.4379  0.1941
 3360SOL    HW221714   4.029   2.179   4.922 -0.0698  1.7786  1.7324
 3361SOL     OW21715   2.098   2.226   5.166 -0.3620 -0.3463 -0.2273
 3361SOL    HW121716   2.015   2.194   5.132 -1.3680  0.6294  1.2891
 3361SOL    HW221717   2.092   2.215   5.261  0.1274 -1.5722 -0.3439
 3362SOL     OW21718   1.291   1.200   3.787  0.2294  0.2778  0.2802
 3362SOL    HW121719   1.334   1.284   3.774 -1.2897  1.0958  0.5535
 3362SOL    HW221720   1.206   1.242   3.769 -1.3348 -2.7774  0.4653
 3363SOL     OW21721   3.225   1.750   8.077 -0.4194 -0.2275  0.5951
 3363SOL    HW121722   3.301   1.788   8.032 -0.5015 -2.0451 -1.0552
 3363SOL    HW221723   3.151   1.801   8.044  1.4399  0.2324 -2.9237
 3364SOL     OW21724   3.759   4.123   3.987  0.1639 -0.0087 -0.2440
 3364SOL    HW121725   3.758   4.218   3.987  1.3304 -0.0052 -0.0575
 3364SOL    HW221726   3.672   4.104   4.023 -0.1156  0.5462 -0.6206
 3365SOL     OW21727   4.376   4.417  15.841  0.0476  0.2329 -0.3747
 3365SOL    HW121728   4.460   4.432  15.884 -0.1548  0.8088 -0.1815
 3365SOL    HW221729   4.383   4.471  15.763 -2.9438  0.8176 -0.2430
 3366SOL     OW21730   1.813   0.836  12.287  0.1589 -0.5917  0.3964
 3366SOL    HW121731   1.827   0.931  12.276  0.2525 -0.7180 -0.5376
 3366SOL    HW221732   1.886   0.797  12.240  0.7941 -0.1387  1.0009
 3367SOL     OW21733   2.943   0.009   4.010 -0.6236  0.0343  0.6077
 3367SOL    HW121734   2.869   0.027   3.952  0.9808  0.7634 -1.2097
 3367SOL    HW221735   2.961   4.660   3.978  1.8850  0.6958  0.1955
 3368SOL     OW21736   1.991   2.202   8.524  0.2701  0.2547  0.1834
 3368SOL    HW121737   1.942   2.258   8.584 -1.8743 -0.5367 -0.8349
 3368SOL    HW221738   2.077   2.193   8.564  1.3212 -0.5793 -2.2746
 3369SOL     OW21739   0.576   3.532   0.999  0.0503 -0.1744 -0.0206
 3369SOL    HW121740   0.528   3.450   1.006 -1.2437  0.5295 -0.6704
 3369SOL    HW221741   0.646   3.524   1.064 -1.6311 -0.2708  1.7795
 3370SOL     OW21742   3.773   0.232  14.621  0.0963 -0.4298  0.4198
 3370SOL    HW121743   3.794   0.177  14.696  2.1030  2.5712  2.0957
 3370SOL    HW221744   3.861   0.220  14.586 -0.4350  0.9811 -1.3599
 3371SOL     OW21745   4.696   3.086   7.593  0.2382 -0.0680  0.3064
 3371SOL    HW121746   4.650   3.009   7.558  0.0307 -0.9093  2.4410
 3371SOL    HW221747   4.707   3.050   7.681  0.6789  0.2341  0.3762
 3372SOL     OW21748   3.105   3.948   7.808 -0.6166 -0.0532 -0.3102
 3372SOL    HW121749   3.126   3.949   7.901  0.2228 -0.2039 -0.4933
 3372SOL    HW221750   3.184   3.977   7.763 -0.1126  0.7498  1.0935
 3373SOL     OW21751   0.094   2.533   6.373 -0.0224 -0.5332 -0.1158
 3373SOL    HW121752   0.103   2.509   6.281  0.4533  0.2709 -0.2849
 3373SOL    HW221753   0.035   2.470   6.413  1.0079 -0.4300  1.5868
 3374SOL     OW21754   2.720   1.406   9.673  0.0357 -0.3272 -0.5737
 3374SOL    HW121755   2.785   1.450   9.728 -0.3688 -0.3608 -0.0708
 3374SOL    HW221756   2.775   1.340   9.630  3.3010  2.4287 -0.6503
 3375SOL     OW21757   3.480   3.978   3.700 -0.5546 -0.4830  0.2012
 3375SOL    HW121758   3.423   3.993   3.625  1.1492 -0.3937 -1.0614
 3375SOL    HW221759   3.435   4.023   3.771 -0.7792  2.7737 -2.0164
 3376SOL     OW21760   1.683   3.629  10.411 -0.0680 -0.4991 -0.4100
 3376SOL    HW121761   1.609   3.584  10.452  0.2393  2.0977  3.0310
 3376SOL    HW221762   1.635   3.697  10.365  2.1166  1.2109 -0.1835
 3377SOL     OW21763   2.897   1.150   7.286 -0.2647 -0.2157 -0.0117
 3377SOL    HW121764   2.915   1.069   7.333  0.2956  0.8121  1.5454
 3377SOL    HW221765   2.862   1.209   7.353 -0.5599 -1.9566  1.3673
 3378SOL     OW21766   3.387   1.080  11.702 -0.1535  0.0647 -0.2342
 3378SOL    HW121767   3.377   1.050  11.611 -1.7515  0.9199 -0.3360
 3378SOL    HW221768   3.367   1.002  11.753  2.1342 -1.9989 -2.4779
 3379SOL     OW21769   2.344   0.527  15.306 -0.0098  0.3019  0.3316
 3379SOL    HW121770   2.308   0.440  15.323 -2.3133  1.5161  1.5746
 3379SOL    HW221771   2.437   0.504  15.299 -0.2280 -0.3931 -0.3637
 3380SOL     OW21772   0.768   0.383   2.807 -0.1216  0.1335  0.0639
 3380SOL    HW121773   0.818   0.422   2.735  2.4508 -2.1846  0.5524
 3380SOL    HW221774   0.723   0.305   2.775  1.6323 -0.0005 -2.0691
 3381SOL     OW21775   0.780   0.579   7.262 -0.1148 -0.3376 -0.5114
 3381SOL    HW121776   0.845   0.613   7.324  0.0403 -1.0855 -0.2627
 3381SOL    HW221777   0.833   0.506   7.228 -2.0275 -1.6111 -0.7795
 3382SOL     OW21778   2.628   3.647  11.997  0.2308 -0.3745 -0.2135
 3382SOL    HW121779   2.647   3.677  12.086  1.0292  1.8546 -1.1153
 3382SOL    HW221780   2.588   3.564  12.020  0.0116 -0.0423  0.5818
 3383SOL     OW21781   1.529   2.242   2.115 -0.7752 -0.1174 -0.1322
 3383SOL    HW121782   1.564   2.220   2.029 -1.2700 -0.2164 -0.3112
 3383SOL    HW221783   1.538   2.337   2.113 -0.3301 -0.1490  0.4054
 3384SOL     OW21784   3.941   1.584   6.847 -0.3669 -0.1847 -0.4593
 3384SOL    HW121785   3.858   1.612   6.885  1.2190  1.3704  1.8381
 3384SOL    HW221786   3.910   1.579   6.757  0.2596 -0.3149 -0.6670
 3385SOL     OW21787   0.820   0.343   6.719  0.3566  0.1319 -0.4670
 3385SOL    HW121788   0.853   0.316   6.633  2.2001  1.2682 -0.1105
 3385SOL    HW221789   0.847   0.434   6.723 -1.4794  0.7034 -0.9178
 3386SOL     OW21790   1.929   1.679  17.533  0.5509 -0.3718  0.5346
 3386SOL    HW121791   1.943   1.761  17.579 -0.0730  0.1937 -0.2846
 3386SOL    HW221792   1.874   1.623  17.588  0.4298  0.9771  1.7747
 3387SOL     OW21793   3.078   0.642  11.478 -0.2331  0.3689 -0.1003
 3387SOL    HW121794   3.031   0.578  11.424 -1.0087  1.3330 -0.5643
 3387SOL    HW221795   3.005   0.679  11.527 -0.3707  0.1372 -0.1304
 3388SOL     OW21796   4.617   4.133  17.676 -0.8307 -0.1204  0.2920
 3388SOL    HW121797   4.643   4.162   0.006  2.1538 -1.4722 -0.1262
 3388SOL    HW221798   4.659   4.201  17.623 -0.1764 -0.9015 -0.1910
 3389SOL     OW21799   3.579   0.010  16.537 -0.1349  1.0282 -0.7770
 3389SOL    HW121800   3.650   4.727  16.597 -0.3158  3.5118  0.4107
 3389SOL    HW221801   3.593   4.698  16.458 -1.3156  2.4456 -1.9241
 3390SOL     OW21802   2.983   0.059   2.517 -0.2566  0.6288 -0.6262
 3390SOL    HW121803   2.957   0.016   2.436  3.7223 -0.9653 -1.0597
 3390SOL    HW221804   2.985   4.726   2.579 -1.6326 -0.0687 -1.4209
 3391SOL     OW21805   3.557   3.644   7.035  0.1745 -0.1943 -0.0483
 3391SOL    HW121806   3.616   3.698   6.983 -1.4215  0.9066 -0.7156
 3391SOL    HW221807   3.615   3.624   7.108  1.3369  1.7287 -0.4516
 3392SOL     OW21808   2.927   4.259   6.676 -0.2717  0.4220  0.6791
 3392SOL    HW121809   2.971   4.264   6.591  0.0459  0.9512  0.8766
 3392SOL    HW221810   2.985   4.195   6.718  0.0753  1.3158  1.5733
 3393SOL     OW21811   1.786   3.883   8.478  0.0589  0.5890  0.3094
 3393SOL    HW121812   1.881   3.887   8.469 -0.1690  0.1224 -2.3261
 3393SOL    HW221813   1.765   3.906   8.387 -2.4310  0.5348  0.8575
 3394SOL     OW21814   1.029   2.244   7.985 -0.1866  0.0424  0.4308
 3394SOL    HW121815   1.063   2.230   7.897 -1.4990 -2.1176  0.2711
 3394SOL    HW221816   1.008   2.153   8.004 -1.8005  0.7911  2.2557
 3395SOL     OW21817   1.785   4.178   2.548  0.2053 -0.4954 -0.6181
 3395SOL    HW121818   1.733   4.165   2.468  2.0712 -0.7899 -1.7717
 3395SOL    HW221819   1.738   4.129   2.615  0.1155 -0.1205 -0.4034
 3396SOL     OW21820   1.138   1.334   8.367 -0.1143 -0.7979  0.5143
 3396SOL    HW121821   1.174   1.367   8.449 -2.1880  0.7094  0.8259
 3396SOL    HW221822   1.053   1.376   8.382  0.4281  0.7848 -0.8242
 3397SOL     OW21823   1.989   3.922   7.406 -0.6028  0.2897 -0.8595
 3397SOL    HW121824   2.027   3.954   7.487 -0.2640  2.7496 -2.0031
 3397SOL    HW221825   1.993   3.827   7.418 -0.3259  0.6862  2.1295
 3398SOL     OW21826   3.466   1.365   4.881 -0.2633  0.1338 -0.5262
 3398SOL    HW121827   3.415   1.336   4.806  1.8462  1.7041 -2.5564
 3398SOL    HW221828   3.553   1.379   4.844 -0.7686 -1.2197 -2.2315
 3399SOL     OW21829   1.064   3.616   1.606  0.3265 -0.5975 -0.1127
 3399SOL    HW121830   1.109   3.700   1.614 -0.0233 -0.3569 -0.6437
 3399SOL    HW221831   0.973   3.640   1.624  0.5048  1.6461 -2.1827
 3400SOL     OW21832   2.937   0.581   1.195  0.1135  0.3731 -0.5242
 3400SOL    HW121833   2.953   0.496   1.155  1.6254  0.8313 -0.9021
 3400SOL    HW221834   3.023   0.623   1.203  0.5081 -0.4929 -0.2760
 3401SOL     OW21835   1.779   2.425  15.777 -0.1389  0.1981  0.0611
 3401SOL    HW121836   1.812   2.341  15.746 -0.7791 -0.8163  2.1725
 3401SOL    HW221837   1.808   2.428  15.868  1.2832  0.6053 -0.4101
 3402SOL     OW21838   2.261   0.126   8.386 -0.3340 -0.3256  0.1578
 3402SOL    HW121839   2.229   0.076   8.461 -0.0672  0.4733  0.7978
 3402SOL    HW221840   2.324   0.183   8.429 -1.3096 -0.0175  1.1769
 3403SOL     OW21841   2.052   3.907   8.416  0.1348 -0.2424 -0.2082
 3403SOL    HW121842   2.130   3.924   8.364 -1.1712  1.0647 -1.7377
 3403SOL    HW221843   2.033   3.996   8.446 -0.2706 -1.1703  2.3509
 3404SOL     OW21844   4.737   0.905  17.028 -0.0029 -0.0215 -0.5726
 3404SOL    HW121845   4.652   0.904  17.073  0.2286 -1.5241 -0.1640
 3404SOL    HW221846   0.059   0.954  17.080  0.9382 -1.6392 -0.1759
 3405SOL     OW21847   2.370   2.509  12.694 -0.1654  0.0359  0.4455
 3405SOL    HW121848   2.333   2.496  12.607  0.4111 -0.7376  0.3196
 3405SOL    HW221849   2.463   2.510  12.670  0.3653  0.6378  2.5337
 3406SOL     OW21850   2.001   2.116  11.486  0.1692  0.4189  0.5672
 3406SOL    HW121851   1.970   2.184  11.546  0.1479  1.3814 -0.5187
 3406SOL    HW221852   1.969   2.152  11.403 -3.2106  2.3673  2.7029
 3407SOL     OW21853   4.540   0.508   1.892 -0.4349  0.0034  0.1833
 3407SOL    HW121854   4.456   0.464   1.886  0.0540 -1.1553  1.7026
 3407SOL    HW221855   4.528   0.555   1.974 -2.2118 -0.5369  0.2233
 3408SOL     OW21856   4.479   4.472   4.201  0.0377  0.7548  0.0910
 3408SOL    HW121857   4.461   4.445   4.110 -0.5425 -0.7660  0.6635
 3408SOL    HW221858   4.557   4.422   4.223 -0.1322  0.9973  1.2101
 3409SOL     OW21859   0.405   2.247   8.014  0.6376 -0.0652  0.4139
 3409SOL    HW121860   0.426   2.159   7.983  0.4789  0.4648 -1.2044
 3409SOL    HW221861   0.384   2.291   7.931  0.4049  1.8218  1.4791
 3410SOL     OW21862   3.370   2.833   8.174  0.3814 -0.0865 -0.1917
 3410SOL    HW121863   3.280   2.816   8.200 -1.0821  2.1659 -3.8652
 3410SOL    HW221864   3.412   2.827   8.260 -4.0357  1.5378  2.0526
 3411SOL     OW21865   1.006   3.854   4.677 -0.3086 -0.1613 -0.1821
 3411SOL    HW121866   0.957   3.882   4.600 -1.6634 -0.0421  0.7215
 3411SOL    HW221867   1.031   3.939   4.716  2.5628 -1.0111 -0.1595
 3412SOL     OW21868   2.840   1.414  10.317  0.1672  0.1656  0.4733
 3412SOL    HW121869   2.833   1.385  10.226 -2.4116 -1.6494  1.2484
 3412SOL    HW221870   2.813   1.332  10.359 -0.3728  0.4020  0.6001
 3413SOL     OW21871   3.840   2.695   7.459 -0.0565 -0.5734  0.2165
 3413SOL    HW121872   3.777   2.715   7.528 -0.7797  1.5886 -1.0793
 3413SOL    HW221873   3.829   2.602   7.441 -1.1594 -0.3373 -0.3288
 3414SOL     OW21874   2.593   0.286   5.891  0.3177  0.0669 -0.7902
 3414SOL    HW121875   2.556   0.372   5.869  1.0533  0.1853 -1.5463
 3414SOL    HW221876   2.539   0.229   5.836 -1.1391  0.0804  0.6366
 3415SOL     OW21877   1.072   4.700  16.669  0.3249 -0.3214 -0.1811
 3415SOL    HW121878   1.065   0.023  16.597  0.1045 -2.8539 -2.3777
 3415SOL    HW221879   0.983   4.698  16.704  0.3218 -0.8050 -0.2108
 3416SOL     OW21880   1.728   3.279   7.127 -0.2488  0.2568  0.0686
 3416SOL    HW121881   1.758   3.334   7.055  0.4570 -1.1528 -0.7179
 3416SOL    HW221882   1.720   3.192   7.088 -0.1386  1.4604 -2.6246
 3417SOL     OW21883   4.656   1.108   3.686  0.0743 -0.3366 -0.5060
 3417SOL    HW121884   4.571   1.128   3.726  0.9478 -0.4854  1.4529
 3417SOL    HW221885   4.624   1.077   3.602 -2.3070  1.4462 -0.2480
 3418SOL     OW21886   3.080   1.103   9.759  0.0060 -0.0594 -0.0527
 3418SOL    HW121887   3.075   1.076   9.667  0.9667 -3.5795  0.9636
 3418SOL    HW221888   3.089   1.198   9.750 -1.5975  0.1188  0.2887
 3419SOL     OW21889   4.469   4.691   7.930 -0.2777 -0.1397  1.0743
 3419SOL    HW121890   4.448   0.040   7.958 -2.5222 -0.4244  0.3072
 3419SOL    HW221891   4.391   4.669   7.880  1.0598  1.1105 -1.5605
 3420SOL     OW21892   1.352   2.936   8.804  0.2218  0.0824  0.0660
 3420SOL    HW121893   1.360   2.965   8.713 -0.0263  0.2093  0.0849
 3420SOL    HW221894   1.365   3.023   8.841  0.7597  0.8876 -1.9945
 3421SOL     OW21895   4.666   2.722   7.316 -0.4598  0.3994  0.3087
 3421SOL    HW121896   4.642   2.662   7.387  0.8321 -1.0115 -0.4214
 3421SOL    HW221897   0.021   2.725   7.331 -0.5849 -2.1438  1.6449
 3422SOL     OW21898   4.084   1.657   7.394 -0.6800 -0.6154  0.3837
 3422SOL    HW121899   4.015   1.699   7.446 -0.7250 -0.1365 -0.0614
 3422SOL    HW221900   4.162   1.713   7.398 -1.0413  0.0962 -2.3986
 3423SOL     OW21901   4.178   1.284   8.121  0.0970 -0.4885 -0.1778
 3423SOL    HW121902   4.088   1.315   8.115  0.1661 -0.1850  0.3822
 3423SOL    HW221903   4.172   1.214   8.057 -1.7284 -1.6800  1.3097
 3424SOL     OW21904   3.970   0.371  15.227 -0.1218  0.3433 -0.6243
 3424SOL    HW121905   4.046   0.396  15.175  0.9531  0.6648  1.1029
 3424SOL    HW221906   4.005   0.297  15.276  0.6457  1.4425  0.4872
 3425SOL     OW21907   1.255   0.197   6.128 -0.2618  0.1645 -0.6843
 3425SOL    HW121908   1.225   0.149   6.051  0.5484 -1.3919 -0.0267
 3425SOL    HW221909   1.172   0.210   6.172 -0.2199  0.7896 -0.7904
 3426SOL     OW21910   1.250   1.019   4.416  0.0724  0.2862 -0.5168
 3426SOL    HW121911   1.303   0.948   4.451 -0.6583 -0.5681 -1.1369
 3426SOL    HW221912   1.187   0.967   4.365  1.6847 -1.0938 -1.0872
 3427SOL     OW21913   1.435   1.851   4.291  0.0909  0.0560 -0.7050
 3427SOL    HW121914   1.460   1.808   4.209 -0.4699  0.6351 -1.1761
 3427SOL    HW221915   1.438   1.945   4.271  0.1312  0.2801  0.3535
 3428SOL     OW21916   2.810   4.296   1.047  0.2719 -0.1411  0.2735
 3428SOL    HW121917   2.863   4.221   1.074 -1.8413 -1.7177 -0.0355
 3428SOL    HW221918   2.775   4.275   0.961 -3.0233  1.2378  1.2627
 3429SOL     OW21919   4.546   4.640   9.383  0.1466  0.0389  0.0659
 3429SOL    HW121920   4.545   4.549   9.354 -2.4637 -0.3415  1.3243
 3429SOL    HW221921   4.635   4.667   9.363  0.7785 -0.9796  1.4766
 3430SOL     OW21922   1.053   3.614   5.936  0.1728  0.9699 -0.2855
 3430SOL    HW121923   0.998   3.537   5.923  3.0205 -0.8637 -1.2972
 3430SOL    HW221924   1.135   3.579   5.971 -1.1185 -1.2713  0.4706
 3431SOL     OW21925   3.230   3.742   4.938  0.1359 -0.1635  0.3192
 3431SOL    HW121926   3.286   3.771   4.867  1.9380  0.2085  1.8852
 3431SOL    HW221927   3.264   3.655   4.960  0.7074  0.7408  3.0467
 3432SOL     OW21928   4.548   2.400   5.966  0.3974 -0.3207  0.3654
 3432SOL    HW121929   4.578   2.473   6.019 -1.5604  0.0908  0.9275
 3432SOL    HW221930   4.539   2.335   6.036 -1.6262  0.7784  1.1334
 3433SOL     OW21931   4.482   0.123   1.476  0.1906 -0.2213 -0.6958
 3433SOL    HW121932   4.442   0.209   1.491 -1.8711 -1.1752 -0.8149
 3433SOL    HW221933   4.474   0.098   1.568  1.8196 -1.2464 -0.8267
 3434SOL     OW21934   4.643   0.142   5.307  0.1479 -0.3930 -0.2491
 3434SOL    HW121935   4.718   0.193   5.336  0.1244 -0.6543  0.2881
 3434SOL    HW221936   4.600   0.205   5.250  0.3496  1.3705  1.5656
 3435SOL     OW21937   1.798   2.763   2.083  0.3176 -0.3825 -0.5552
 3435SOL    HW121938   1.855   2.696   2.044  3.3801  1.4874  0.6854
 3435SOL    HW221939   1.864   2.830   2.103 -0.6310  0.3318  0.1566
 3436SOL     OW21940   2.368   1.437  11.625  0.3602  0.3776  0.6055
 3436SOL    HW121941   2.337   1.397  11.544 -1.2602  0.1819  1.3208
 3436SOL    HW221942   2.399   1.356  11.666 -1.9208 -0.2819  1.0118
 3437SOL     OW21943   4.295   0.389   8.833  0.7842  0.0910  0.3243
 3437SOL    HW121944   4.368   0.331   8.856 -0.4219 -1.7272 -0.4102
 3437SOL    HW221945   4.342   0.443   8.770  0.0065  0.8341  0.3822
 3438SOL     OW21946   1.891   3.512   1.375  0.5535 -0.1149 -0.3962
 3438SOL    HW121947   1.975   3.551   1.351  0.8967 -0.8606 -0.3895
 3438SOL    HW221948   1.836   3.590   1.364  0.1968 -0.2379  0.5204
 3439SOL     OW21949   0.844   0.619   4.809 -0.3967 -0.5656 -0.2946
 3439SOL    HW121950   0.836   0.595   4.901 -0.4856 -0.2181 -0.2132
 3439SOL    HW221951   0.771   0.562   4.785 -3.0970  1.7377  2.5393
 3440SOL     OW21952   4.306   2.013   2.309 -0.7137 -0.2179  0.0255
 3440SOL    HW121953   4.366   2.071   2.263  0.5821 -2.5299 -1.2016
 3440SOL    HW221954   4.321   1.922   2.283  2.5218  0.3776 -0.0785
 3441SOL     OW21955   4.118   0.513   3.468 -0.1915  0.6053 -0.0665
 3441SOL    HW121956   4.029   0.493   3.439 -0.1326 -1.3937  1.1349
 3441SOL    HW221957   4.111   0.494   3.561 -0.0288 -0.2633 -0.2353
 3442SOL     OW21958   3.492   4.020   0.005 -0.4650 -0.6070  0.0633
 3442SOL    HW121959   3.432   3.961   0.051  0.4081 -1.5918 -0.0733
 3442SOL    HW221960   3.439   4.099  17.754  2.6696  1.5755  0.7994
 3443SOL     OW21961   0.747   2.828   6.991 -0.1159  0.2496  0.4341
 3443SOL    HW121962   0.757   2.778   6.910  1.0564 -0.2613  0.9030
 3443SOL    HW221963   0.655   2.817   7.016  0.1139  0.4772  1.3633
 3444SOL     OW21964   0.247   3.347   2.853  0.3459  0.2343  0.2888
 3444SOL    HW121965   0.169   3.385   2.892 -0.3553  1.6834 -2.4883
 3444SOL    HW221966   0.204   3.302   2.780  1.9217  0.4781 -0.7884
 3445SOL     OW21967   1.212   0.419   9.167  0.4726  0.5058  0.0614
 3445SOL    HW121968   1.138   0.366   9.137  0.0552  0.9575  0.2869
 3445SOL    HW221969   1.239   0.469   9.090  0.0012  2.6253  1.2583
 3446SOL     OW21970   1.185   1.392   4.343 -0.5553 -0.2048  0.3937
 3446SOL    HW121971   1.120   1.326   4.319 -0.6020 -0.2971  0.7618
 3446SOL    HW221972   1.204   1.363   4.433  1.5081 -1.6734 -0.5115
 3447SOL     OW21973   4.621   1.424   3.312  0.3089 -0.8863 -0.6474
 3447SOL    HW121974   4.710   1.397   3.289  0.9794  2.7087 -2.2015
 3447SOL    HW221975   4.614   1.426   3.408  1.7024  0.0417 -0.5641
 3448SOL     OW21976   1.101   2.981  15.504  0.2186 -0.1998 -0.0927
 3448SOL    HW121977   1.007   2.973  15.516 -0.2346  2.3987 -1.9222
 3448SOL    HW221978   1.137   2.910  15.558  1.8848  0.9134  0.2711
 3449SOL     OW21979   0.114   0.919   4.842 -0.1720 -0.1810 -0.5363
 3449SOL    HW121980   0.054   0.922   4.768 -0.1658  1.1163 -0.4884
 3449SOL    HW221981   0.130   1.006   4.879 -0.0041 -2.0679  3.8858
 3450SOL     OW21982   0.880   0.540   8.181 -0.0937  0.4549  0.3384
 3450SOL    HW121983   0.868   0.498   8.266  1.0244 -0.0456  0.2507
 3450SOL    HW221984   0.973   0.562   8.185  0.1361 -0.8308  2.0666
 3451SOL     OW21985   2.047   4.621  12.277 -0.0939  0.0305  0.4301
 3451SOL    HW121986   2.053   4.572  12.358  1.4734  0.1483  0.3871
 3451SOL    HW221987   1.953   4.620  12.258 -0.0663  0.9909  0.2237
 3452SOL     OW21988   3.857   2.465   7.968  0.4000  0.1863 -0.6632
 3452SOL    HW121989   3.824   2.467   8.058 -0.5643  1.1347 -1.0390
 3452SOL    HW221990   3.864   2.558   7.947  3.1084  0.7773  2.8313
 3453SOL     OW21991   2.020   0.499   1.832 -0.4510  0.2533  0.4592
 3453SOL    HW121992   1.939   0.522   1.878  0.8168  3.7180  0.9709
 3453SOL    HW221993   2.017   0.545   1.748  2.4437 -0.1459  0.1590
 3454SOL     OW21994   1.738   0.593   6.692 -0.1396 -0.7542  0.0512
 3454SOL    HW121995   1.738   0.499   6.707 -1.8673 -0.4280  2.1011
 3454SOL    HW221996   1.780   0.634   6.768 -0.7928  0.3124 -0.1679
 3455SOL     OW21997   0.568   0.643   9.419  0.5613  0.0909 -0.1745
 3455SOL    HW121998   0.554   0.614   9.509  2.1536  0.2446  0.1256
 3455SOL    HW221999   0.528   0.569   9.373  0.0752  0.8808 -1.0194
 3456SOL     OW22000   0.380   3.960   6.238  0.1288  0.0818  0.3391
 3456SOL    HW122001   0.403   4.041   6.193  0.2267 -0.4677 -0.6083
 3456SOL    HW222002   0.358   3.901   6.165 -1.0858  1.1209 -0.1199
 3457SOL     OW22003   2.069   3.358  11.353  0.2398  0.6618  0.0599
 3457SOL    HW122004   2.044   3.396  11.437 -1.9845  0.1671 -0.3880
 3457SOL    HW222005   2.043   3.420  11.285  0.1066 -0.1148 -0.6038
 3458SOL     OW22006   2.443   2.776   0.103 -0.2959  0.0879 -0.1166
 3458SOL    HW122007   2.365   2.810   0.058 -1.0253 -0.5436  0.6692
 3458SOL    HW222008   2.464   2.851   0.159 -0.7981  2.1738 -2.6922
 3459SOL     OW22009   2.575   3.697   9.380 -0.0845  0.4107 -0.2742
 3459SOL    HW122010   2.619   3.662   9.303 -1.5476  1.3801 -1.5363
 3459SOL    HW222011   2.489   3.657   9.396  0.2052 -0.0553  0.1365
 3460SOL     OW22012   1.755   0.376   3.320  0.5063  0.1162  0.3028
 3460SOL    HW122013   1.680   0.387   3.263  1.2803 -0.8602 -0.9056
 3460SOL    HW222014   1.716   0.304   3.370  0.6100  0.5324  0.9942
 3461SOL     OW22015   0.396   0.229  10.752 -0.0919 -0.1949 -0.0226
 3461SOL    HW122016   0.483   0.195  10.733  0.4531 -0.5393  3.0960
 3461SOL    HW222017   0.403   0.216  10.846 -1.6068 -0.6587  0.0247
 3462SOL     OW22018   2.912   0.740  11.679  0.4124 -0.9172  0.5751
 3462SOL    HW122019   2.854   0.777  11.747  2.1110  1.6964  0.5561
 3462SOL    HW222020   2.997   0.748  11.722 -0.3681  1.2990  1.7197
 3463SOL     OW22021   0.643   1.255  11.071  0.0049 -0.4493  0.1110
 3463SOL    HW122022   0.669   1.347  11.070 -0.9303 -0.1822  0.2832
 3463SOL    HW222023   0.720   1.207  11.102  0.8302  1.1318  0.5072
 3464SOL     OW22024   0.212   0.116   7.369 -0.7354 -0.5618 -0.2979
 3464SOL    HW122025   0.230   0.205   7.339 -0.1409 -0.5093  0.2336
 3464SOL    HW222026   0.267   0.113   7.447 -0.2024  1.6220 -0.5831
 3465SOL     OW22027   0.188   0.825  17.393  0.1115 -0.2101 -0.6064
 3465SOL    HW122028   0.257   0.778  17.440 -0.6009  0.4099  1.0570
 3465SOL    HW222029   0.112   0.769  17.406 -1.1340  1.6953  0.2540
 3466SOL     OW22030   4.405   0.953   2.934  0.4771  0.0120  0.6184
 3466SOL    HW122031   4.429   0.862   2.949 -0.2598 -0.2454  0.2182
 3466SOL    HW222032   4.461   0.973   2.859  1.7018 -1.8677  1.0614
 3467SOL     OW22033   3.524   1.427   3.508  0.1715  0.1271  0.4713
 3467SOL    HW122034   3.487   1.501   3.460  0.6201 -1.1307 -1.8039
 3467SOL    HW222035   3.582   1.376   3.452 -3.3093 -0.7160 -2.3239
 3468SOL     OW22036   0.310   0.296   5.583 -0.3060 -0.0196  0.4593
 3468SOL    HW122037   0.353   0.345   5.513  3.0379 -1.2398  1.6839
 3468SOL    HW222038   0.374   0.225   5.587 -0.2906  0.0216  0.9223
 3469SOL     OW22039   1.656   2.616   6.526 -0.1680  0.3848  0.0278
 3469SOL    HW122040   1.739   2.586   6.490 -1.0963 -0.8402 -1.0808
 3469SOL    HW222041   1.592   2.597   6.457  2.9834 -3.1226 -1.9054
 3470SOL     OW22042   1.762   4.665   5.264 -0.0469 -0.4082  0.0717
 3470SOL    HW122043   1.844   4.712   5.277 -1.7950  2.8155 -0.6005
 3470SOL    HW222044   1.710   4.682   5.343 -0.5344 -1.6163  0.0084
 3471SOL     OW22045   1.869   1.215   8.329  0.9180  1.0862  0.0142
 3471SOL    HW122046   1.898   1.134   8.286  0.5603  0.7165  0.4731
 3471SOL    HW222047   1.876   1.195   8.422  1.2239 -3.8419 -1.0422
 3472SOL     OW22048   1.177   3.304   8.873  0.0319  0.1024  0.3288
 3472SOL    HW122049   1.187   3.373   8.938  0.0648  1.6200 -1.2779
 3472SOL    HW222050   1.270   3.288   8.855 -0.1152 -1.3138  0.8079
 3473SOL     OW22051   0.192   1.020   6.464 -0.1710 -0.8030  0.8265
 3473SOL    HW122052   0.171   1.053   6.377 -3.1552  0.1572  1.8951
 3473SOL    HW222053   0.144   1.083   6.518  0.2485  1.7525 -1.7749
 3474SOL     OW22054   2.705   1.637   8.124  0.0560 -0.2541 -0.6716
 3474SOL    HW122055   2.758   1.656   8.046 -1.6398 -0.6512 -1.9130
 3474SOL    HW222056   2.782   1.608   8.173 -0.5114  0.8695  0.8645
 3475SOL     OW22057   2.088   0.348   7.765 -0.1641 -0.0022 -0.2413
 3475SOL    HW122058   2.137   0.354   7.683 -1.1895  2.8799 -0.6261
 3475SOL    HW222059   2.155   0.294   7.807  0.4082  0.2965 -0.7618
 3476SOL     OW22060   3.415   2.301   3.195  0.0939 -0.6122 -0.7161
 3476SOL    HW122061   3.389   2.393   3.190  0.9072 -0.3706 -0.4742
 3476SOL    HW222062   3.351   2.267   3.132 -2.0087  0.8550  0.5876
 3477SOL     OW22063   0.150   3.312   8.088  0.4328 -0.5264 -0.5156
 3477SOL    HW122064   0.069   3.311   8.140  1.5683 -0.1623  1.2724
 3477SOL    HW222065   0.180   3.400   8.109  2.0323 -1.5756  1.6418
 3478SOL     OW22066   4.588   2.114   1.577  0.1043 -0.2732 -0.1333
 3478SOL    HW122067   4.555   2.195   1.615  0.1835 -0.5208  0.4631
 3478SOL    HW222068   4.527   2.044   1.600 -0.3779  0.6836  1.5356
 3479SOL     OW22069   1.136   2.936   4.972  0.1321 -0.4013 -0.3286
 3479SOL    HW122070   1.080   2.955   5.048 -0.5497  2.5090 -1.5562
 3479SOL    HW222071   1.141   2.842   4.987 -0.3838 -0.2375  0.8967
 3480SOL     OW22072   0.528   4.167   3.425 -0.1774  0.0670 -0.0774
 3480SOL    HW122073   0.519   4.235   3.358  0.2603  0.5605  0.3671
 3480SOL    HW222074   0.442   4.169   3.467 -0.0293  0.9131  0.1902
 3481SOL     OW22075   3.332   2.553   3.095  0.5450  0.2825 -0.3984
 3481SOL    HW122076   3.312   2.647   3.085  3.0613  0.9110  0.7615
 3481SOL    HW222077   3.244   2.524   3.071 -0.1554  0.4285  2.0238
 3482SOL     OW22078   1.925   0.659   1.608 -0.5798  0.3907  0.3534
 3482SOL    HW122079   1.906   0.658   1.514 -3.6534 -0.3060  0.9977
 3482SOL    HW222080   1.839   0.690   1.636 -0.2195 -0.5578  2.5193
 3483SOL     OW22081   2.115   3.054  16.893 -0.1331 -0.2650 -0.2362
 3483SOL    HW122082   2.178   3.125  16.887 -0.8536  0.3081 -0.9698
 3483SOL    HW222083   2.041   3.111  16.915  2.8906  2.8336  1.9294
 3484SOL     OW22084   1.851   4.560   7.306  0.0881 -1.0638 -0.1368
 3484SOL    HW122085   1.826   4.613   7.382  1.5848  1.3942 -1.3551
 3484SOL    HW222086   1.765   4.524   7.285  0.5467 -1.8927 -0.5844
 3485SOL     OW22087   0.739   1.459   5.095 -0.4545  0.0858 -0.2583
 3485SOL    HW122088   0.825   1.455   5.053 -0.7784 -1.1684 -0.7846
 3485SOL    HW222089   0.681   1.510   5.039 -1.9718 -0.0817  1.1615
 3486SOL     OW22090   0.219   1.397  17.564 -0.2263 -0.3374 -0.3253
 3486SOL    HW122091   0.132   1.371  17.592  0.1451 -1.6906 -0.4637
 3486SOL    HW222092   0.233   1.472  17.622 -0.3239 -0.9063  0.4195
 3487SOL     OW22093   2.725   0.876   4.318  0.3929 -0.1524  0.2989
 3487SOL    HW122094   2.643   0.836   4.288  2.0348 -3.3353  0.0386
 3487SOL    HW222095   2.739   0.948   4.257 -1.4669  0.5228  0.6556
 3488SOL     OW22096   2.248   2.559   7.694  0.1435 -0.2550  0.1827
 3488SOL    HW122097   2.333   2.516   7.685  0.0217 -0.2693 -0.9091
 3488SOL    HW222098   2.268   2.622   7.763 -3.8528  0.7856  0.3554
 3489SOL     OW22099   0.117   0.895   6.768  0.3293  0.5557  0.7508
 3489SOL    HW122100   0.187   0.870   6.707  0.8408 -0.3412  1.7176
 3489SOL    HW222101   0.044   0.893   6.706  0.4686  1.1313  0.5708
 3490SOL     OW22102   4.327   1.333  16.989 -0.2671 -0.6758  0.1310
 3490SOL    HW122103   4.274   1.257  16.969 -0.3004 -0.9586  1.3240
 3490SOL    HW222104   4.333   1.338  17.084 -1.3523  2.7612  0.0256
 3491SOL     OW22105   1.647   1.126   9.212  0.2925  0.2487 -1.0003
 3491SOL    HW122106   1.644   1.041   9.169 -0.0155  0.1603 -0.8073
 3491SOL    HW222107   1.742   1.134   9.219  0.2608  2.4362 -3.1464
 3492SOL     OW22108   2.414   3.604  10.161  0.0855  0.5245 -0.2138
 3492SOL    HW122109   2.355   3.534  10.132  1.8463  0.0430 -2.5689
 3492SOL    HW222110   2.351   3.669  10.193 -1.5084  0.1101 -2.4742
 3493SOL     OW22111   1.144   4.182   4.540 -0.2661 -0.4907  0.5686
 3493SOL    HW122112   1.089   4.176   4.618  0.6572  3.3878  1.4916
 3493SOL    HW222113   1.223   4.220   4.578 -1.0834  1.1340  0.6146
 3494SOL     OW22114   2.510   4.596   2.992 -0.3591  0.3867  0.0879
 3494SOL    HW122115   2.573   4.525   2.982 -0.4173  0.2389  0.7349
 3494SOL    HW222116   2.448   4.577   2.923 -0.3874 -1.8614  0.7419
 3495SOL     OW22117   1.781   2.353   7.737  0.2067  0.1795 -0.3241
 3495SOL    HW122118   1.876   2.366   7.740  0.3862 -1.0403 -0.3917
 3495SOL    HW222119   1.752   2.433   7.695 -0.7779 -0.2400 -0.4297
 3496SOL     OW22120   1.501   3.884   6.097  0.2127 -0.2221 -0.4921
 3496SOL    HW122121   1.421   3.847   6.135  1.0815  0.3638  1.9159
 3496SOL    HW222122   1.519   3.822   6.026  0.6124 -2.8638  1.8905
 3497SOL     OW22123   1.987   3.141   4.989  0.0440  0.2189 -0.0937
 3497SOL    HW122124   2.058   3.204   4.984 -0.7499  1.1064 -0.2226
 3497SOL    HW222125   1.926   3.186   4.930  1.0949  0.5943 -0.8957
 3498SOL     OW22126   2.888   1.165   8.820 -0.2228  0.8437 -0.4101
 3498SOL    HW122127   2.942   1.098   8.780 -1.8159 -0.6371 -0.0743
 3498SOL    HW222128   2.864   1.216   8.743 -1.1947  0.2582 -0.4967
 3499SOL     OW22129   0.629   4.260   8.777 -0.2866  0.7988  0.3365
 3499SOL    HW122130   0.596   4.170   8.776 -0.4125  0.8358  0.9961
 3499SOL    HW222131   0.704   4.247   8.835 -2.4980  1.5292  3.3296
 3500SOL     OW22132   4.657   4.095   3.969 -0.0432 -0.1359 -0.2552
 3500SOL    HW122133   4.610   4.120   3.889 -0.0508  0.8047  0.0440
 3500SOL    HW222134   4.642   4.001   3.965  3.1702 -0.7220  1.9669
 3501SOL     OW22135   2.225   2.964   8.922  0.1272  0.0165  0.0790
 3501SOL    HW122136   2.298   2.910   8.890 -0.1083 -0.3977  0.2468
 3501SOL    HW222137   2.182   2.889   8.964 -0.9525  0.6228  0.0367
 3502SOL     OW22138   2.877   4.396   8.573  0.2002 -0.6373 -0.0440
 3502SOL    HW122139   2.837   4.341   8.641 -0.2833  0.3479  0.4714
 3502SOL    HW222140   2.953   4.422   8.625  0.2754  2.6563 -1.8025
 3503SOL     OW22141   1.811   1.992   3.706 -0.0654  0.1583  0.2883
 3503SOL    HW122142   1.819   1.901   3.735  1.0398  0.2311  0.2211
 3503SOL    HW222143   1.901   2.007   3.677 -0.6011 -0.3361 -1.5857
 3504SOL     OW22144   1.031   1.575  14.399  0.2659 -0.2924 -0.1242
 3504SOL    HW122145   1.026   1.578  14.303  1.1970  2.1499 -0.1125
 3504SOL    HW222146   0.996   1.662  14.418  2.4494  0.2787  1.3100
 3505SOL     OW22147   0.007   2.890   2.555  0.3358  0.8423 -0.8426
 3505SOL    HW122148   4.697   2.971   2.546 -1.2087 -0.0773 -0.6898
 3505SOL    HW222149   4.736   2.872   2.648  3.5348 -1.1029 -0.8570
 3506SOL     OW22150   1.017   0.863  11.570  0.2167 -0.0226 -0.3183
 3506SOL    HW122151   1.085   0.889  11.631 -1.4029  0.4605  1.2760
 3506SOL    HW222152   0.985   0.944  11.530 -3.7009 -0.5274  1.8129
 3507SOL     OW22153   4.663   4.355   3.469 -0.0115  0.4652 -0.2970
 3507SOL    HW122154   4.639   4.263   3.485  0.6598  0.0023 -1.8977
 3507SOL    HW222155   4.628   4.387   3.552 -2.7815 -1.8263 -0.5437
 3508SOL     OW22156   2.168   0.526   7.234  0.5227  0.0123 -0.2722
 3508SOL    HW122157   2.170   0.436   7.202  1.0621  0.1693 -0.6733
 3508SOL    HW222158   2.226   0.557   7.164  2.0368 -1.9704  0.1135
 3509SOL     OW22159   3.060   4.600   8.138 -0.1949 -0.0279  0.3307
 3509SOL    HW122160   3.008   4.608   8.218 -0.8191  1.0683 -0.1897
 3509SOL    HW222161   2.990   4.607   8.074  0.8778  0.3959 -0.7983
 3510SOL     OW22162   1.700   1.192   0.499  0.2216  0.2460  0.5223
 3510SOL    HW122163   1.615   1.159   0.530 -0.6725  1.4634 -0.6035
 3510SOL    HW222164   1.681   1.208   0.407 -1.1124 -1.3402  0.5118
 3511SOL     OW22165   3.593   3.963   6.607  0.4254  0.2504  0.1078
 3511SOL    HW122166   3.511   3.918   6.627  0.1496 -0.1278 -1.8752
 3511SOL    HW222167   3.581   3.966   6.512  0.2037  1.9173  0.1981
 3512SOL     OW22168   2.399   2.025   6.695 -0.2791 -0.5230  0.0390
 3512SOL    HW122169   2.349   2.060   6.621 -1.4757 -0.8716  0.6734
 3512SOL    HW222170   2.476   1.979   6.660  1.0103  1.8869 -0.2953
 3513SOL     OW22171   2.300   3.818   1.021  0.0649 -0.4855  0.4432
 3513SOL    HW122172   2.377   3.764   1.004  0.3526 -0.7908  2.7071
 3513SOL    HW222173   2.326   3.894   0.969  1.4648 -0.4890  1.1600
 3514SOL     OW22174   0.524   0.882   8.225  0.1657 -0.1249 -0.1599
 3514SOL    HW122175   0.551   0.887   8.317 -0.2349  1.3205 -0.1197
 3514SOL    HW222176   0.539   0.972   8.195  2.0852  0.0580  1.3279
 3515SOL     OW22177   1.631   0.132   9.323  0.3991  0.4477 -0.3390
 3515SOL    HW122178   1.669   0.150   9.409 -1.8110  0.0195  0.7101
 3515SOL    HW222179   1.695   0.094   9.263  0.4625 -0.2272  0.1603
 3516SOL     OW22180   0.621   0.328   1.636  0.4384 -0.2902  0.0718
 3516SOL    HW122181   0.641   0.346   1.544  1.8797 -0.4149  0.3623
 3516SOL    HW222182   0.683   0.256   1.647  1.2389  0.1568 -1.5530
 3517SOL     OW22183   3.683   0.227   6.803  0.1089  0.4250  0.4517
 3517SOL    HW122184   3.609   0.259   6.750  0.0087  0.6466  0.7269
 3517SOL    HW222185   3.718   0.159   6.745 -0.8784  0.5854 -0.3404
 3518SOL     OW22186   0.743   0.159  17.026  0.6252 -0.0986  0.3474
 3518SOL    HW122187   0.744   0.244  16.982 -1.8086  0.5940  1.6200
 3518SOL    HW222188   0.771   0.098  16.958 -2.3429 -0.0007 -0.9696
 3519SOL     OW22189   3.679   1.062   7.477 -0.0761  0.5264 -0.2761
 3519SOL    HW122190   3.627   1.140   7.460  1.4172  1.7607  0.8827
 3519SOL    HW222191   3.614   1.017   7.531  1.6238 -1.2622  0.2979
 3520SOL     OW22192   4.618   2.927   6.174  0.4518 -0.0939  0.6127
 3520SOL    HW122193   4.639   3.016   6.146 -0.0413 -0.1150  0.1762
 3520SOL    HW222194   4.544   2.925   6.235  0.6142 -1.7103  0.7761
 3521SOL     OW22195   2.551   0.379   3.010  0.5606  0.9332  0.1142
 3521SOL    HW122196   2.548   0.285   3.028  0.7289  0.1018 -4.1590
 3521SOL    HW222197   2.631   0.407   3.055  1.7705  1.7564 -2.5001
 3522SOL     OW22198   0.286   2.032  14.601  0.1072  0.6556  0.2558
 3522SOL    HW122199   0.332   1.998  14.525  1.5852  3.0913  0.0677
 3522SOL    HW222200   0.337   2.111  14.615  1.8911 -0.0892 -2.1467
 3523SOL     OW22201   2.009   1.503   0.527 -0.5884 -0.0933 -0.4132
 3523SOL    HW122202   1.962   1.489   0.610  0.2728  1.8446  0.3748
 3523SOL    HW222203   2.088   1.450   0.537 -0.4870 -0.2165 -1.8640
 3524SOL     OW22204   3.205   3.692   6.428 -0.7148 -0.0944  0.6974
 3524SOL    HW122205   3.230   3.604   6.401 -1.2699 -0.3389  0.9821
 3524SOL    HW222206   3.170   3.722   6.343 -1.4563  0.0567  1.0583
 3525SOL     OW22207   2.827   1.476   7.877  0.1704 -0.1221 -0.0827
 3525SOL    HW122208   2.751   1.528   7.852 -0.2441 -1.1904 -1.0626
 3525SOL    HW222209   2.792   1.388   7.891 -0.4764 -0.0976 -1.6404
 3526SOL     OW22210   2.578   3.075   3.470 -0.1644  0.5329  0.2537
 3526SOL    HW122211   2.530   3.071   3.552 -0.9790  0.5212 -0.2255
 3526SOL    HW222212   2.548   2.999   3.420  0.4753 -1.2574  2.5706
 3527SOL     OW22213   2.879   4.331  12.620  0.3935  0.0649 -0.7733
 3527SOL    HW122214   2.953   4.374  12.662 -0.0460 -0.3937  0.4722
 3527SOL    HW222215   2.841   4.397  12.562 -0.3479  1.8381  1.6969
 3528SOL     OW22216   2.783   1.405   6.060 -0.0244  0.3229  0.0358
 3528SOL    HW122217   2.697   1.393   6.100  0.4436  0.8943  1.1832
 3528SOL    HW222218   2.817   1.321   6.091  1.8743  0.2380 -2.2868
 3529SOL     OW22219   3.793   1.621  15.573  0.4588  0.0545 -0.2917
 3529SOL    HW122220   3.718   1.680  15.581  0.4029 -0.3687  2.0773
 3529SOL    HW222221   3.749   1.540  15.598  1.8985 -1.0280 -1.2427
 3530SOL     OW22222   0.407   0.773   5.858  0.0000 -0.0853  0.1421
 3530SOL    HW122223   0.433   0.739   5.773 -0.9777  0.1471 -0.2497
 3530SOL    HW222224   0.317   0.743   5.862 -0.3238  0.8362 -0.2470
 3531SOL     OW22225   2.866   2.509   4.677  0.5763 -0.2699  0.2122
 3531SOL    HW122226   2.791   2.490   4.733  0.2885  0.8378  0.2089
 3531SOL    HW222227   2.936   2.488   4.739  1.0292  0.3270 -0.0963
 3532SOL     OW22228   3.195   0.131  11.726 -0.3407  0.0204 -1.0715
 3532SOL    HW122229   3.276   0.148  11.679 -0.2577  1.3333 -0.4443
 3532SOL    HW222230   3.164   0.221  11.727  1.7256  0.7147 -0.5262
 3533SOL     OW22231   1.119   3.345  16.152  0.3213 -0.0145 -0.1468
 3533SOL    HW122232   1.151   3.410  16.214  1.8960 -0.6023 -0.3268
 3533SOL    HW222233   1.188   3.351  16.085 -1.3443 -0.4015 -1.8875
 3534SOL     OW22234   1.895   0.944  10.106  0.3143 -0.0523  0.2456
 3534SOL    HW122235   1.963   0.940  10.173 -0.5722  0.3948  1.1697
 3534SOL    HW222236   1.945   0.944  10.024 -0.4816 -0.2668 -0.2475
 3535SOL     OW22237   0.310   4.678  13.668  0.4241 -0.1213  0.0761
 3535SOL    HW122238   0.319   0.007  13.733 -0.3860  0.4201 -0.3918
 3535SOL    HW222239   0.215   4.667  13.661  0.6423 -1.4822 -0.7240
 3536SOL     OW22240   2.912   4.279  13.074  0.4160 -0.9042 -0.1955
 3536SOL    HW122241   2.821   4.249  13.064  0.8394 -2.4945  0.6978
 3536SOL    HW222242   2.947   4.191  13.087 -1.5350 -1.3463  2.2202
 3537SOL     OW22243   3.024   4.499   3.688  0.1692  0.1835 -0.0097
 3537SOL    HW122244   2.931   4.519   3.698 -0.2886 -2.5148  1.1724
 3537SOL    HW222245   3.038   4.465   3.776 -0.8625  1.4471  0.6518
 3538SOL     OW22246   1.452   2.916  11.469 -0.2790  0.1838 -0.0705
 3538SOL    HW122247   1.418   2.994  11.512  0.1708  1.5552 -2.2241
 3538SOL    HW222248   1.546   2.922  11.488 -0.1102 -1.0136 -0.4794
 3539SOL     OW22249   4.402   3.591  10.600 -0.0357 -0.0022  0.1532
 3539SOL    HW122250   4.412   3.663  10.663 -1.0929 -2.0425  2.6203
 3539SOL    HW222251   4.410   3.519  10.662  1.8231 -0.9430 -1.1614
 3540SOL     OW22252   0.940   0.066   5.599 -0.1876 -0.2130  0.6979
 3540SOL    HW122253   0.855   0.062   5.556  0.0037  1.9478  0.1207
 3540SOL    HW222254   0.940   4.716   5.630 -2.0593 -0.6110 -0.4574
 3541SOL     OW22255   3.278   3.843  14.996  0.0913  0.8632 -0.0987
 3541SOL    HW122256   3.286   3.886  14.911 -0.2024  1.0424 -0.0381
 3541SOL    HW222257   3.270   3.751  14.971 -1.3280  0.8278  0.4655
 3542SOL     OW22258   0.023   1.353  13.758  0.0746  0.6724 -0.0547
 3542SOL    HW122259   4.675   1.384  13.778  1.1076  4.0690 -0.8745
 3542SOL    HW222260   0.075   1.433  13.763  1.5380 -0.4804  3.0096
 3543SOL     OW22261   2.745   0.879   8.022  0.2513 -0.1702  1.0418
 3543SOL    HW122262   2.739   0.838   7.935 -2.7691  0.8448  0.7884
 3543SOL    HW222263   2.832   0.917   8.034  0.5551 -1.0790  1.7054
 3544SOL     OW22264   4.452   3.172   3.861 -0.4538 -0.4193  0.2367
 3544SOL    HW122265   4.379   3.143   3.916  2.0424 -0.1955  3.6982
 3544SOL    HW222266   4.519   3.153   3.927 -0.9977  3.3573  1.8451
 3545SOL     OW22267   2.326   1.855   4.752  0.3922 -0.1444  0.0174
 3545SOL    HW122268   2.365   1.935   4.717  1.0538 -0.6521 -0.3931
 3545SOL    HW222269   2.358   1.791   4.689  1.1437  1.2689 -1.0340
 3546SOL     OW22270   2.025   1.137  16.656 -0.1601  0.4657  0.6038
 3546SOL    HW122271   2.111   1.158  16.620 -0.1709  0.7045  0.7199
 3546SOL    HW222272   1.969   1.178  16.591 -0.5716 -0.4081  0.4063
 3547SOL     OW22273   0.663   4.447   9.444  0.0118 -0.4262  0.7302
 3547SOL    HW122274   0.726   4.444   9.516 -0.7130  0.3612  1.3991
 3547SOL    HW222275   0.705   4.518   9.394 -0.8647  0.3897  1.1597
 3548SOL     OW22276   2.618   0.511   8.688 -0.0171 -0.2913 -0.2641
 3548SOL    HW122277   2.681   0.548   8.626  2.5167 -1.1054  1.8179
 3548SOL    HW222278   2.678   0.515   8.762 -0.1034  1.4524 -0.2979
 3549SOL     OW22279   1.783   3.718  15.424  0.3020  0.1058  0.6398
 3549SOL    HW122280   1.758   3.699  15.514 -0.7848 -0.5043  0.2156
 3549SOL    HW222281   1.840   3.643  15.411 -0.9317 -0.3269 -2.4032
 3550SOL     OW22282   0.250   1.299   7.857 -0.3375  0.4048 -0.3378
 3550SOL    HW122283   0.336   1.262   7.874 -0.4215 -0.4878 -1.8620
 3550SOL    HW222284   0.213   1.267   7.939  2.7418 -1.1779  0.4152
 3551SOL     OW22285   3.932   1.723  17.342 -0.3369  0.0592  0.1366
 3551SOL    HW122286   3.864   1.751  17.282 -1.6392  1.5906  2.3131
 3551SOL    HW222287   3.969   1.653  17.288 -2.1052 -0.1530 -0.7848
 3552SOL     OW22288   1.564   4.058   2.676 -0.0359  0.1305  0.1958
 3552SOL    HW122289   1.525   4.057   2.764 -0.8220 -0.2625 -0.1616
 3552SOL    HW222290   1.511   3.990   2.635 -0.0786  0.7091 -0.7011
 3553SOL     OW22291   3.904   1.272   5.906 -0.2971  0.1515 -0.7102
 3553SOL    HW122292   3.881   1.363   5.887  0.3550 -0.3136 -3.6642
 3553SOL    HW222293   3.874   1.228   5.826 -0.7873  1.6800 -1.3579
 3554SOL     OW22294   0.155   1.042   3.828  0.1362 -0.0708  0.0221
 3554SOL    HW122295   0.086   1.072   3.769 -0.2757  1.4911  1.3134
 3554SOL    HW222296   0.224   1.106   3.809 -0.8175  1.3241  1.3310
 3555SOL     OW22297   2.635   1.911  16.810 -0.3021  0.9073  0.1559
 3555SOL    HW122298   2.718   1.957  16.825  0.0034 -0.0112  1.2365
 3555SOL    HW222299   2.593   1.987  16.770  1.9376  1.6635 -0.7715
 3556SOL     OW22300   0.121   3.928  11.494  0.0885  0.3993 -0.0558
 3556SOL    HW122301   0.027   3.914  11.494  0.3585 -1.4375  1.9949
 3556SOL    HW222302   0.149   3.878  11.571  2.9167  2.2474  0.1150
 3557SOL     OW22303   2.809   1.146   5.498 -0.2543 -0.2417 -0.1504
 3557SOL    HW122304   2.837   1.235   5.476 -0.0990 -1.0196 -3.1162
 3557SOL    HW222305   2.757   1.169   5.576  0.6456 -0.6442  0.5665
 3558SOL     OW22306   2.770   2.524   6.255  0.1138 -0.0825  0.0672
 3558SOL    HW122307   2.743   2.452   6.312 -1.2734  0.7396  0.4454
 3558SOL    HW222308   2.849   2.544   6.306  0.9138 -2.9305 -0.0024
 3559SOL     OW22309   1.854   2.512  15.395  0.6434  0.3136  0.1300
 3559SOL    HW122310   1.811   2.538  15.313 -1.2539  1.0909  1.3550
 3559SOL    HW222311   1.925   2.455  15.366 -0.0535 -0.9394  0.9045
 3560SOL     OW22312   3.461   0.196   9.256  0.4729  0.0848 -0.2622
 3560SOL    HW122313   3.487   0.222   9.344 -1.2801 -0.5314  0.4301
 3560SOL    HW222314   3.495   0.273   9.209  1.4708  0.6283  1.3580
 3561SOL     OW22315   1.447   3.428   4.992  0.3827 -0.0377 -0.6082
 3561SOL    HW122316   1.451   3.337   4.963  2.8024  0.5994 -2.2812
 3561SOL    HW222317   1.354   3.426   5.012  0.5881  0.5118  0.4185
 3562SOL     OW22318   1.972   4.583   6.231  0.1797 -0.2478 -0.0903
 3562SOL    HW122319   1.976   4.547   6.320 -3.1817 -0.8589 -0.1968
 3562SOL    HW222320   1.911   4.522   6.190 -2.2034  1.3834  1.0774
 3563SOL     OW22321   4.386   0.412  13.887 -0.7635  0.0590 -0.1166
 3563SOL    HW122322   4.477   0.437  13.898 -0.3991 -0.9493 -0.8425
 3563SOL    HW222323   4.332   0.465  13.945 -0.1912 -0.5421  0.9767
 3564SOL     OW22324   0.740   1.841   3.459 -0.1079  0.1720 -0.0808
 3564SOL    HW122325   0.686   1.890   3.397 -0.2537 -1.4839 -1.2528
 3564SOL    HW222326   0.688   1.842   3.540  1.2096 -2.4240  0.8355
 3565SOL     OW22327   4.330   4.559   9.078  0.2742 -0.4277 -0.5643
 3565SOL    HW122328   4.335   4.513   8.994 -1.1072  2.7351 -2.3688
 3565SOL    HW222329   4.412   4.607   9.076 -0.9410  1.5079 -3.4493
 3566SOL     OW22330   3.944   4.609  12.397  0.0843 -0.2261  0.1387
 3566SOL    HW122331   3.970   4.629  12.307  2.9402  2.0531  1.4881
 3566SOL    HW222332   3.867   4.665  12.404 -1.8042 -2.9321  1.0733
 3567SOL     OW22333   1.519   0.183   7.263 -0.3823 -0.9958 -0.3883
 3567SOL    HW122334   1.489   0.264   7.304 -1.3341 -0.8277 -1.4196
 3567SOL    HW222335   1.522   0.130   7.343  0.7839  0.7838  0.7426
 3568SOL     OW22336   1.605   2.667   6.809 -0.2437  0.2832  0.0125
 3568SOL    HW122337   1.691   2.669   6.851 -0.6305 -2.0964  0.9466
 3568SOL    HW222338   1.623   2.665   6.715  2.7449 -0.3127  0.5931
 3569SOL     OW22339   0.265   2.239   7.773 -0.5899 -0.2188  0.3605
 3569SOL    HW122340   0.237   2.151   7.749  0.2934 -0.5104  0.3890
 3569SOL    HW222341   0.190   2.279   7.816 -2.7356 -1.6448 -2.0591
 3570SOL     OW22342   1.262   3.706   8.445 -0.0059  0.3508 -0.4284
 3570SOL    HW122343   1.219   3.648   8.507  0.4699  1.4049  0.8763
 3570SOL    HW222344   1.357   3.691   8.450  0.3790  2.5501 -0.8644
 3571SOL     OW22345   1.632   3.637  14.389 -0.2988  0.3215 -0.0396
 3571SOL    HW122346   1.588   3.679  14.315 -0.1147  0.0512 -0.3034
 3571SOL    HW222347   1.623   3.709  14.452  1.6682  1.7115 -1.3763
 3572SOL     OW22348   1.716   0.550   2.968  0.7482 -0.3201  0.1769
 3572SOL    HW122349   1.728   0.457   2.984 -0.6116 -0.1658  2.0801
 3572SOL    HW222350   1.795   0.585   3.009  0.4608 -0.7979  1.1347
 3573SOL     OW22351   0.778   0.712   5.805 -0.5328  0.0013 -0.2491
 3573SOL    HW122352   0.819   0.759   5.733 -1.7360  0.0927 -0.8754
 3573SOL    HW222353   0.745   0.782   5.860  1.3848  1.1878 -0.6249
 3574SOL     OW22354   3.100   0.332   8.326 -0.2323 -0.3703 -0.1749
 3574SOL    HW122355   3.100   0.243   8.363 -0.7665 -0.5955 -0.7039
 3574SOL    HW222356   3.189   0.356   8.351 -1.2466  1.1788  1.9399
 3575SOL     OW22357   3.163   2.630   8.852 -0.3397  0.3710  0.1520
 3575SOL    HW122358   3.177   2.702   8.914  2.2359 -0.1182  0.1524
 3575SOL    HW222359   3.099   2.574   8.895  0.3396 -0.0566  0.6161
 3576SOL     OW22360   1.055   2.111  12.848  0.2969 -0.5195  0.3457
 3576SOL    HW122361   0.988   2.117  12.780  2.2878  1.4535 -1.4170
 3576SOL    HW222362   1.018   2.153  12.925  0.5776  0.0318  0.1742
 3577SOL     OW22363   2.313   4.420   4.942  0.0413  0.1808  0.0648
 3577SOL    HW122364   2.298   4.512   4.964  1.4046  0.6673 -1.0394
 3577SOL    HW222365   2.226   4.402   4.907 -0.5066 -0.6715  1.8841
 3578SOL     OW22366   4.459   1.383   7.065 -0.0467 -0.0619  0.7452
 3578SOL    HW122367   4.434   1.291   7.075 -2.8179  0.5198 -0.9076
 3578SOL    HW222368   4.523   1.396   7.135  2.7222 -0.8993 -1.6453
 3579SOL     OW22369   3.088   2.417   0.354  0.9670  0.1201 -0.3794
 3579SOL    HW122370   3.173   2.381   0.331 -0.2926 -2.0845 -1.5395
 3579SOL    HW222371   3.078   2.388   0.445  0.9282  0.7025 -0.1976
 3580SOL     OW22372   1.283   2.526   8.929 -0.4316 -0.1001 -0.2225
 3580SOL    HW122373   1.269   2.618   8.905  1.5676  0.7495  1.8201
 3580SOL    HW222374   1.231   2.484   8.861 -0.5974 -0.2826  0.0188
 3581SOL     OW22375   2.365   0.251   0.537  0.0651 -0.3591  0.2300
 3581SOL    HW122376   2.409   0.336   0.539 -0.3517 -0.1006 -1.5417
 3581SOL    HW222377   2.379   0.208   0.453 -1.0984  2.2132 -1.2685
 3582SOL     OW22378   4.088   0.093  16.887  0.4524 -0.1681 -0.3642
 3582SOL    HW122379   4.085   4.740  16.866  0.8482  0.0007 -1.1948
 3582SOL    HW222380   4.167   0.097  16.940  0.6669 -0.1631 -0.6802
 3583SOL     OW22381   1.391   3.620   6.846  0.0191  0.5343  0.3033
 3583SOL    HW122382   1.353   3.548   6.796  1.8602 -0.1159 -0.1425
 3583SOL    HW222383   1.328   3.687   6.819 -0.1489 -0.4214 -1.6673
 3584SOL     OW22384   3.997   3.182   1.297 -0.4082  0.1019 -0.1582
 3584SOL    HW122385   4.048   3.262   1.309  0.1921 -0.0294 -1.9667
 3584SOL    HW222386   4.072   3.125   1.283  0.8254  1.5731  0.5001
 3585SOL     OW22387   2.846   1.773  11.806  0.3170 -0.3002  0.1270
 3585SOL    HW122388   2.898   1.700  11.773 -0.5336 -0.3175 -1.1492
 3585SOL    HW222389   2.785   1.788  11.734 -1.0692  0.6668  1.4890
 3586SOL     OW22390   2.475   0.443   3.461  0.4173  0.1369 -0.1816
 3586SOL    HW122391   2.388   0.466   3.494  0.1533 -1.9869  0.6387
 3586SOL    HW222392   2.491   0.522   3.411 -1.9852  1.3091  0.9355
 3587SOL     OW22393   0.890   3.635   9.185 -0.4597  0.1264  1.1827
 3587SOL    HW122394   0.800   3.659   9.207 -1.2105 -1.5487 -0.0697
 3587SOL    HW222395   0.884   3.539   9.183  1.1762  0.1254 -2.5842
 3588SOL     OW22396   2.534   1.126   2.100  0.3946 -0.5622  0.2541
 3588SOL    HW122397   2.609   1.133   2.040  0.3125 -1.4087  0.0437
 3588SOL    HW222398   2.487   1.053   2.059 -1.1973  0.0187  1.0548
 3589SOL     OW22399   0.018   2.900   4.324  0.0610  0.3337 -0.4439
 3589SOL    HW122400   0.076   2.865   4.257 -0.5658  0.3115 -0.9661
 3589SOL    HW222401   0.063   2.984   4.330 -0.1700  0.6270 -2.8230
 3590SOL     OW22402   1.846   4.231   7.430 -0.5653 -0.9318  0.7822
 3590SOL    HW122403   1.918   4.290   7.409 -1.0739 -0.6304 -0.1336
 3590SOL    HW222404   1.877   4.190   7.511  0.1580 -1.8181  0.0473
 3591SOL     OW22405   1.983   4.059   2.277  0.1751 -0.0222  0.1438
 3591SOL    HW122406   2.043   4.103   2.216 -0.9774 -2.3290 -2.6219
 3591SOL    HW222407   1.957   4.136   2.328  0.9308 -0.6225  1.4268
 3592SOL     OW22408   1.173   2.483  11.472 -0.2775  0.4796 -0.1141
 3592SOL    HW122409   1.219   2.561  11.442 -0.5573  1.3865  1.7729
 3592SOL    HW222410   1.081   2.501  11.456 -0.6288 -0.4329  0.8313
 3593SOL     OW22411   4.412   1.977   2.573 -0.3030 -0.7482  0.5678
 3593SOL    HW122412   4.497   1.997   2.535  1.5570 -3.1819  3.4616
 3593SOL    HW222413   4.361   1.946   2.498 -0.0866  1.0652 -0.3339
 3594SOL     OW22414   2.764   3.022  14.024  0.0222  0.5259 -0.3062
 3594SOL    HW122415   2.751   2.988  14.112 -3.0620  3.5476  0.4062
 3594SOL    HW222416   2.837   3.078  14.052  2.4520 -1.9816 -1.6436
 3595SOL     OW22417   2.172   3.423  16.509  0.3550  0.0795 -0.5811
 3595SOL    HW122418   2.172   3.436  16.414  4.2257 -1.8201 -0.8257
 3595SOL    HW222419   2.180   3.510  16.548 -0.9621  0.2514 -0.6858
 3596SOL     OW22420   4.530   0.251   8.878  0.1100 -0.5506 -0.0019
 3596SOL    HW122421   4.575   0.199   8.812  1.2754  1.2118 -0.5979
 3596SOL    HW222422   4.521   0.185   8.947  0.9004  1.2667  1.8434
 3597SOL     OW22423   2.324   1.587   7.258 -0.0302  0.1187 -0.0623
 3597SOL    HW122424   2.251   1.616   7.204 -1.5201 -1.8813  0.9114
 3597SOL    HW222425   2.283   1.602   7.344  0.6827  1.3939  0.0655
 3598SOL     OW22426   3.070   1.377   2.073 -0.0131 -0.2299  0.1541
 3598SOL    HW122427   3.006   1.315   2.108  0.6016 -0.3429  1.0783
 3598SOL    HW222428   3.057   1.448   2.136 -0.2719 -0.7000  0.6369
 3599SOL     OW22429   4.463   4.128   1.498  0.1444 -0.2958  0.1948
 3599SOL    HW122430   4.464   4.073   1.420  2.4644 -1.3160  0.9362
 3599SOL    HW222431   4.389   4.182   1.469 -0.7737 -1.8221 -0.2902
 3600SOL     OW22432   0.208   0.792   8.481  0.3228  0.4846 -0.2597
 3600SOL    HW122433   0.276   0.855   8.503 -1.2445  1.2564  2.3997
 3600SOL    HW222434   0.176   0.766   8.568 -2.4912  1.1269 -1.0835
 3601SOL     OW22435   0.844   0.661   3.341 -0.4539 -0.1863 -0.0951
 3601SOL    HW122436   0.779   0.675   3.272 -1.4227 -0.6110  0.7410
 3601SOL    HW222437   0.878   0.750   3.344 -0.8168 -0.1279  2.4536
 3602SOL     OW22438   2.439   2.726   6.658 -0.4225 -0.0639 -0.3902
 3602SOL    HW122439   2.481   2.808   6.685  2.1907 -1.2559 -0.8018
 3602SOL    HW222440   2.469   2.724   6.567 -0.9265 -0.0338 -0.5549
 3603SOL     OW22441   0.302   1.933   5.169  0.2420  0.1536  0.0722
 3603SOL    HW122442   0.218   1.905   5.205  1.1849 -1.2340  1.1808
 3603SOL    HW222443   0.335   1.979   5.246 -1.6527  0.4340  0.7303
 3604SOL     OW22444   1.612   3.238   3.146 -0.7323  0.3275  0.1943
 3604SOL    HW122445   1.629   3.158   3.096  2.2332  1.0602  0.0086
 3604SOL    HW222446   1.517   3.243   3.137 -0.9229 -2.2464  0.7948
 3605SOL     OW22447   0.648   3.688   8.055  0.2350 -0.0632  0.4523
 3605SOL    HW122448   0.697   3.760   8.015  0.3827 -0.2289  0.3343
 3605SOL    HW222449   0.688   3.702   8.141  1.8100 -1.5131 -0.0575
 3606SOL     OW22450   4.474   1.323   1.410  0.4005  0.2999 -0.2506
 3606SOL    HW122451   4.551   1.274   1.439  0.5931  0.8847  0.2287
 3606SOL    HW222452   4.451   1.276   1.330  0.5453  1.4712 -0.9719
 3607SOL     OW22453   4.169   2.142  16.735  0.6237  0.0004  0.1453
 3607SOL    HW122454   4.117   2.078  16.783 -0.2416  1.2883  0.9054
 3607SOL    HW222455   4.119   2.170  16.658 -0.8615 -0.4387  0.9545
 3608SOL     OW22456   2.919   2.360  16.017  0.2371  0.5026  0.5247
 3608SOL    HW122457   2.833   2.317  16.016 -0.2614  1.5137  0.1673
 3608SOL    HW222458   2.885   2.450  16.018  0.6398  0.6543  0.5917
 3609SOL     OW22459   1.850   2.970   7.355 -0.3013  0.2412 -0.3825
 3609SOL    HW122460   1.844   2.916   7.276  0.9550 -0.4124 -0.0224
 3609SOL    HW222461   1.945   2.974   7.369 -0.5833 -0.0414  1.5893
 3610SOL     OW22462   2.791   3.794  17.577  0.1056 -0.0516 -0.5305
 3610SOL    HW122463   2.876   3.838  17.582  0.6636 -0.8089 -3.3149
 3610SOL    HW222464   2.735   3.872  17.579  0.3667  0.1458 -1.0105
 3611SOL     OW22465   2.487   1.164   1.559  0.0897  0.5565  0.1794
 3611SOL    HW122466   2.509   1.246   1.514  0.7041 -1.6174 -3.4970
 3611SOL    HW222467   2.393   1.152   1.547  0.2907  0.3313 -1.1715
 3612SOL     OW22468   2.167   2.715   2.320 -0.2161  0.3707  0.5114
 3612SOL    HW122469   2.193   2.786   2.379 -0.0023  1.1797 -0.5745
 3612SOL    HW222470   2.131   2.763   2.246 -2.9308  1.5659  2.5982
 3613SOL     OW22471   0.751   1.371   2.612  0.0115  0.1406 -0.4518
 3613SOL    HW122472   0.758   1.283   2.648  4.6847  0.1203 -1.2798
 3613SOL    HW222473   0.706   1.424   2.677 -0.5591 -0.5359 -0.3028
 3614SOL     OW22474   3.086   4.545   6.361 -0.1312 -0.3433  0.7021
 3614SOL    HW122475   3.108   4.629   6.402 -0.5866 -1.9225  4.2137
 3614SOL    HW222476   3.099   4.488   6.437 -1.2722  0.8474  1.7902
 3615SOL     OW22477   4.258   2.544  14.647  0.0983 -0.1987  0.3414
 3615SOL    HW122478   4.172   2.521  14.610 -0.7395  2.5084  0.6112
 3615SOL    HW222479   4.259   2.482  14.720 -0.6095  1.2205  1.5776
 3616SOL     OW22480   3.630   2.316   7.172  0.3630  0.0601 -0.1196
 3616SOL    HW122481   3.668   2.390   7.124  1.0078  0.9525  1.7938
 3616SOL    HW222482   3.567   2.281   7.108  0.6310 -2.2611  0.9169
 3617SOL     OW22483   3.419   2.553   0.538  0.6556 -0.2178  0.1311
 3617SOL    HW122484   3.331   2.591   0.546  0.1219 -1.7935  1.7597
 3617SOL    HW222485   3.408   2.471   0.586  0.5447  2.4422  4.6035
 3618SOL     OW22486   4.052   1.356  14.200 -0.4190  0.2156  0.1259
 3618SOL    HW122487   4.002   1.435  14.179 -0.3285  0.4147  0.6708
 3618SOL    HW222488   4.104   1.393  14.271  0.0968 -1.3154  0.5506
 3619SOL     OW22489   3.968   3.336  12.850  0.1699 -0.2650  0.1972
 3619SOL    HW122490   4.026   3.412  12.844  0.2857 -0.3433  0.3161
 3619SOL    HW222491   4.009   3.298  12.928  2.1679 -1.9348 -1.6602
 3620SOL     OW22492   3.471   3.058   8.055  0.2771  0.5149  0.2052
 3620SOL    HW122493   3.431   2.981   8.095 -2.1774  1.5388 -0.3139
 3620SOL    HW222494   3.514   3.105   8.126  0.6995  1.6960 -0.8268
 3621SOL     OW22495   1.864   0.858   5.910  0.4527 -0.1326  0.2035
 3621SOL    HW122496   1.856   0.915   5.834 -1.1989  0.0564  0.5190
 3621SOL    HW222497   1.852   0.908   5.991 -0.4049  0.1495 -0.1014
 3622SOL     OW22498   3.414   2.742   5.912  0.6608  0.1225  0.7679
 3622SOL    HW122499   3.378   2.661   5.948  1.9797 -1.1288 -0.7422
 3622SOL    HW222500   3.398   2.741   5.818 -0.4950 -0.1820  0.9645
 3623SOL     OW22501   3.755   2.847   1.579  0.7102  0.2191 -0.0069
 3623SOL    HW122502   3.731   2.868   1.670  0.6109  0.0818 -0.0005
 3623SOL    HW222503   3.813   2.920   1.559 -0.6807  1.6033  1.0109
 3624SOL     OW22504   1.851   1.060  11.485  0.2106  0.1220  0.4555
 3624SOL    HW122505   1.795   0.986  11.463  0.6747 -0.2019  0.3774
 3624SOL    HW222506   1.869   1.032  11.575  1.1446 -0.0217  0.2241
 3625SOL     OW22507   3.936   4.014  10.682 -0.2103 -0.2966  0.2377
 3625SOL    HW122508   3.959   4.062  10.602  1.1824 -2.0443 -0.3966
 3625SOL    HW222509   3.993   3.938  10.677 -0.5884 -0.7021  1.9814
 3626SOL     OW22510   3.391   4.657   3.465  0.1652 -0.1247 -0.5786
 3626SOL    HW122511   3.377   4.636   3.557 -1.7876 -0.0241 -0.8312
 3626SOL    HW222512   3.358   0.006   3.477 -1.2236 -0.6436 -0.4898
 3627SOL     OW22513   0.424   0.982   7.746  0.1752  0.5453 -0.8021
 3627SOL    HW122514   0.358   1.002   7.680 -1.0634 -0.2413  0.1893
 3627SOL    HW222515   0.415   0.888   7.762  0.0118  0.7703  0.4119
 3628SOL     OW22516   1.080   3.044  12.250  1.0195  0.8082 -0.6854
 3628SOL    HW122517   1.144   3.035  12.178  2.5409 -1.0596  0.8885
 3628SOL    HW222518   1.022   3.115  12.223  1.2687  0.8486 -1.1290
 3629SOL     OW22519   3.768   1.003   4.357 -1.0890  0.0865  0.2676
 3629SOL    HW122520   3.721   1.086   4.359 -0.0851  0.6347  1.6535
 3629SOL    HW222521   3.709   0.955   4.416 -1.6955 -0.3837 -0.7223
 3630SOL     OW22522   2.652   0.793  15.077  0.0861 -0.1869  0.3360
 3630SOL    HW122523   2.700   0.857  15.025  1.4966 -1.2835  0.2975
 3630SOL    HW222524   2.726   0.753  15.124 -0.9074  0.8138  2.7560
 3631SOL     OW22525   2.019   0.435   5.735  0.1087 -0.5145  0.0795
 3631SOL    HW122526   2.028   0.525   5.705  4.4914 -0.6473  0.8868
 3631SOL    HW222527   1.959   0.439   5.809 -1.0788 -0.6698 -0.8919
 3632SOL     OW22528   4.214   3.236   9.076 -0.1372 -0.3438  0.2208
 3632SOL    HW122529   4.216   3.332   9.075  0.8013 -0.3753 -1.0757
 3632SOL    HW222530   4.123   3.226   9.050  1.1807 -1.5953 -3.8255
 3633SOL     OW22531   1.226   3.659   3.203 -0.1021  0.2132  0.2081
 3633SOL    HW122532   1.230   3.641   3.297 -0.1669  2.1358  0.5591
 3633SOL    HW222533   1.132   3.666   3.186 -0.1347 -1.4309 -0.3446
 3634SOL     OW22534   0.192   1.890   0.011 -0.3359 -0.1076 -0.2858
 3634SOL    HW122535   0.175   1.863   0.102  1.1788 -0.4990 -0.1160
 3634SOL    HW222536   0.114   1.911  17.717  0.1021  0.2620 -0.8011
 3635SOL     OW22537   1.799   1.944   0.855  0.6321  0.3029  0.4295
 3635SOL    HW122538   1.771   2.023   0.808 -1.4392  1.0019  2.8268
 3635SOL    HW222539   1.784   1.973   0.945 -0.0486  0.0505  0.4036
 3636SOL     OW22540   1.152   1.641   6.109  0.2675  0.1984  0.4317
 3636SOL    HW122541   1.116   1.689   6.184 -0.4460 -0.7521  0.6965
 3636SOL    HW222542   1.074   1.603   6.069 -0.1028  0.6394  0.7414
 3637SOL     OW22543   1.578   4.099   0.639 -0.1712 -0.3175  0.0537
 3637SOL    HW122544   1.637   4.026   0.619  0.3958  0.2683 -0.4309
 3637SOL    HW222545   1.507   4.053   0.683  0.8440 -0.7538  1.2264
 3638SOL     OW22546   4.215   3.434   3.780 -0.0616  0.6951 -0.0695
 3638SOL    HW122547   4.227   3.378   3.702  1.3782  2.1551 -0.8879
 3638SOL    HW222548   4.261   3.511   3.747 -0.7771  0.5148 -1.5198
 3639SOL     OW22549   0.783   2.318  10.662  0.0979  0.4430 -0.3618
 3639SOL    HW122550   0.783   2.232  10.618 -1.5411 -2.0601  4.5766
 3639SOL    HW222551   0.765   2.368  10.582  2.1613 -0.5060 -1.4348
 3640SOL     OW22552   4.148   4.005   5.020 -0.0214 -0.0097  0.6066
 3640SOL    HW122553   4.094   4.081   4.997 -1.1152 -1.4058 -1.4195
 3640SOL    HW222554   4.079   3.947   5.052  0.4512 -1.8293 -1.6875
 3641SOL     OW22555   0.677   0.668  14.646  0.5668  0.2265 -0.2668
 3641SOL    HW122556   0.654   0.606  14.716 -0.3509  1.1146  0.2203
 3641SOL    HW222557   0.600   0.724  14.639  2.0901  2.0999 -1.8934
 3642SOL     OW22558   3.591   3.211   8.716  0.1551  0.0432 -0.1221
 3642SOL    HW122559   3.654   3.281   8.731  1.7385 -1.4830  0.3127
 3642SOL    HW222560   3.521   3.236   8.776  1.1907  2.0567  0.2576
 3643SOL     OW22561   1.251   1.049  12.327 -0.9387  0.2512 -0.3531
 3643SOL    HW122562   1.183   1.100  12.370 -1.7241  0.3131 -1.6612
 3643SOL    HW222563   1.272   0.994  12.402  0.2197 -1.4401 -1.9134
 3644SOL     OW22564   4.627   0.070  17.566 -0.1068 -0.3755 -0.4007
 3644SOL    HW122565   4.550   0.121  17.540 -1.0318 -1.8160 -0.4801
 3644SOL    HW222566   4.622   0.065  17.661 -0.9786  0.6301 -0.3860
 3645SOL     OW22567   3.086   2.739   1.965 -0.1796 -0.1591  0.6119
 3645SOL    HW122568   3.116   2.780   1.885 -0.4876 -0.9667  0.0816
 3645SOL    HW222569   3.099   2.804   2.034 -2.3789  1.0204 -0.1047
 3646SOL     OW22570   0.653   1.735   7.879  0.5668  0.0022 -0.5415
 3646SOL    HW122571   0.687   1.696   7.799  0.9577 -0.1090 -0.3198
 3646SOL    HW222572   0.559   1.729   7.862  0.7434  1.3347 -1.9672
 3647SOL     OW22573   2.700   2.754   5.907  0.1828  0.4000 -0.6739
 3647SOL    HW122574   2.677   2.847   5.899 -0.6208 -0.0233 -3.4400
 3647SOL    HW222575   2.794   2.764   5.918 -0.2414  1.6418  1.6694
 3648SOL     OW22576   4.421   2.137   3.467  0.1776 -0.4216 -0.4826
 3648SOL    HW122577   4.459   2.050   3.486 -1.1211 -1.2119 -1.5475
 3648SOL    HW222578   4.398   2.130   3.375 -0.5220 -1.3936 -0.2349
 3649SOL     OW22579   0.311   2.485   6.087 -0.1974  0.0590  0.9876
 3649SOL    HW122580   0.307   2.458   5.995 -1.1695 -0.4742  1.1847
 3649SOL    HW222581   0.297   2.579   6.074  1.9469 -0.1279 -2.5348
 3650SOL     OW22582   4.604   0.217   4.163 -0.0294 -0.2023 -0.4999
 3650SOL    HW122583   4.634   0.150   4.225  1.9775  2.2625  1.2141
 3650SOL    HW222584   4.685   0.249   4.124 -1.0623  1.8267 -0.9761
 3651SOL     OW22585   0.338   4.284  12.181 -0.5481  0.4923  0.1534
 3651SOL    HW122586   0.302   4.274  12.092 -1.3082 -1.7889  0.7209
 3651SOL    HW222587   0.403   4.354  12.169 -0.1712  0.0272 -0.5386
 3652SOL     OW22588   1.504   1.093   3.965 -0.0238 -0.5755 -0.3352
 3652SOL    HW122589   1.513   1.171   3.910  2.2442 -0.4529  0.2078
 3652SOL    HW222590   1.434   1.116   4.025 -0.0631 -1.5177 -0.0316
 3653SOL     OW22591   2.906   0.803   2.024 -0.0004  0.5872 -0.2784
 3653SOL    HW122592   2.822   0.799   2.069 -0.6847 -1.4609 -1.7748
 3653SOL    HW222593   2.892   0.756   1.942  1.1285 -1.6371  0.7948
 3654SOL     OW22594   3.218   4.315   4.646 -0.1312  0.2463  0.1331
 3654SOL    HW122595   3.216   4.319   4.550  0.0970  2.2915  0.2068
 3654SOL    HW222596   3.143   4.374   4.657 -0.7563 -0.4438 -0.4226
 3655SOL     OW22597   4.459   3.392   5.787  0.7348  0.4001 -0.3190
 3655SOL    HW122598   4.397   3.416   5.718 -0.4689 -2.0967 -0.0919
 3655SOL    HW222599   4.422   3.438   5.862  1.6445  1.4334 -0.4977
 3656SOL     OW22600   3.745   1.754   9.884 -0.5885 -0.3311  0.0102
 3656SOL    HW122601   3.799   1.771   9.807 -1.3023  0.5996 -0.2791
 3656SOL    HW222602   3.658   1.758   9.846 -1.2787  1.9232  1.8010
 3657SOL     OW22603   0.073   3.074   8.799  0.2891  0.3164  0.0163
 3657SOL    HW122604   0.059   3.052   8.707 -0.8610 -2.3137  0.8130
 3657SOL    HW222605   0.000   3.029   8.843  0.1788 -0.0659 -0.5516
 3658SOL     OW22606   0.608   2.174  12.934 -0.1485 -0.6175 -0.2218
 3658SOL    HW122607   0.536   2.217  12.887 -0.1303  1.5832  1.7284
 3658SOL    HW222608   0.613   2.243  13.001  0.8423 -0.7516 -0.1605
 3659SOL     OW22609   4.287   3.896   4.799 -0.1901  0.2966 -0.6253
 3659SOL    HW122610   4.294   3.812   4.845  0.1050  1.0308  0.6874
 3659SOL    HW222611   4.236   3.953   4.856 -0.3663 -0.0210 -0.4644
 3660SOL     OW22612   1.960   3.657   4.769  0.0248 -0.3597 -0.0298
 3660SOL    HW122613   2.001   3.741   4.748 -0.8332 -0.0024 -0.2953
 3660SOL    HW222614   1.935   3.672   4.860  0.2402 -0.6181  0.0723
 3661SOL     OW22615   2.078   1.623   5.664  0.1705  0.6326 -0.3652
 3661SOL    HW122616   2.011   1.674   5.619 -1.5394 -0.8007  0.5349
 3661SOL    HW222617   2.145   1.657   5.605  1.0749 -2.0272 -0.9077
 3662SOL     OW22618   0.840   2.184   2.379 -0.1576 -0.3088  0.8007
 3662SOL    HW122619   0.766   2.181   2.440  0.7841 -2.4404  1.8214
 3662SOL    HW222620   0.821   2.108   2.324  0.6196 -0.7179  1.1144
 3663SOL     OW22621   2.212   3.081   6.783 -0.4011  0.4326  0.7021
 3663SOL    HW122622   2.251   3.048   6.864  1.4530 -3.0251 -1.6189
 3663SOL    HW222623   2.275   3.152   6.770  0.5661 -0.6514 -0.4715
 3664SOL     OW22624   1.626   4.370   4.824  0.4150  0.0088 -0.0925
 3664SOL    HW122625   1.549   4.343   4.875  0.1585 -0.8265 -0.9220
 3664SOL    HW222626   1.685   4.421   4.880  1.6728  0.1347 -1.5478
 3665SOL     OW22627   2.590   4.317   8.096 -0.3154  1.1610  0.3297
 3665SOL    HW122628   2.639   4.357   8.168 -1.0761  0.0145  1.4817
 3665SOL    HW222629   2.643   4.337   8.019  1.0362  0.2038  1.0097
 3666SOL     OW22630   1.587   2.559   7.995  0.3326  0.5075  0.4882
 3666SOL    HW122631   1.527   2.505   8.047 -0.3831  0.8968  0.0658
 3666SOL    HW222632   1.534   2.638   7.987 -1.2519 -0.7075 -0.9209
 3667SOL     OW22633   4.255   3.452   8.778  0.0609 -0.1319 -0.2118
 3667SOL    HW122634   4.308   3.413   8.848  1.3234 -0.5398 -1.3981
 3667SOL    HW222635   4.326   3.495   8.731 -0.6150  1.5230  0.2609
 3668SOL     OW22636   2.271   2.439  12.951 -0.1327  0.2925  0.0836
 3668SOL    HW122637   2.202   2.503  12.971 -2.0922 -1.8865  0.3348
 3668SOL    HW222638   2.306   2.474  12.870 -1.8498 -0.7208 -1.0862
 3669SOL     OW22639   4.331   0.494   6.629 -0.4159 -0.4929  0.6712
 3669SOL    HW122640   4.326   0.422   6.692 -0.3516 -1.3101 -0.2609
 3669SOL    HW222641   4.328   0.440   6.550 -1.3152  1.5336 -0.6617
 3670SOL     OW22642   0.856   0.044   7.083  0.8973  0.7053 -0.0309
 3670SOL    HW122643   0.765   0.046   7.053  0.5454 -0.0158  1.0056
 3670SOL    HW222644   0.851   0.111   7.152  3.4830  3.6093 -2.6875
 3671SOL     OW22645   2.889   1.933   1.837  0.2429 -0.0101 -0.2079
 3671SOL    HW122646   2.817   1.871   1.822 -0.8333  0.5376  2.6515
 3671SOL    HW222647   2.876   2.001   1.771 -1.1261  2.0100  2.1371
 3672SOL     OW22648   0.050   4.513  16.320  0.7055  0.0576 -0.3884
 3672SOL    HW122649   0.079   4.529  16.230  1.5266 -1.7796 -0.4622
 3672SOL    HW222650   0.092   4.430  16.343  0.9545  0.1517 -0.5086
 3673SOL     OW22651   3.960   0.750   4.711  0.7516 -0.3862  0.0299
 3673SOL    HW122652   4.005   0.675   4.673 -0.2722 -0.7801 -0.4059
 3673SOL    HW222653   3.954   0.714   4.800 -0.3096 -4.4707 -1.6700
 3674SOL     OW22654   4.580   0.638   6.767 -0.7709  0.2644  0.9197
 3674SOL    HW122655   4.502   0.599   6.727 -1.1236  1.7162  0.1938
 3674SOL    HW222656   4.607   0.691   6.693  0.0261 -0.2551  0.8389
 3675SOL     OW22657   4.027   3.369  11.303 -0.0240 -0.1000  0.2449
 3675SOL    HW122658   4.028   3.465  11.312 -1.8079 -0.1514  0.9756
 3675SOL    HW222659   3.950   3.360  11.247 -1.3911  1.2664  1.8964
 3676SOL     OW22660   3.930   4.243   8.305 -0.3930 -0.4796 -0.0707
 3676SOL    HW122661   3.898   4.227   8.216 -0.4193  0.7050 -0.2685
 3676SOL    HW222662   4.023   4.249   8.284  0.5980 -2.1142  3.8380
 3677SOL     OW22663   1.921   0.745  12.780  0.1415  0.2206 -0.4834
 3677SOL    HW122664   1.886   0.690  12.709  0.6046  0.5858 -0.9962
 3677SOL    HW222665   2.003   0.770  12.737 -1.2079  2.6427 -1.6669
 3678SOL     OW22666   4.139   2.603   9.061 -0.4009 -0.0850 -0.3941
 3678SOL    HW122667   4.157   2.644   9.146  0.8513  1.6129 -1.4734
 3678SOL    HW222668   4.051   2.570   9.083  0.3664 -2.7948 -1.4444
 3679SOL     OW22669   4.631   1.243   8.611 -0.3719  0.3142  0.3029
 3679SOL    HW122670   4.606   1.330   8.581  1.6949  1.4806  1.9612
 3679SOL    HW222671   4.718   1.255   8.648 -1.3493  1.6589  2.1925
 3680SOL     OW22672   3.789   2.616   2.233 -0.2835 -0.0052  0.3537
 3680SOL    HW122673   3.740   2.661   2.165  0.8248 -0.8229 -0.9963
 3680SOL    HW222674   3.741   2.652   2.308  1.8020 -0.8876  2.1203
 3681SOL     OW22675   2.194   3.225   8.884 -1.1150  0.4822  0.0978
 3681SOL    HW122676   2.163   3.260   8.968  2.1487 -1.5343  2.1365
 3681SOL    HW222677   2.198   3.132   8.906 -1.3953  0.4828  0.1507
 3682SOL     OW22678   0.992   2.924   4.289 -0.5173 -0.4346  0.6873
 3682SOL    HW122679   0.976   2.832   4.265 -1.4808  0.4948 -2.1879
 3682SOL    HW222680   1.028   2.925   4.378  2.4623 -0.6527 -0.5337
 3683SOL     OW22681   3.909   0.815   5.797  0.4756  0.0942  0.0500
 3683SOL    HW122682   3.980   0.789   5.737  0.2121  1.7722 -0.9756
 3683SOL    HW222683   3.845   0.854   5.738  2.2389  1.4570 -0.9619
 3684SOL     OW22684   0.981   3.170   5.728 -0.4661  0.8005  0.4733
 3684SOL    HW122685   0.908   3.151   5.787 -2.3725  1.4502 -1.6815
 3684SOL    HW222686   0.931   3.180   5.647 -1.5522 -3.3472  0.6693
 3685SOL     OW22687   0.747   3.971   3.180  0.3929 -0.7546 -0.2389
 3685SOL    HW122688   0.705   3.957   3.095 -1.9568 -0.2527  0.8207
 3685SOL    HW222689   0.794   4.051   3.158 -0.3410 -0.7697 -1.8753
 3686SOL     OW22690   1.511   2.976   9.897  0.0042  0.4187  0.3055
 3686SOL    HW122691   1.443   2.996   9.833 -1.2764 -3.1101  0.5377
 3686SOL    HW222692   1.520   3.057   9.947  2.2691  0.3035  0.0808
 3687SOL     OW22693   2.917   2.036  16.837 -0.0285  0.2372  0.4288
 3687SOL    HW122694   2.998   2.050  16.885  0.5493 -1.2054 -0.1572
 3687SOL    HW222695   2.855   2.079  16.897 -0.3875  0.6584 -0.2466
 3688SOL     OW22696   0.162   2.632  14.257  0.1799  0.2395 -0.0891
 3688SOL    HW122697   0.184   2.600  14.169 -2.0136 -3.0251  0.5408
 3688SOL    HW222698   0.166   2.725  14.235  1.5244  0.5985  1.8029
 3689SOL     OW22699   0.151   1.651  12.049  0.1516  0.1466 -0.9464
 3689SOL    HW122700   0.083   1.605  12.098  0.6764  1.3247  0.8830
 3689SOL    HW222701   0.231   1.614  12.088 -2.4230 -2.2684  2.0486
 3690SOL     OW22702   2.442   2.134   9.352 -0.0286 -0.5539 -0.2191
 3690SOL    HW122703   2.432   2.127   9.257  2.2139 -0.7672 -0.4415
 3690SOL    HW222704   2.493   2.215   9.354 -1.5750  0.4187  0.4103
 3691SOL     OW22705   3.126   1.204   2.497 -0.2374  0.0120  0.2424
 3691SOL    HW122706   3.193   1.142   2.525 -0.2582 -0.2627 -0.3081
 3691SOL    HW222707   3.183   1.235   2.426 -1.0974 -0.6457 -0.7342
 3692SOL     OW22708   3.234   1.828   7.087 -0.1356  0.2741  0.2221
 3692SOL    HW122709   3.170   1.883   7.040  0.1986  0.4411 -0.0368
 3692SOL    HW222710   3.313   1.871   7.054  0.2680 -1.2587 -0.7569
 3693SOL     OW22711   1.509   0.911   3.141  0.1271 -0.0212 -1.0637
 3693SOL    HW122712   1.447   0.855   3.187  0.6661  1.0832  1.0474
 3693SOL    HW222713   1.509   0.868   3.056  0.2792 -1.7680 -0.1726
 3694SOL     OW22714   1.553   3.172   5.550  0.0483 -0.1750  0.1701
 3694SOL    HW122715   1.585   3.121   5.476 -0.7163 -0.1701 -0.1616
 3694SOL    HW222716   1.532   3.105   5.616  2.4280 -0.4108  0.6753
 3695SOL     OW22717   2.106   4.448  15.176  0.3638  0.9180 -0.4194
 3695SOL    HW122718   2.042   4.377  15.175  3.1638 -1.6067  5.1530
 3695SOL    HW222719   2.087   4.481  15.264 -2.4511 -0.5060 -0.5082
 3696SOL     OW22720   4.117   0.859   7.682  0.3989  0.6511 -0.6206
 3696SOL    HW122721   4.190   0.920   7.687 -0.1169  1.1306  0.8141
 3696SOL    HW222722   4.058   0.913   7.629  1.0048  2.2427  0.3443
 3697SOL     OW22723   1.230   1.519   8.576  0.3276 -0.1803  0.0275
 3697SOL    HW122724   1.282   1.581   8.628  0.9583  0.6978 -1.6407
 3697SOL    HW222725   1.289   1.529   8.502  1.2711 -0.7198  0.7187
 3698SOL     OW22726   2.914   4.599   0.599 -0.0632  0.2709  0.0388
 3698SOL    HW122727   2.851   4.589   0.670 -1.0574 -0.5928 -0.9553
 3698SOL    HW222728   2.876   4.672   0.550 -0.4298  1.7474  2.5564
 3699SOL     OW22729   0.272   0.602   4.080 -0.2293 -0.5273 -0.9141
 3699SOL    HW122730   0.275   0.668   4.149  0.1134 -0.7238 -0.7410
 3699SOL    HW222731   0.293   0.656   4.004 -0.0528 -1.0195 -1.2119
 3700SOL     OW22732   1.813   2.042  12.401 -0.0874  0.1424 -0.2870
 3700SOL    HW122733   1.827   2.093  12.480 -2.9165 -3.1888  2.3481
 3700SOL    HW222734   1.863   1.962  12.419  0.2226  0.8249  1.8077
 3701SOL     OW22735   4.523   4.171   3.739 -0.6962 -0.7864  0.3294
 3701SOL    HW122736   4.501   4.250   3.689 -2.7597 -1.0456  0.8630
 3701SOL    HW222737   4.578   4.120   3.680 -0.7703  0.5780 -0.9098
 3702SOL     OW22738   1.335   1.744   5.084  0.1693 -0.2259  0.6447
 3702SOL    HW122739   1.309   1.812   5.145 -1.3787  0.0001 -0.2657
 3702SOL    HW222740   1.413   1.795   5.064  0.4987 -0.8290  0.3780
 3703SOL     OW22741   2.266   3.776   6.848 -0.1840 -0.5004  0.3133
 3703SOL    HW122742   2.190   3.828   6.873 -0.1353 -0.0628 -0.4573
 3703SOL    HW222743   2.240   3.694   6.890  0.0301 -0.7144  0.0292
 3704SOL     OW22744   2.378   1.020   0.192  0.2918 -0.2738 -0.1647
 3704SOL    HW122745   2.417   1.105   0.168 -0.4834 -0.1318 -0.9464
 3704SOL    HW222746   2.292   1.049   0.220 -0.1682  0.7721 -2.6221
 3705SOL     OW22747   4.137   4.352   7.469 -0.9015 -0.0456  0.9097
 3705SOL    HW122748   4.220   4.316   7.499 -0.9839 -0.9201  0.0925
 3705SOL    HW222749   4.096   4.313   7.546  0.9180 -0.9612  1.4087
 3706SOL     OW22750   3.514   0.342   6.251 -0.5835  0.5889  0.0505
 3706SOL    HW122751   3.503   0.438   6.251 -0.6360  0.5845  0.5486
 3706SOL    HW222752   3.516   0.332   6.156 -3.2966 -1.4918  0.2233
 3707SOL     OW22753   2.466   0.255   1.527 -0.1576  0.5110 -0.4581
 3707SOL    HW122754   2.493   0.225   1.613 -1.2410 -0.7148 -0.5402
 3707SOL    HW222755   2.427   0.174   1.493  1.5505 -0.7751  0.6174
 3708SOL     OW22756   1.077   3.557   9.814 -0.5985 -0.0202  0.3889
 3708SOL    HW122757   1.015   3.502   9.860 -0.9588  1.4071  1.6191
 3708SOL    HW222758   1.044   3.642   9.843 -0.3484 -0.0407  0.7253
 3709SOL     OW22759   1.573   3.471   3.707 -0.2187 -0.5304 -0.2941
 3709SOL    HW122760   1.605   3.391   3.666 -0.2682 -0.9232  0.4416
 3709SOL    HW222761   1.482   3.443   3.718 -0.3452  0.0030  0.0007
 3710SOL     OW22762   1.528   2.100   6.071 -0.7553 -0.0022 -0.0228
 3710SOL    HW122763   1.511   2.014   6.111 -2.4725  0.6534  0.6373
 3710SOL    HW222764   1.485   2.091   5.986  0.9166 -1.7744 -0.6932
 3711SOL     OW22765   0.125   2.608   5.091  0.0438  0.0920  0.1296
 3711SOL    HW122766   0.093   2.614   5.001 -0.8149 -2.4654  0.2817
 3711SOL    HW222767   0.208   2.565   5.072 -1.1020 -2.1104  0.1614
 3712SOL     OW22768   3.026   0.753   4.156 -0.3737  0.0478 -0.0694
 3712SOL    HW122769   3.001   0.712   4.073 -0.4462 -1.7928  0.8621
 3712SOL    HW222770   2.980   0.700   4.221  0.2574 -0.2672  0.1172
 3713SOL     OW22771   1.703   3.706  15.151  0.5604 -0.6063 -0.0100
 3713SOL    HW122772   1.745   3.732  15.233  1.5291 -2.4813  0.1020
 3713SOL    HW222773   1.628   3.663  15.191  1.2770 -0.9006  1.0296
 3714SOL     OW22774   4.398   0.229   1.193 -0.0496 -0.3229 -0.1055
 3714SOL    HW122775   4.400   0.159   1.259 -0.3047 -0.1115  0.1278
 3714SOL    HW222776   4.309   0.231   1.157  0.2936 -1.4890 -1.0258
 3715SOL     OW22777   2.272   4.411   5.912  0.2651  0.0945  0.6970
 3715SOL    HW122778   2.222   4.333   5.938 -1.0215  0.1526 -1.6346
 3715SOL    HW222779   2.208   4.454   5.856 -0.2807 -0.6093  0.7746
 3716SOL     OW22780   1.519   3.924   4.671 -0.3578  0.2922 -0.0877
 3716SOL    HW122781   1.484   3.937   4.760  1.8242 -2.3614  1.1497
 3716SOL    HW222782   1.556   3.836   4.678 -0.5624  0.3214  1.3979
 3717SOL     OW22783   3.999   3.069   6.458  0.2063 -0.4724 -0.2963
 3717SOL    HW122784   3.967   2.997   6.513 -2.7444  0.7955 -0.3781
 3717SOL    HW222785   4.008   3.144   6.518  1.4365 -1.2363  0.4809
 3718SOL     OW22786   2.505   0.037   9.527 -0.3155  0.3943 -0.2710
 3718SOL    HW122787   2.503   4.735   9.613  1.5574 -1.5509 -1.1636
 3718SOL    HW222788   2.551   0.117   9.551 -0.2481 -0.3279  1.9517
 3719SOL     OW22789   3.962   4.517   4.813 -0.1945  0.2043 -0.2475
 3719SOL    HW122790   3.989   4.429   4.788  0.8234  0.6467 -0.7227
 3719SOL    HW222791   3.994   4.528   4.903 -2.3576 -2.9563  0.8898
 3720SOL     OW22792   2.887   3.603  11.884  0.0521  0.4763  0.2557
 3720SOL    HW122793   2.918   3.655  11.958  2.6068  0.6547 -0.9678
 3720SOL    HW222794   2.796   3.627  11.900  0.4423  0.2333  2.9429
 3721SOL     OW22795   2.052   4.373   7.284  0.2736  0.6477  0.1229
 3721SOL    HW122796   1.999   4.453   7.276  0.6046  0.6542 -1.8622
 3721SOL    HW222797   2.113   4.399   7.353  3.9095  0.5339 -3.1008
 3722SOL     OW22798   0.381   2.918   7.545  0.0813  0.3250  0.1613
 3722SOL    HW122799   0.368   3.012   7.551 -2.9313 -0.0178 -0.9572
 3722SOL    HW222800   0.449   2.902   7.480 -1.6320  1.7919 -1.9806
 3723SOL     OW22801   0.380   4.231   8.902 -0.0095  0.2295  0.3538
 3723SOL    HW122802   0.470   4.235   8.870  0.0247 -0.0693  0.4118
 3723SOL    HW222803   0.341   4.163   8.846  0.9410 -0.0437  0.0124
 3724SOL     OW22804   0.039   4.543   4.095  0.1225  0.1875  0.0724
 3724SOL    HW122805   0.008   4.613   4.152 -2.1373  0.6988 -1.7840
 3724SOL    HW222806   0.030   4.470   4.156 -0.3177  0.2480  0.0825
 3725SOL     OW22807   4.089   2.995  13.014 -0.3177  0.0964 -0.3372
 3725SOL    HW122808   4.077   2.916  13.067  0.0989  0.3434  0.1308
 3725SOL    HW222809   4.128   2.961  12.934  2.5212  1.4701  0.4443
 3726SOL     OW22810   1.347   4.189   4.719  0.0019  0.2076  1.2230
 3726SOL    HW122811   1.366   4.191   4.813  2.9289 -1.6596  0.6769
 3726SOL    HW222812   1.337   4.094   4.719 -0.7336  0.2883  3.3693
 3727SOL     OW22813   2.118   3.341  14.990  0.0366 -1.1557  0.0541
 3727SOL    HW122814   2.071   3.273  15.040  0.9209 -1.5814  0.3107
 3727SOL    HW222815   2.058   3.416  14.992 -0.0159 -1.2165  1.1007
 3728SOL     OW22816   0.820   0.527  12.621 -0.3298  0.4124  0.1700
 3728SOL    HW122817   0.811   0.558  12.530 -1.5080 -1.1412 -0.2392
 3728SOL    HW222818   0.907   0.546  12.654 -0.7202  0.4464  1.1700
 3729SOL     OW22819   4.039   2.347   6.404 -0.2186  0.4974 -0.5477
 3729SOL    HW122820   4.101   2.292   6.356 -0.7078 -1.8579  1.5641
 3729SOL    HW222821   3.966   2.328   6.345 -0.5413  0.2472 -0.0622
 3730SOL     OW22822   1.310   3.575   5.718  0.0061 -0.2992  0.2425
 3730SOL    HW122823   1.262   3.494   5.698 -0.6351  0.9789 -3.4271
 3730SOL    HW222824   1.369   3.581   5.643  1.2399 -0.0594  1.2319
 3731SOL     OW22825   2.384   3.390   2.356  0.5229 -0.7196 -0.0549
 3731SOL    HW122826   2.448   3.322   2.379  1.7756  0.4071 -0.2735
 3731SOL    HW222827   2.422   3.462   2.407 -3.6340 -0.8210  3.2679
 3732SOL     OW22828   0.433   4.364   7.920 -0.3809 -0.1945  0.3898
 3732SOL    HW122829   0.366   4.296   7.923 -1.0182  0.4118  0.1235
 3732SOL    HW222830   0.386   4.441   7.887  0.1391 -0.2328 -0.4511
 3733SOL     OW22831   1.699   2.910   7.671 -0.0778 -0.0535 -0.0801
 3733SOL    HW122832   1.749   2.972   7.618 -1.4905  2.7923  1.9119
 3733SOL    HW222833   1.616   2.922   7.625 -1.0104 -2.8884  0.9107
 3734SOL     OW22834   2.221   4.642   0.941 -0.0514 -0.1861 -0.2308
 3734SOL    HW122835   2.224   4.695   0.862  0.5899 -1.9197 -1.3759
 3734SOL    HW222836   2.135   4.601   0.940  1.2309 -2.9439 -0.0975
 3735SOL     OW22837   1.169   0.947   6.912  0.3508 -0.3019  0.5250
 3735SOL    HW122838   1.197   1.038   6.922 -2.2482  0.9651 -3.4764
 3735SOL    HW222839   1.087   0.945   6.962  1.9812  1.4499  3.2794
 3736SOL     OW22840   3.247   0.795   2.714 -0.0820 -0.3915 -0.0118
 3736SOL    HW122841   3.174   0.736   2.736 -0.1397 -0.0534  0.7044
 3736SOL    HW222842   3.307   0.731   2.675  0.3397  0.1711 -0.2715
 3737SOL     OW22843   2.950   4.263   2.142 -0.2352  0.3542  0.4193
 3737SOL    HW122844   2.968   4.299   2.055 -0.6282  0.9435  0.5861
 3737SOL    HW222845   2.938   4.179   2.099 -0.3253  0.6633 -0.1633
 3738SOL     OW22846   1.792   1.359   4.494  0.9332  0.0451 -0.5018
 3738SOL    HW122847   1.728   1.423   4.461  0.1964 -0.8466 -0.7930
 3738SOL    HW222848   1.840   1.408   4.561  0.1798  1.5451 -1.0482
 3739SOL     OW22849   0.956   2.875   2.829  0.1211  0.4968  0.3992
 3739SOL    HW122850   0.999   2.807   2.881  1.2685  0.2658 -0.8290
 3739SOL    HW222851   1.012   2.861   2.752 -0.1535  0.4966  0.1997
 3740SOL     OW22852   3.990   2.343   8.401  0.1839 -0.4466  0.1358
 3740SOL    HW122853   3.924   2.292   8.448  0.1635  1.2068  1.9030
 3740SOL    HW222854   4.040   2.279   8.351  0.8198 -1.1019  1.6065
 3741SOL     OW22855   1.465   3.954   3.862  0.2741 -0.3470  0.5280
 3741SOL    HW122856   1.427   3.960   3.950  0.7962  0.4014  0.7081
 3741SOL    HW222857   1.422   3.875   3.829 -0.6430  1.3566 -2.3905
 3742SOL     OW22858   1.943   3.002   6.842  0.0979  0.0633  0.4407
 3742SOL    HW122859   1.946   2.972   6.933 -1.6408  0.3100  0.5746
 3742SOL    HW222860   2.033   3.031   6.832 -0.5950  1.7126 -1.0582
 3743SOL     OW22861   1.501   2.710   8.748  0.6005  0.4513  0.0438
 3743SOL    HW122862   1.450   2.790   8.758  0.0628 -0.0678  1.4490
 3743SOL    HW222863   1.577   2.739   8.696  0.3605  0.1113 -0.5061
 3744SOL     OW22864   4.245   2.992   6.662  0.4789 -0.2550  0.0140
 3744SOL    HW122865   4.155   3.012   6.687 -0.2290  0.3267 -2.9515
 3744SOL    HW222866   4.267   2.900   6.680  1.5259 -0.5592 -2.9028
 3745SOL     OW22867   0.121   1.283   8.782 -0.6780  0.0144  0.2150
 3745SOL    HW122868   0.080   1.258   8.865  0.0323  0.4890  0.7148
 3745SOL    HW222869   0.206   1.238   8.787 -1.3947 -1.3707 -0.0497
 3746SOL     OW22870   1.363   0.937   8.604  0.0422  0.0601  0.1986
 3746SOL    HW122871   1.330   0.860   8.651 -0.0031  0.8106  1.4116
 3746SOL    HW222872   1.292   0.950   8.542  0.5452  1.1873 -0.1311
 3747SOL     OW22873   1.507   3.215  16.656  0.2186 -0.8678  0.1453
 3747SOL    HW122874   1.597   3.224  16.687  0.4378 -2.1629 -0.1178
 3747SOL    HW222875   1.474   3.146  16.714 -1.8925 -0.2529 -0.3293
 3748SOL     OW22876   4.051   2.350  16.944  0.1837  0.0817  0.2165
 3748SOL    HW122877   3.978   2.288  16.945  0.8384 -0.6907 -1.3805
 3748SOL    HW222878   4.032   2.392  17.028  0.1554 -0.0589  0.2810
 3749SOL     OW22879   2.293   2.252   8.396 -0.0452 -0.0348 -0.1525
 3749SOL    HW122880   2.329   2.164   8.408  2.4067  0.9891  0.0683
 3749SOL    HW222881   2.301   2.281   8.487  1.6605  0.3298 -0.4108
 3750SOL     OW22882   1.935   3.147   8.430 -0.2023  0.6346 -0.1295
 3750SOL    HW122883   1.892   3.232   8.433 -0.7337  0.3804 -0.7268
 3750SOL    HW222884   1.983   3.167   8.511  0.3561 -0.1056 -0.2783
 3751SOL     OW22885   3.316   2.342   3.887 -1.1725  0.0699 -0.4436
 3751SOL    HW122886   3.303   2.306   3.975  0.0784 -0.7639 -0.5992
 3751SOL    HW222887   3.266   2.285   3.828  0.5423  0.2398 -2.0685
 3752SOL     OW22888   3.559   2.868  15.830  0.2681  0.0535  0.9442
 3752SOL    HW122889   3.556   2.780  15.792  1.6969  0.0262  0.8891
 3752SOL    HW222890   3.607   2.849  15.911  1.1207  0.3580  0.5124
 3753SOL     OW22891   3.125   1.976  15.790  0.5280  0.2598  0.1732
 3753SOL    HW122892   3.068   1.994  15.715 -1.4932 -0.4809  1.5330
 3753SOL    HW222893   3.127   2.063  15.829 -1.6070  0.5489 -0.3200
 3754SOL     OW22894   1.622   4.714   4.031 -0.2599  0.5923  0.0584
 3754SOL    HW122895   1.553   4.684   4.091  1.3262 -0.3663  1.3994
 3754SOL    HW222896   1.583   4.670   3.956 -0.0757  0.8145 -0.1680
 3755SOL     OW22897   3.564   2.487   2.904  0.5098 -0.0835  0.5407
 3755SOL    HW122898   3.634   2.493   2.970  0.8619 -0.2277  0.1780
 3755SOL    HW222899   3.492   2.509   2.963  0.0746 -0.6141  0.2117
 3756SOL     OW22900   4.169   1.389  12.650  0.1009 -0.2466  0.0667
 3756SOL    HW122901   4.159   1.401  12.744 -0.8554  0.0213 -0.0704
 3756SOL    HW222902   4.095   1.333  12.624  0.0570 -0.1914  0.0722
 3757SOL     OW22903   0.788   2.550   9.984  0.0756  0.1581 -0.3523
 3757SOL    HW122904   0.845   2.626   9.981  0.9755 -0.5263 -0.6321
 3757SOL    HW222905   0.804   2.511  10.070 -1.8602  2.5719  1.0941
 3758SOL     OW22906   0.390   4.016   1.773 -0.1872 -0.4513 -0.2711
 3758SOL    HW122907   0.478   3.981   1.757 -0.0468  0.1431 -0.7840
 3758SOL    HW222908   0.386   4.094   1.717  0.7634  1.8713  2.8662
 3759SOL     OW22909   2.047   2.791   4.202 -0.7893 -0.6756  0.2210
 3759SOL    HW122910   2.075   2.702   4.180  1.6437 -0.3890  2.2170
 3759SOL    HW222911   1.983   2.771   4.271  0.7114  0.2041  1.8602
 3760SOL     OW22912   0.286   0.017   1.259  0.4504  0.2360 -0.1063
 3760SOL    HW122913   0.327   4.672   1.271  1.3875  0.4388 -1.8962
 3760SOL    HW222914   0.212   0.025   1.320 -0.2724 -1.2151 -0.8110
 3761SOL     OW22915   2.303   0.099   4.331 -0.1805  0.1027 -0.1114
 3761SOL    HW122916   2.307   0.193   4.311 -1.3004  0.7546  2.7251
 3761SOL    HW222917   2.385   0.076   4.288 -0.6803  0.6973 -1.3824
 3762SOL     OW22918   1.815   2.407  14.879  0.3811 -0.6911 -0.1707
 3762SOL    HW122919   1.771   2.328  14.847 -0.9043 -1.0906  2.6459
 3762SOL    HW222920   1.879   2.366  14.937 -2.8706 -1.6866  2.7023
 3763SOL     OW22921   0.299   1.838   5.765 -0.3077 -0.2679 -0.4138
 3763SOL    HW122922   0.256   1.835   5.851  1.1536  2.4489  0.4036
 3763SOL    HW222923   0.287   1.931   5.746  0.5746  0.0181  0.4321
 3764SOL     OW22924   3.989   1.053  10.043  0.7435  0.5420 -0.0078
 3764SOL    HW122925   3.948   1.091  10.121  2.2196 -0.9318  1.5206
 3764SOL    HW222926   4.003   1.128   9.986 -1.9628  1.9683  1.2153
 3765SOL     OW22927   3.814   1.334  16.951  0.1750 -0.1287 -0.1576
 3765SOL    HW122928   3.871   1.410  16.957 -0.6857  0.7595 -3.0769
 3765SOL    HW222929   3.803   1.317  17.045  0.3872 -2.5321 -0.5554
 3766SOL     OW22930   3.329   1.530  15.380 -0.5661 -0.0888  0.2353
 3766SOL    HW122931   3.245   1.484  15.387 -1.3867  1.5401  1.1858
 3766SOL    HW222932   3.342   1.526  15.285  0.8120  1.2397  0.3859
 3767SOL     OW22933   1.622   4.391   7.861  0.0454  0.7501  0.3289
 3767SOL    HW122934   1.636   4.301   7.834  1.0375  1.2062 -0.6863
 3767SOL    HW222935   1.707   4.430   7.878 -0.0871  1.2655 -0.1675
 3768SOL     OW22936   4.242   1.298  17.284 -0.3387 -0.0246  0.2964
 3768SOL    HW122937   4.230   1.328  17.374 -3.0987  0.6807 -0.3135
 3768SOL    HW222938   4.210   1.208  17.290  0.1754 -0.2819 -0.8118
 3769SOL     OW22939   2.802   0.790   4.771  0.3426  0.3198  0.2754
 3769SOL    HW122940   2.838   0.786   4.682  2.1852 -1.4086  1.0886
 3769SOL    HW222941   2.871   0.740   4.817 -2.4128 -0.8979  3.0615
 3770SOL     OW22942   2.754   0.622   8.493 -0.9202  0.0259 -0.0272
 3770SOL    HW122943   2.848   0.610   8.502 -1.2103 -0.9845  1.5899
 3770SOL    HW222944   2.744   0.698   8.435 -0.2637 -0.8747 -1.2971
 3771SOL     OW22945   4.226   2.494   5.322  0.8259 -0.1656 -0.3415
 3771SOL    HW122946   4.298   2.435   5.339 -0.3266 -0.9873  1.7560
 3771SOL    HW222947   4.217   2.479   5.228  4.0656 -1.8430 -0.3570
 3772SOL     OW22948   0.645   1.577   6.473  0.1829  0.4536 -0.6570
 3772SOL    HW122949   0.637   1.579   6.568  1.2306 -0.1314 -0.5529
 3772SOL    HW222950   0.739   1.561   6.466 -0.0619 -1.7652  1.0845
 3773SOL     OW22951   2.601   1.001  10.924 -0.4919 -0.0022  0.3302
 3773SOL    HW122952   2.581   0.912  10.953 -1.3983 -0.0121 -0.3313
 3773SOL    HW222953   2.511   1.030  10.938 -0.7722 -0.1423 -1.2010
 3774SOL     OW22954   3.067   1.544  10.407 -0.1654 -0.2177 -0.6186
 3774SOL    HW122955   3.069   1.512  10.497  0.1240 -0.7480 -0.8110
 3774SOL    HW222956   2.983   1.509  10.377 -0.4521  0.1068 -0.1878
 3775SOL     OW22957   0.020   1.603  16.977 -0.1681 -0.1450  0.3890
 3775SOL    HW122958   4.686   1.613  16.917  0.9371 -1.1823 -1.1422
 3775SOL    HW222959   0.092   1.643  16.930 -1.0008  1.6099  0.5998
 3776SOL     OW22960   1.480   4.045   2.947 -0.7057  0.3382  0.2377
 3776SOL    HW122961   1.480   3.950   2.957  0.8211  0.3724  0.5458
 3776SOL    HW222962   1.540   4.065   3.018  0.6596 -1.2568 -0.4496
 3777SOL     OW22963   2.211   1.487  15.646  0.2379  0.4366 -0.2496
 3777SOL    HW122964   2.202   1.536  15.564  0.1895  1.4020  0.3351
 3777SOL    HW222965   2.239   1.403  15.610 -1.5916 -0.3357  0.1155
 3778SOL     OW22966   2.728   0.651   5.942 -0.1883  0.0681 -0.6489
 3778SOL    HW122967   2.686   0.573   5.978  0.0402  1.6762  3.1110
 3778SOL    HW222968   2.664   0.693   5.885 -0.6544  0.2250  0.0040
 3779SOL     OW22969   0.235   4.299   3.172 -0.1325 -0.0536  0.3029
 3779SOL    HW122970   0.248   4.330   3.083  1.6618 -1.0214  0.2154
 3779SOL    HW222971   0.145   4.322   3.192 -0.1708  0.8927 -0.9893
 3780SOL     OW22972   1.573   0.460   8.703 -0.5788 -0.2236 -0.4669
 3780SOL    HW122973   1.666   0.444   8.718 -1.0176 -2.1625  0.1065
 3780SOL    HW222974   1.532   0.408   8.772  0.6035 -2.1900 -1.2747
 3781SOL     OW22975   2.881   1.515   4.987 -0.7743  0.4505  0.1561
 3781SOL    HW122976   2.900   1.484   4.898  3.3863 -1.2052  1.6093
 3781SOL    HW222977   2.964   1.480   5.020 -0.1667  1.5393 -0.1911
 3782SOL     OW22978   0.374   1.942   9.819 -0.2565 -0.3941  0.2706
 3782SOL    HW122979   0.367   1.990   9.902  2.2508 -2.2279  1.5693
 3782SOL    HW222980   0.378   1.852   9.850  2.0977 -0.7375 -0.9957
 3783SOL     OW22981   0.123   1.930  16.892  0.1972  0.5149 -0.5459
 3783SOL    HW122982   0.057   1.899  16.954  0.5369  0.6725 -0.1105
 3783SOL    HW222983   0.166   2.000  16.942 -0.2243 -1.5431  2.6549
 3784SOL     OW22984   1.016   3.600  12.659 -0.5652 -0.0769  0.1993
 3784SOL    HW122985   1.075   3.675  12.666 -0.4770  0.0298 -1.7465
 3784SOL    HW222986   0.929   3.639  12.650 -1.3915 -2.1435 -0.7890
 3785SOL     OW22987   2.434   0.609  10.048 -0.5020  0.3688  0.3606
 3785SOL    HW122988   2.379   0.544  10.091 -2.4524  1.8707  0.1425
 3785SOL    HW222989   2.431   0.683  10.109  1.7631 -0.0794  1.0251
 3786SOL     OW22990   2.798   0.424   6.206  0.0936 -0.0200  0.3830
 3786SOL    HW122991   2.821   0.335   6.236  0.4108 -0.0716 -0.0129
 3786SOL    HW222992   2.857   0.441   6.133  1.0769 -2.7441  0.5331
 3787SOL     OW22993   2.133   0.795  12.649 -0.1370  0.6452 -0.2030
 3787SOL    HW122994   2.162   0.868  12.594  1.6266 -1.2520 -1.7903
 3787SOL    HW222995   2.216   0.747  12.649 -0.8292 -0.5297 -1.6603
 3788SOL     OW22996   2.698   4.114   3.052 -0.3056  0.2411  0.1144
 3788SOL    HW122997   2.776   4.170   3.051  2.0997 -3.1650 -2.4373
 3788SOL    HW222998   2.724   4.052   2.984 -1.0591  2.0475 -1.8100
 3789SOL     OW22999   3.741   1.832   4.237  0.1214 -0.3675 -0.0074
 3789SOL    HW123000   3.653   1.820   4.202 -0.0643 -1.4703  0.8290
 3789SOL    HW223001   3.797   1.822   4.160  1.0588 -2.0115  0.8813
 3790SOL     OW23002   0.109   0.100   8.556 -0.0204  0.9006 -0.0978
 3790SOL    HW123003   0.019   0.078   8.580  0.0460  2.3235  1.3603
 3790SOL    HW223004   0.091   0.192   8.574 -0.8288  0.2096  2.5992
 3791SOL     OW23005   3.273   2.161   2.625  0.1548  0.3433  0.4968
 3791SOL    HW123006   3.239   2.234   2.677  0.0475 -0.9564  2.2471
 3791SOL    HW223007   3.189   2.120   2.605 -0.8111  2.1132  0.9855
 3792SOL     OW23008   0.086   0.512   7.532  0.4709 -0.1916  0.2431
 3792SOL    HW123009   0.019   0.484   7.594  1.9836 -0.1574  1.9118
 3792SOL    HW223010   0.042   0.508   7.447 -0.8422  1.8633  0.8195
 3793SOL     OW23011   4.517   2.279   1.038  1.1850  0.0841  0.1780
 3793SOL    HW123012   4.559   2.233   1.112 -0.5400 -1.2114  0.3556
 3793SOL    HW223013   4.573   2.356   1.032  0.8190  0.3155 -0.2419
 3794SOL     OW23014   4.042   4.717   1.980  0.6292 -0.0551 -0.5756
 3794SOL    HW123015   4.012   0.039   2.046  1.0164  1.3859 -1.7448
 3794SOL    HW223016   4.099   0.035   1.929  0.6541  0.4871  0.0713
 3795SOL     OW23017   2.097   1.517  10.048 -0.1646  0.2925 -0.5736
 3795SOL    HW123018   2.176   1.471  10.076 -0.6036 -0.6380 -0.8750
 3795SOL    HW223019   2.066   1.544  10.135  0.2151  1.8250 -0.9191
 3796SOL     OW23020   1.112   2.216   3.413  0.1689 -0.8000  0.0882
 3796SOL    HW123021   1.022   2.185   3.421 -1.1521  2.9510 -0.4962
 3796SOL    HW223022   1.102   2.301   3.456  1.5048 -0.9709  0.7340
 3797SOL     OW23023   2.092   0.260   7.181 -0.3841 -0.0308  0.4244
 3797SOL    HW123024   1.999   0.239   7.189 -0.1435 -0.5725  1.7699
 3797SOL    HW223025   2.134   0.211   7.251 -0.4528 -2.6630 -1.3909
 3798SOL     OW23026   2.310   2.260  16.716  0.0746 -0.1180 -0.7631
 3798SOL    HW123027   2.228   2.271  16.667 -1.9216 -1.0690  2.3721
 3798SOL    HW223028   2.354   2.344  16.704  0.0705  0.0851  0.6649
 3799SOL     OW23029   4.281   0.458   7.940  0.6845  0.2976  0.2507
 3799SOL    HW123030   4.290   0.549   7.912 -0.0239  0.1310 -0.5063
 3799SOL    HW223031   4.299   0.473   8.033  0.4145 -1.1986  0.5470
 3800SOL     OW23032   4.040   4.386   9.387 -0.4259 -0.0356  0.0420
 3800SOL    HW123033   3.960   4.360   9.341 -1.2620 -0.3327  1.6725
 3800SOL    HW223034   4.057   4.476   9.358  2.6092  0.0659  2.2274
 3801SOL     OW23035   3.457   3.528   2.239 -0.4128 -0.0421 -0.4311
 3801SOL    HW123036   3.474   3.519   2.145 -1.3064  0.0316 -0.5973
 3801SOL    HW223037   3.425   3.618   2.244 -1.4276 -0.3949 -0.5401
 3802SOL     OW23038   4.066   1.333  15.440  0.1330 -0.4501 -0.5588
 3802SOL    HW123039   4.161   1.323  15.433 -0.1552 -2.2605 -2.0285
 3802SOL    HW223040   4.050   1.413  15.391  0.4849 -0.4137 -0.6127
 3803SOL     OW23041   4.424   0.093  14.146 -0.1873 -0.3988  0.5624
 3803SOL    HW123042   4.503   0.042  14.128 -1.8998 -1.2320 -4.6309
 3803SOL    HW223043   4.425   0.160  14.077 -2.3069 -0.4440  0.4942
 3804SOL     OW23044   4.711   1.540   4.824 -0.5818 -0.2302  0.5340
 3804SOL    HW123045   4.683   1.456   4.861 -2.8603 -0.1919 -1.0667
 3804SOL    HW223046   4.728   1.588   4.905  1.8490 -0.0979 -0.0533
 3805SOL     OW23047   3.011   0.747   3.292 -0.4976 -0.5338  0.6198
 3805SOL    HW123048   3.080   0.706   3.240  1.4465  2.9143  0.5002
 3805SOL    HW223049   2.936   0.739   3.233 -0.1258 -0.4521  0.1451
 3806SOL     OW23050   0.771   0.978   3.776 -0.3183 -0.2537 -0.1321
 3806SOL    HW123051   0.842   1.023   3.821  0.4904 -1.4178 -0.2392
 3806SOL    HW223052   0.828   0.928   3.718  0.3603 -0.4858  0.7240
 3807SOL     OW23053   1.364   4.037  16.528  0.0109 -0.3328 -0.0564
 3807SOL    HW123054   1.335   4.097  16.597 -0.0283 -1.4557  0.9096
 3807SOL    HW223055   1.312   3.958  16.540  1.3608 -1.3843 -1.1890
 3808SOL     OW23056   4.707   0.900   4.625  0.7261 -0.5183  0.2614
 3808SOL    HW123057   4.693   0.955   4.548  2.0929  0.5007  0.7363
 3808SOL    HW223058   4.639   0.834   4.612 -1.2560  1.5349  0.3082
 3809SOL     OW23059   3.700   3.897  10.810 -0.7224  0.0945  0.3219
 3809SOL    HW123060   3.771   3.928  10.754 -1.3057 -0.7741 -0.9065
 3809SOL    HW223061   3.740   3.918  10.895 -0.5501  1.2328 -0.0351
 3810SOL     OW23062   4.039   3.118   2.082  0.2142 -0.2068 -0.1217
 3810SOL    HW123063   4.096   3.115   2.159 -0.6743 -0.1400  0.5512
 3810SOL    HW223064   4.017   3.211   2.076 -0.1093 -0.5252 -3.9596
 3811SOL     OW23065   1.616   4.575   2.236 -0.3941 -0.8648  0.5202
 3811SOL    HW123066   1.675   4.615   2.300  1.1002  0.9745 -1.9998
 3811SOL    HW223067   1.536   4.551   2.283 -1.4385  1.2201 -0.1878
 3812SOL     OW23068   1.713   3.480   3.944  0.3368  0.2469 -0.0006
 3812SOL    HW123069   1.753   3.566   3.957  2.0323 -0.4909 -0.3617
 3812SOL    HW223070   1.669   3.491   3.860 -0.9669  0.6640  0.7333
 3813SOL     OW23071   4.469   1.138   6.838  0.2322  0.0407  0.2154
 3813SOL    HW123072   4.558   1.104   6.843  0.9703  1.9262 -0.0826
 3813SOL    HW223073   4.484   1.232   6.827  2.1890 -0.3480 -0.3859
 3814SOL     OW23074   3.004   0.002   7.667  0.2483 -0.0358 -0.3613
 3814SOL    HW123075   3.065   0.021   7.738 -0.4043  2.1335 -0.3817
 3814SOL    HW223076   2.981   0.090   7.636  0.4335  0.3711  0.6624
 3815SOL     OW23077   2.589   4.693   8.018  0.1856  0.0310  0.0314
 3815SOL    HW123078   2.594   4.666   7.926  0.5101 -0.4012  0.1760
 3815SOL    HW223079   2.629   0.039   8.009 -0.1954  0.3910  1.7654
 3816SOL     OW23080   3.356   3.965   2.358 -0.5029  0.2865  0.5361
 3816SOL    HW123081   3.348   4.061   2.357 -1.8993  0.1770  0.8959
 3816SOL    HW223082   3.369   3.943   2.450  2.0573 -0.4341 -0.0017
 3817SOL     OW23083   2.247   2.558   5.074  0.0015  0.1846  0.4123
 3817SOL    HW123084   2.246   2.488   5.140 -1.0928 -0.3923 -0.2229
 3817SOL    HW223085   2.255   2.636   5.130 -0.3222 -0.2031  1.0028
 3818SOL     OW23086   2.864   3.427   8.366 -0.4832  1.2510  0.2823
 3818SOL    HW123087   2.920   3.461   8.436  1.0133  1.3959 -0.9879
 3818SOL    HW223088   2.795   3.399   8.426  0.3348  1.6041  1.3797
 3819SOL     OW23089   3.415   2.011   8.525  0.0169  0.1604 -0.4613
 3819SOL    HW123090   3.364   2.002   8.444  0.6427 -1.5279 -0.6588
 3819SOL    HW223091   3.427   2.106   8.532  0.4145  0.0534  0.3416
 3820SOL     OW23092   3.575   3.212   5.631 -0.5677  0.0215  0.4151
 3820SOL    HW123093   3.621   3.286   5.672  2.6343  0.6967 -4.4281
 3820SOL    HW223094   3.580   3.151   5.705  1.2467 -1.2791 -0.7751
 3821SOL     OW23095   2.298   4.324  12.641  0.2774 -0.6264 -0.0593
 3821SOL    HW123096   2.340   4.238  12.650 -0.7571 -1.1662 -0.3660
 3821SOL    HW223097   2.279   4.335  12.734 -1.5203 -2.7865 -0.1559
 3822SOL     OW23098   0.381   0.831   4.922  0.3848 -0.5394  0.2188
 3822SOL    HW123099   0.406   0.884   4.998  0.2235 -0.0329 -0.0813
 3822SOL    HW223100   0.300   0.875   4.897 -0.0208 -0.1259  2.2402
 3823SOL     OW23101   3.313   4.693   1.452  0.5692  0.2321  0.1296
 3823SOL    HW123102   3.246   0.021   1.447  0.8486  0.4759 -0.4306
 3823SOL    HW223103   3.341   4.713   1.541  2.1960  0.8696 -0.5199
 3824SOL     OW23104   2.533   0.583   4.574 -0.6422  0.5351 -0.1313
 3824SOL    HW123105   2.537   0.668   4.619  0.3354  0.7403 -0.6063
 3824SOL    HW223106   2.587   0.530   4.633  1.1829  0.1192 -2.1876
 3825SOL     OW23107   0.356   3.210   7.776 -0.2163 -0.1600  0.2059
 3825SOL    HW123108   0.337   3.248   7.861  0.5909 -1.6599  1.0595
 3825SOL    HW223109   0.441   3.166   7.786  0.2855  1.0539  1.2642
 3826SOL     OW23110   1.396   1.129  12.111 -1.1571  0.0257  0.2368
 3826SOL    HW123111   1.309   1.165  12.093 -0.7826  1.0745  0.5533
 3826SOL    HW223112   1.385   1.126  12.206 -0.0283  0.4706  0.3814
 3827SOL     OW23113   0.144   2.157  10.254  0.6877 -0.2452 -0.4483
 3827SOL    HW123114   0.082   2.168  10.182  1.5483  3.2082 -0.6753
 3827SOL    HW223115   0.104   2.209  10.323 -0.2780 -0.0150 -1.1907
 3828SOL     OW23116   4.367   0.242   3.429 -0.1549 -0.7016  0.8744
 3828SOL    HW123117   4.339   0.327   3.395  2.3004 -1.1504 -2.3320
 3828SOL    HW223118   4.462   0.248   3.444 -0.2021  0.2361  0.7755
 3829SOL     OW23119   4.675   3.503   5.664 -0.0483  0.3816 -0.3346
 3829SOL    HW123120   4.677   3.573   5.730  1.1539  1.3082 -1.3476
 3829SOL    HW223121   4.598   3.461   5.702 -0.6825  0.3404 -1.6437
 3830SOL     OW23122   1.421   0.671  14.581  0.6027  0.1327  0.0948
 3830SOL    HW123123   1.478   0.727  14.635  1.0490  0.0633 -0.3019
 3830SOL    HW223124   1.399   0.730  14.509  0.2801  0.1103  0.1753
 3831SOL     OW23125   1.012   2.631  14.686 -0.9029  0.0177  0.1190
 3831SOL    HW123126   0.947   2.570  14.649 -0.3819 -0.1319 -0.5479
 3831SOL    HW223127   0.989   2.629  14.779 -0.8171 -1.8913  0.0902
 3832SOL     OW23128   2.157   0.318   2.041  0.0154 -0.3282  0.0923
 3832SOL    HW123129   2.098   0.357   1.977  0.0141  0.4649  0.5863
 3832SOL    HW223130   2.101   0.322   2.118  0.9322  0.5744  0.7156
 3833SOL     OW23131   4.370   2.429   4.178 -0.4426  0.4349 -0.1564
 3833SOL    HW123132   4.454   2.474   4.175  0.2229 -0.8114 -0.3081
 3833SOL    HW223133   4.351   2.419   4.272  1.4819 -0.7814  0.1088
 3834SOL     OW23134   3.278   2.519  13.187 -0.1406  0.3184 -0.3327
 3834SOL    HW123135   3.232   2.480  13.113  1.4397  0.1469 -1.2082
 3834SOL    HW223136   3.295   2.606  13.150  1.6679  0.8827  1.8469
 3835SOL     OW23137   1.017   3.733   0.814 -0.5595  0.0135 -0.0544
 3835SOL    HW123138   0.984   3.822   0.825  0.2671  0.5568 -1.9950
 3835SOL    HW223139   1.096   3.768   0.772 -0.8454  0.5898 -0.1140
 3836SOL     OW23140   0.873   2.023   5.415 -0.2868 -0.2424  0.3342
 3836SOL    HW123141   0.811   2.092   5.436  0.8462  0.9451 -0.1869
 3836SOL    HW223142   0.814   1.975   5.357 -1.0613 -0.3501  1.2204
 3837SOL     OW23143   0.220   4.252   1.441 -0.9128  0.3855  0.3081
 3837SOL    HW123144   0.153   4.207   1.491 -1.4693  0.9232  0.0465
 3837SOL    HW223145   0.191   4.224   1.354 -2.4272  2.9228 -0.0082
 3838SOL     OW23146   3.707   4.332   4.738 -0.9153 -0.4138  0.4211
 3838SOL    HW123147   3.714   4.402   4.673 -0.7870  0.6709  1.6128
 3838SOL    HW223148   3.746   4.373   4.815  0.0863  1.7777 -1.2517
 3839SOL     OW23149   3.434   4.595   0.358 -0.0593  0.1767  0.5155
 3839SOL    HW123150   3.436   4.688   0.381 -1.3809  0.4143 -0.3191
 3839SOL    HW223151   3.425   4.567   0.449 -2.8731  1.1462  0.5469
 3840SOL     OW23152   2.148   1.043  12.558 -0.1871  1.2197  0.1774
 3840SOL    HW123153   2.139   1.108  12.628 -1.2848  0.1967  0.9874
 3840SOL    HW223154   2.131   1.098  12.481 -0.0582  0.6823 -0.2354
 3841SOL     OW23155   1.593   0.712   2.228 -0.1163 -0.6731  0.1381
 3841SOL    HW123156   1.517   0.657   2.205  0.1733 -1.5489  1.2273
 3841SOL    HW223157   1.554   0.798   2.241 -0.3888 -0.4506 -2.2382
 3842SOL     OW23158   0.685   3.004  11.590 -0.4411 -0.1484 -0.2290
 3842SOL    HW123159   0.743   3.014  11.666  0.3128  0.1301 -0.8397
 3842SOL    HW223160   0.604   2.983  11.637 -1.3408  1.8336 -0.9078
 3843SOL     OW23161   3.049   3.823   8.998  0.4201  0.4156 -0.5796
 3843SOL    HW123162   3.091   3.875   9.066  0.4352 -0.5223  0.1223
 3843SOL    HW223163   2.963   3.800   9.032 -0.9990  2.0471 -3.0520
 3844SOL     OW23164   2.222   3.829  10.263  0.3585  0.7068  0.0673
 3844SOL    HW123165   2.137   3.812  10.303 -1.1890  3.8076 -1.9478
 3844SOL    HW223166   2.249   3.895  10.327 -2.1141  1.9552 -0.2099
 3845SOL     OW23167   4.675   4.671   5.490 -0.0008  0.0882  0.1378
 3845SOL    HW123168   4.656   4.718   5.571  0.9176 -1.5894  1.3107
 3845SOL    HW223169   4.646   4.732   5.423  1.6489  0.8302  0.1100
 3846SOL     OW23170   2.855   3.669  11.608  0.1792  0.6156 -0.4009
 3846SOL    HW123171   2.944   3.668  11.574  0.0253  2.5432 -0.8422
 3846SOL    HW223172   2.860   3.638  11.699  0.1424  1.8652  0.0273
 3847SOL     OW23173   3.455   0.646   2.601  0.0560  0.2006 -0.4777
 3847SOL    HW123174   3.546   0.666   2.579  0.2916 -0.5528 -0.1921
 3847SOL    HW223175   3.468   0.650   2.695 -0.5976 -0.2998 -0.3701
 3848SOL     OW23176   1.906   1.107   9.250  0.6365 -0.0157 -0.0775
 3848SOL    HW123177   1.921   1.017   9.280  0.9820 -0.6117 -2.0103
 3848SOL    HW223178   1.993   1.140   9.272  1.4749 -1.0888 -1.7797
 3849SOL     OW23179   1.942   0.496  10.816  0.3059 -0.7246  0.2822
 3849SOL    HW123180   1.854   0.529  10.800  1.0562  0.7739 -0.7173
 3849SOL    HW223181   1.991   0.578  10.818 -1.4926  0.3670 -0.4680
 3850SOL     OW23182   2.124   3.610   1.276 -0.7874 -0.4102 -0.3748
 3850SOL    HW123183   2.123   3.697   1.235  0.6303 -0.3844 -0.3528
 3850SOL    HW223184   2.215   3.584   1.261 -0.6935 -0.3773  0.1103
 3851SOL     OW23185   0.405   2.590  17.418 -0.0818  0.6959 -0.1115
 3851SOL    HW123186   0.391   2.575  17.512 -0.3478  0.8217 -0.1300
 3851SOL    HW223187   0.418   2.501  17.385  2.3560 -0.4530  3.9482
 3852SOL     OW23188   0.095   3.453   3.271 -0.6220  0.0210 -0.5188
 3852SOL    HW123189   0.079   3.420   3.359  1.7089  0.4887  0.0988
 3852SOL    HW223190   0.185   3.487   3.275  0.1681 -2.2578  0.6909
 3853SOL     OW23191   1.360   3.419   7.228 -0.3224  0.1393 -0.1129
 3853SOL    HW123192   1.383   3.465   7.148 -0.2574 -4.7042 -2.8996
 3853SOL    HW223193   1.307   3.487   7.269 -0.7707 -0.5075  0.3733
 3854SOL     OW23194   2.410   3.004   3.142  0.5003 -0.2434  0.1845
 3854SOL    HW123195   2.479   2.943   3.118 -0.0776 -0.1218 -1.8137
 3854SOL    HW223196   2.407   2.980   3.234 -1.6156 -0.5404  0.0512
 3855SOL     OW23197   2.839   3.934   1.342  0.2006  0.0894 -0.1260
 3855SOL    HW123198   2.889   3.968   1.267 -1.0759  0.3968 -0.8234
 3855SOL    HW223199   2.809   4.020   1.369  0.6924 -0.1476  1.1871
 3856SOL     OW23200   2.381   1.209   4.428 -0.0797 -0.5830  0.5792
 3856SOL    HW123201   2.353   1.301   4.423 -2.0168 -1.1090  2.0297
 3856SOL    HW223202   2.476   1.209   4.440 -0.0681  0.6350  0.5073
 3857SOL     OW23203   3.447   3.873   5.968  0.0714  0.2626 -0.1405
 3857SOL    HW123204   3.418   3.956   5.929  3.0213  0.8651 -1.0047
 3857SOL    HW223205   3.528   3.906   6.007 -0.0781  0.2071  0.2191
 3858SOL     OW23206   4.657   2.708   7.037  0.1445  0.4755 -0.0486
 3858SOL    HW123207   4.680   2.693   7.129 -0.5856 -1.8288 -0.2645
 3858SOL    HW223208   4.668   2.622   6.997 -2.4562  1.5006 -2.9567
 3859SOL     OW23209   1.130   0.514  10.934  0.2297  0.3345  0.0485
 3859SOL    HW123210   1.083   0.432  10.950 -1.1467  1.0443 -0.3308
 3859SOL    HW223211   1.096   0.522  10.845  1.3150 -0.1433 -0.4123
 3860SOL     OW23212   3.804   1.194   6.289 -0.1545  0.1888 -0.2794
 3860SOL    HW123213   3.720   1.205   6.244 -1.1433  0.4110  1.6379
 3860SOL    HW223214   3.796   1.103   6.318  1.5223  0.6920  1.7036
 3861SOL     OW23215   0.931   0.213   1.883  0.1692 -0.0017  0.0738
 3861SOL    HW123216   0.876   0.211   1.804  0.2733 -0.5732  0.0134
 3861SOL    HW223217   0.864   0.182   1.944 -0.4048 -0.9172 -1.0015
 3862SOL     OW23218   1.875   2.721   3.593 -0.1254  0.1395 -0.3264
 3862SOL    HW123219   1.963   2.747   3.621 -1.2407 -0.2380  3.5019
 3862SOL    HW223220   1.879   2.626   3.602  1.5277  0.3531  1.3337
 3863SOL     OW23221   2.563   2.712   5.352  0.0019  0.2467 -0.3780
 3863SOL    HW123222   2.652   2.703   5.386 -0.5191  1.3047  1.2834
 3863SOL    HW223223   2.572   2.642   5.287 -1.9308 -0.4046  0.0751
 3864SOL     OW23224   2.901   2.320   6.059  0.3419 -0.4257  0.5337
 3864SOL    HW123225   2.811   2.331   6.030  0.4940 -0.4979  0.0340
 3864SOL    HW223226   2.900   2.376   6.136 -1.2046 -1.4189  1.2459
 3865SOL     OW23227   1.108   3.932   3.896 -1.4200  0.2048 -0.6840
 3865SOL    HW123228   1.181   3.985   3.927 -3.6617  2.9544 -0.0077
 3865SOL    HW223229   1.077   4.003   3.840 -1.1064  2.1729  1.6385
 3866SOL     OW23230   3.715   0.155   8.109 -0.1774  0.1216 -0.0135
 3866SOL    HW123231   3.798   0.148   8.061 -0.2368 -0.2491 -0.0621
 3866SOL    HW223232   3.732   0.119   8.195  0.3842  0.4767  0.0246
 3867SOL     OW23233   4.550   1.484   5.667 -0.1690  0.4484  0.2391
 3867SOL    HW123234   4.629   1.431   5.651 -0.6990 -0.6569  1.3166
 3867SOL    HW223235   4.570   1.493   5.760 -1.6198 -2.3955  0.8291
 3868SOL     OW23236   4.571   1.917  10.628 -0.0276  0.3449  0.1725
 3868SOL    HW123237   4.526   1.851  10.574  1.1590 -0.2976 -0.0277
 3868SOL    HW223238   4.507   1.967  10.679 -0.6361 -0.3229  0.0845
 3869SOL     OW23239   1.886   4.523   6.872 -0.0233  0.1684 -0.5893
 3869SOL    HW123240   1.926   4.450   6.824  1.1130  0.8093 -0.6240
 3869SOL    HW223241   1.967   4.554   6.912  1.5927 -3.6690 -0.8747
 3870SOL     OW23242   1.938   3.991  16.520 -0.1522  0.1136  0.0553
 3870SOL    HW123243   1.955   4.084  16.533  2.1144 -0.1165 -1.2906
 3870SOL    HW223244   1.844   3.991  16.538  0.4392  4.1583  3.1402
 3871SOL     OW23245   2.416   1.704   1.939 -0.6771  0.1809  0.1783
 3871SOL    HW123246   2.428   1.611   1.961  0.3752  0.0389 -0.9889
 3871SOL    HW223247   2.322   1.705   1.925 -0.7825 -0.2309  0.8606
 3872SOL     OW23248   2.286   4.282   3.281 -0.1493 -0.0483 -0.0613
 3872SOL    HW123249   2.336   4.265   3.201 -1.1501 -1.0263 -0.4796
 3872SOL    HW223250   2.301   4.376   3.290 -0.3622 -0.1308  1.1214
 3873SOL     OW23251   2.371   3.142  13.598  0.3530 -0.2415  0.8832
 3873SOL    HW123252   2.282   3.106  13.608  0.8764 -1.2667  1.8185
 3873SOL    HW223253   2.416   3.095  13.668 -1.5081 -0.9774  1.5821
 3874SOL     OW23254   4.493   0.759  13.860  0.5539 -0.0348  0.4174
 3874SOL    HW123255   4.490   0.755  13.956 -0.3562 -0.5808  0.3649
 3874SOL    HW223256   4.454   0.845  13.845  0.9463 -0.1059 -0.9549
 3875SOL     OW23257   0.082   3.584   4.838 -0.5318 -0.3678  0.0593
 3875SOL    HW123258   0.122   3.664   4.872  0.5215  0.9990 -4.3452
 3875SOL    HW223259   0.091   3.525   4.913  1.5139 -0.6338 -0.3980
 3876SOL     OW23260   1.397   4.219  13.905 -0.4226  0.4586 -0.4530
 3876SOL    HW123261   1.343   4.189  13.832  0.4926 -0.6440 -0.6857
 3876SOL    HW223262   1.347   4.193  13.983 -0.1402 -1.7462 -0.9852
 3877SOL     OW23263   0.636   2.539   9.381 -0.2508  0.0765 -0.3531
 3877SOL    HW123264   0.690   2.461   9.365 -1.0334 -0.4853 -0.2146
 3877SOL    HW223265   0.586   2.508   9.456  1.1585 -1.2778  0.0529
 3878SOL     OW23266   0.615   0.504   7.574 -0.1113  0.6897 -0.2142
 3878SOL    HW123267   0.692   0.560   7.575  1.5070 -1.5275  0.1132
 3878SOL    HW223268   0.647   0.425   7.619  2.0440  0.7775 -1.5665
 3879SOL     OW23269   1.811   1.375  12.029 -0.2303  0.2492  0.5532
 3879SOL    HW123270   1.867   1.345  11.957 -0.1523  0.2969  0.5942
 3879SOL    HW223271   1.869   1.421  12.090  0.5824 -0.0869  0.0388
 3880SOL     OW23272   0.300   4.636  12.487  0.0284  0.3073 -0.0625
 3880SOL    HW123273   0.378   4.691  12.491  0.6740 -0.7984  2.2508
 3880SOL    HW223274   0.268   4.648  12.397  1.3520 -0.7073 -0.6729
 3881SOL     OW23275   4.644   4.372   6.879 -0.1925 -0.2385  0.2381
 3881SOL    HW123276   4.554   4.344   6.896 -0.7812  1.5950  0.0677
 3881SOL    HW223277   4.654   4.418   6.962  0.4496  1.1868 -0.6251
 3882SOL     OW23278   2.529   0.461  14.478 -0.3341 -0.1451 -0.2685
 3882SOL    HW123279   2.562   0.424  14.560  1.1508  3.3614  0.6922
 3882SOL    HW223280   2.582   0.540  14.468  2.6652 -2.1513 -0.1865
 3883SOL     OW23281   2.125   0.070  16.722  0.1944  0.5879 -0.4457
 3883SOL    HW123282   2.069   0.002  16.687 -1.6505  1.3383  1.0621
 3883SOL    HW223283   2.083   0.149  16.687 -0.9369  1.5088  3.0251
 3884SOL     OW23284   1.167   3.359   4.857  0.8567  0.2427 -0.2844
 3884SOL    HW123285   1.169   3.266   4.834 -1.2402  0.1901 -0.2452
 3884SOL    HW223286   1.195   3.379   4.768  1.4379  0.3903 -0.0694
 3885SOL     OW23287   4.200   3.451   5.956 -0.9980  0.3450 -0.2590
 3885SOL    HW123288   4.154   3.418   5.879 -0.8525  1.3245 -0.7672
 3885SOL    HW223289   4.157   3.401   6.025 -0.1074  2.3533  1.7660
 3886SOL     OW23290   2.763   2.691   7.055  0.4793 -0.2164 -0.3707
 3886SOL    HW123291   2.816   2.743   7.115 -0.6730  0.1567  0.3139
 3886SOL    HW223292   2.827   2.626   7.024  0.0674 -0.7423 -0.1149
 3887SOL     OW23293   4.107   3.550  12.740 -0.2056  0.4236 -0.2708
 3887SOL    HW123294   4.159   3.591  12.809 -0.8166  0.9062 -0.0979
 3887SOL    HW223295   4.080   3.628  12.693 -0.5094 -0.2198 -1.1584
 3888SOL     OW23296   0.543   2.574  12.305  0.0056 -0.3029 -0.2986
 3888SOL    HW123297   0.498   2.551  12.224 -0.8651  2.2912 -0.5432
 3888SOL    HW223298   0.619   2.622  12.273 -0.0890 -0.6951 -1.1056
 3889SOL     OW23299   4.096   1.110   7.889  0.5745 -0.6480 -0.3316
 3889SOL    HW123300   4.029   1.055   7.847 -1.8138  0.4874  2.0153
 3889SOL    HW223301   4.177   1.078   7.848  0.5792 -0.3062 -0.5935
 3890SOL     OW23302   4.182   2.801   8.564  0.2705  0.3544  0.0739
 3890SOL    HW123303   4.203   2.810   8.657  0.6017  2.7505 -0.2186
 3890SOL    HW223304   4.160   2.708   8.561  2.5679 -0.1969  0.4844
 3891SOL     OW23305   4.453   4.207   0.340 -0.2580  0.1625 -0.3340
 3891SOL    HW123306   4.428   4.220   0.431 -2.2146  2.7982 -1.2782
 3891SOL    HW223307   4.392   4.141   0.307  0.0063 -0.7196  0.9102
 3892SOL     OW23308   3.037   3.745  15.868  0.2249 -0.3570  0.5321
 3892SOL    HW123309   2.951   3.703  15.873  1.0307 -1.8905  1.7883
 3892SOL    HW223310   3.024   3.839  15.855  2.5782  0.1976  2.2464
 3893SOL     OW23311   2.106   1.499  17.441 -0.7908 -0.5962  0.0121
 3893SOL    HW123312   2.037   1.553  17.477 -0.7049  0.6967 -1.7445
 3893SOL    HW223313   2.176   1.511  17.505 -0.0223 -1.9432 -0.5544
 3894SOL     OW23314   0.666   3.473   0.711 -0.2787 -0.0347  0.2154
 3894SOL    HW123315   0.657   3.542   0.776 -1.5224 -2.3119  2.5044
 3894SOL    HW223316   0.743   3.511   0.668 -1.3939  1.5725 -0.3439
 3895SOL     OW23317   1.085   2.438  10.800  0.4415 -0.5160 -0.6474
 3895SOL    HW123318   1.029   2.480  10.865  1.9090  1.1208 -0.4353
 3895SOL    HW223319   1.175   2.470  10.806  0.0424  0.5236 -0.1682
 3896SOL     OW23320   4.132   3.382   7.762 -0.6846  0.7434  0.5393
 3896SOL    HW123321   4.226   3.393   7.745 -0.3600  0.5167  2.1868
 3896SOL    HW223322   4.141   3.388   7.857 -0.5555 -0.8656  0.6452
 3897SOL     OW23323   4.220   1.339  14.448  0.2642  0.1604  0.0571
 3897SOL    HW123324   4.132   1.372  14.467  1.2855  2.4254  0.8602
 3897SOL    HW223325   4.214   1.260  14.501 -0.0836  1.8274  2.4608
 3898SOL     OW23326   2.081   0.569   9.263 -0.2750  0.1887 -0.5240
 3898SOL    HW123327   2.061   0.506   9.332  1.7802 -0.2057 -0.2899
 3898SOL    HW223328   2.088   0.518   9.182  2.9466  0.2184 -0.2728
 3899SOL     OW23329   4.378   2.151   6.868  0.0679 -0.3408  0.1520
 3899SOL    HW123330   4.318   2.104   6.926  0.3513 -0.0504  0.6766
 3899SOL    HW223331   4.465   2.140   6.905 -0.0609  1.3958  1.0098
 3900SOL     OW23332   4.360   4.441   5.188  0.4716  0.6307 -0.3520
 3900SOL    HW123333   4.367   4.522   5.238  1.1067  1.3297 -1.5772
 3900SOL    HW223334   4.451   4.428   5.162 -0.1643 -0.1645 -2.1693
 3901SOL     OW23335   4.589   0.714  14.827 -0.2709  0.4567 -0.1875
 3901SOL    HW123336   4.574   0.717  14.922  1.2271 -0.4765  0.0787
 3901SOL    HW223337   4.645   0.792  14.821 -1.8253  1.4399 -1.7615
 3902SOL     OW23338   0.516   4.050   5.622  0.0318  0.1717  0.7155
 3902SOL    HW123339   0.447   3.989   5.594  0.5039 -0.3909  0.7878
 3902SOL    HW223340   0.538   4.006   5.704  0.5138  0.2274  0.6142
 3903SOL     OW23341   0.401   2.121  10.337 -0.4727  0.4318  0.2968
 3903SOL    HW123342   0.307   2.126  10.322 -0.6135  0.1714  1.1089
 3903SOL    HW223343   0.408   2.025  10.335  0.1970  0.4786  0.4034
 3904SOL     OW23344   2.653   1.233   4.452 -0.2570  0.3799  0.0762
 3904SOL    HW123345   2.701   1.174   4.510  0.1873  0.0575 -0.6200
 3904SOL    HW223346   2.725   1.239   4.388 -0.8259  0.6930 -0.5383
 3905SOL     OW23347   4.412   3.132  14.444 -0.6572  0.1780  0.5023
 3905SOL    HW123348   4.361   3.051  14.430 -0.7791  0.5870 -1.3969
 3905SOL    HW223349   4.387   3.184  14.368 -1.4297 -1.7045 -0.5317
 3906SOL     OW23350   2.056   0.018   0.599  0.0581 -0.0006  0.0905
 3906SOL    HW123351   1.996   4.688   0.572  1.4927 -1.3599  0.4793
 3906SOL    HW223352   2.066   0.059   0.513  0.2006  1.1180  0.6337
 3907SOL     OW23353   3.260   2.416   0.762  0.4267  0.4623  0.1068
 3907SOL    HW123354   3.282   2.368   0.842 -1.8972 -0.8451 -0.0565
 3907SOL    HW223355   3.283   2.504   0.792 -1.1582  0.2319  1.9643
 3908SOL     OW23356   4.101   1.983   1.095  0.2738 -0.2195 -0.3292
 3908SOL    HW123357   4.046   1.946   1.026 -0.6274 -3.3163  2.0689
 3908SOL    HW223358   4.183   1.933   1.087  1.1994  1.3388 -0.6784
 3909SOL     OW23359   1.800   2.878   7.922  0.0648 -0.3044 -0.0814
 3909SOL    HW123360   1.757   2.886   7.836 -0.0634  1.7388  0.1625
 3909SOL    HW223361   1.767   2.958   7.963 -0.9483 -1.5389  1.4739
 3910SOL     OW23362   3.920   3.112   3.395 -0.0945  0.0085  0.5585
 3910SOL    HW123363   3.913   3.029   3.347 -0.7648  1.8439 -2.5156
 3910SOL    HW223364   3.991   3.105   3.459 -1.0106  1.6632  1.7300
 3911SOL     OW23365   3.648   3.291   6.090 -0.2203 -0.4274  0.5410
 3911SOL    HW123366   3.682   3.315   6.176  0.6017 -0.5735  0.2584
 3911SOL    HW223367   3.679   3.201   6.082  0.0678 -0.5359  3.0180
 3912SOL     OW23368   2.459   3.861   3.346  0.0632  0.2391  0.1696
 3912SOL    HW123369   2.413   3.869   3.430  0.1294  0.4933  0.1794
 3912SOL    HW223370   2.383   3.858   3.288  1.4092 -2.2704 -1.4761
 3913SOL     OW23371   2.615   2.602   3.033  0.0075 -0.1445 -0.1683
 3913SOL    HW123372   2.583   2.565   3.115 -0.0800 -0.3451 -0.2910
 3913SOL    HW223373   2.623   2.695   3.051  0.1354 -0.2313  0.2280
 3914SOL     OW23374   0.764   3.903   2.854 -0.1522 -0.6486  0.3848
 3914SOL    HW123375   0.851   3.934   2.878 -0.4236  1.0566 -0.8561
 3914SOL    HW223376   0.723   3.990   2.854  1.0083 -0.1160  2.4087
 3915SOL     OW23377   3.249   2.335   9.138  0.2270  0.4371  0.2038
 3915SOL    HW123378   3.225   2.313   9.228  2.1615 -0.7329  0.4269
 3915SOL    HW223379   3.299   2.413   9.163  3.0498 -0.5153 -2.3953
 3916SOL     OW23380   1.522   0.051   7.044  0.5395 -0.6278  0.3398
 3916SOL    HW123381   1.542   0.111   7.116 -0.8947 -1.9337  1.8361
 3916SOL    HW223382   1.606   0.050   6.998 -0.1860  1.7340 -1.0584
 3917SOL     OW23383   0.837   0.666   7.588 -0.7286  0.0377  0.2707
 3917SOL    HW123384   0.847   0.750   7.632 -0.9128  1.5453 -2.5795
 3917SOL    HW223385   0.925   0.636   7.564 -0.6794  0.4317 -0.0408
 3918SOL     OW23386   0.092   2.791   5.557 -0.7519  0.0981  0.3645
 3918SOL    HW123387   0.154   2.719   5.566 -0.2257  0.2270 -2.0750
 3918SOL    HW223388   0.053   2.770   5.472 -0.0067  0.0884  0.0227
 3919SOL     OW23389   3.677   1.345   7.906  0.1013 -0.4321  0.6684
 3919SOL    HW123390   3.612   1.388   7.850  0.2742 -1.3945 -0.2774
 3919SOL    HW223391   3.620   1.320   7.979  1.6985 -0.3844  1.9214
 3920SOL     OW23392   2.658   3.318   0.726  0.2148 -0.2941  0.2323
 3920SOL    HW123393   2.707   3.303   0.645 -2.0961 -2.0398 -0.8519
 3920SOL    HW223394   2.581   3.367   0.697  0.4627  0.2830  0.5390
 3921SOL     OW23395   1.814   3.592  12.599 -0.1468  0.5677  0.1045
 3921SOL    HW123396   1.857   3.508  12.590 -0.7605  0.3230 -0.5920
 3921SOL    HW223397   1.744   3.553  12.652  0.1594 -0.2409 -0.0872
 3922SOL     OW23398   3.801   1.117  11.151 -0.1535  0.5009  0.2814
 3922SOL    HW123399   3.862   1.189  11.133  0.7568 -0.9320 -2.3794
 3922SOL    HW223400   3.802   1.078  11.063 -1.7187 -1.9616  1.3716
 3923SOL     OW23401   3.795   1.887  13.623  0.1967  0.3497  0.2506
 3923SOL    HW123402   3.780   1.808  13.572 -2.2972  0.1804  1.2192
 3923SOL    HW223403   3.728   1.898  13.691  1.1863  0.7511  1.1797
 3924SOL     OW23404   3.190   3.515  15.772  0.1868 -0.1995  0.4174
 3924SOL    HW123405   3.168   3.590  15.828  0.4388  0.3161 -0.1633
 3924SOL    HW223406   3.116   3.533  15.713 -0.3675 -1.1958  0.8182
 3925SOL     OW23407   4.150   2.044  14.975  0.5528 -0.6397  0.1647
 3925SOL    HW123408   4.190   2.053  14.888 -0.6197  3.1048  0.0386
 3925SOL    HW223409   4.061   2.060  14.945  0.5211  1.2936  1.3449
 3926SOL     OW23410   3.440   1.771   6.434 -0.2541 -0.1358 -0.3178
 3926SOL    HW123411   3.499   1.820   6.493 -0.6125  1.2673 -1.1301
 3926SOL    HW223412   3.353   1.797   6.464 -0.8595 -1.5258 -0.8846
 3927SOL     OW23413   0.776   0.100   8.668 -0.3692  0.2239  0.4091
 3927SOL    HW123414   0.800   0.063   8.753  1.6762 -0.7964 -0.6066
 3927SOL    HW223415   0.769   0.015   8.625  0.4224  0.4596 -0.1875
 3928SOL     OW23416   0.769   2.661  15.169 -0.4403  0.0668  0.0874
 3928SOL    HW123417   0.679   2.639  15.145 -0.0407 -1.1405 -0.3031
 3928SOL    HW223418   0.755   2.754  15.187 -2.4488  0.1224 -1.7829
 3929SOL     OW23419   1.079   0.215   1.519  0.5804 -0.1095 -0.2766
 3929SOL    HW123420   1.140   0.274   1.562  0.1405 -0.7359  1.2087
 3929SOL    HW223421   1.126   0.132   1.508 -1.4164 -1.1023 -1.3613
 3930SOL     OW23422   3.842   2.560   9.564  0.1910 -0.6117  0.1167
 3930SOL    HW123423   3.788   2.499   9.613  1.8488 -1.4179  0.9271
 3930SOL    HW223424   3.921   2.508   9.551  0.6617 -0.3749  2.0470
 3931SOL     OW23425   3.010   4.350   0.211  0.4997  0.0344 -0.3394
 3931SOL    HW123426   2.978   4.335   0.122 -0.3265 -1.1704  0.1451
 3931SOL    HW223427   3.016   4.445   0.212 -3.3665  0.3077 -1.0528
 3932SOL     OW23428   0.888   2.899   9.113  0.5168  0.5874  0.4443
 3932SOL    HW123429   0.872   2.833   9.181 -0.0978  1.0664  0.7685
 3932SOL    HW223430   0.856   2.855   9.035  2.1713 -0.2201  0.2212
 3933SOL     OW23431   3.420   1.342   2.338  0.3331 -0.6151  0.0970
 3933SOL    HW123432   3.473   1.334   2.258  0.9796  1.3671  0.3207
 3933SOL    HW223433   3.476   1.395   2.395 -1.0381 -0.5496  1.3730
 3934SOL     OW23434   1.604   0.629   6.000  0.5340 -0.4241 -0.5104
 3934SOL    HW123435   1.684   0.587   6.033 -1.4742 -2.2556  1.9701
 3934SOL    HW223436   1.540   0.570   6.039  0.8353 -1.4343 -1.5406
 3935SOL     OW23437   0.013   4.060   1.163 -0.5744 -0.1296 -0.1282
 3935SOL    HW123438   0.017   3.985   1.222 -1.8053 -0.0965  0.0093
 3935SOL    HW223439   0.070   4.024   1.095  1.5215  1.2232  0.9174
 3936SOL     OW23440   2.416   3.885   5.378 -0.3066 -0.2980 -0.0308
 3936SOL    HW123441   2.462   3.828   5.316  0.0335 -0.2234  0.1508
 3936SOL    HW223442   2.327   3.863   5.351 -0.7085 -0.7596  1.6772
 3937SOL     OW23443   0.079   0.116   6.609  1.2772 -0.5306 -0.1794
 3937SOL    HW123444   0.128   0.034   6.604  0.3601 -1.1056  0.1945
 3937SOL    HW223445   0.111   0.158   6.689 -2.0494  1.0675  0.3254
 3938SOL     OW23446   0.042   4.041   8.929  0.0837 -0.2995 -0.2159
 3938SOL    HW123447   0.062   4.060   9.020 -2.9536  0.0448  0.3694
 3938SOL    HW223448   0.009   4.124   8.894 -0.1602 -0.1630  0.3498
 3939SOL     OW23449   3.068   0.285   1.967  0.0359  0.0741  0.5148
 3939SOL    HW123450   2.980   0.318   1.984  0.7896  2.8115 -0.8581
 3939SOL    HW223451   3.118   0.343   2.025  1.7484  0.0851 -0.9660
 3940SOL     OW23452   3.600   1.987   6.557 -0.1112  0.2567 -0.0078
 3940SOL    HW123453   3.537   2.031   6.613  1.4856  1.7518  0.6064
 3940SOL    HW223454   3.677   2.043   6.565  0.3966 -0.6652  1.7339
 3941SOL     OW23455   0.182   1.987   4.495 -0.4952  0.0213 -0.5684
 3941SOL    HW123456   0.235   2.037   4.557  1.0853 -2.6286  0.2303
 3941SOL    HW223457   0.186   2.046   4.420  0.2237  1.2037  0.4130
 3942SOL     OW23458   0.234   2.541  13.581 -0.3678  0.0638  0.3226
 3942SOL    HW123459   0.231   2.498  13.666  1.2581  0.4524  0.5879
 3942SOL    HW223460   0.246   2.465  13.523  0.1458  0.6388 -0.3176
 3943SOL     OW23461   2.147   4.017   0.298 -0.6288 -0.2190  0.0271
 3943SOL    HW123462   2.143   3.930   0.257 -0.2381 -0.4836  0.5499
 3943SOL    HW223463   2.199   4.067   0.235 -0.2878 -2.4357 -1.4795
 3944SOL     OW23464   3.499   1.410   8.090  0.0637 -0.3028 -0.2369
 3944SOL    HW123465   3.523   1.485   8.035 -0.4604  0.4499  0.5426
 3944SOL    HW223466   3.403   1.412   8.088  0.1043  1.3014 -0.8059
 3945SOL     OW23467   2.421   3.006   7.407  0.3167 -0.1643  0.2445
 3945SOL    HW123468   2.512   3.012   7.378  0.9984 -2.0295  2.1127
 3945SOL    HW223469   2.422   2.948   7.483  0.0536 -2.6973 -1.6818
 3946SOL     OW23470   1.634   0.468   7.611  0.5341 -0.6030  0.1654
 3946SOL    HW123471   1.595   0.548   7.646 -1.4390 -1.9742  1.0825
 3946SOL    HW223472   1.595   0.456   7.525  3.0541 -2.6659 -0.6939
 3947SOL     OW23473   0.560   3.000   3.876 -0.8096 -0.5730  0.1446
 3947SOL    HW123474   0.525   3.089   3.885  1.3826  0.3410 -0.6099
 3947SOL    HW223475   0.614   3.001   3.797 -0.5800 -0.4222  0.3042
 3948SOL     OW23476   4.577   4.224   1.932  0.4647 -0.1430  0.0832
 3948SOL    HW123477   4.507   4.177   1.886  1.1647  0.9744 -2.0587
 3948SOL    HW223478   4.539   4.221   2.020 -0.6678  1.5917 -0.3538
 3949SOL     OW23479   2.289   0.947  13.871 -0.6737 -0.0461 -0.3091
 3949SOL    HW123480   2.255   0.877  13.927 -2.5871  0.0871 -1.3091
 3949SOL    HW223481   2.260   1.029  13.911  0.8373  0.2579  0.1828
 3950SOL     OW23482   1.270   2.403   8.008  0.0782  0.1909 -0.0322
 3950SOL    HW123483   1.255   2.480   7.953  0.2066  1.1569  1.2749
 3950SOL    HW223484   1.227   2.328   7.968 -2.5671  2.2877 -1.1489
 3951SOL     OW23485   2.442   3.610  15.273  0.0828  0.0068 -0.7709
 3951SOL    HW123486   2.367   3.600  15.214  0.3475  2.4976 -1.5022
 3951SOL    HW223487   2.505   3.655  15.217  0.0368 -0.6793 -1.3839
 3952SOL     OW23488   0.809   0.766   5.264 -0.7933  0.0104 -0.1147
 3952SOL    HW123489   0.747   0.839   5.262  0.9755  1.4242 -2.1140
 3952SOL    HW223490   0.880   0.798   5.319  0.8071 -0.4612 -1.9238
 3953SOL     OW23491   3.169   4.183  15.630 -0.2568 -0.1012 -0.5530
 3953SOL    HW123492   3.161   4.175  15.535 -2.2355 -1.7737 -0.2465
 3953SOL    HW223493   3.154   4.277  15.637  0.5839 -0.0557  0.6372
 3954SOL     OW23494   3.052   1.231   9.054 -0.1572  0.2209 -0.4240
 3954SOL    HW123495   2.983   1.217   8.989 -0.8859 -0.0479  0.4174
 3954SOL    HW223496   2.995   1.215   9.129 -2.1881  0.6698 -1.8626
 3955SOL     OW23497   1.159   0.890  11.827 -0.5970  0.2770 -0.5806
 3955SOL    HW123498   1.140   0.920  11.916  1.4690 -1.5206  0.4600
 3955SOL    HW223499   1.128   0.800  11.833 -1.2117  0.5492  0.3573
 3956SOL     OW23500   3.394   2.193   1.853 -0.1275  0.0360 -0.6657
 3956SOL    HW123501   3.337   2.168   1.781 -0.1107  0.3233 -0.7801
 3956SOL    HW223502   3.463   2.126   1.852 -1.0262 -0.8562 -1.9778
 3957SOL     OW23503   2.187   0.884   3.929  0.1827 -0.1137 -0.1799
 3957SOL    HW123504   2.162   0.871   4.020 -1.7471 -0.5236 -0.7642
 3957SOL    HW223505   2.100   0.878   3.888  1.3119 -0.4541 -2.5479
 3958SOL     OW23506   0.896   2.955   3.487 -0.0660 -0.1138 -0.0427
 3958SOL    HW123507   0.925   2.925   3.401 -0.7647 -1.1109  0.0677
 3958SOL    HW223508   0.961   2.900   3.530 -0.1797  0.0818  0.3794
 3959SOL     OW23509   3.346   3.885  17.498 -0.3665  0.1788  0.3802
 3959SOL    HW123510   3.435   3.921  17.505 -0.4300  0.7000 -1.7353
 3959SOL    HW223511   3.299   3.952  17.449 -0.4974 -0.7897 -0.8072
 3960SOL     OW23512   2.405   3.006   2.241 -0.6298  0.2576 -0.0416
 3960SOL    HW123513   2.468   2.942   2.208  0.4011  2.0253 -1.5036
 3960SOL    HW223514   2.464   3.076   2.269 -0.9687  1.9806 -3.6906
 3961SOL     OW23515   2.015   0.848   3.169  0.3145  0.1507  0.1451
 3961SOL    HW123516   2.061   0.798   3.237  2.2754  1.1589 -0.4341
 3961SOL    HW223517   1.931   0.872   3.208  0.8216  0.3258  1.1357
 3962SOL     OW23518   0.517   4.513  12.124  0.2234  0.1915 -0.2775
 3962SOL    HW123519   0.589   4.450  12.113 -0.2941 -0.7657  1.6726
 3962SOL    HW223520   0.550   4.602  12.114 -2.2197  1.3689  2.1457
 3963SOL     OW23521   2.256   4.056   3.448 -0.3176  0.0359 -0.5817
 3963SOL    HW123522   2.297   4.118   3.387 -2.2400  1.1201 -0.7539
 3963SOL    HW223523   2.302   4.080   3.528 -1.3780  1.3736 -0.3620
 3964SOL     OW23524   4.015   0.368   6.174 -0.0231  0.5868  0.2314
 3964SOL    HW123525   4.030   0.333   6.262  0.9116 -1.2056 -0.6370
 3964SOL    HW223526   4.082   0.436   6.165 -0.7315  1.6057  2.7882
 3965SOL     OW23527   0.543   1.571   6.714 -0.4873  0.5606 -0.1309
 3965SOL    HW123528   0.589   1.502   6.763 -0.3379  0.5984 -0.2171
 3965SOL    HW223529   0.559   1.646   6.771 -0.8290  1.1820 -0.8586
 3966SOL     OW23530   2.084   0.809   8.714 -0.1583 -0.0605  0.1935
 3966SOL    HW123531   1.996   0.823   8.749  0.1017  0.3365  0.6997
 3966SOL    HW223532   2.069   0.785   8.623 -1.8562  2.1943 -0.1157
 3967SOL     OW23533   4.723   0.096  14.322  0.2522  0.2620 -0.1663
 3967SOL    HW123534   4.702   0.035  14.252 -1.7475  0.8525 -0.0771
 3967SOL    HW223535   0.072   0.126  14.303  0.4157  1.1390  1.9023
 3968SOL     OW23536   1.722   1.379   4.066 -0.0760  0.2642 -0.5090
 3968SOL    HW123537   1.641   1.401   4.112  0.2752 -0.1091  0.2921
 3968SOL    HW223538   1.716   1.436   3.989 -1.4283 -1.5895 -1.7715
 3969SOL     OW23539   3.151   3.941   2.609 -0.0758  0.3619 -0.2158
 3969SOL    HW123540   3.073   3.984   2.574 -0.3836 -1.1244 -1.3727
 3969SOL    HW223541   3.126   3.869   2.667  0.8175  0.4874  0.3219
 3970SOL     OW23542   2.311   3.016  10.859  0.9965 -0.1680  0.6576
 3970SOL    HW123543   2.282   3.106  10.842  4.2811  0.4212 -2.0691
 3970SOL    HW223544   2.405   3.029  10.840  1.0958 -4.3040 -1.6158
 3971SOL     OW23545   1.908   4.416   8.585 -0.2718  0.1329 -0.0185
 3971SOL    HW123546   1.979   4.442   8.527  0.4714 -0.3015  0.7035
 3971SOL    HW223547   1.897   4.498   8.635 -1.4379 -0.5757  0.8901
 3972SOL     OW23548   1.305   1.704   9.561 -0.0358  0.7959  0.3712
 3972SOL    HW123549   1.388   1.746   9.582 -0.5737  2.0318  0.0241
 3972SOL    HW223550   1.274   1.750   9.483  0.3225  0.9330  0.3102
 3973SOL     OW23551   0.914   2.500   8.779 -1.0190  0.7097 -0.1896
 3973SOL    HW123552   0.925   2.498   8.684 -0.9267 -0.7640 -0.1475
 3973SOL    HW223553   0.956   2.415   8.789  1.0456  2.0652  2.8642
 3974SOL     OW23554   2.343   3.714   8.178  0.6064 -0.3810 -0.1540
 3974SOL    HW123555   2.264   3.661   8.184  0.0328  0.3591 -1.2915
 3974SOL    HW223556   2.306   3.797   8.148  0.4205 -0.2681  0.3801
 3975SOL     OW23557   1.264   1.681   3.804 -0.1197 -0.5146  0.0566
 3975SOL    HW123558   1.254   1.747   3.872  0.6060  1.2764 -1.5454
 3975SOL    HW223559   1.299   1.736   3.733  0.7781 -0.4343  0.5694
 3976SOL     OW23560   4.203   2.458  13.970  0.0462 -0.3666 -0.0937
 3976SOL    HW123561   4.230   2.369  13.994  0.4599  0.3714  2.1797
 3976SOL    HW223562   4.238   2.471  13.882  0.9644  1.9616  0.6108
 3977SOL     OW23563   0.575   1.815  10.958 -1.1736 -1.1074 -0.1783
 3977SOL    HW123564   0.555   1.843  11.047  1.9162  0.9756 -0.1366
 3977SOL    HW223565   0.569   1.898  10.909  2.0369 -1.4391 -1.1714
 3978SOL     OW23566   2.988   0.449   6.018 -0.8564  0.3677 -0.3463
 3978SOL    HW123567   3.003   0.530   5.969 -0.1192  0.2661 -0.2895
 3978SOL    HW223568   2.961   0.388   5.949  3.1910  0.6704 -2.2268
 3979SOL     OW23569   1.257   2.768  14.608  0.8599  0.2382 -0.2588
 3979SOL    HW123570   1.267   2.751  14.514 -0.1317  0.1352 -0.3465
 3979SOL    HW223571   1.168   2.736  14.625  0.3368  2.4891  1.3222
 3980SOL     OW23572   0.988   2.072  15.555 -0.0589  0.5681  0.1613
 3980SOL    HW123573   1.016   2.040  15.640 -1.3347 -0.7492  0.0803
 3980SOL    HW223574   0.896   2.048  15.561  0.1717 -0.0649  1.1103
 3981SOL     OW23575   3.680   4.638   6.244 -0.7644  0.3571  0.4251
 3981SOL    HW123576   3.660   4.724   6.280 -3.5053  0.1702 -0.6938
 3981SOL    HW223577   3.771   4.632   6.276 -0.9882  1.1718  1.2128
 3982SOL     OW23578   3.075   2.679   2.492 -0.7389  0.0999  0.2085
 3982SOL    HW123579   3.098   2.753   2.548 -1.7247  0.0072  0.7505
 3982SOL    HW223580   3.162   2.640   2.494  0.1540  2.1406  0.8970
 3983SOL     OW23581   0.100   4.536   2.132  0.1831 -0.5144  0.4236
 3983SOL    HW123582   0.068   4.627   2.130 -0.2435 -0.6769 -0.3600
 3983SOL    HW223583   0.193   4.543   2.113 -0.8038  2.4563 -3.4602
 3984SOL     OW23584   4.098   3.309  12.224 -0.6668  0.1368  0.5354
 3984SOL    HW123585   4.151   3.335  12.299 -1.9075  0.6005  1.2572
 3984SOL    HW223586   4.145   3.231  12.196 -0.5305  0.6535 -0.6862
 3985SOL     OW23587   2.382   0.612   9.154 -0.1380  0.0542  0.0000
 3985SOL    HW123588   2.301   0.568   9.181 -0.2944 -1.0781 -2.2878
 3985SOL    HW223589   2.349   0.701   9.143 -0.5228  0.0342  0.9714
 3986SOL     OW23590   2.756   1.610   2.328 -0.2419 -0.8347 -0.3057
 3986SOL    HW123591   2.767   1.558   2.408  0.2123  0.6314  0.5837
 3986SOL    HW223592   2.850   1.616   2.314 -0.5977  1.5223 -1.6049
 3987SOL     OW23593   1.357   1.466   4.161  0.1090  0.0791 -0.3141
 3987SOL    HW123594   1.283   1.449   4.219  0.1923 -3.1564 -1.1607
 3987SOL    HW223595   1.421   1.401   4.192 -1.0887  0.1203  2.2350
 3988SOL     OW23596   3.576   1.361   2.811  0.1939 -0.2502 -0.2611
 3988SOL    HW123597   3.518   1.402   2.747 -0.2042 -0.5279 -0.0790
 3988SOL    HW223598   3.602   1.278   2.773  0.2929 -0.7596  0.9161
 3989SOL     OW23599   0.690   1.517   2.282  0.2053  0.1738 -0.1718
 3989SOL    HW123600   0.746   1.465   2.225 -0.3316  0.0702 -0.6050
 3989SOL    HW223601   0.619   1.454   2.294  0.8555 -0.2195  1.7239
 3990SOL     OW23602   0.128   2.244  11.060 -0.1071  0.8261 -0.1381
 3990SOL    HW123603   0.181   2.233  11.139  0.0410  2.2529 -0.0514
 3990SOL    HW223604   0.199   2.216  11.002  0.7676 -1.3166  1.9470
 3991SOL     OW23605   2.160   1.288  12.751 -0.1590  0.0607 -0.1128
 3991SOL    HW123606   2.068   1.307  12.766 -0.1058  0.5724 -0.4526
 3991SOL    HW223607   2.176   1.283  12.845  1.9901  0.8464 -0.4329
 3992SOL     OW23608   2.130   2.768   9.091  0.2579 -0.2895  0.2218
 3992SOL    HW123609   2.134   2.718   9.173 -0.0117 -0.8782 -0.1246
 3992SOL    HW223610   2.039   2.798   9.097 -0.0834 -1.4365  0.6869
 3993SOL     OW23611   2.472   0.805   0.824  0.4262 -0.6716  0.0982
 3993SOL    HW123612   2.430   0.745   0.763 -2.0092  0.9671  0.1577
 3993SOL    HW223613   2.541   0.752   0.863 -2.5560 -1.9148  3.7616
 3994SOL     OW23614   0.014   2.902  16.320  0.2489 -0.0664 -0.9003
 3994SOL    HW123615   4.711   2.950  16.249 -0.5329  0.7950  0.1560
 3994SOL    HW223616   4.713   2.948  16.394  0.7905 -1.0699  0.0184
 3995SOL     OW23617   0.432   2.194  12.254 -0.2747  0.4795 -0.1525
 3995SOL    HW123618   0.460   2.103  12.261  0.4999  0.5389 -2.3676
 3995SOL    HW223619   0.344   2.176  12.222 -1.3308  0.8023  2.5768
 3996SOL     OW23620   2.345   1.841  13.006  0.0077  0.0425  0.1449
 3996SOL    HW123621   2.293   1.818  12.929  0.2286 -0.0296  0.0170
 3996SOL    HW223622   2.271   1.870  13.059 -1.1306 -0.4178 -1.2172
 3997SOL     OW23623   1.933   2.436   8.721 -0.5487  0.0610 -0.1816
 3997SOL    HW123624   1.881   2.498   8.772 -0.9940 -0.1688 -0.3558
 3997SOL    HW223625   1.919   2.468   8.632  0.7993  1.8049  0.2320
 3998SOL     OW23626   4.300   4.635   7.726  0.0748  0.1215  0.5474
 3998SOL    HW123627   4.311   4.589   7.642 -2.0239  2.4641 -0.9979
 3998SOL    HW223628   4.229   4.697   7.710  0.0835  0.1628  0.6687
 3999SOL     OW23629   1.402   1.398   8.799  0.3586 -0.0149 -0.1774
 3999SOL    HW123630   1.307   1.386   8.801  0.7564 -3.2627  0.5603
 3999SOL    HW223631   1.426   1.342   8.724 -2.0807 -2.0951  0.5633
 4000SOL     OW23632   3.937   2.949  13.482 -0.4694 -0.3797  0.4211
 4000SOL    HW123633   3.947   2.991  13.567 -0.8898  0.0145  0.2764
 4000SOL    HW223634   3.984   3.006  13.421 -1.0952  0.5538  0.8257
 4001SOL     OW23635   4.034   3.678   6.526  0.1893 -0.0192  0.0953
 4001SOL    HW123636   4.088   3.751   6.495 -0.6343  0.0663 -1.1408
 4001SOL    HW223637   3.976   3.718   6.590 -1.3224 -0.8092 -0.7735
 4002SOL     OW23638   2.742   3.078   8.008 -0.4332 -0.6189 -0.5910
 4002SOL    HW123639   2.675   3.046   8.068 -0.2842  0.5643  0.2079
 4002SOL    HW223640   2.694   3.122   7.938 -1.8137  0.1224  0.8183
 4003SOL     OW23641   1.490   2.240  13.608 -0.2118  0.7201 -0.1294
 4003SOL    HW123642   1.435   2.304  13.654 -0.1809  0.9385 -0.3945
 4003SOL    HW223643   1.497   2.279  13.520  0.6406  2.3823  0.6705
 4004SOL     OW23644   0.411   0.259   2.150  0.0978  0.0686 -0.1150
 4004SOL    HW123645   0.337   0.311   2.180  0.5245  1.9440 -2.3157
 4004SOL    HW223646   0.408   0.257   2.054  1.4899 -0.6910 -0.1467
 4005SOL     OW23647   3.330   4.264   3.328  0.3729 -0.0534  0.1137
 4005SOL    HW123648   3.384   4.263   3.408  3.9268  0.2104 -2.2936
 4005SOL    HW223649   3.246   4.298   3.358 -0.0586 -1.0524  0.0235
 4006SOL     OW23650   3.679   2.110  15.523 -0.0223 -0.2789 -0.4497
 4006SOL    HW123651   3.710   2.200  15.516 -2.7186  0.6141 -0.7048
 4006SOL    HW223652   3.634   2.095  15.440 -0.3425  0.1639 -0.3578
 4007SOL     OW23653   0.634   3.175  17.363 -0.3364 -0.5590  0.7221
 4007SOL    HW123654   0.614   3.245  17.300  0.1727  0.2716  1.4933
 4007SOL    HW223655   0.567   3.196  17.428 -1.7988 -2.9554 -0.0127
 4008SOL     OW23656   2.871   4.268   8.137 -1.2431 -0.5189 -0.0090
 4008SOL    HW123657   2.948   4.312   8.173  0.6341 -2.9526 -1.0569
 4008SOL    HW223658   2.830   4.239   8.219  0.1019 -0.9868  0.4976
 4009SOL     OW23659   1.323   3.986   8.659 -0.5106 -0.2879 -0.1859
 4009SOL    HW123660   1.280   3.966   8.576 -0.7007 -0.4837 -0.0400
 4009SOL    HW223661   1.285   4.070   8.685 -1.3221 -0.0348 -2.2797
 4010SOL     OW23662   0.403   0.425   5.343  0.0447  0.3502  0.3051
 4010SOL    HW123663   0.362   0.512   5.342  1.0563  0.8026 -1.5993
 4010SOL    HW223664   0.493   0.451   5.321  0.7813 -0.6741  2.1392
 4011SOL     OW23665   2.585   0.776   1.472  0.1344 -0.2971  0.5087
 4011SOL    HW123666   2.548   0.689   1.489 -0.2115 -0.3201 -0.3505
 4011SOL    HW223667   2.664   0.745   1.426  1.0522  2.7020  0.1058
 4012SOL     OW23668   3.921   3.560   5.264 -0.0245 -0.3559  0.0334
 4012SOL    HW123669   3.953   3.581   5.352 -3.3996 -1.2915  1.4937
 4012SOL    HW223670   3.991   3.503   5.232 -0.0804 -0.4217  0.0296
 4013SOL     OW23671   0.250   3.005   5.978  0.1763 -0.2839  0.0613
 4013SOL    HW123672   0.191   2.985   5.905 -0.4536 -1.3837  0.8713
 4013SOL    HW223673   0.208   3.082   6.015  0.2855  0.8161 -2.1078
 4014SOL     OW23674   3.167   3.102  16.024  0.7111 -0.0727 -0.0174
 4014SOL    HW123675   3.187   3.153  15.945  1.6142 -0.7963 -0.2484
 4014SOL    HW223676   3.141   3.171  16.086  0.9640  0.4282 -0.4683
 4015SOL     OW23677   1.338   4.320   3.815 -0.1742  0.5483 -0.3634
 4015SOL    HW123678   1.254   4.338   3.857 -0.5119  3.2261 -2.1539
 4015SOL    HW223679   1.319   4.242   3.761  2.0819  0.1979 -0.6459
 4016SOL     OW23680   2.062   4.239  10.114 -0.3743 -0.1288  0.6394
 4016SOL    HW123681   2.118   4.240  10.036 -2.1317  0.3769 -0.6160
 4016SOL    HW223682   2.119   4.227  10.190  0.9341 -1.0586 -0.4754
 4017SOL     OW23683   3.966   3.330   2.650  0.0331 -0.1785 -0.2797
 4017SOL    HW123684   3.978   3.281   2.568  0.4609  2.1236 -1.5931
 4017SOL    HW223685   3.871   3.328   2.658 -0.1567 -1.1997 -2.6726
 4018SOL     OW23686   2.787   1.868   7.045  0.6265  0.2633 -0.3478
 4018SOL    HW123687   2.751   1.819   6.971  1.3267 -0.1827 -0.3859
 4018SOL    HW223688   2.746   1.953   7.029  0.4220 -0.2146 -2.3213
 4019SOL     OW23689   3.391   4.069   5.407  0.4627 -0.0676  0.1288
 4019SOL    HW123690   3.431   4.076   5.321  0.0320 -1.8661 -0.2213
 4019SOL    HW223691   3.467   4.054   5.464  0.6001  1.8092  0.4661
 4020SOL     OW23692   2.352   3.340   0.770  0.0562 -0.0174 -0.2501
 4020SOL    HW123693   2.343   3.418   0.714 -1.6577 -0.2151 -0.2315
 4020SOL    HW223694   2.352   3.372   0.860 -1.8830  1.2784 -0.7070
 4021SOL     OW23695   2.048   1.755   4.437  0.4946  0.1026 -0.1221
 4021SOL    HW123696   2.058   1.770   4.531  1.3218 -2.6431  0.2142
 4021SOL    HW223697   2.102   1.820   4.392 -0.8584  1.5599  0.3409
 4022SOL     OW23698   0.362   4.482   6.741  0.7136  0.2661 -0.8766
 4022SOL    HW123699   0.384   4.428   6.817  1.1187  0.3864 -0.9111
 4022SOL    HW223700   0.336   4.565   6.781 -1.4735 -0.6555 -0.3837
 4023SOL     OW23701   3.844   3.349   7.327  0.2287  0.0263  0.2246
 4023SOL    HW123702   3.906   3.276   7.326 -0.9973 -1.0435  2.0820
 4023SOL    HW223703   3.905   3.419   7.302  1.2734 -1.2634 -0.8073
 4024SOL     OW23704   0.767   1.783   8.128 -0.1132  0.1033 -0.5548
 4024SOL    HW123705   0.681   1.794   8.168  0.6752  1.4081  0.7903
 4024SOL    HW223706   0.731   1.773   8.040  1.5705 -1.2692 -1.0758
 4025SOL     OW23707   4.656   4.373   7.171  0.0264  0.1359 -0.0262
 4025SOL    HW123708   4.660   4.316   7.247  0.7806  0.3034  0.0657
 4025SOL    HW223709   0.012   4.373   7.162 -0.1369  1.7181 -1.9422
 4026SOL     OW23710   2.747   2.080   9.783  0.0690 -0.1881  0.1867
 4026SOL    HW123711   2.815   2.076   9.850  0.3881 -0.2265 -0.1353
 4026SOL    HW223712   2.686   2.145   9.818  2.0537  1.5303  0.4315
 4027SOL     OW23713   3.965   0.167   8.941  0.2198 -0.0180 -0.7556
 4027SOL    HW123714   3.947   0.082   8.981 -1.0545  1.2863  1.4080
 4027SOL    HW223715   4.032   0.209   8.995  2.3608 -1.8336 -2.0081
 4028SOL     OW23716   1.386   1.220   9.167 -0.0600  0.3777  0.0118
 4028SOL    HW123717   1.462   1.202   9.222  2.3927  2.7337 -2.6271
 4028SOL    HW223718   1.409   1.174   9.086  3.0550 -1.5100  1.9828
 4029SOL     OW23719   3.038   0.521   8.545  0.6715 -0.5237 -0.4727
 4029SOL    HW123720   3.066   0.596   8.492  1.2460 -0.9957 -0.8378
 4029SOL    HW223721   3.087   0.453   8.499 -0.4010 -0.5886 -1.5252
 4030SOL     OW23722   0.050   3.796   2.097 -0.2473  0.3517 -0.0080
 4030SOL    HW123723   0.098   3.864   2.050 -1.2918  1.2602  0.2492
 4030SOL    HW223724   0.053   3.736   2.022  0.3573  2.7324 -1.9018
 4031SOL     OW23725   2.460   2.223   4.578  0.1669  0.0481 -0.3605
 4031SOL    HW123726   2.365   2.218   4.570  0.2638 -2.0915 -0.1647
 4031SOL    HW223727   2.487   2.309   4.545  1.8054 -0.1249  0.5429
 4032SOL     OW23728   3.424   1.021   3.628  0.0563 -0.9165 -0.2620
 4032SOL    HW123729   3.380   0.965   3.691  0.9714 -1.1892  0.1348
 4032SOL    HW223730   3.407   0.968   3.550  0.5747 -2.2875  0.5601
 4033SOL     OW23731   2.937   0.235   3.521  0.0040  0.0036  0.3065
 4033SOL    HW123732   2.980   0.206   3.440 -2.1977 -0.1801 -0.7892
 4033SOL    HW223733   3.007   0.288   3.561  1.4220 -1.1829 -0.6070
 4034SOL     OW23734   1.087   0.476   2.680  0.4387  0.6696 -0.6334
 4034SOL    HW123735   1.112   0.528   2.756  0.7829 -0.6407  0.1512
 4034SOL    HW223736   1.163   0.418   2.669  0.3706  0.3733  0.5243
 4035SOL     OW23737   2.237   2.406   7.053  0.0744 -0.0894 -0.2959
 4035SOL    HW123738   2.271   2.332   7.104 -2.2157 -1.3214 -0.5416
 4035SOL    HW223739   2.193   2.456   7.121 -2.4591 -2.9635  0.2013
 4036SOL     OW23740   0.396   1.848  10.628 -0.3079 -0.1455 -0.0774
 4036SOL    HW123741   0.389   1.909  10.702 -1.0712  0.8996 -1.0130
 4036SOL    HW223742   0.330   1.781  10.644  1.2310 -1.0161  2.7826
 4037SOL     OW23743   0.058   3.109   2.941  0.2024 -0.5608 -0.3180
 4037SOL    HW123744   0.046   3.021   2.904  0.3955 -0.2046 -1.2133
 4037SOL    HW223745   4.723   3.156   2.907  0.9595  0.4764 -0.5510
 4038SOL     OW23746   3.875   0.203   2.737 -0.3393  0.1803  0.2455
 4038SOL    HW123747   3.948   0.239   2.687  0.2393  0.6044  1.3851
 4038SOL    HW223748   3.850   0.119   2.698  3.8404 -2.1695  2.5723
 4039SOL     OW23749   2.127   1.270   4.881 -0.2338  0.1086 -0.5025
 4039SOL    HW123750   2.103   1.314   4.799  1.3378  0.6162 -0.6756
 4039SOL    HW223751   2.077   1.188   4.889 -1.0331  0.6654  0.1395
 4040SOL     OW23752   4.033   1.618   4.285 -0.4088  0.1913  0.1152
 4040SOL    HW123753   4.005   1.550   4.223  0.1744  0.6539 -0.6574
 4040SOL    HW223754   4.056   1.682   4.218 -1.3602 -0.1411 -0.5491
 4041SOL     OW23755   0.302   1.069   3.375  0.4520  0.1622 -0.5282
 4041SOL    HW123756   0.352   1.073   3.457 -0.3118  0.7804 -0.0930
 4041SOL    HW223757   0.225   1.017   3.398 -1.0618  2.2580 -0.8722
 4042SOL     OW23758   0.858   3.189   3.600 -0.6648  0.0906 -0.1716
 4042SOL    HW123759   0.886   3.104   3.564 -0.2180  0.4266 -0.6093
 4042SOL    HW223760   0.854   3.162   3.692 -0.7875  2.0126  0.3739
 4043SOL     OW23761   3.497   0.399   6.973  0.3131  0.4005 -0.2546
 4043SOL    HW123762   3.479   0.461   6.903  1.0620  0.2032 -0.6215
 4043SOL    HW223763   3.413   0.368   7.007 -0.8668  0.6284 -2.9364
 4044SOL     OW23764   3.689   2.583   6.727 -0.0397 -0.0658 -1.4674
 4044SOL    HW123765   3.765   2.591   6.670  1.7507 -0.1007  0.9398
 4044SOL    HW223766   3.680   2.670   6.766 -0.6213 -0.5710 -0.4736
 4045SOL     OW23767   3.067   3.828   5.790  0.2825  0.1271 -0.0472
 4045SOL    HW123768   3.117   3.882   5.728  0.2597  1.5287  1.1507
 4045SOL    HW223769   2.980   3.861   5.765  0.9748  0.6547 -1.8030
 4046SOL     OW23770   4.191   3.848   0.116 -0.0614  1.0838 -0.2031
 4046SOL    HW123771   4.266   3.872   0.062 -0.6619 -1.1962 -2.0239
 4046SOL    HW223772   4.130   3.840   0.044  0.2354 -0.3109 -0.2966
 4047SOL     OW23773   4.187   3.344   1.938  0.0244  0.2381  0.2129
 4047SOL    HW123774   4.143   3.281   1.881 -0.8516  1.8119 -0.8408
 4047SOL    HW223775   4.181   3.417   1.877 -2.1282  0.6058  0.8653
 4048SOL     OW23776   3.967   3.578   6.955  0.7245  0.5260  0.0980
 4048SOL    HW123777   4.011   3.534   7.028  0.7393 -0.6047 -0.5849
 4048SOL    HW223778   3.885   3.531   6.963 -0.5529  2.3253 -2.3931
 4049SOL     OW23779   2.252   3.523   4.720 -0.6554  0.0968  0.7001
 4049SOL    HW123780   2.282   3.603   4.677  2.0562 -2.6696 -2.5549
 4049SOL    HW223781   2.247   3.552   4.810 -0.7896  1.9051  0.1018
 4050SOL     OW23782   2.195   3.802   5.846 -0.2816 -0.0238 -0.4897
 4050SOL    HW123783   2.143   3.882   5.842 -2.1908 -1.4315 -3.4972
 4050SOL    HW223784   2.259   3.817   5.777 -0.5544  2.9546 -0.0777
 4051SOL     OW23785   3.063   4.176  14.665  0.4205  0.1552  0.2496
 4051SOL    HW123786   3.135   4.133  14.619 -1.3244 -3.1100  0.5351
 4051SOL    HW223787   2.993   4.111  14.660 -0.2958  1.0155 -0.9317
 4052SOL     OW23788   0.348   2.774   6.125  0.1343  0.3897 -0.5824
 4052SOL    HW123789   0.281   2.801   6.189  0.8397 -2.6708  1.4333
 4052SOL    HW223790   0.330   2.835   6.053  1.9798  1.1099 -0.4270
 4053SOL     OW23791   4.141   2.692   7.187  0.0900  0.1741  0.3457
 4053SOL    HW123792   4.213   2.736   7.142 -0.7364  0.6372 -0.5452
 4053SOL    HW223793   4.175   2.692   7.276 -3.6629  1.7465  1.7691
 4054SOL     OW23794   3.015   1.093   4.039  0.2291 -0.4409  0.6041
 4054SOL    HW123795   3.111   1.097   4.043  0.2749  0.6445 -1.5543
 4054SOL    HW223796   2.996   1.008   4.078 -1.8165 -0.0252  0.5032
 4055SOL     OW23797   1.858   2.179  12.632  0.6925 -0.3839  0.0588
 4055SOL    HW123798   1.814   2.184  12.716  2.3232 -0.8763  0.9378
 4055SOL    HW223799   1.895   2.267  12.619 -1.0501  0.2360 -0.6794
 4056SOL     OW23800   0.115   3.342  13.540 -0.1272  0.3254 -0.0412
 4056SOL    HW123801   0.087   3.257  13.572 -0.9181 -0.1733 -2.0570
 4056SOL    HW223802   0.191   3.369  13.591 -0.5356  1.2710  0.0743
 4057SOL     OW23803   3.259   0.832   3.828  0.3925  0.1691  0.3206
 4057SOL    HW123804   3.168   0.836   3.799  0.4874 -2.8323 -0.4076
 4057SOL    HW223805   3.254   0.746   3.869  1.3617  0.0449  0.1840
 4058SOL     OW23806   1.944   1.636  16.171 -0.3420 -0.0586 -0.8351
 4058SOL    HW123807   1.866   1.675  16.132 -0.5788 -0.8709 -1.1780
 4058SOL    HW223808   1.970   1.573  16.104 -1.2813 -1.2478 -0.0894
 4059SOL     OW23809   1.925   0.088   8.311 -0.2435  0.4315  0.5395
 4059SOL    HW123810   1.917   4.736   8.288  0.4135  0.4268  0.3363
 4059SOL    HW223811   2.019   0.093   8.331 -0.1549  0.4377  0.1365
 4060SOL     OW23812   4.739   4.738   5.812 -0.4282 -0.1555 -0.2207
 4060SOL    HW123813   0.077   0.011   5.867  0.3076 -0.2747 -1.2522
 4060SOL    HW223814   4.671   0.024   5.875  0.5950 -0.5388  1.0320
 4061SOL     OW23815   1.402   0.858  16.733  0.2446 -0.1641 -0.1595
 4061SOL    HW123816   1.493   0.849  16.761 -0.5693 -0.1995  2.4233
 4061SOL    HW223817   1.373   0.768  16.714 -2.3074  1.0344 -1.9299
 4062SOL     OW23818   2.122   1.868   2.385  0.1231 -0.0658  0.1132
 4062SOL    HW123819   2.176   1.885   2.462  0.1468  0.4745 -0.0237
 4062SOL    HW223820   2.186   1.830   2.325 -0.9570  1.5361 -2.0316
 4063SOL     OW23821   2.019   3.390  13.895 -0.0990  0.0731 -0.4326
 4063SOL    HW123822   2.058   3.411  13.810  0.1176  1.2378 -0.0524
 4063SOL    HW223823   2.012   3.295  13.897 -2.1563  0.2087 -0.9598
 4064SOL     OW23824   0.069   1.381   6.201 -0.5107 -0.0087 -0.4235
 4064SOL    HW123825   0.020   1.451   6.245 -1.2908 -1.7979  1.5636
 4064SOL    HW223826   0.161   1.400   6.222 -1.1469  0.1203  2.2443
 4065SOL     OW23827   4.619   4.502   9.685 -0.9029 -0.1771  0.0462
 4065SOL    HW123828   4.529   4.524   9.662 -0.1232  1.8203 -1.0907
 4065SOL    HW223829   4.644   4.456   9.605 -0.1733  0.5398 -0.1394
 4066SOL     OW23830   2.654   2.256   7.206  0.6648  0.5712 -0.0480
 4066SOL    HW123831   2.728   2.308   7.237  1.5368 -1.0692  0.6711
 4066SOL    HW223832   2.629   2.206   7.284  0.2124  0.2460 -0.4015
 4067SOL     OW23833   0.913   4.108  11.090 -0.4428 -0.0126 -0.0537
 4067SOL    HW123834   0.878   4.108  11.001 -0.3078 -1.6727 -0.1098
 4067SOL    HW223835   0.895   4.201  11.104 -1.7350 -0.2008 -0.4997
 4068SOL     OW23836   3.359   1.586  15.113  0.3627 -0.3940  0.0213
 4068SOL    HW123837   3.263   1.585  15.116  0.3508  0.2212 -0.1909
 4068SOL    HW223838   3.377   1.595  15.019 -1.6704 -2.3331 -0.5653
 4069SOL     OW23839   2.859   1.207  17.683  0.2649 -0.3586 -0.3400
 4069SOL    HW123840   2.834   1.213  17.590  0.5015  0.7269 -0.3313
 4069SOL    HW223841   2.952   1.187  17.677  0.4277  0.3507 -0.2058
 4070SOL     OW23842   3.689   4.734   4.188 -0.1365  0.1333 -0.6604
 4070SOL    HW123843   3.768   4.682   4.201  1.0696  1.9089 -0.8487
 4070SOL    HW223844   3.621   4.666   4.189 -0.2919  0.2936 -0.3145
 4071SOL     OW23845   2.123   4.389   7.567  0.2511 -0.0041 -0.6686
 4071SOL    HW123846   2.199   4.373   7.511  1.8286  0.7006  1.2703
 4071SOL    HW223847   2.104   4.302   7.601 -1.2996 -0.1402 -1.8704
 4072SOL     OW23848   0.175   3.531   5.537  0.3000 -0.1632 -0.3626
 4072SOL    HW123849   0.089   3.522   5.579 -0.1076 -2.6009 -1.7073
 4072SOL    HW223850   0.191   3.438   5.520 -2.6774 -1.0995  1.9678
 4073SOL     OW23851   2.929   0.506   5.251 -0.6812  0.1974  0.3810
 4073SOL    HW123852   2.913   0.472   5.163 -0.0437  0.8792 -0.0006
 4073SOL    HW223853   2.844   0.539   5.279  0.7630  4.1166  0.0339
 4074SOL     OW23854   3.027   1.794   3.501  0.0316 -0.3189  0.0286
 4074SOL    HW123855   3.103   1.840   3.465 -0.7621 -0.0907 -1.3319
 4074SOL    HW223856   2.991   1.758   3.420  0.0088 -2.2945  0.8885
 4075SOL     OW23857   4.349   4.180   4.199 -0.3125 -0.1291 -0.3316
 4075SOL    HW123858   4.347   4.141   4.112 -0.0297  0.2053 -0.4885
 4075SOL    HW223859   4.427   4.141   4.238 -1.0488 -1.5874 -0.3142
 4076SOL     OW23860   0.962   1.815   8.734  0.1949  0.0143 -0.5084
 4076SOL    HW123861   0.866   1.813   8.735  0.2021  0.1741  0.3120
 4076SOL    HW223862   0.981   1.722   8.724 -0.1727 -0.0125 -0.9587
 4077SOL     OW23863   1.553   2.337   1.611  0.6405 -0.5952 -0.0581
 4077SOL    HW123864   1.514   2.265   1.662  2.1803 -0.2815  1.5515
 4077SOL    HW223865   1.644   2.331   1.638  0.0634 -1.2243  1.7623
 4078SOL     OW23866   0.773   1.031   0.183 -0.0573  0.3366  0.6178
 4078SOL    HW123867   0.779   1.122   0.213 -0.6075 -0.0215  1.8186
 4078SOL    HW223868   0.788   0.983   0.265  2.2710  0.7803  0.4555
 4079SOL     OW23869   0.622   0.532   5.673 -0.5370  0.4964  0.6784
 4079SOL    HW123870   0.691   0.586   5.713 -0.3244  0.2818  0.6051
 4079SOL    HW223871   0.551   0.594   5.664 -0.6535  0.4607  1.3118
 4080SOL     OW23872   3.030   4.179   3.230  0.5466 -0.0986  0.2979
 4080SOL    HW123873   3.004   4.243   3.296 -0.3035 -1.8744  1.6787
 4080SOL    HW223874   3.030   4.096   3.278 -1.0846 -0.6086 -0.6020
 4081SOL     OW23875   3.551   1.582   8.685  0.1524  0.2349  0.3952
 4081SOL    HW123876   3.640   1.560   8.714 -0.4342  0.1516  2.1639
 4081SOL    HW223877   3.536   1.524   8.611 -1.3618  0.4002  0.5626
 4082SOL     OW23878   2.153   0.949   5.455  0.1344 -0.0361  0.1143
 4082SOL    HW123879   2.196   1.034   5.444 -1.9442  0.7573 -1.9699
 4082SOL    HW223880   2.216   0.911   5.516  0.8231 -0.2380 -0.7263
 4083SOL     OW23881   4.143   1.313   0.360  0.1118 -0.5283 -0.0149
 4083SOL    HW123882   4.102   1.369   0.427  2.3385  1.2614 -0.1737
 4083SOL    HW223883   4.180   1.247   0.418  0.1126  1.0207  1.7421
 4084SOL     OW23884   4.470   4.235  10.004 -0.4946 -0.0166  0.2091
 4084SOL    HW123885   4.399   4.171  10.005 -0.9997  0.5077 -2.6405
 4084SOL    HW223886   4.517   4.220   9.922 -1.7093  0.5196 -0.5961
 4085SOL     OW23887   1.760   0.578   2.415  0.0722  0.5137  0.2784
 4085SOL    HW123888   1.726   0.497   2.377 -0.0386  0.3932  0.6406
 4085SOL    HW223889   1.700   0.639   2.370 -1.2155  0.0496  1.3634
 4086SOL     OW23890   0.896   3.805   1.925  0.5647  0.1623 -0.7132
 4086SOL    HW123891   0.878   3.771   1.838  0.1758 -0.8993 -0.2153
 4086SOL    HW223892   0.979   3.764   1.950  1.1457 -0.0924 -3.1355
 4087SOL     OW23893   3.228   1.556   2.342  0.7100 -0.2357  0.6374
 4087SOL    HW123894   3.289   1.483   2.343  2.1754  1.0040  1.4197
 4087SOL    HW223895   3.290   1.628   2.354 -1.3794  1.2161  2.7290
 4088SOL     OW23896   1.870   2.538   3.246  0.1796 -0.3023  0.4722
 4088SOL    HW123897   1.888   2.464   3.189  2.0975  2.3182 -2.3074
 4088SOL    HW223898   1.849   2.511   3.336  0.9460 -1.1121  0.4079
 4089SOL     OW23899   1.107   1.762   6.345 -0.4239  0.5038 -0.1341
 4089SOL    HW123900   1.131   1.850   6.374  0.1244 -0.0177  0.9953
 4089SOL    HW223901   1.153   1.704   6.405 -0.8309  0.6901  0.3583
 4090SOL     OW23902   0.241   2.321  13.429 -0.2557  0.1757 -0.1490
 4090SOL    HW123903   0.296   2.304  13.353 -0.6472  0.6133 -0.5294
 4090SOL    HW223904   0.153   2.320  13.391 -0.4080  0.2053  0.2065
 4091SOL     OW23905   2.063   0.566   3.742  0.3917  0.0107 -0.0728
 4091SOL    HW123906   2.023   0.652   3.754 -0.2029 -0.3914  0.8872
 4091SOL    HW223907   2.109   0.558   3.825 -0.5931  0.4996  0.5220
 4092SOL     OW23908   1.973   2.753   5.647  0.1253 -0.2985  0.2052
 4092SOL    HW123909   1.881   2.729   5.657  0.0124  0.2397  0.4060
 4092SOL    HW223910   2.007   2.677   5.695  0.6153  0.0121  0.3513
 4093SOL     OW23911   2.426   4.355   2.491 -0.2886 -0.0979 -0.1296
 4093SOL    HW123912   2.509   4.401   2.484  0.6752 -1.9568 -0.8701
 4093SOL    HW223913   2.459   4.266   2.482  0.8173 -0.1351  4.0950
 4094SOL     OW23914   1.526   4.737   5.843  0.3611 -0.2544 -0.1426
 4094SOL    HW123915   1.442   0.030   5.812 -0.0608 -2.3612 -1.2354
 4094SOL    HW223916   1.535   0.033   5.932  1.1146  0.0805 -0.3548
 4095SOL     OW23917   4.145   4.263   7.956  0.1363  0.4642  0.2262
 4095SOL    HW123918   4.136   4.354   7.984 -2.4825  1.0497 -2.5303
 4095SOL    HW223919   4.056   4.231   7.972 -0.5880  2.0470 -0.6304
 4096SOL     OW23920   2.550   3.263   8.669 -0.2713 -0.1452  0.0924
 4096SOL    HW123921   2.580   3.322   8.599  0.8230  1.5832  2.0235
 4096SOL    HW223922   2.473   3.309   8.701 -0.4625 -0.2112 -0.2758
 4097SOL     OW23923   4.236   3.578   3.354 -0.5833 -0.2808 -0.0267
 4097SOL    HW123924   4.162   3.592   3.413 -2.2832 -0.7968 -2.0593
 4097SOL    HW223925   4.274   3.497   3.388  1.6914  1.4024  1.4952
 4098SOL     OW23926   3.908   3.720   4.533 -0.5066 -0.1541  0.1219
 4098SOL    HW123927   3.944   3.735   4.621 -1.4560 -1.1696  0.6817
 4098SOL    HW223928   3.951   3.637   4.513 -0.9397 -0.1139 -0.9532
 4099SOL     OW23929   4.383   2.129   8.362 -0.0816 -0.3924  0.8426
 4099SOL    HW123930   4.384   2.145   8.456  0.0013  0.9017  0.6107
 4099SOL    HW223931   4.355   2.037   8.363  0.2211 -0.5347 -1.8215
 4100SOL     OW23932   4.314   3.795  16.990  0.7912 -0.0314  0.0769
 4100SOL    HW123933   4.349   3.845  16.916 -0.2315  0.9219  0.2372
 4100SOL    HW223934   4.394   3.773  17.038 -0.2770 -2.6477  0.6246
 4101SOL     OW23935   2.828   1.408   5.420  0.0765  0.3916 -0.1997
 4101SOL    HW123936   2.776   1.461   5.480  0.6704 -0.2287  0.8643
 4101SOL    HW223937   2.861   1.477   5.363  0.8815 -1.0284 -1.4734
 4102SOL     OW23938   2.476   0.712  15.697 -0.0880 -0.0640 -0.0950
 4102SOL    HW123939   2.523   0.720  15.780  1.0229  2.2126 -0.9604
 4102SOL    HW223940   2.541   0.706  15.628  0.0579 -0.7673  0.1007
 4103SOL     OW23941   4.529   4.071   4.616 -0.0797  0.1733  0.6117
 4103SOL    HW123942   4.448   4.021   4.606  0.3874 -0.5062  0.2334
 4103SOL    HW223943   4.580   4.031   4.686  0.2023  0.9698  0.8703
 4104SOL     OW23944   0.315   0.332   8.549 -0.1605 -0.1782  0.0841
 4104SOL    HW123945   0.373   0.405   8.525  1.1357 -1.4319 -0.5833
 4104SOL    HW223946   0.240   0.347   8.492  0.1295  0.5097 -0.1222
 4105SOL     OW23947   4.527   4.517  17.369 -0.4068  0.2939 -0.2825
 4105SOL    HW123948   4.589   4.535  17.441  0.8956 -0.8015 -1.1337
 4105SOL    HW223949   4.458   4.583  17.379  0.3005  1.1913 -1.2831
 4106SOL     OW23950   2.226   4.656   9.750  0.4722 -0.1342 -0.1601
 4106SOL    HW123951   2.152   4.643   9.809 -0.0255  0.9595 -0.5430
 4106SOL    HW223952   2.292   4.710   9.795 -0.7548  1.1775  0.0759
 4107SOL     OW23953   2.328   1.134   8.166  0.2231 -0.0453 -0.5946
 4107SOL    HW123954   2.308   1.056   8.115 -0.8819 -0.1476 -0.0142
 4107SOL    HW223955   2.257   1.141   8.230  1.3330 -0.9285  0.7352
 4108SOL     OW23956   0.721   4.337  15.069  0.2486 -0.6355 -0.6844
 4108SOL    HW123957   0.786   4.322  15.000  1.9317  0.8166  0.5815
 4108SOL    HW223958   0.638   4.303  15.037 -0.2659 -0.3672  0.3897
 4109SOL     OW23959   2.002   2.046   8.280 -0.4667 -0.2210  0.0612
 4109SOL    HW123960   2.062   2.041   8.207 -0.4272 -0.8447  0.1344
 4109SOL    HW223961   2.036   2.125   8.322  1.0143 -1.4270  1.1297
 4110SOL     OW23962   2.855   3.448   8.092 -0.0205  0.0135  0.5167
 4110SOL    HW123963   2.828   3.421   8.179 -0.1089  1.1478  0.8312
 4110SOL    HW223964   2.950   3.438   8.091 -0.0470 -0.2333 -0.1530
 4111SOL     OW23965   3.203   4.423   4.377  0.6385  0.2170 -0.2887
 4111SOL    HW123966   3.242   4.450   4.294  0.8846 -0.7255 -0.4829
 4111SOL    HW223967   3.260   4.466   4.439  0.4528  0.6204 -0.3978
 4112SOL     OW23968   0.422   1.278   7.303 -0.7471  0.1614  0.2100
 4112SOL    HW123969   0.373   1.353   7.337 -0.5679 -0.1159  1.0897
 4112SOL    HW223970   0.353   1.219   7.273  1.6002 -1.9588 -1.0697
 4113SOL     OW23971   1.274   0.412  17.558 -0.4723  0.1120 -0.1631
 4113SOL    HW123972   1.280   0.381  17.468 -2.5028  1.2859 -0.7033
 4113SOL    HW223973   1.180   0.410  17.574 -0.3904  0.7724  0.4191
 4114SOL     OW23974   4.205   3.097   7.925  0.2354  0.4951 -0.2367
 4114SOL    HW123975   4.236   3.065   8.009 -1.9638 -3.2257 -0.8154
 4114SOL    HW223976   4.284   3.145   7.900  0.7264  0.8420  1.9529
 4115SOL     OW23977   1.889   3.950  15.278 -0.2252  0.0933 -0.8784
 4115SOL    HW123978   1.930   3.866  15.259  0.0622 -0.1460  0.7281
 4115SOL    HW223979   1.830   3.928  15.351 -1.7658  0.0008 -2.1643
 4116SOL     OW23980   3.231   1.570   2.923 -0.2585 -0.6859 -0.1556
 4116SOL    HW123981   3.295   1.555   2.992 -1.2816 -0.8574  0.7625
 4116SOL    HW223982   3.159   1.602   2.978 -0.5673 -1.8536  0.1323
 4117SOL     OW23983   3.986   2.366   4.358  0.3868  0.5354 -0.3434
 4117SOL    HW123984   4.054   2.299   4.353  0.6317  0.7198  0.4607
 4117SOL    HW223985   3.992   2.388   4.265  0.4865  0.5227 -0.3402
 4118SOL     OW23986   3.407   0.311  14.585 -0.0581 -0.2817  0.0448
 4118SOL    HW123987   3.443   0.352  14.664 -1.3132 -0.8782  0.9280
 4118SOL    HW223988   3.334   0.370  14.563 -0.4361 -1.5614 -2.1120
 4119SOL     OW23989   2.302   4.515  13.723 -0.4729  0.5489  0.1189
 4119SOL    HW123990   2.262   4.598  13.699  1.0523  1.1571 -0.3415
 4119SOL    HW223991   2.362   4.535  13.796  0.0706  1.6175 -0.6234
 4120SOL     OW23992   3.755   1.613   4.508  0.2046  0.0932 -0.6592
 4120SOL    HW123993   3.747   1.708   4.515  0.8782  0.0776  0.3561
 4120SOL    HW223994   3.851   1.615   4.509  0.1995  0.0418  0.1832
 4121SOL     OW23995   2.412   4.275   9.428  0.1255  0.1376  0.6128
 4121SOL    HW123996   2.484   4.216   9.449 -1.1948 -0.8662  2.2423
 4121SOL    HW223997   2.408   4.343   9.495 -0.8433  2.3026 -1.6357
 4122SOL     OW23998   1.689   2.554   9.535 -0.2219 -0.3536 -0.4457
 4122SOL    HW123999   1.640   2.561   9.617 -0.3702 -0.3457 -0.5350
 4122SOL    HW224000   1.637   2.617   9.485 -0.4295  0.9434  1.3822
 4123SOL     OW24001   4.173   1.814  13.436 -0.3542 -0.2748 -0.2598
 4123SOL    HW124002   4.257   1.778  13.408 -0.4664 -0.8769  0.1941
 4123SOL    HW224003   4.203   1.890  13.486 -0.0297 -2.2428  2.5292
 4124SOL     OW24004   2.811   2.286   5.670 -0.3586  0.0107 -0.1350
 4124SOL    HW124005   2.803   2.283   5.575 -2.2269  0.3587  0.0157
 4124SOL    HW224006   2.751   2.358   5.690 -0.7757 -0.0346 -1.2135
 4125SOL     OW24007   1.379   0.593   9.916  0.0078 -0.3105  0.3216
 4125SOL    HW124008   1.291   0.565   9.941 -0.4765 -0.5023 -1.5768
 4125SOL    HW224009   1.418   0.516   9.874  1.7149  0.0391  1.2360
 4126SOL     OW24010   4.185   4.551   5.457 -0.4519  0.4084  0.0679
 4126SOL    HW124011   4.139   4.483   5.408  0.6674 -0.7236  0.5910
 4126SOL    HW224012   4.123   4.624   5.448  1.7365  2.3904  1.3036
 4127SOL     OW24013   0.502   1.942   5.567 -0.3968 -0.0735 -0.5367
 4127SOL    HW124014   0.592   1.915   5.582 -0.4614  0.2118  0.3240
 4127SOL    HW224015   0.453   1.866   5.598  2.0036 -0.7140  1.6116
 4128SOL     OW24016   0.332   2.964  15.556  0.0608  0.6889 -0.0314
 4128SOL    HW124017   0.335   3.039  15.497 -2.1717 -1.0874 -2.3973
 4128SOL    HW224018   0.294   2.894  15.504 -0.3521  0.3202  0.7749
 4129SOL     OW24019   1.691   3.881   0.876 -0.3007 -0.1774 -0.0844
 4129SOL    HW124020   1.702   3.885   0.781  2.6209  0.4870  0.2785
 4129SOL    HW224021   1.596   3.889   0.875 -0.2684  0.1627 -0.6130
 4130SOL     OW24022   2.748   0.523   7.220  1.0082  0.2415 -0.4700
 4130SOL    HW124023   2.660   0.530   7.258  0.3510  0.1799 -1.9775
 4130SOL    HW224024   2.742   0.442   7.168  0.0996 -0.5987  0.9452
 4131SOL     OW24025   3.930   4.634  16.425 -0.0654 -0.2143  0.4850
 4131SOL    HW124026   3.850   4.639  16.372  0.8777 -1.0673 -1.0337
 4131SOL    HW224027   4.001   4.669  16.371  0.4698  0.4415  1.6332
 4132SOL     OW24028   4.028   1.896  15.383  0.2581 -0.0493 -0.2053
 4132SOL    HW124029   4.017   1.834  15.455 -1.6284  0.6005  0.0918
 4132SOL    HW224030   4.117   1.872  15.361  1.2706  2.6866  0.9227
 4133SOL     OW24031   3.898   3.812  11.980  0.4507 -0.0552 -1.2805
 4133SOL    HW124032   3.862   3.811  12.069  1.2072  0.0795 -0.9715
 4133SOL    HW224033   3.828   3.755  11.949 -0.4277  1.7926 -2.6719
 4134SOL     OW24034   3.808   2.355   5.004  0.2993 -0.0335  0.0154
 4134SOL    HW124035   3.857   2.341   5.085 -2.2941  0.4879  1.6891
 4134SOL    HW224036   3.745   2.415   5.043  0.8321  1.0464 -0.7898
 4135SOL     OW24037   1.874   2.600   7.981 -0.3304  0.5089  0.0869
 4135SOL    HW124038   1.863   2.694   7.970  0.3959  0.4878 -0.8304
 4135SOL    HW224039   1.785   2.577   7.955 -0.3434 -1.4729  1.8381
 4136SOL     OW24040   1.438   0.503   8.441 -0.3774  0.3802 -0.8432
 4136SOL    HW124041   1.432   0.411   8.416  2.4580 -0.0231 -0.0804
 4136SOL    HW224042   1.480   0.488   8.525 -0.4698 -0.8281 -1.0195
 4137SOL     OW24043   2.579   3.023  16.641 -0.0245 -0.3488  0.2454
 4137SOL    HW124044   2.580   3.078  16.563 -0.6830 -1.7285 -0.7320
 4137SOL    HW224045   2.522   2.954  16.607 -0.1786 -0.0846 -0.0233
 4138SOL     OW24046   1.808   0.763  16.007 -0.2284 -0.3945  0.2876
 4138SOL    HW124047   1.794   0.852  15.973 -0.1128 -0.9322 -1.1562
 4138SOL    HW224048   1.903   0.766  16.012 -0.1120 -0.3210 -1.8235
 4139SOL     OW24049   4.036   3.540   7.269 -0.4080 -0.2865  0.1369
 4139SOL    HW124050   4.125   3.508   7.255  0.1345  0.4751  1.8977
 4139SOL    HW224051   4.040   3.573   7.358 -1.0747 -0.0706  0.0911
 4140SOL     OW24052   4.520   2.309   1.939  0.5521 -1.1367 -0.2698
 4140SOL    HW124053   4.596   2.263   1.905  2.4995  1.3253  0.7787
 4140SOL    HW224054   4.475   2.328   1.857 -3.5353 -4.8714  1.1091
 4141SOL     OW24055   0.824   4.063   3.955  0.7237 -0.1208 -0.7606
 4141SOL    HW124056   0.841   4.028   3.868  1.1998 -1.2666 -0.2074
 4141SOL    HW224057   0.733   4.092   3.949  0.1030 -2.1615 -1.2964
 4142SOL     OW24058   2.841   3.331   0.531  0.7750  0.1603  0.1077
 4142SOL    HW124059   2.887   3.414   0.546 -0.1424  0.5011  1.0703
 4142SOL    HW224060   2.904   3.262   0.548  1.3135  0.5904 -0.1656
 4143SOL     OW24061   4.648   3.666   5.875  0.4654 -0.5846  0.2694
 4143SOL    HW124062   4.553   3.674   5.880  0.6256  2.5705 -1.8084
 4143SOL    HW224063   4.673   3.736   5.934 -0.2060 -1.0721  1.1385
 4144SOL     OW24064   1.984   0.780  11.888 -0.5519 -0.7757  0.1889
 4144SOL    HW124065   1.893   0.785  11.918 -0.2201 -2.8128  1.5290
 4144SOL    HW224066   1.976   0.720  11.814 -0.0104 -0.1706 -0.3648
 4145SOL     OW24067   3.548   1.843   6.197 -0.1375 -0.3077 -0.8847
 4145SOL    HW124068   3.487   1.908   6.162  0.3671 -0.1359 -1.4496
 4145SOL    HW224069   3.508   1.815   6.279 -0.7112 -1.3373 -1.5220
 4146SOL     OW24070   1.399   0.921  10.627 -0.0561  0.0346 -0.4415
 4146SOL    HW124071   1.388   1.016  10.630 -2.2113 -0.1493 -2.7571
 4146SOL    HW224072   1.473   0.908  10.687  2.0199 -0.4523 -3.1079
 4147SOL     OW24073   3.987   4.738   5.168 -0.6331 -0.8245  0.4001
 4147SOL    HW124074   4.046   4.685   5.114 -1.5874 -0.2137 -1.2217
 4147SOL    HW224075   3.903   4.710   5.131 -2.3184  1.1455  2.7593
 4148SOL     OW24076   3.503   2.619  16.128  0.8046 -0.3190  0.3287
 4148SOL    HW124077   3.573   2.673  16.092  0.7344  1.5447  3.0194
 4148SOL    HW224078   3.503   2.645  16.220  0.1114 -0.6379  0.4244
 4149SOL     OW24079   2.943   2.819   7.214  0.2753  0.0187  0.0437
 4149SOL    HW124080   3.036   2.803   7.228  0.5592 -0.4703 -2.3279
 4149SOL    HW224081   2.946   2.895   7.155  0.7591 -0.8817 -1.0845
 4150SOL     OW24082   0.238   2.275   5.121 -0.1788  0.0767  0.1409
 4150SOL    HW124083   0.253   2.217   5.195  2.0037 -1.5691 -1.5795
 4150SOL    HW224084   0.150   2.242   5.099 -0.8138 -0.0373  2.9119
 4151SOL     OW24085   4.075   0.679  12.522 -0.4818 -0.1811  0.1258
 4151SOL    HW124086   4.071   0.668  12.617  1.3029 -1.3034  0.0732
 4151SOL    HW224087   4.053   0.587  12.503 -0.1877 -0.1867 -0.2013
 4152SOL     OW24088   3.078   0.843  14.262  0.3824  0.6161 -0.1537
 4152SOL    HW124089   3.034   0.877  14.184  0.7036 -0.1552 -0.6788
 4152SOL    HW224090   3.140   0.785  14.218  0.2028  1.2003 -1.1682
 4153SOL     OW24091   4.564   3.008   3.649 -0.3138 -0.5780  0.8398
 4153SOL    HW124092   4.518   3.007   3.565 -0.7488  3.8616  1.0103
 4153SOL    HW224093   4.514   3.068   3.704  1.9857  1.4401  0.6722
 4154SOL     OW24094   2.587   2.795   2.195  0.1050 -0.6601 -0.1981
 4154SOL    HW124095   2.682   2.785   2.190  0.2565  0.0372  1.2618
 4154SOL    HW224096   2.556   2.749   2.117  1.1279  0.2385 -1.1352
 4155SOL     OW24097   3.604   2.122   8.266 -0.4664  0.0867  0.7755
 4155SOL    HW124098   3.603   2.191   8.332  0.8744 -1.2319  2.1789
 4155SOL    HW224099   3.604   2.180   8.190  0.3742  0.3259  0.9642
 4156SOL     OW24100   1.920   3.332   2.117  0.1212  0.1028  0.1478
 4156SOL    HW124101   2.010   3.348   2.145 -0.3046 -1.6677  2.5540
 4156SOL    HW224102   1.891   3.261   2.174 -1.8128 -0.4364 -1.4815
 4157SOL     OW24103   3.691   3.375   4.195  0.0786 -0.4600  0.8483
 4157SOL    HW124104   3.736   3.335   4.269  0.2649 -0.2360  0.8558
 4157SOL    HW224105   3.604   3.335   4.200  1.0458 -2.4184  2.0151
 4158SOL     OW24106   1.789   4.374   2.153  0.1310 -0.4139  0.1350
 4158SOL    HW124107   1.744   4.458   2.167  1.5352  0.4736 -0.6620
 4158SOL    HW224108   1.716   4.316   2.131  0.7079 -1.0841  0.0041
 4159SOL     OW24109   1.939   2.994  17.638  0.4967 -0.4253  0.5744
 4159SOL    HW124110   1.870   2.931  17.620  0.6142 -0.2515 -0.4494
 4159SOL    HW224111   1.911   3.066  17.581 -1.0690 -0.0612  1.7892
 4160SOL     OW24112   3.435   4.325  17.331 -0.2181 -0.1925  0.5874
 4160SOL    HW124113   3.353   4.354  17.291 -1.3019 -1.4169  1.9238
 4160SOL    HW224114   3.419   4.231  17.340 -1.1336  0.1217  2.1419
 4161SOL     OW24115   3.399   0.884   3.394 -0.2446  0.2686  0.3611
 4161SOL    HW124116   3.348   0.932   3.328  1.3799 -1.7698 -2.3825
 4161SOL    HW224117   3.354   0.801   3.410 -2.3086  1.1188 -0.9562
 4162SOL     OW24118   0.804   1.954   4.124 -0.2229  0.4581  0.0829
 4162SOL    HW124119   0.818   1.933   4.031 -2.2586 -0.5365  0.0031
 4162SOL    HW224120   0.708   1.952   4.131 -0.4080  0.8467 -2.3816
 4163SOL     OW24121   3.848   3.690   3.163  0.2726 -0.4029 -0.0766
 4163SOL    HW124122   3.817   3.651   3.082  0.4544 -0.4764 -0.1111
 4163SOL    HW224123   3.845   3.610   3.216  2.1602 -0.3694  0.0808
 4164SOL     OW24124   3.407   1.880   3.791  0.3760  0.1766 -0.6149
 4164SOL    HW124125   3.429   1.946   3.725 -0.3799 -0.4695 -1.5217
 4164SOL    HW224126   3.359   1.813   3.742 -1.0674  1.7939 -1.4158
 4165SOL     OW24127   3.021   3.928   3.663 -0.2735 -0.1323 -0.0809
 4165SOL    HW124128   2.988   3.888   3.744 -1.8049 -1.2394 -1.2464
 4165SOL    HW224129   2.953   3.917   3.596 -0.4296 -0.4598  0.1301
 4166SOL     OW24130   3.454   0.073   2.198 -0.1307 -0.3697 -0.1552
 4166SOL    HW124131   3.404   0.048   2.276 -0.0958 -0.7416 -0.2490
 4166SOL    HW224132   3.494   0.159   2.207 -0.9384 -0.0855  0.6841
 4167SOL     OW24133   0.205   1.896   7.255 -0.0238 -0.0854 -0.2009
 4167SOL    HW124134   0.136   1.961   7.267  1.9035  1.6127  1.6590
 4167SOL    HW224135   0.282   1.939   7.292 -0.5900 -1.9536  3.2673
 4168SOL     OW24136   0.652   3.155   8.870 -0.0541  1.1136  0.3300
 4168SOL    HW124137   0.740   3.161   8.833  0.1502  0.4470  0.7050
 4168SOL    HW224138   0.596   3.200   8.806  0.1418 -0.7338 -1.1429
 4169SOL     OW24139   4.645   3.853   8.292 -0.1517 -0.4278 -0.9802
 4169SOL    HW124140   4.722   3.898   8.328 -1.2162 -0.2996  1.1545
 4169SOL    HW224141   4.647   3.774   8.347  0.0236 -1.0373 -1.8607
 4170SOL     OW24142   2.614   2.899   4.354 -0.1508 -0.6283 -0.3122
 4170SOL    HW124143   2.541   2.913   4.415  0.2447 -1.8953  0.4591
 4170SOL    HW224144   2.618   2.806   4.375 -2.8856 -1.0141 -1.4972
 4171SOL     OW24145   0.555   1.885   4.190  0.1793 -0.0819 -0.0835
 4171SOL    HW124146   0.512   1.842   4.264  0.2217 -0.6444 -0.3899
 4171SOL    HW224147   0.501   1.848   4.120 -0.7546 -0.9799  1.1304
 4172SOL     OW24148   4.307   3.532   5.615  0.3695  0.3045 -0.0314
 4172SOL    HW124149   4.362   3.546   5.538  1.4751  0.0759  0.7116
 4172SOL    HW224150   4.303   3.619   5.654  1.3949  0.8667 -1.1915
 4173SOL     OW24151   4.444   2.255   6.636 -0.2247 -0.0937 -0.1850
 4173SOL    HW124152   4.426   2.253   6.730 -3.0279  0.9575 -0.7069
 4173SOL    HW224153   4.434   2.161   6.620  1.3187 -0.3083  0.1720
 4174SOL     OW24154   4.379   2.201   4.442  0.2367  0.0496  0.1368
 4174SOL    HW124155   4.435   2.139   4.395 -1.9761 -2.6261  1.0479
 4174SOL    HW224156   4.448   2.267   4.453  0.3006 -0.1948  1.1637
 4175SOL     OW24157   1.212   2.689   5.810 -0.6188  0.0333  0.1474
 4175SOL    HW124158   1.295   2.728   5.784 -1.2949  0.5698 -1.2032
 4175SOL    HW224159   1.147   2.746   5.767  0.9283  0.5327 -1.5215
 4176SOL     OW24160   0.223   2.813   3.644  0.6388 -0.7447  0.3892
 4176SOL    HW124161   0.169   2.892   3.648  2.1405  0.2514  0.6047
 4176SOL    HW224162   0.310   2.849   3.629  0.3708 -0.9376 -1.6716
 4177SOL     OW24163   4.375   3.453  10.370  0.1618  0.3216 -0.5677
 4177SOL    HW124164   4.399   3.501  10.449 -1.3033  0.6906 -0.3454
 4177SOL    HW224165   4.390   3.362  10.394 -0.7695  0.2677 -0.2092
 4178SOL     OW24166   0.329   3.282   6.355  0.1959 -0.6124  0.2551
 4178SOL    HW124167   0.396   3.214   6.348  0.8730  0.1753 -0.8601
 4178SOL    HW224168   0.259   3.217   6.362 -1.0073  0.6752  0.1392
 4179SOL     OW24169   1.161   0.848  12.146  0.6986  0.2461  0.1864
 4179SOL    HW124170   1.243   0.819  12.107 -0.4668 -0.1426 -1.9393
 4179SOL    HW224171   1.189   0.919  12.205  2.3063 -0.4448  0.2451
 4180SOL     OW24172   1.820   3.467   3.417  0.0340  0.1274 -0.4582
 4180SOL    HW124173   1.821   3.495   3.325 -2.3078 -2.2730 -1.2189
 4180SOL    HW224174   1.745   3.408   3.416 -0.0115  0.2408 -2.8423
 4181SOL     OW24175   1.330   1.816   7.251  0.4146 -0.3717 -0.0093
 4181SOL    HW124176   1.426   1.817   7.253  0.3465  1.8005  3.3898
 4181SOL    HW224177   1.309   1.763   7.174  3.1553  0.0315 -1.0583
 4182SOL     OW24178   4.688   2.572   3.152 -1.0210  0.5703 -0.1910
 4182SOL    HW124179   4.704   2.667   3.157 -1.0211  0.6524 -1.5523
 4182SOL    HW224180   4.594   2.562   3.139 -0.9446  1.8769 -1.9254
 4183SOL     OW24181   1.632   3.345   7.376 -0.3278  0.0072 -0.1527
 4183SOL    HW124182   1.659   3.326   7.286 -1.3482 -2.8903  0.1744
 4183SOL    HW224183   1.537   3.349   7.363 -0.1520 -2.6314 -2.2801
 4184SOL     OW24184   3.517   0.685  11.995 -0.2586 -0.5315 -0.0219
 4184SOL    HW124185   3.522   0.747  11.922  0.2919 -0.2834  0.2266
 4184SOL    HW224186   3.602   0.644  11.984 -0.1506 -0.1987 -0.4753
 4185SOL     OW24187   2.535   1.720   3.017 -0.0378 -0.2294  0.4197
 4185SOL    HW124188   2.500   1.649   3.070 -0.4657 -0.6744 -0.4662
 4185SOL    HW224189   2.481   1.797   3.035  0.3820  0.1482  0.0603
 4186SOL     OW24190   3.360   4.132   4.353 -0.4084 -0.2461 -0.0478
 4186SOL    HW124191   3.415   4.209   4.369  1.2398 -1.4512  0.0190
 4186SOL    HW224192   3.281   4.172   4.316  0.3700  0.8448 -0.5359
 4187SOL     OW24193   4.412   4.373   8.010  0.1946 -0.5352 -0.2469
 4187SOL    HW124194   4.324   4.349   7.979  0.3161 -1.5533  0.1883
 4187SOL    HW224195   4.389   4.442   8.072 -1.1300 -1.2849  0.1031
 4188SOL     OW24196   0.379   1.716   3.649  0.3605  0.5624 -0.3336
 4188SOL    HW124197   0.337   1.679   3.726 -0.6056  1.7048 -0.3111
 4188SOL    HW224198   0.368   1.646   3.584 -1.6874 -0.0956  0.7257
 4189SOL     OW24199   3.994   1.654  13.105  0.1442 -0.5517 -0.4266
 4189SOL    HW124200   3.989   1.745  13.074 -1.0786 -0.1403  0.9999
 4189SOL    HW224201   3.905   1.621  13.095  0.7966 -1.7971 -2.1926
 4190SOL     OW24202   2.885   3.358   0.107  0.2307  0.3373 -0.4397
 4190SOL    HW124203   2.813   3.370   0.045  1.5119 -1.7186 -2.3023
 4190SOL    HW224204   2.828   3.339   0.182  1.2468  0.3360  0.3388
 4191SOL     OW24205   1.217   2.219  10.765  0.1569 -0.0751 -0.6088
 4191SOL    HW124206   1.165   2.297  10.748 -0.1284  0.2401  1.7215
 4191SOL    HW224207   1.199   2.203  10.858  0.1517 -1.8092 -0.9043
 4192SOL     OW24208   1.959   1.251  17.644 -0.1819 -0.1357  0.1957
 4192SOL    HW124209   1.968   1.157  17.661 -1.2395 -0.2385  0.2311
 4192SOL    HW224210   2.021   1.270  17.573 -2.4187 -0.3509 -1.8225
 4193SOL     OW24211   4.265   0.937   3.764 -0.0347 -0.4389  0.5912
 4193SOL    HW124212   4.332   0.890   3.814  1.2685  0.5136 -0.2771
 4193SOL    HW224213   4.192   0.931   3.826 -1.1395  0.2618 -0.6511
 4194SOL     OW24214   2.220   1.090   9.009  0.1487  0.5038 -0.4034
 4194SOL    HW124215   2.294   1.123   9.059  2.1911 -1.9799 -1.8405
 4194SOL    HW224216   2.162   1.166   9.005  1.1024  1.0961 -3.2337
 4195SOL     OW24217   1.095   2.369  10.322  0.0931 -0.7863 -0.2810
 4195SOL    HW124218   1.088   2.420  10.403  2.5562 -1.3469  0.2883
 4195SOL    HW224219   1.129   2.284  10.351 -1.2641 -1.8186 -1.7156
 4196SOL     OW24220   2.323   2.000   5.432  0.0955  0.2062  0.0405
 4196SOL    HW124221   2.332   2.050   5.513  0.8429 -0.7312  0.5257
 4196SOL    HW224222   2.228   2.005   5.419  0.1607  1.4493  0.0532
 4197SOL     OW24223   0.355   3.866   5.539 -0.1864  0.5909 -0.1319
 4197SOL    HW124224   0.373   3.777   5.569 -1.1209  1.3516  2.7253
 4197SOL    HW224225   0.325   3.839   5.452  1.8354 -0.2146 -0.5699
 4198SOL     OW24226   1.837   1.213   4.269 -0.2315 -0.2949  0.3035
 4198SOL    HW124227   1.811   1.247   4.183  1.8466  2.0412  0.5920
 4198SOL    HW224228   1.784   1.257   4.335  1.8121  2.2274  0.2446
 4199SOL     OW24229   0.090   4.059   5.377 -0.0288  0.0175 -0.1628
 4199SOL    HW124230   0.155   4.122   5.406 -2.0708  1.7292  0.6473
 4199SOL    HW224231   0.120   3.980   5.423  0.6377  1.2045  1.3999
 4200SOL     OW24232   1.769   1.840   4.340  0.3124 -0.2098  0.3209
 4200SOL    HW124233   1.710   1.885   4.400  1.4002  1.5175  0.0860
 4200SOL    HW224234   1.844   1.814   4.394  1.1562 -0.1181 -0.7949
 4201SOL     OW24235   3.638   4.284   7.867  0.1430  0.6116 -0.5202
 4201SOL    HW124236   3.655   4.331   7.949  0.0956 -0.9741  0.4107
 4201SOL    HW224237   3.635   4.357   7.805  1.2915 -0.4884 -1.8747
 4202SOL     OW24238   0.540   1.678   3.209 -0.4253  0.3575  0.3885
 4202SOL    HW124239   0.461   1.659   3.259 -2.1652  1.3747 -1.9429
 4202SOL    HW224240   0.585   1.596   3.225 -0.9144  0.1497  0.7145
 4203SOL     OW24241   1.902   4.431   7.848 -0.9537  0.4409 -0.5426
 4203SOL    HW124242   1.963   4.500   7.874 -0.8677  0.4917 -0.8790
 4203SOL    HW224243   1.959   4.378   7.792  1.1740  2.5706 -0.4032
 4204SOL     OW24244   3.520   2.700   1.185  0.5439 -0.1470  0.8237
 4204SOL    HW124245   3.582   2.758   1.140 -0.0205  1.0281  1.5513
 4204SOL    HW224246   3.512   2.753   1.264  0.1864  1.9997 -0.6486
 4205SOL     OW24247   3.422   3.143   6.852  0.4707 -0.0603  0.0069
 4205SOL    HW124248   3.401   3.099   6.770  0.0603  1.8093 -0.9040
 4205SOL    HW224249   3.518   3.151   6.847  0.5276  0.1262  1.4778
 4206SOL     OW24250   2.852   2.876  13.808 -0.3718 -0.0521 -0.0875
 4206SOL    HW124251   2.818   2.917  13.887 -0.9486 -1.3718  0.3363
 4206SOL    HW224252   2.781   2.887  13.745  0.3232  0.2994 -0.8131
 4207SOL     OW24253   3.702   1.412   4.714  0.5032  0.5648 -0.0772
 4207SOL    HW124254   3.677   1.501   4.689 -3.0969 -0.3837  0.1422
 4207SOL    HW224255   3.776   1.395   4.656  1.3168  0.9422  0.8438
 4208SOL     OW24256   4.367   1.711   6.533 -0.0974 -0.0050 -0.3133
 4208SOL    HW124257   4.458   1.699   6.559 -0.2096  0.7504  0.4362
 4208SOL    HW224258   4.319   1.654   6.592  0.0207  1.3258  1.0661
 4209SOL     OW24259   0.708   4.508   0.294  0.6659  0.3556  0.0111
 4209SOL    HW124260   0.654   4.463   0.360  3.0923  0.1896  1.9004
 4209SOL    HW224261   0.681   4.599   0.304 -1.3337 -0.4058  1.6389
 4210SOL     OW24262   0.359   1.244   3.815  0.3600 -0.6463  0.4032
 4210SOL    HW124263   0.407   1.176   3.767 -1.2108 -1.9921  0.7375
 4210SOL    HW224264   0.424   1.310   3.839  0.0788 -0.6332  1.1328
 4211SOL     OW24265   2.452   1.264   2.307  0.1195  0.6354  0.7527
 4211SOL    HW124266   2.408   1.202   2.365  0.7158 -0.8130 -0.3489
 4211SOL    HW224267   2.470   1.217   2.226 -0.2012  1.1622  0.3796
 4212SOL     OW24268   4.310   0.563  17.572  0.4077  0.8405  0.0264
 4212SOL    HW124269   4.231   0.604  17.538  1.1514  0.1264 -2.5405
 4212SOL    HW224270   4.279   0.543  17.661  1.0218 -1.7626 -0.3345
 4213SOL     OW24271   2.270   1.446   4.365  0.0282 -0.4930  0.4025
 4213SOL    HW124272   2.176   1.460   4.351 -0.0266 -2.0740 -0.8851
 4213SOL    HW224273   2.297   1.520   4.312  2.8158 -0.9895  1.1326
 4214SOL     OW24274   1.055   0.220   6.605 -0.4520  0.7234 -0.7632
 4214SOL    HW124275   1.057   0.223   6.701 -0.1125  0.5271 -0.7626
 4214SOL    HW224276   1.099   0.136   6.595  1.1968  1.2193  2.4072
 4215SOL     OW24277   1.154   1.954  15.363  0.0545  0.2400 -0.3979
 4215SOL    HW124278   1.234   1.998  15.393  0.8810 -0.0063 -2.2578
 4215SOL    HW224279   1.093   1.967  15.436  1.9274  1.5828  0.9387
 4216SOL     OW24280   1.748   1.308  11.469  0.5601  0.4489  0.0360
 4216SOL    HW124281   1.784   1.219  11.474  0.3037  0.4264  1.4806
 4216SOL    HW224282   1.722   1.314  11.561  1.7277  1.3895  0.3143
 4217SOL     OW24283   2.532   1.015   6.336 -0.5243 -0.2711 -0.1793
 4217SOL    HW124284   2.624   0.990   6.329  0.7201  3.7352  1.7668
 4217SOL    HW224285   2.529   1.082   6.404  0.8702 -1.3893  0.9849
 4218SOL     OW24286   4.241   2.050   8.027 -0.5942 -0.0114  0.6364
 4218SOL    HW124287   4.275   2.099   7.952  0.4907  2.2516  2.6184
 4218SOL    HW224288   4.294   1.970   8.022  0.7816  0.9870 -0.8520
 4219SOL     OW24289   2.072   4.273  15.474 -0.1423  0.0786 -0.2111
 4219SOL    HW124290   2.033   4.277  15.386 -0.6180  2.8998  0.1194
 4219SOL    HW224291   2.001   4.304  15.529 -0.7905 -0.4569 -0.7403
 4220SOL     OW24292   2.458   1.385   2.880  0.1387 -0.0474 -0.5355
 4220SOL    HW124293   2.490   1.368   2.969 -0.0649 -0.7475 -0.5936
 4220SOL    HW224294   2.511   1.335   2.818 -0.2044  0.1273 -0.9636
 4221SOL     OW24295   2.631   0.233  15.443 -0.3375  0.0241  0.1704
 4221SOL    HW124296   2.670   0.237  15.356  0.4838 -0.0181  0.5366
 4221SOL    HW224297   2.708   0.210  15.494  2.0223  0.5736 -3.2072
 4222SOL     OW24298   3.188   4.527   3.163 -0.0219  0.1735 -0.1902
 4222SOL    HW124299   3.168   4.518   3.256 -0.5858 -0.3525 -0.3622
 4222SOL    HW224300   3.283   4.518   3.169 -0.0442  0.2172  0.1820
 4223SOL     OW24301   2.809   2.797   4.688  0.3218  0.1409  0.1282
 4223SOL    HW124302   2.718   2.783   4.716  0.7356 -0.7703  0.9935
 4223SOL    HW224303   2.842   2.708   4.691 -1.1012 -0.4986 -2.3263
 4224SOL     OW24304   4.319   3.883  17.486 -0.3234 -0.1714 -0.9879
 4224SOL    HW124305   4.339   3.911  17.576 -1.5473  0.7563 -0.9986
 4224SOL    HW224306   4.233   3.844  17.503 -0.7221  0.5890 -1.2265
 4225SOL     OW24307   1.907   3.294   6.626  0.1349  0.0178 -0.0221
 4225SOL    HW124308   1.878   3.210   6.592 -0.3599 -0.0667  0.5988
 4225SOL    HW224309   1.820   3.333   6.628 -0.5425 -1.5838  1.8826
 4226SOL     OW24310   1.646   3.318  15.187 -0.6548 -0.5021  0.0392
 4226SOL    HW124311   1.650   3.295  15.094 -2.1655 -1.8951  0.3174
 4226SOL    HW224312   1.570   3.265  15.213 -0.2608 -0.9894  0.1927
 4227SOL     OW24313   1.860   1.191   5.315 -0.3526  0.1809 -0.5172
 4227SOL    HW124314   1.871   1.097   5.304  1.4366  0.2583  0.5328
 4227SOL    HW224315   1.938   1.215   5.265 -0.3011  1.1111  0.0164
 4228SOL     OW24316   2.506   1.079  13.362  0.3964  0.1679 -0.2655
 4228SOL    HW124317   2.597   1.078  13.392 -0.0404 -0.3629  1.0400
 4228SOL    HW224318   2.482   1.166  13.392 -0.4173  0.5101 -1.9177
 4229SOL     OW24319   2.680   4.335   7.583  0.5152 -0.1766  0.0425
 4229SOL    HW124320   2.716   4.408   7.531 -1.5616  0.3966 -0.5991
 4229SOL    HW224321   2.730   4.257   7.561  2.6692  0.5335  2.5053
 4230SOL     OW24322   4.368   0.228   9.764 -0.4485  0.0656 -0.4891
 4230SOL    HW124323   4.312   0.295   9.726 -2.9773 -1.3582  0.7248
 4230SOL    HW224324   4.362   0.152   9.705  0.1561 -0.4901  0.1594
 4231SOL     OW24325   0.692   0.653   3.109  0.4393 -0.1140 -0.4483
 4231SOL    HW124326   0.634   0.583   3.080  0.7113  0.1555 -1.6481
 4231SOL    HW224327   0.642   0.729   3.078 -1.3565 -0.5814  1.2952
 4232SOL     OW24328   0.600   0.767   3.780  0.3758 -0.3811 -0.1944
 4232SOL    HW124329   0.663   0.838   3.795 -1.0259  0.4870  1.5791
 4232SOL    HW224330   0.570   0.790   3.692 -0.5183  0.2290  0.2700
 4233SOL     OW24331   2.529   3.327   1.246  0.3669  0.3959  0.5041
 4233SOL    HW124332   2.462   3.279   1.296 -0.4602 -0.3480 -1.3033
 4233SOL    HW224333   2.489   3.414   1.240  0.7020  0.5850  1.0640
 4234SOL     OW24334   3.405   4.006  15.636 -0.1330 -0.3517  0.3602
 4234SOL    HW124335   3.461   3.989  15.712  0.4849 -1.8862 -0.4200
 4234SOL    HW224336   3.331   4.044  15.682 -0.3616  0.0593 -0.3579
 4235SOL     OW24337   2.956   0.236  11.258  0.2403 -0.9844 -0.6754
 4235SOL    HW124338   3.004   0.317  11.273  1.0767 -1.7469  0.7024
 4235SOL    HW224339   2.957   0.195  11.344 -2.0986  0.0110 -0.1719
 4236SOL     OW24340   3.276   0.609   6.009 -0.3581  0.0899  0.7872
 4236SOL    HW124341   3.345   0.577   6.068  0.8695 -1.2282 -1.3657
 4236SOL    HW224342   3.256   0.535   5.952 -0.0635  0.6855 -0.0865
 4237SOL     OW24343   0.875   3.305   6.090 -0.1875  0.3160  0.6662
 4237SOL    HW124344   0.803   3.328   6.149 -0.3312  0.5448  0.4058
 4237SOL    HW224345   0.930   3.265   6.157  1.0718  0.2689 -0.3961
 4238SOL     OW24346   1.250   0.101   5.812  0.0482  0.0789 -0.7000
 4238SOL    HW124347   1.166   0.147   5.821  1.0075  1.4816  1.2047
 4238SOL    HW224348   1.230   0.008   5.822 -0.9777  0.2260 -1.3357
 4239SOL     OW24349   3.528   0.732   5.719  0.4214  0.4421  0.5036
 4239SOL    HW124350   3.599   0.795   5.709 -0.8382  2.0418  1.6433
 4239SOL    HW224351   3.463   0.787   5.764  0.5427  2.3980 -1.6545
 4240SOL     OW24352   2.150   4.584   5.211  0.3038  0.0473  0.3773
 4240SOL    HW124353   2.093   4.661   5.215 -1.2995 -1.1118 -0.0782
 4240SOL    HW224354   2.213   4.610   5.144 -3.8528 -1.5327 -4.2030
 4241SOL     OW24355   2.024   3.397   4.287 -0.4221  0.8503 -0.7893
 4241SOL    HW124356   1.961   3.385   4.358  1.0895 -1.3282  0.2048
 4241SOL    HW224357   2.103   3.425   4.334  1.8437 -3.7073 -1.8290
 4242SOL     OW24358   4.241   1.831  16.529 -0.2711  0.2995 -0.0546
 4242SOL    HW124359   4.280   1.893  16.591 -0.4591 -0.5834  0.9392
 4242SOL    HW224360   4.276   1.745  16.551  0.7114  0.7498  0.1509
 4243SOL     OW24361   4.367   2.194   8.895 -0.5346  0.0431 -0.4479
 4243SOL    HW124362   4.308   2.221   8.965  1.4764  0.4586  1.0777
 4243SOL    HW224363   4.452   2.187   8.938 -1.1383  0.3260  0.7780
 4244SOL     OW24364   2.089   4.577  11.991  0.0172  0.6161 -0.3935
 4244SOL    HW124365   2.000   4.584  11.956 -1.0829 -0.9678  2.1287
 4244SOL    HW224366   2.078   4.565  12.085  1.3993 -2.6522 -0.6478
 4245SOL     OW24367   4.285   2.071   9.368  0.1339 -0.2083 -0.1723
 4245SOL    HW124368   4.211   2.085   9.309 -0.2526 -0.2739  0.3009
 4245SOL    HW224369   4.308   2.160   9.394 -2.2058  0.6704 -1.1028
 4246SOL     OW24370   4.632   3.911   1.815  0.5841 -0.3999 -0.4580
 4246SOL    HW124371   4.556   3.964   1.793 -1.2391 -1.8779  2.1604
 4246SOL    HW224372   4.698   3.976   1.837 -1.5205  0.9087  1.9624
 4247SOL     OW24373   3.623   4.539   7.420  0.5642  0.6144  0.1638
 4247SOL    HW124374   3.636   4.522   7.327 -1.0604 -0.3402  0.1071
 4247SOL    HW224375   3.713   4.527   7.451  0.1839  1.5700  1.6558
 4248SOL     OW24376   2.664   3.642   1.489  0.0095 -0.1264 -0.3076
 4248SOL    HW124377   2.696   3.732   1.492  0.2052 -0.1520 -1.5643
 4248SOL    HW224378   2.569   3.651   1.479  0.4128  1.4218 -2.9583
 4249SOL     OW24379   0.696   4.249   3.624 -0.0987 -0.2572 -0.3750
 4249SOL    HW124380   0.632   4.319   3.637  0.0367  0.0459 -1.3455
 4249SOL    HW224381   0.650   4.199   3.556 -1.1043 -2.6003  2.0516
 4250SOL     OW24382   4.402   1.979   6.600 -0.3041  0.2054  0.2197
 4250SOL    HW124383   4.402   1.884   6.599 -0.5055  0.1645  3.0207
 4250SOL    HW224384   4.313   1.989   6.633 -0.6442 -0.0526 -0.6288
 4251SOL     OW24385   3.586   3.786   0.998  0.1805 -0.1038  0.1614
 4251SOL    HW124386   3.647   3.712   1.000 -0.7983 -0.8825  1.4795
 4251SOL    HW224387   3.623   3.849   1.059 -0.3781 -0.1335  0.5325
 4252SOL     OW24388   3.628   3.100   3.583 -0.4771 -0.2704 -0.5183
 4252SOL    HW124389   3.577   3.056   3.651  0.0908  1.7525  1.2078
 4252SOL    HW224390   3.717   3.093   3.617 -0.2340 -2.7912 -1.6716
 4253SOL     OW24391   3.510   0.361   6.595  0.0667  0.2342  0.4672
 4253SOL    HW124392   3.516   0.415   6.516  1.8792  0.3976  0.7214
 4253SOL    HW224393   3.476   0.428   6.654 -0.7049  1.4201 -1.3294
 4254SOL     OW24394   3.120   0.014  10.859 -0.4213  0.0855 -0.3538
 4254SOL    HW124395   3.181   4.684  10.833  0.6232  0.8982 -0.0790
 4254SOL    HW224396   3.140   0.023  10.953 -0.9649 -0.2111 -0.2074
 4255SOL     OW24397   2.231   1.635  11.521 -0.4477  0.8082  0.0020
 4255SOL    HW124398   2.282   1.716  11.518 -0.0802  0.5094 -1.4650
 4255SOL    HW224399   2.293   1.578  11.566 -1.8244  0.0798  0.9835
 4256SOL     OW24400   3.474   2.098   3.641  0.3707 -0.0160 -0.3410
 4256SOL    HW124401   3.393   2.125   3.685  0.4619  2.5409 -1.7033
 4256SOL    HW224402   3.454   2.112   3.548  1.7201  0.5593 -0.5362
 4257SOL     OW24403   3.754   4.162  17.395 -0.1454  0.0590 -0.1806
 4257SOL    HW124404   3.672   4.207  17.417 -1.1874 -2.0751  0.3024
 4257SOL    HW224405   3.737   4.068  17.387  0.7379 -0.2396  1.5438
 4258SOL     OW24406   3.574   0.727   3.916  0.4527 -0.1650  0.1658
 4258SOL    HW124407   3.502   0.716   3.853  0.6613  0.3421 -0.1608
 4258SOL    HW224408   3.620   0.803   3.881  0.2457 -0.9675 -1.8769
 4259SOL     OW24409   4.508   2.848  13.124 -0.0081 -0.1724  0.3304
 4259SOL    HW124410   4.537   2.931  13.086  1.5041 -1.0941 -0.5242
 4259SOL    HW224411   4.462   2.876  13.203 -1.4126  0.9712 -0.9011
 4260SOL     OW24412   1.694   2.481   4.076 -0.6391 -0.1657  0.1385
 4260SOL    HW124413   1.731   2.569   4.073 -1.8414  0.3958  2.0424
 4260SOL    HW224414   1.725   2.455   3.989  1.5863 -0.2187  0.9479
 4261SOL     OW24415   2.626   4.579   0.009  0.0264  0.3050  0.2184
 4261SOL    HW124416   2.702   4.631   0.036  0.4745 -0.2380 -0.0036
 4261SOL    HW224417   2.631   4.601  17.674  0.4608 -1.2909 -0.1252
 4262SOL     OW24418   2.387   3.671   1.515 -0.0491 -0.0748 -0.0358
 4262SOL    HW124419   2.403   3.764   1.531 -1.3244 -0.0105  0.8542
 4262SOL    HW224420   2.301   3.652   1.553  0.8392 -0.0666  1.9945
 4263SOL     OW24421   2.626   0.046  14.189  0.2172 -0.3696 -0.1449
 4263SOL    HW124422   2.615   0.092  14.272 -2.9495 -2.2390  0.4616
 4263SOL    HW224423   2.710   0.002  14.206 -0.2781 -1.5579 -0.7367
 4264SOL     OW24424   1.494   1.682   8.992 -0.1007 -0.0919  0.0264
 4264SOL    HW124425   1.448   1.606   9.028  1.0301 -0.6693  0.2296
 4264SOL    HW224426   1.575   1.647   8.955  0.4294  0.7736  0.3793
 4265SOL     OW24427   3.041   1.121   2.792  0.3197  0.3943 -0.3246
 4265SOL    HW124428   3.037   1.213   2.768  2.9813  0.6252  0.1528
 4265SOL    HW224429   3.102   1.083   2.729  3.7226  1.1967  2.4904
 4266SOL     OW24430   0.746   3.641   2.827  0.0453  0.2167 -0.0278
 4266SOL    HW124431   0.765   3.735   2.832  2.2249 -0.3373  2.3066
 4266SOL    HW224432   0.833   3.603   2.818  0.7566  2.1431 -1.3355
 4267SOL     OW24433   0.894   3.243  12.231 -0.5379 -0.1002  0.2494
 4267SOL    HW124434   0.805   3.215  12.209 -1.6751  3.3186  0.5336
 4267SOL    HW224435   0.899   3.334  12.202 -2.4164  0.5018  1.8354
 4268SOL     OW24436   4.378   1.756   7.492  0.4341 -0.1763 -0.2355
 4268SOL    HW124437   4.406   1.688   7.432 -0.8166 -1.4782  0.6456
 4268SOL    HW224438   4.405   1.833   7.442  2.1699 -0.4921  0.2012
 4269SOL     OW24439   1.217   1.774   2.830  0.6583  0.1438 -0.2788
 4269SOL    HW124440   1.249   1.686   2.808 -0.1640 -0.5703  1.3496
 4269SOL    HW224441   1.238   1.772   2.923  0.4466  0.5182 -0.2237
 4270SOL     OW24442   0.649   4.706  16.662  0.5113 -0.4377  0.3970
 4270SOL    HW124443   0.690   4.657  16.591 -1.2676  0.5045 -1.2497
 4270SOL    HW224444   0.561   4.714  16.627  0.0612  1.0259  1.8561
 4271SOL     OW24445   1.341   0.451  15.965  0.4110 -0.0511 -0.0526
 4271SOL    HW124446   1.259   0.448  15.916  1.1603 -0.3740 -1.2536
 4271SOL    HW224447   1.387   0.368  15.957 -0.0766  0.0288 -3.3175
 4272SOL     OW24448   1.818   0.693  10.123 -1.0390  0.1243 -0.8528
 4272SOL    HW124449   1.813   0.787  10.103  2.0979  0.0031 -2.2477
 4272SOL    HW224450   1.913   0.691  10.130 -1.1262  1.3804  0.7555
 4273SOL     OW24451   0.662   1.314   7.695  0.0718 -0.2608  0.2430
 4273SOL    HW124452   0.750   1.301   7.730  1.2772  1.3694 -2.2292
 4273SOL    HW224453   0.666   1.271   7.610 -1.7218 -0.3173  0.1968
 4274SOL     OW24454   0.449   4.402   9.183 -0.7937  0.1813 -0.0702
 4274SOL    HW124455   0.536   4.366   9.165  0.7191  3.0450  1.4380
 4274SOL    HW224456   0.407   4.374   9.102 -0.7210  0.9799 -0.3871
 4275SOL     OW24457   0.282   2.576   2.484  0.4770  0.4021 -0.5670
 4275SOL    HW124458   0.324   2.640   2.542  1.2962  0.7142 -1.4943
 4275SOL    HW224459   0.355   2.536   2.436 -0.1078 -1.0871 -0.2176
 4276SOL     OW24460   3.902   1.631   8.011 -0.3617 -0.0566  0.6257
 4276SOL    HW124461   3.892   1.726   8.018 -0.6394  0.2089 -3.5439
 4276SOL    HW224462   3.976   1.618   7.952 -0.8158  1.1628 -0.2191
 4277SOL     OW24463   2.194   2.942  16.648 -0.7129 -0.9269  0.1270
 4277SOL    HW124464   2.163   2.983  16.729 -0.4281 -3.6853  1.6207
 4277SOL    HW224465   2.226   3.013  16.592 -1.1326 -1.2996 -0.6000
 4278SOL     OW24466   2.259   0.061   5.940 -0.3044  0.5399  0.1656
 4278SOL    HW124467   2.199   0.014   5.881 -1.0210  2.0132 -0.2794
 4278SOL    HW224468   2.325   0.094   5.880  1.8146 -2.0105  1.0709
 4279SOL     OW24469   4.012   3.981   9.158  0.4758 -0.0270  0.2027
 4279SOL    HW124470   4.092   3.929   9.151  0.0557 -0.4003 -1.8042
 4279SOL    HW224471   4.041   4.058   9.109  0.1319  1.6024  2.5659
 4280SOL     OW24472   1.998   3.145   4.173 -0.0691  0.8659 -0.0529
 4280SOL    HW124473   1.955   3.194   4.104 -1.1732  0.5522  0.4163
 4280SOL    HW224474   2.036   3.215   4.226 -2.4161  1.9639  0.1824
 4281SOL     OW24475   2.244   1.191   2.835 -0.3265 -0.1658  0.2731
 4281SOL    HW124476   2.312   1.230   2.890 -1.5228  1.2775  0.7093
 4281SOL    HW224477   2.185   1.142   2.892 -0.5090  2.3757  2.2317
 4282SOL     OW24478   3.401   3.021   2.922 -0.0361 -0.1132  0.5095
 4282SOL    HW124479   3.362   2.940   2.954 -0.4709 -0.1497 -0.1238
 4282SOL    HW224480   3.470   3.030   2.988 -0.0858 -0.9649  0.6845
 4283SOL     OW24481   3.813   3.300  11.595  0.2177 -0.0116 -0.1415
 4283SOL    HW124482   3.852   3.387  11.610  0.4143 -0.2555  0.7928
 4283SOL    HW224483   3.829   3.259  11.680  1.7468 -1.4909 -1.1539
 4284SOL     OW24484   3.902   4.429  14.008 -0.2660  0.3197  0.2537
 4284SOL    HW124485   3.947   4.401  14.088  2.0882  2.3408 -0.3587
 4284SOL    HW224486   3.919   4.352  13.953 -1.6122  1.2866 -1.5364
 4285SOL     OW24487   4.073   2.758   7.640  0.2192 -0.2620 -0.2275
 4285SOL    HW124488   4.086   2.682   7.697  0.2121 -2.1437 -2.7377
 4285SOL    HW224489   4.004   2.721   7.585 -0.8045  1.3051 -0.0143
 4286SOL     OW24490   2.910   2.399   5.148  0.0666 -0.3841  0.1320
 4286SOL    HW124491   2.970   2.355   5.208  0.6213 -0.0053 -0.1443
 4286SOL    HW224492   2.928   2.351   5.067  0.3905  0.0362 -0.0465
 4287SOL     OW24493   4.431   3.633   6.476 -0.3953  0.6824  0.1789
 4287SOL    HW124494   4.383   3.702   6.521 -0.7314  0.8199 -0.3863
 4287SOL    HW224495   4.508   3.689   6.467 -0.7374  0.9021 -1.4223
 4288SOL     OW24496   0.078   4.073   6.755  0.4652 -0.0464 -0.0388
 4288SOL    HW124497   4.734   4.078   6.708 -0.3490 -1.2857  1.2868
 4288SOL    HW224498   0.112   4.156   6.721 -0.1507  0.0266 -0.4795
 4289SOL     OW24499   3.513   4.187   3.027 -0.3827  0.2357 -0.1662
 4289SOL    HW124500   3.434   4.209   2.978 -0.6860 -2.3117 -0.8111
 4289SOL    HW224501   3.480   4.122   3.089 -1.8573  0.7389 -0.4315
 4290SOL     OW24502   4.640   0.224   7.392 -0.1012 -0.0390  0.4736
 4290SOL    HW124503   4.609   0.188   7.308 -1.0163  2.0667 -0.0936
 4290SOL    HW224504   4.711   0.282   7.365  0.1293 -1.8480 -2.8040
 4291SOL     OW24505   0.281   0.224   2.748 -0.1097 -0.0960 -0.1958
 4291SOL    HW124506   0.216   0.180   2.693  1.1430 -3.3430  0.9224
 4291SOL    HW224507   0.223   0.269   2.810  0.4629 -2.9539  2.4494
 4292SOL     OW24508   4.006   0.224  13.164 -0.0414 -1.0261 -0.2603
 4292SOL    HW124509   3.926   0.172  13.156 -1.9520  1.6138  1.6905
 4292SOL    HW224510   3.991   0.247  13.256 -0.9538 -2.4542 -0.0350
 4293SOL     OW24511   4.539   3.970   7.432  0.0197 -0.3575 -0.4504
 4293SOL    HW124512   4.529   3.955   7.526  0.7205 -1.8586 -0.6289
 4293SOL    HW224513   4.575   3.888   7.400 -1.3946 -0.0460 -2.8751
 4294SOL     OW24514   4.707   1.305  17.616 -0.1856  0.7511  0.5586
 4294SOL    HW124515   4.667   1.219  17.631  1.3076 -0.5111 -2.5736
 4294SOL    HW224516   4.678   1.331  17.528 -1.3498  1.4526  1.1453
 4295SOL     OW24517   0.411   0.263   1.869  0.4467  0.5626  0.0021
 4295SOL    HW124518   0.358   0.332   1.829  0.3100  0.9950  0.9426
 4295SOL    HW224519   0.496   0.280   1.827  0.4848 -0.1718 -0.2246
 4296SOL     OW24520   2.104   2.674   5.323  0.2673  0.1907 -0.2333
 4296SOL    HW124521   2.099   2.592   5.373  2.1206  0.5524  0.5511
 4296SOL    HW224522   2.062   2.741   5.375 -0.1605 -0.8683  0.7814
 4297SOL     OW24523   1.110   2.001  13.478  0.0964 -0.3428 -0.6770
 4297SOL    HW124524   1.204   1.986  13.473  0.7056  1.9694  3.6492
 4297SOL    HW224525   1.092   1.971  13.568 -2.0950 -2.3941 -1.7702
 4298SOL     OW24526   3.341   1.799   5.549  0.3788  0.3161 -0.6739
 4298SOL    HW124527   3.312   1.774   5.637  1.8602  0.3225 -0.1867
 4298SOL    HW224528   3.332   1.894   5.543  2.2513  0.6132  1.2514
 4299SOL     OW24529   1.268   1.004   5.360  0.0184  0.0562  0.2557
 4299SOL    HW124530   1.340   1.016   5.423 -0.5091  1.2509  0.6133
 4299SOL    HW224531   1.251   1.094   5.333  1.5354  0.7752  1.6953
 4300SOL     OW24532   2.721   3.310   9.540  0.1429 -0.3093  0.3109
 4300SOL    HW124533   2.714   3.264   9.456  2.7959 -1.7608  0.8599
 4300SOL    HW224534   2.630   3.321   9.566  0.1301 -2.0170  0.9520
 4301SOL     OW24535   4.050   3.116  14.416 -0.0644  0.5218 -1.2291
 4301SOL    HW124536   4.113   3.154  14.354 -0.6231  0.1461 -2.0341
 4301SOL    HW224537   4.024   3.040  14.364 -1.8529  0.0294  0.3716
 4302SOL     OW24538   3.665   0.776   4.963 -0.2401 -0.2192  0.2083
 4302SOL    HW124539   3.725   0.703   4.942 -1.4158 -1.4629  1.1467
 4302SOL    HW224540   3.633   0.746   5.048 -0.7723  1.9103  0.7512
 4303SOL     OW24541   3.370   4.610  11.284  0.3589 -0.1302  0.0794
 4303SOL    HW124542   3.307   4.660  11.336  1.4638  2.5929 -1.2218
 4303SOL    HW224543   3.372   4.529  11.335  0.9770 -0.1017  0.0973
 4304SOL     OW24544   3.677   2.706   3.308 -0.1132 -0.3760  0.3515
 4304SOL    HW124545   3.660   2.720   3.401 -0.1315 -0.2218  0.3252
 4304SOL    HW224546   3.602   2.747   3.265  0.0964 -1.0895 -0.6929
 4305SOL     OW24547   4.403   1.845   9.437 -0.6141 -0.0514 -0.1804
 4305SOL    HW124548   4.429   1.802   9.356 -0.3786 -0.8718  0.3306
 4305SOL    HW224549   4.369   1.924   9.395 -1.0646  0.1466  0.5602
 4306SOL     OW24550   0.042   1.572   1.562 -0.1193  0.2515  0.3313
 4306SOL    HW124551   4.703   1.602   1.516 -0.0578 -2.5349 -1.6050
 4306SOL    HW224552   0.097   1.536   1.493 -0.6836 -2.1779  1.1168
 4307SOL     OW24553   2.084   0.289   2.465 -0.6596  0.9146  0.6880
 4307SOL    HW124554   2.064   0.378   2.436 -0.5963  0.6132 -0.2772
 4307SOL    HW224555   2.134   0.308   2.545  1.5340  2.5341 -1.0933
 4308SOL     OW24556   4.146   1.780  16.857  0.1742 -0.3479 -0.0065
 4308SOL    HW124557   4.073   1.841  16.872  0.1814 -0.3357 -0.0221
 4308SOL    HW224558   4.187   1.816  16.778 -1.9121  1.5269 -0.2559
 4309SOL     OW24559   3.674   2.145   5.959  0.0668  0.2079 -0.2832
 4309SOL    HW124560   3.763   2.145   5.996  0.4799 -0.4472 -1.2983
 4309SOL    HW224561   3.657   2.236   5.933 -0.1602 -0.1446 -1.3309
 4310SOL     OW24562   4.217   2.900  13.653 -0.5276 -0.5619 -0.1299
 4310SOL    HW124563   4.146   2.939  13.704  0.4925  2.9554 -1.3991
 4310SOL    HW224564   4.178   2.908  13.566  1.4206  1.6062 -0.8280
 4311SOL     OW24565   4.469   2.363   5.365 -0.2118  0.4044 -0.1973
 4311SOL    HW124566   4.564   2.369   5.354 -0.0704 -2.6353 -0.6173
 4311SOL    HW224567   4.468   2.290   5.427  1.2540  0.7373  0.2291
 4312SOL     OW24568   1.171   2.662  11.734 -0.2856  0.1705 -0.4418
 4312SOL    HW124569   1.205   2.617  11.657 -0.3207 -0.0217 -0.3436
 4312SOL    HW224570   1.205   2.750  11.713  1.7883 -1.4160 -3.7828
 4313SOL     OW24571   4.102   0.153   4.531  0.0401  0.0471  0.0727
 4313SOL    HW124572   4.195   0.152   4.551  0.0834 -0.6461 -0.1731
 4313SOL    HW224573   4.053   0.204   4.596 -2.3620 -1.1682 -0.7978
 4314SOL     OW24574   0.645   2.221  14.353  0.0710 -0.7240  0.2448
 4314SOL    HW124575   0.679   2.308  14.334  1.0170 -0.9681  0.7944
 4314SOL    HW224576   0.550   2.228  14.350  0.0089 -1.4880  0.3761
 4315SOL     OW24577   2.520   0.109  12.099 -0.5006  0.5431  0.2411
 4315SOL    HW124578   2.558   0.161  12.170  1.4146  1.6828 -1.6108
 4315SOL    HW224579   2.432   0.146  12.100 -1.6561 -2.1629 -0.0924
 4316SOL     OW24580   3.790   4.011  11.072  0.1185  1.0003  0.1148
 4316SOL    HW124581   3.838   4.088  11.103  0.6509  0.2273  1.2329
 4316SOL    HW224582   3.718   4.018  11.135 -0.6104  0.9788 -0.7195
 4317SOL     OW24583   1.633   3.242   4.085 -0.1408 -0.6307  0.0511
 4317SOL    HW124584   1.667   3.331   4.082  1.4708 -1.2429  0.6787
 4317SOL    HW224585   1.610   3.233   3.992  1.3111 -3.4594 -0.0053
 4318SOL     OW24586   4.729   0.868  12.692  0.2405  0.3970 -0.0822
 4318SOL    HW124587   4.667   0.808  12.733  3.4118 -2.1671  0.9629
 4318SOL    HW224588   4.678   0.940  12.656 -0.8570 -0.5758 -0.4748
 4319SOL     OW24589   4.352   4.531  14.264 -0.1052  0.2759  0.4251
 4319SOL    HW124590   4.409   4.468  14.221 -0.0859  0.4725  0.1664
 4319SOL    HW224591   4.411   4.558  14.334  1.6081  0.9636 -1.3088
 4320SOL     OW24592   3.094   2.072  10.281 -0.4693 -0.3307 -0.3048
 4320SOL    HW124593   3.184   2.046  10.264 -1.1668 -0.6655 -3.4385
 4320SOL    HW224594   3.068   2.009  10.349  0.4352 -1.0809 -0.6459
 4321SOL     OW24595   3.367   4.110   4.776 -0.5370  0.0221 -0.3365
 4321SOL    HW124596   3.322   4.134   4.858 -0.8161 -0.7906 -0.2599
 4321SOL    HW224597   3.351   4.182   4.715  0.2455  2.2289  2.0559
 4322SOL     OW24598   3.012   1.130  13.581 -0.1669  0.4648  1.0635
 4322SOL    HW124599   3.070   1.129  13.505 -3.1080  0.6503 -1.2103
 4322SOL    HW224600   3.048   1.064  13.639  0.2457 -0.1424  0.1121
 4323SOL     OW24601   4.036   0.057   6.677 -0.2407 -0.1285 -0.0222
 4323SOL    HW124602   4.099   4.726   6.661  1.2949  1.0710  0.6730
 4323SOL    HW224603   4.068   0.082   6.764  1.8594  1.9079 -1.3527
 4324SOL     OW24604   3.405   4.022   3.252  0.3631 -0.3453  0.2302
 4324SOL    HW124605   3.392   4.106   3.296  0.7190  1.1511 -2.5608
 4324SOL    HW224606   3.317   3.988   3.236  0.6435 -0.8431 -0.2716
 4325SOL     OW24607   1.426   0.768  11.381  0.2970 -0.1684 -0.1357
 4325SOL    HW124608   1.381   0.747  11.463 -1.8890  0.4063 -1.1740
 4325SOL    HW224609   1.364   0.823  11.332  2.0517 -0.0488 -2.2031
 4326SOL     OW24610   3.274   1.872   3.176  0.4120 -0.3332 -0.1564
 4326SOL    HW124611   3.212   1.803   3.201  0.4252  0.0399  0.8898
 4326SOL    HW224612   3.241   1.946   3.227  1.3582 -0.9666  1.3784
 4327SOL     OW24613   0.454   2.553   4.030  0.2040  0.3297  0.1903
 4327SOL    HW124614   0.455   2.523   3.939 -0.5789 -1.5050  0.7782
 4327SOL    HW224615   0.482   2.475   4.077 -0.7734  0.0776  0.3698
 4328SOL     OW24616   4.616   0.722   3.558 -0.0806 -0.2319 -0.4962
 4328SOL    HW124617   4.671   0.765   3.492 -2.4009 -0.4431 -2.5985
 4328SOL    HW224618   4.590   0.644   3.509  1.4243  0.7804 -2.9219
 4329SOL     OW24619   1.744   4.385   6.418 -0.3269 -0.4320  0.3159
 4329SOL    HW124620   1.788   4.434   6.488  0.7906 -0.7470 -0.1635
 4329SOL    HW224621   1.722   4.304   6.463 -0.9180 -1.6368 -2.1385
 4330SOL     OW24622   2.062   1.066   4.192 -0.3893  0.0571  0.2754
 4330SOL    HW124623   1.975   1.102   4.208 -0.0032  0.8761  0.5062
 4330SOL    HW224624   2.043   1.041   4.101  2.9953  3.4294 -1.3661
 4331SOL     OW24625   4.540   0.722  12.274  0.6870 -0.1369 -0.4276
 4331SOL    HW124626   4.495   0.739  12.357 -0.9020 -0.2782 -1.2549
 4331SOL    HW224627   4.547   0.809  12.234  2.7740  0.2942  0.9107
 4332SOL     OW24628   3.724   2.358   9.740  0.1246  0.6602  0.0781
 4332SOL    HW124629   3.718   2.313   9.824 -0.5776 -1.0584 -0.8956
 4332SOL    HW224630   3.634   2.390   9.737  0.1902  0.7350 -1.3460
 4333SOL     OW24631   1.958   4.572   8.191  0.4427 -0.4535 -0.4316
 4333SOL    HW124632   2.007   4.525   8.258  0.6577  1.8799  1.0589
 4333SOL    HW224633   2.010   4.545   8.115 -0.0403  0.7596 -1.1888
 4334SOL     OW24634   2.760   1.416   6.654  0.7637  0.6417 -0.2371
 4334SOL    HW124635   2.807   1.469   6.718  1.6297 -0.5138  0.0814
 4334SOL    HW224636   2.775   1.325   6.679 -0.0545  1.2071  2.4207
 4335SOL     OW24637   4.389   4.266   2.136 -0.3260 -0.2758  0.0288
 4335SOL    HW124638   4.421   4.353   2.114  0.6002 -0.2318  1.5272
 4335SOL    HW224639   4.297   4.274   2.109  0.3755 -2.6787 -3.0174
 4336SOL     OW24640   2.606   0.473   0.686 -0.1042  0.1487 -0.3802
 4336SOL    HW124641   2.639   0.529   0.756 -1.1926  1.8887 -1.2666
 4336SOL    HW224642   2.603   0.536   0.614  0.0450 -1.2846 -1.6416
 4337SOL     OW24643   1.136   3.489   0.027 -0.1441  0.4436  0.4171
 4337SOL    HW124644   1.097   3.575   0.043 -0.0267  0.2947  1.4681
 4337SOL    HW224645   1.110   3.480  17.693  2.4644  0.0627 -0.2912
 4338SOL     OW24646   3.107   4.415  11.779  0.1902 -0.1783 -0.0476
 4338SOL    HW124647   3.151   4.379  11.702  1.2984 -1.4376  1.1801
 4338SOL    HW224648   3.169   4.383  11.844 -1.8990 -0.4375  1.8146
 4339SOL     OW24649   2.669   1.681   7.721  0.0460 -0.6266  0.0031
 4339SOL    HW124650   2.709   1.693   7.635  2.4258 -1.5587  0.9768
 4339SOL    HW224651   2.657   1.776   7.731  1.4386 -0.6988  2.4103
 4340SOL     OW24652   1.777   0.155   4.993 -0.3386 -0.2722  0.1171
 4340SOL    HW124653   1.704   0.094   4.998  0.6710 -1.3837  1.2436
 4340SOL    HW224654   1.847   0.095   4.968 -0.7111 -0.0640 -1.4217
 4341SOL     OW24655   2.531   2.015  13.390  0.1189  0.0957 -0.7033
 4341SOL    HW124656   2.491   1.935  13.422 -0.9044  0.6264 -0.6467
 4341SOL    HW224657   2.610   2.023  13.443 -0.3378 -1.5080  0.2186
 4342SOL     OW24658   3.108   2.308   5.702  0.5921 -0.1814 -0.6674
 4342SOL    HW124659   3.114   2.401   5.678  0.0170 -0.0359 -0.2611
 4342SOL    HW224660   3.019   2.294   5.735  0.2072 -1.0664 -2.1061
 4343SOL     OW24661   1.182   0.210   9.720 -0.6008 -0.8784 -0.3495
 4343SOL    HW124662   1.104   0.176   9.764 -0.1362 -1.6334 -0.1182
 4343SOL    HW224663   1.140   0.284   9.676 -1.3002 -0.9812  0.1422
 4344SOL     OW24664   3.534   3.995   4.089 -0.1604 -0.7642 -0.4528
 4344SOL    HW124665   3.457   4.036   4.049 -0.0813 -1.1046 -0.9421
 4344SOL    HW224666   3.499   3.922   4.139  1.6810 -1.5862 -0.3711
 4345SOL     OW24667   4.722   0.664   6.399 -0.0071 -0.4785  0.2656
 4345SOL    HW124668   4.678   0.602   6.341 -1.4782 -1.8528  2.8535
 4345SOL    HW224669   0.069   0.636   6.369  0.7279  1.9411  0.0711
 4346SOL     OW24670   2.119   1.886  13.118  0.2899 -0.5758 -0.8638
 4346SOL    HW124671   2.089   1.947  13.186  0.1696 -1.0218 -0.5161
 4346SOL    HW224672   2.039   1.868  13.069 -0.2911  0.2227 -0.2069
 4347SOL     OW24673   4.578   0.113   6.880 -0.0549  0.2032 -0.1434
 4347SOL    HW124674   4.624   0.042   6.925 -0.1426 -1.1620 -2.2167
 4347SOL    HW224675   4.655   0.162   6.853 -0.8361  1.2389 -0.5093
 4348SOL     OW24676   1.350   1.092  15.141  0.1396  0.3288 -0.2112
 4348SOL    HW124677   1.318   1.003  15.129  1.3080 -0.1310  0.1791
 4348SOL    HW224678   1.277   1.123  15.194 -1.8335 -0.3272 -2.5171
 4349SOL     OW24679   0.504   4.383   3.245 -0.1441 -0.1736  0.1995
 4349SOL    HW124680   0.528   4.476   3.241  2.0057 -0.7716 -0.6590
 4349SOL    HW224681   0.409   4.382   3.232 -0.1122  2.7793 -0.3791
 4350SOL     OW24682   3.427   2.609  10.609 -0.3688 -0.6533 -0.3106
 4350SOL    HW124683   3.473   2.551  10.670  1.1409 -0.5780 -1.3779
 4350SOL    HW224684   3.336   2.606  10.637 -0.7110  0.2133 -1.2951
 4351SOL     OW24685   2.184   0.605   9.886  0.2615 -0.1532 -0.2769
 4351SOL    HW124686   2.267   0.615   9.933 -0.5954 -1.7348  1.5892
 4351SOL    HW224687   2.147   0.526   9.924 -1.7891  1.0600  0.2504
 4352SOL     OW24688   2.406   2.715   4.172  0.1612 -0.1909  0.5216
 4352SOL    HW124689   2.464   2.645   4.198  1.2943  0.0660 -1.2777
 4352SOL    HW224690   2.321   2.689   4.207 -0.1975  1.0114  0.5755
 4353SOL     OW24691   4.736   2.647   4.852 -0.1789  0.6007  0.0355
 4353SOL    HW124692   0.051   2.652   4.774  1.1005  0.2583  0.9087
 4353SOL    HW224693   4.647   2.621   4.826 -0.2893  0.1724  0.8479
 4354SOL     OW24694   0.776   3.707   5.530 -0.1137 -0.4827  0.0161
 4354SOL    HW124695   0.850   3.658   5.566 -1.7849 -2.8378  0.2470
 4354SOL    HW224696   0.773   3.777   5.596 -0.8747 -0.4236 -0.0846
 4355SOL     OW24697   1.391   3.654  15.510 -0.3781  0.1614  0.1670
 4355SOL    HW124698   1.310   3.682  15.467 -0.9475 -1.0067  0.4894
 4355SOL    HW224699   1.422   3.600  15.437 -1.6548 -0.1217 -0.1661
 4356SOL     OW24700   2.944   0.419  13.515  0.4499 -0.4024 -0.0068
 4356SOL    HW124701   2.883   0.471  13.463  0.3587 -0.0859  0.4164
 4356SOL    HW224702   2.894   0.342  13.543  1.6026 -1.9571 -2.1699
 4357SOL     OW24703   4.178   2.406   7.522  0.4886  0.0561  0.2987
 4357SOL    HW124704   4.119   2.421   7.596  0.1680 -0.4446  0.1472
 4357SOL    HW224705   4.236   2.478   7.544  2.5479 -0.9931 -1.6523
 4358SOL     OW24706   1.899   0.005   4.530  0.3126  0.0841  0.3011
 4358SOL    HW124707   1.814   4.711   4.557 -0.5934  2.0330 -0.1236
 4358SOL    HW224708   1.897   0.094   4.567  0.2835  0.6592 -1.1078
 4359SOL     OW24709   1.172   0.420   6.446  0.2505  0.0200 -0.5850
 4359SOL    HW124710   1.119   0.363   6.502  1.7056  0.1871  0.9295
 4359SOL    HW224711   1.104   0.477   6.410 -0.8797 -1.0346 -0.1218
 4360SOL     OW24712   1.870   0.534   7.719  0.5121 -0.3435 -0.2799
 4360SOL    HW124713   1.778   0.521   7.744  1.1693 -2.2374  1.2257
 4360SOL    HW224714   1.898   0.442   7.723 -1.2488 -0.9303 -1.3048
 4361SOL     OW24715   1.589   3.171  11.206 -0.1174 -0.3268  0.2328
 4361SOL    HW124716   1.616   3.256  11.171 -2.1422 -1.5485 -4.3950
 4361SOL    HW224717   1.596   3.193  11.298  0.5822  0.0394  0.0916
 4362SOL     OW24718   1.970   3.096  14.134  0.1277 -0.5231  0.1243
 4362SOL    HW124719   2.023   3.174  14.147 -1.2022  0.1484  1.5983
 4362SOL    HW224720   1.885   3.139  14.143 -0.1261 -0.3724 -3.1038
 4363SOL     OW24721   4.207   1.845   7.701  0.3159 -0.6927  0.2257
 4363SOL    HW124722   4.273   1.823   7.636  0.3013  1.2142 -0.4254
 4363SOL    HW224723   4.205   1.939   7.686 -0.6841 -0.7389  0.0413
 4364SOL     OW24724   2.048   2.237  17.321 -0.0413  0.7545 -0.1682
 4364SOL    HW124725   2.027   2.324  17.354  1.9634  0.8030  0.9756
 4364SOL    HW224726   2.130   2.251  17.273 -0.4140 -0.4505 -1.1636
 4365SOL     OW24727   0.651   3.474  16.633 -0.7930  0.4815  0.4220
 4365SOL    HW124728   0.648   3.445  16.542  1.1285 -1.0697  0.8330
 4365SOL    HW224729   0.676   3.386  16.662 -0.4970  0.0551 -1.1617
 4366SOL     OW24730   3.067   4.602   7.166 -0.6779  0.4293 -0.1340
 4366SOL    HW124731   3.034   4.647   7.088 -2.8145  1.2818  1.2343
 4366SOL    HW224732   3.152   4.583   7.129 -0.3577 -0.6823  1.1840
 4367SOL     OW24733   1.955   0.755   0.616 -0.3425  0.1046  0.4998
 4367SOL    HW124734   1.871   0.709   0.618 -0.8196  0.8511 -2.4592
 4367SOL    HW224735   1.992   0.727   0.700  0.1292 -0.9392 -0.0501
 4368SOL     OW24736   0.957   3.015  12.494 -0.3720  0.1232 -0.3353
 4368SOL    HW124737   0.911   2.933  12.483 -1.7453  1.1110 -1.9140
 4368SOL    HW224738   0.999   3.028  12.409 -1.9238 -1.7419 -1.3720
 4369SOL     OW24739   4.608   2.986   7.063  0.2815  0.1182 -0.0828
 4369SOL    HW124740   4.615   2.891   7.073  1.6597  0.2379  0.1097
 4369SOL    HW224741   4.546   2.993   6.990  0.8200 -1.7429 -0.7140
 4370SOL     OW24742   1.740   3.532   8.007 -0.3623 -0.6415  0.3343
 4370SOL    HW124743   1.697   3.487   8.080 -1.2248 -2.1930 -1.0985
 4370SOL    HW224744   1.791   3.596   8.056  0.7842  0.2111 -1.9987
 4371SOL     OW24745   4.236   4.206   5.594 -0.6019 -1.0874 -0.3328
 4371SOL    HW124746   4.141   4.196   5.593 -1.0844  3.7932 -1.4585
 4371SOL    HW224747   4.265   4.207   5.502  0.2155  1.6014 -0.0331
 4372SOL     OW24748   0.648   0.260   8.504  0.4718 -0.2101 -0.0646
 4372SOL    HW124749   0.556   0.239   8.525  0.2325  1.6389  0.7959
 4372SOL    HW224750   0.703   0.210   8.564 -1.5098 -0.4925  1.5386
 4373SOL     OW24751   3.427   1.985   7.265  0.3125  0.5166  0.6086
 4373SOL    HW124752   3.364   1.945   7.324  0.5199  0.9855  1.1415
 4373SOL    HW224753   3.369   2.041   7.213  0.8887  0.4828 -0.0786
 4374SOL     OW24754   0.035   4.167   8.202 -0.6955  0.4642  0.1161
 4374SOL    HW124755   4.737   4.198   8.120  1.7100  3.3546  0.0763
 4374SOL    HW224756   0.109   4.117   8.168 -1.5264 -0.7739  0.1364
 4375SOL     OW24757   3.451   2.965  13.556 -0.1544  0.2629 -0.5662
 4375SOL    HW124758   3.422   2.931  13.472  1.3942  0.5259 -1.2123
 4375SOL    HW224759   3.514   3.029  13.523 -0.9359  1.0822 -0.4707
 4376SOL     OW24760   1.789   1.405   8.693 -0.3470 -0.1100  0.1124
 4376SOL    HW124761   1.725   1.413   8.764 -0.8072 -0.0321 -0.3109
 4376SOL    HW224762   1.809   1.312   8.704  0.4199  0.1474  0.8899
 4377SOL     OW24763   2.015   4.504   2.795 -0.3560 -0.1466  0.3180
 4377SOL    HW124764   2.055   4.487   2.880  1.1501 -0.1950 -0.4106
 4377SOL    HW224765   1.947   4.563   2.827  0.5997  0.5391  1.0647
 4378SOL     OW24766   4.500   3.780   9.973  0.2896 -0.1053  0.0469
 4378SOL    HW124767   4.577   3.804  10.024  0.4408 -1.5562  0.4861
 4378SOL    HW224768   4.464   3.708  10.025 -1.2627 -0.5073 -1.6016
 4379SOL     OW24769   4.330   3.592  16.353  0.1382 -0.9950  0.4591
 4379SOL    HW124770   4.359   3.683  16.341  5.0103 -2.2980  2.3503
 4379SOL    HW224771   4.266   3.577  16.283 -0.3606  0.0899  0.6731
 4380SOL     OW24772   0.686   2.263   5.418 -0.2502  0.0297 -0.1963
 4380SOL    HW124773   0.627   2.274   5.343 -0.1119  0.3771 -0.2503
 4380SOL    HW224774   0.745   2.337   5.406 -0.5489  0.4951  1.1978
 4381SOL     OW24775   2.634   2.794   3.393 -0.1480  0.0674  0.3246
 4381SOL    HW124776   2.638   2.815   3.486 -0.0720 -0.8120  0.5274
 4381SOL    HW224777   2.584   2.713   3.400 -0.4197  0.1015 -1.1373
 4382SOL     OW24778   4.563   3.397   3.759  0.2674 -0.1884  0.1533
 4382SOL    HW124779   4.501   3.448   3.706  0.0638  1.6325  2.1413
 4382SOL    HW224780   4.526   3.310   3.767 -1.5322  0.3591 -2.1349
 4383SOL     OW24781   2.924   0.084  11.494 -0.5497 -0.2936  0.0784
 4383SOL    HW124782   2.877   0.095  11.577  2.2353 -2.0387  1.8857
 4383SOL    HW224783   2.881   0.003  11.465 -0.7327 -0.8203  1.8013
 4384SOL     OW24784   3.282   3.565   9.044  0.2062  0.2383  0.5382
 4384SOL    HW124785   3.279   3.523   9.130  0.9022 -1.4291 -0.2357
 4384SOL    HW224786   3.322   3.649   9.065  1.9563  0.4451 -3.5525
 4385SOL     OW24787   2.152   0.117   8.810  0.1985  0.2425  0.4279
 4385SOL    HW124788   2.146   0.210   8.786  1.6780 -0.0145 -0.8956
 4385SOL    HW224789   2.246   0.112   8.824  0.3406  0.2819 -0.4915
 4386SOL     OW24790   4.461   1.096   2.197  0.2498 -0.3923  0.3278
 4386SOL    HW124791   4.510   1.131   2.123 -0.2522 -1.0376 -0.3122
 4386SOL    HW224792   4.481   1.161   2.264 -0.3593  1.0150 -0.8743
 4387SOL     OW24793   1.589   1.778   7.396 -0.0495 -0.3772  0.3051
 4387SOL    HW124794   1.659   1.840   7.380 -1.3965  0.8960 -0.7133
 4387SOL    HW224795   1.590   1.767   7.491  2.0045  0.0482  0.3146
 4388SOL     OW24796   3.534   2.131  13.375 -0.2710 -0.2182  0.8263
 4388SOL    HW124797   3.543   2.216  13.332 -0.0346  1.3598  3.9996
 4388SOL    HW224798   3.447   2.100  13.350  0.2738 -0.6803 -0.4964
 4389SOL     OW24799   3.182   2.111   7.767  0.0305  0.5149  0.1841
 4389SOL    HW124800   3.155   2.024   7.736 -3.4429  1.1176  1.5080
 4389SOL    HW224801   3.193   2.160   7.685  1.4799  3.8045  2.3857
 4390SOL     OW24802   2.399   3.144   0.581 -0.3866 -0.0718  0.0713
 4390SOL    HW124803   2.394   3.216   0.644  3.6112 -0.5374  0.8716
 4390SOL    HW224804   2.328   3.093   0.621  0.2094 -1.0291 -0.1012
 4391SOL     OW24805   0.309   4.455  17.539 -0.0130  0.5405  0.5711
 4391SOL    HW124806   0.226   4.501  17.525  0.8389  2.1577  0.8908
 4391SOL    HW224807   0.341   4.452  17.448 -0.3965  0.0144  0.4537
 4392SOL     OW24808   1.786   2.819  15.316 -0.3778  0.0354  0.0018
 4392SOL    HW124809   1.701   2.804  15.273 -0.6235  1.3029  0.0347
 4392SOL    HW224810   1.842   2.774  15.254 -0.2933  0.4126 -0.1964
 4393SOL     OW24811   2.825   1.014  10.777 -0.1788  0.2689 -0.1155
 4393SOL    HW124812   2.737   1.006  10.815 -0.1580  0.9154  0.0683
 4393SOL    HW224813   2.854   0.926  10.753 -2.2471 -0.4921  0.1254
 4394SOL     OW24814   4.711   1.894   6.670  0.5672 -0.3236  0.0103
 4394SOL    HW124815   0.066   1.892   6.676  0.5060 -3.1461 -0.1683
 4394SOL    HW224816   4.680   1.805   6.657 -0.9257  0.7409 -3.8065
 4395SOL     OW24817   2.683   2.242   2.401  0.0763 -0.5019 -0.6374
 4395SOL    HW124818   2.691   2.285   2.316  1.2197  0.8929  0.1657
 4395SOL    HW224819   2.699   2.314   2.462 -0.8549 -1.9736  1.3316
 4396SOL     OW24820   2.001   1.050  12.989 -0.3693  0.2433  0.3770
 4396SOL    HW124821   1.909   1.026  12.986 -0.4740  0.8364 -1.2719
 4396SOL    HW224822   2.043   0.966  12.973 -0.8062  0.2890 -1.0227
 4397SOL     OW24823   1.883   4.242   5.552 -0.4771 -0.1076 -0.0682
 4397SOL    HW124824   1.912   4.157   5.588 -0.0192 -0.0922 -0.3995
 4397SOL    HW224825   1.942   4.305   5.592 -1.4500 -0.8598  2.5611
 4398SOL     OW24826   0.586   0.451   6.620 -0.3549  0.2800 -0.2416
 4398SOL    HW124827   0.677   0.467   6.643 -0.6549  1.0283  0.4220
 4398SOL    HW224828   0.555   0.541   6.634  1.0630  0.8301 -0.6971
 4399SOL     OW24829   1.012   4.605   6.457 -0.4921 -0.6284 -0.4234
 4399SOL    HW124830   1.029   4.612   6.363  1.1776 -0.6211 -0.1131
 4399SOL    HW224831   0.916   4.612   6.460 -0.3831  1.0099 -0.6236
 4400SOL     OW24832   3.308   4.680   5.480 -0.2281 -0.4769  0.2272
 4400SOL    HW124833   3.258   4.739   5.535  1.2903  1.0209  0.0072
 4400SOL    HW224834   3.337   0.005   5.415  0.1510 -0.7713  0.0974
 4401SOL     OW24835   1.285   3.696   3.953 -0.0207 -0.6261 -0.4497
 4401SOL    HW124836   1.260   3.605   3.969  0.5725 -1.0159 -1.7675
 4401SOL    HW224837   1.336   3.713   4.032  0.1000 -0.2855 -0.6022
 4402SOL     OW24838   4.513   3.214  15.175  0.0084 -0.4243 -0.0636
 4402SOL    HW124839   4.533   3.142  15.115 -0.4569 -0.0625 -0.6512
 4402SOL    HW224840   4.437   3.254  15.133  0.0024  1.0467  1.3083
 4403SOL     OW24841   3.756   2.189   6.614 -0.2465 -0.1402  0.3488
 4403SOL    HW124842   3.682   2.250   6.610  0.8148  1.3286  3.2464
 4403SOL    HW224843   3.804   2.225   6.689  0.3371 -0.7046  0.2411
 4404SOL     OW24844   1.709   3.129   7.509 -0.0153 -0.1988  0.2219
 4404SOL    HW124845   1.753   3.081   7.439  3.9271  2.1134  1.0952
 4404SOL    HW224846   1.691   3.213   7.466 -1.7249  0.7683  2.8272
 4405SOL     OW24847   3.376   4.020   6.878  0.0347  0.1914 -0.0571
 4405SOL    HW124848   3.435   3.968   6.824 -1.1715  0.5223 -1.6984
 4405SOL    HW224849   3.345   3.960   6.946 -0.4135  0.6212  0.1192
 4406SOL     OW24850   3.980   0.488   8.264  0.1870 -0.9014  0.1769
 4406SOL    HW124851   4.022   0.433   8.331  1.6774  0.6343  0.5029
 4406SOL    HW224852   3.901   0.436   8.255  0.4437 -0.5588 -3.9804
 4407SOL     OW24853   2.333   1.709   8.371 -0.0462 -0.4664  0.4604
 4407SOL    HW124854   2.246   1.693   8.406  0.0588 -1.0056  0.4815
 4407SOL    HW224855   2.310   1.753   8.289  0.9274 -1.2382 -0.2288
 4408SOL     OW24856   1.093   2.543   5.998  0.3603 -0.6153 -0.6849
 4408SOL    HW124857   1.141   2.461   5.997 -0.0297 -0.8493  0.2831
 4408SOL    HW224858   1.133   2.593   5.926  0.7024 -1.0718 -0.8086
 4409SOL     OW24859   1.924   1.073   3.934  0.1907  0.0731 -0.1306
 4409SOL    HW124860   1.929   1.033   3.847  0.5805  0.1457 -0.1429
 4409SOL    HW224861   1.843   1.028   3.960  1.8511 -2.0068  1.5358
 4410SOL     OW24862   1.475   3.412   8.515 -0.4169 -0.3294 -0.0293
 4410SOL    HW124863   1.399   3.403   8.458 -1.6553  3.5680  0.9798
 4410SOL    HW224864   1.512   3.324   8.519 -1.0140 -0.5988 -0.3617
 4411SOL     OW24865   1.383   1.664   7.954  0.7587  0.2699 -0.2008
 4411SOL    HW124866   1.391   1.759   7.953  2.7883  0.0837 -1.9051
 4411SOL    HW224867   1.326   1.665   7.878  0.5382  0.2874 -0.0363
 4412SOL     OW24868   1.722   0.795  15.351  0.2088  0.0616  1.2559
 4412SOL    HW124869   1.712   0.888  15.372  0.9115  1.0091 -2.5623
 4412SOL    HW224870   1.746   0.762  15.438 -0.0920 -2.5267  0.3581
 4413SOL     OW24871   0.489   2.454   5.541  0.2084 -0.1741 -0.0118
 4413SOL    HW124872   0.564   2.512   5.528  2.0891 -1.7953  3.5571
 4413SOL    HW224873   0.514   2.398   5.615  0.9062 -0.1414 -0.2252
 4414SOL     OW24874   4.499   2.929   2.070  0.5131 -0.8935 -0.8122
 4414SOL    HW124875   4.506   2.853   2.013 -1.6054 -1.8994  0.2537
 4414SOL    HW224876   4.414   2.901   2.103  0.3281 -0.3705 -0.8560
 4415SOL     OW24877   3.175   0.137  17.610 -0.0988 -0.0206  0.0401
 4415SOL    HW124878   3.212   0.210  17.561  0.1450  0.1110  0.4215
 4415SOL    HW224879   3.129   0.100  17.535  1.3201 -2.3829  0.3729
 4416SOL     OW24880   1.185   1.936  11.623  0.1690  0.0290  0.1887
 4416SOL    HW124881   1.091   1.951  11.610  0.0458  0.2918  1.3875
 4416SOL    HW224882   1.204   1.997  11.694 -0.1811  0.3504  0.0095
 4417SOL     OW24883   2.526   0.035   6.872  0.1468  0.3886  0.0666
 4417SOL    HW124884   2.560   4.700   6.822  0.6476 -0.5296  1.7854
 4417SOL    HW224885   2.439   0.005   6.898  0.1347  0.2901 -0.0899
 4418SOL     OW24886   3.092   3.157   8.596 -0.7460  0.3521 -0.7473
 4418SOL    HW124887   3.119   3.085   8.653 -0.3956  1.7929  0.8931
 4418SOL    HW224888   3.121   3.237   8.640  0.1749  0.3791 -1.3984
 4419SOL     OW24889   2.062   0.995   6.683 -0.3546 -0.7667 -0.1844
 4419SOL    HW124890   2.149   0.955   6.681 -0.9622 -2.0621 -1.2177
 4419SOL    HW224891   2.074   1.065   6.747 -0.1571  0.8805 -2.0007
 4420SOL     OW24892   2.819   2.874   1.130 -1.0447 -0.1975  0.3781
 4420SOL    HW124893   2.760   2.948   1.120 -4.4032 -2.9762 -0.4022
 4420SOL    HW224894   2.897   2.930   1.124 -1.7240  0.7011 -0.0326
 4421SOL     OW24895   4.664   2.311   3.247  0.5333  0.0015 -0.4735
 4421SOL    HW124896   4.676   2.404   3.228  0.1943 -0.0700 -1.0472
 4421SOL    HW224897   4.722   2.296   3.322  0.5495  1.5904 -0.1694
 4422SOL     OW24898   0.521   0.009   0.843  0.5332  0.3005 -0.4485
 4422SOL    HW124899   0.550   0.097   0.818 -0.0372  0.5345 -0.2818
 4422SOL    HW224900   0.447   0.034   0.898 -1.2962 -1.2800 -2.1694
 4423SOL     OW24901   3.817   0.008   3.758 -0.5595 -0.2707  0.1410
 4423SOL    HW124902   3.853   4.725   3.844 -1.1447  1.6316  0.8779
 4423SOL    HW224903   3.838   0.100   3.746  0.3570 -0.0460  3.3574
 4424SOL     OW24904   1.886   1.551   6.485  0.3345  0.2738 -0.1115
 4424SOL    HW124905   1.908   1.594   6.402  1.2604 -0.0443 -0.0271
 4424SOL    HW224906   1.906   1.459   6.470  1.9441  0.8516 -1.4233
 4425SOL     OW24907   1.986   2.710   5.997 -0.7112  0.1374 -0.0164
 4425SOL    HW124908   2.025   2.689   5.912  2.4408 -0.1300  1.4801
 4425SOL    HW224909   2.036   2.785   6.029  2.0580 -1.8717  0.3546
 4426SOL     OW24910   3.074   1.911   2.888  0.0293  0.6648 -0.1136
 4426SOL    HW124911   3.140   1.930   2.821  1.7768 -1.2831  1.0583
 4426SOL    HW224912   2.993   1.934   2.843 -0.2559 -1.1122 -0.5162
 4427SOL     OW24913   0.560   0.305   3.617  0.0116 -0.8806  0.0744
 4427SOL    HW124914   0.571   0.311   3.522  2.9784 -0.9299  0.4182
 4427SOL    HW224915   0.509   0.224   3.627  0.4716 -1.0612  0.9043
 4428SOL     OW24916   1.914   3.159   3.847 -0.0770  0.5405  0.0887
 4428SOL    HW124917   1.974   3.194   3.782  1.1749  0.5034  1.2144
 4428SOL    HW224918   1.833   3.160   3.796  0.2680  1.6899 -0.4162
 4429SOL     OW24919   3.980   2.855   6.140  0.5286  0.5186 -0.4992
 4429SOL    HW124920   3.890   2.887   6.142  0.2865 -0.2644  0.7952
 4429SOL    HW224921   3.979   2.777   6.084 -0.9706  2.1473 -2.7649
 4430SOL     OW24922   1.814   0.705  13.019 -0.3276  0.5102  0.3665
 4430SOL    HW124923   1.836   0.714  12.926  0.3406 -1.1306  0.3628
 4430SOL    HW224924   1.796   0.798  13.027  0.0257  0.8045 -2.0919
 4431SOL     OW24925   0.563   2.189   5.676  0.1598  0.6614 -0.6944
 4431SOL    HW124926   0.596   2.200   5.586 -2.2886 -0.8501 -1.7885
 4431SOL    HW224927   0.544   2.095   5.674 -0.5104  0.7823  0.5393
 4432SOL     OW24928   4.043   1.479   0.578  0.6522 -0.1181  0.3595
 4432SOL    HW124929   4.068   1.560   0.622 -2.0140  0.4033  0.9350
 4432SOL    HW224930   3.989   1.441   0.647 -2.0009 -0.7516 -2.0338
 4433SOL     OW24931   1.511   4.229  16.363 -0.0385 -0.6476  0.7866
 4433SOL    HW124932   1.463   4.156  16.400 -0.8068 -0.2402  0.5959
 4433SOL    HW224933   1.458   4.257  16.288 -0.0308 -1.6989  0.3981
 4434SOL     OW24934   2.134   4.720   8.586 -0.2144 -0.3300  0.0365
 4434SOL    HW124935   2.127   0.041   8.660  0.6038 -2.2939  1.7353
 4434SOL    HW224936   2.164   4.644   8.637  1.5431 -1.0717 -2.1067
 4435SOL     OW24937   1.451   4.349   3.563  1.0693 -0.1327  0.1130
 4435SOL    HW124938   1.439   4.370   3.655  0.6841 -0.4373  0.1325
 4435SOL    HW224939   1.370   4.392   3.535  0.1402 -0.6103  2.0848
 4436SOL     OW24940   4.573   1.092   7.612  0.4684  0.2229 -0.1686
 4436SOL    HW124941   4.602   1.069   7.524  0.7497  3.5202 -0.9348
 4436SOL    HW224942   4.599   1.184   7.615 -0.5055  0.5933 -3.1277
 4437SOL     OW24943   0.358   4.645   7.833  0.4427 -0.2180 -0.3430
 4437SOL    HW124944   0.360   4.630   7.928  0.6374 -0.2144 -0.3464
 4437SOL    HW224945   0.373   4.740   7.828  2.9872 -0.6060  0.2694
 4438SOL     OW24946   0.879   4.622   7.683 -0.0790  0.0985 -0.2133
 4438SOL    HW124947   0.869   4.614   7.778 -3.4938  1.8735 -0.4169
 4438SOL    HW224948   0.943   4.555   7.659  0.5985 -0.1478  2.3338
 4439SOL     OW24949   0.639   1.892   8.944 -0.0086  0.4452 -0.4908
 4439SOL    HW124950   0.635   1.971   8.998 -2.6195  0.9428 -1.4344
 4439SOL    HW224951   0.655   1.829   9.015  1.1585  0.9209 -0.3397
 4440SOL     OW24952   1.343   4.553   6.103  0.4529  0.3437  0.9904
 4440SOL    HW124953   1.375   4.504   6.179 -1.7285  1.1099  2.4111
 4440SOL    HW224954   1.365   4.639   6.139  1.7605  1.0371 -1.4664
 4441SOL     OW24955   0.394   4.510   5.775  0.4138 -0.1448 -0.5240
 4441SOL    HW124956   0.402   4.497   5.680 -2.6041 -1.2878 -0.6170
 4441SOL    HW224957   0.440   4.429   5.796  1.6161  0.3925 -1.0614
 4442SOL     OW24958   3.696   3.414   6.343 -0.3164  0.7607  0.1301
 4442SOL    HW124959   3.767   3.425   6.406 -0.9033 -1.0234  1.1121
 4442SOL    HW224960   3.699   3.493   6.290  1.8572  0.7533  0.2358
 4443SOL     OW24961   3.539   0.913  16.426  0.5657 -0.3429 -0.4274
 4443SOL    HW124962   3.566   1.003  16.443 -0.2956 -0.6623  2.7077
 4443SOL    HW224963   3.452   0.930  16.393  0.2472  0.9508  1.0799
 4444SOL     OW24964   0.488   4.528   6.502  0.4287 -0.1552 -0.2296
 4444SOL    HW124965   0.396   4.532   6.475  0.6394 -0.2034 -0.9490
 4444SOL    HW224966   0.465   4.523   6.595  0.2751 -1.2634 -0.3164
 4445SOL     OW24967   3.181   2.716   4.225  0.0904  0.5524  0.1972
 4445SOL    HW124968   3.213   2.631   4.256 -1.6417 -0.4806 -0.8340
 4445SOL    HW224969   3.171   2.678   4.138  2.8281  0.9868 -0.3110
 4446SOL     OW24970   1.718   0.982   8.467  0.8389 -0.3991 -0.0189
 4446SOL    HW124971   1.696   0.904   8.517  1.3649 -0.2594  0.4262
 4446SOL    HW224972   1.658   0.971   8.392 -0.3243 -1.7467  1.1209
 4447SOL     OW24973   4.354   2.614  14.123 -0.5833  0.3544 -0.3684
 4447SOL    HW124974   4.290   2.684  14.118  1.7820  2.5435 -0.0385
 4447SOL    HW224975   4.313   2.564  14.052 -0.0984  1.0355 -1.1296
 4448SOL     OW24976   1.302   3.976   5.701 -0.3178  0.3153  0.2589
 4448SOL    HW124977   1.318   3.901   5.758 -1.3319 -0.8515 -0.9826
 4448SOL    HW224978   1.356   4.044   5.742 -1.2629  0.2830  1.5793
 4449SOL     OW24979   0.101   0.271   4.811 -0.3616 -0.1165  0.2225
 4449SOL    HW124980   0.022   0.295   4.859 -0.8030 -0.0249 -0.5438
 4449SOL    HW224981   0.172   0.306   4.865  0.3383 -0.5098 -0.4423
 4450SOL     OW24982   1.863   0.753  16.520  0.3154 -0.5238  0.1434
 4450SOL    HW124983   1.947   0.747  16.566  0.5267  1.4028  0.0312
 4450SOL    HW224984   1.875   0.690  16.450  0.4434 -2.1637  1.6510
 4451SOL     OW24985   4.701   4.227   6.009  0.0892 -0.8400  0.4550
 4451SOL    HW124986   4.657   4.265   5.933 -1.4680 -1.0661  1.2462
 4451SOL    HW224987   0.025   4.171   5.965  0.0472  0.1072 -0.8105
 4452SOL     OW24988   4.662   3.334   9.311  0.2860  0.4178 -0.7007
 4452SOL    HW124989   0.003   3.346   9.361  0.2176  0.6840 -0.6532
 4452SOL    HW224990   4.636   3.245   9.335 -0.0348  0.0795 -2.2674
 4453SOL     OW24991   2.099   3.535   5.638  0.2313  0.3809  0.4421
 4453SOL    HW124992   2.075   3.524   5.730  0.1436  2.7359  0.7150
 4453SOL    HW224993   2.098   3.445   5.606 -4.9399  1.0834 -1.4462
 4454SOL     OW24994   2.325   2.382   3.122  1.0508  0.6205  0.9051
 4454SOL    HW124995   2.328   2.456   3.061 -1.2429 -0.3654 -0.4142
 4454SOL    HW224996   2.340   2.303   3.070 -0.2818  0.9437  0.0165
 4455SOL     OW24997   2.620   2.965   5.632 -0.1296 -0.4736  0.0150
 4455SOL    HW124998   2.674   2.900   5.587  0.6865  1.4310 -1.6947
 4455SOL    HW224999   2.690   3.008   5.681  1.4924 -1.4418 -1.4821
 4456SOL     OW25000   1.228   2.770   8.427  0.1452 -0.0804 -0.4743
 4456SOL    HW125001   1.276   2.851   8.443  0.1753 -0.2985  0.5689
 4456SOL    HW225002   1.279   2.711   8.482  0.3461  1.0450  0.5517
 4457SOL     OW25003   3.141   1.414   5.143  0.1718 -0.4866  0.2637
 4457SOL    HW125004   3.188   1.399   5.226  0.9404  1.0436  0.1212
 4457SOL    HW225005   3.117   1.328   5.111  2.0134 -0.4017 -1.3241
 4458SOL     OW25006   0.355   0.190   4.178 -0.0174 -0.0071 -0.3820
 4458SOL    HW125007   0.383   0.216   4.265 -0.0907 -1.5893  0.1074
 4458SOL    HW225008   0.337   0.097   4.190  0.2211 -0.3319 -2.4936
 4459SOL     OW25009   2.927   1.652   5.340  0.0637 -0.0590 -0.0221
 4459SOL    HW125010   2.939   1.746   5.325 -0.6426  0.1380  0.6580
 4459SOL    HW225011   3.018   1.636   5.365  0.6077 -0.2196 -2.0925
 4460SOL     OW25012   0.770   0.880   4.740  0.3010 -0.9095 -0.6166
 4460SOL    HW125013   0.798   0.792   4.765 -0.8997 -0.6661  1.6017
 4460SOL    HW225014   0.705   0.874   4.671  2.1227 -2.3713 -2.1843
 4461SOL     OW25015   0.148   4.471   5.181  0.3108 -0.1160  0.2073
 4461SOL    HW125016   0.184   4.386   5.156 -0.6459 -0.2389 -0.7577
 4461SOL    HW225017   0.210   4.528   5.135 -0.9904  1.3127  0.2185
 4462SOL     OW25018   3.360   1.749   3.397  0.1641 -0.1398  0.5618
 4462SOL    HW125019   3.362   1.798   3.315 -0.3257 -0.7601  0.1747
 4462SOL    HW225020   3.453   1.732   3.409  0.4497  1.0967  0.0630
 4463SOL     OW25021   1.315   3.517   2.993 -0.0334 -0.1698  0.1348
 4463SOL    HW125022   1.296   3.555   3.078 -4.6828 -0.4847 -0.7809
 4463SOL    HW225023   1.318   3.424   3.016 -0.9392 -0.6277 -1.5949
 4464SOL     OW25024   3.644   4.557   7.697 -0.1041  0.4359 -0.3406
 4464SOL    HW125025   3.615   4.644   7.724  1.2212  1.3503 -1.8683
 4464SOL    HW225026   3.625   4.570   7.604  1.4211  0.1887 -0.6903
 4465SOL     OW25027   4.044   4.322   8.787 -0.4811  0.4152 -0.0016
 4465SOL    HW125028   3.958   4.364   8.791 -0.8697 -0.3962  0.1533
 4465SOL    HW225029   4.032   4.261   8.715  0.0721  0.7588 -0.3831
 4466SOL     OW25030   4.265   2.840   4.134  0.0856  0.0212 -0.1432
 4466SOL    HW125031   4.336   2.860   4.195 -0.9921  0.4850  0.9592
 4466SOL    HW225032   4.253   2.928   4.099  1.5643 -1.0359 -3.3163
 4467SOL     OW25033   2.146   2.721   7.152 -0.4054  0.4334  0.0735
 4467SOL    HW125034   2.169   2.702   7.243  2.3710  0.8922 -0.5281
 4467SOL    HW225035   2.076   2.782   7.175 -1.7254 -0.2467 -2.1401
 4468SOL     OW25036   1.053   3.339   3.493  0.5784  0.0422  0.6120
 4468SOL    HW125037   1.015   3.426   3.487  0.7879  0.2838  2.7356
 4468SOL    HW225038   0.971   3.302   3.525  2.0527 -1.7467  2.2927
 4469SOL     OW25039   3.475   3.343   3.892 -0.4700 -0.2767 -0.1385
 4469SOL    HW125040   3.416   3.283   3.938  0.7316  0.3304  2.2483
 4469SOL    HW225041   3.461   3.316   3.802  0.5795  0.0652 -0.4028
 4470SOL     OW25042   0.318   3.319  10.869 -0.1966  0.2312 -0.4507
 4470SOL    HW125043   0.225   3.299  10.859 -0.3074  0.2140  0.5702
 4470SOL    HW225044   0.336   3.286  10.957 -2.3069  0.2388 -0.0115
 4471SOL     OW25045   0.714   4.014   1.970  0.0798  0.9486 -0.0019
 4471SOL    HW125046   0.775   4.088   1.969 -1.6800  2.3901  1.0991
 4471SOL    HW225047   0.770   3.946   1.931 -1.1994  0.0528 -0.2900
 4472SOL     OW25048   4.203   2.592   4.049  0.4724  0.9361  0.1794
 4472SOL    HW125049   4.216   2.681   4.084  0.5293  0.9561  0.1087
 4472SOL    HW225050   4.275   2.535   4.076  0.9363  1.6938  0.5503
 4473SOL     OW25051   3.639   2.308  15.187  0.2373 -0.2864  0.0787
 4473SOL    HW125052   3.718   2.261  15.215 -0.8584  0.2269  3.9820
 4473SOL    HW225053   3.675   2.393  15.161 -3.2323  0.8545 -0.9850
 4474SOL     OW25054   3.976   4.581   4.131 -0.1528  0.5389  0.2742
 4474SOL    HW125055   3.986   4.604   4.223  1.0855  2.3522 -0.3257
 4474SOL    HW225056   4.042   4.512   4.138  1.1987  1.6211 -1.6258
 4475SOL     OW25057   3.492   1.502   9.827 -0.7273 -0.0918 -0.7212
 4475SOL    HW125058   3.512   1.584   9.783  0.5326 -0.6466 -1.1731
 4475SOL    HW225059   3.481   1.439   9.755 -0.5021 -0.6718 -0.2463
 4476SOL     OW25060   2.381   3.191   6.455  0.0601  0.3074  0.0488
 4476SOL    HW125061   2.322   3.266   6.464 -0.7463 -0.3357  0.1892
 4476SOL    HW225062   2.316   3.122   6.444 -0.8485  0.9914  1.0973
 4477SOL     OW25063   1.277   3.195   4.330  0.3030  0.3085 -0.0202
 4477SOL    HW125064   1.313   3.283   4.331  1.1794 -0.0576  0.7086
 4477SOL    HW225065   1.343   3.144   4.282 -0.2158  0.2364 -0.6524
 4478SOL     OW25066   0.017   0.563  12.174  0.3569  0.4564  0.4289
 4478SOL    HW125067   4.669   0.601  12.177  0.8998  1.7357  0.0823
 4478SOL    HW225068   0.006   0.495  12.241 -0.2231 -0.6520 -0.7915
 4479SOL     OW25069   3.451   2.922   6.136 -0.7270 -0.1954 -0.3040
 4479SOL    HW125070   3.444   2.881   6.050 -2.1379  1.0691 -0.7987
 4479SOL    HW225071   3.373   2.978   6.139  0.1383  1.0555 -0.7952
 4480SOL     OW25072   1.518   0.694   2.588 -0.6644 -0.0237  0.5415
 4480SOL    HW125073   1.502   0.778   2.545  0.9291  0.9938  1.9451
 4480SOL    HW225074   1.556   0.730   2.668  1.0518  1.2118 -0.8233
 4481SOL     OW25075   3.897   1.794   6.431 -0.1700  0.2583  0.0918
 4481SOL    HW125076   3.829   1.805   6.364  1.5066  3.3940 -1.0839
 4481SOL    HW225077   3.896   1.883   6.465 -0.3694  0.2871  0.0119
 4482SOL     OW25078   2.870   1.442   5.725 -0.0167  0.6254 -0.0861
 4482SOL    HW125079   2.884   1.410   5.814  2.9897  1.7532 -0.1672
 4482SOL    HW225080   2.798   1.384   5.701 -0.5216  0.7519  1.1340
 4483SOL     OW25081   0.801   3.472  10.846  0.4458 -0.0080  0.0185
 4483SOL    HW125082   0.746   3.404  10.884  0.2491 -0.5843 -1.2956
 4483SOL    HW225083   0.862   3.498  10.914  1.0160 -0.8826 -0.1652
 4484SOL     OW25084   4.399   4.188  11.552  0.4913 -0.1197 -0.0796
 4484SOL    HW125085   4.362   4.274  11.571 -1.7858 -1.0172 -0.3877
 4484SOL    HW225086   4.451   4.193  11.471  2.5576 -1.9132  1.1281
 4485SOL     OW25087   3.354   1.589   4.011 -0.2855  0.1279 -0.0684
 4485SOL    HW125088   3.397   1.533   3.947 -0.5642  0.0479 -0.1849
 4485SOL    HW225089   3.284   1.631   3.961  0.7575 -0.7666 -2.2432
 4486SOL     OW25090   2.839   1.992   0.380 -0.2947  0.0616 -0.3097
 4486SOL    HW125091   2.796   2.076   0.362  0.3710  0.5924  0.5966
 4486SOL    HW225092   2.764   1.934   0.368 -0.9984  0.7404  0.8007
 4487SOL     OW25093   0.497   0.164   5.314 -0.3756 -0.2548 -0.3842
 4487SOL    HW125094   0.431   0.231   5.297  0.5244  1.5276  3.1835
 4487SOL    HW225095   0.564   0.204   5.369 -0.4833 -0.1227 -0.3501
 4488SOL     OW25096   3.004   3.090   2.296 -0.3072 -0.4985 -0.1329
 4488SOL    HW125097   3.067   3.074   2.366  1.5908  2.2731 -1.2251
 4488SOL    HW225098   3.038   3.028   2.231 -0.6911 -2.1750  1.2450
 4489SOL     OW25099   3.907   3.361   2.108  0.1244  0.0239 -0.6140
 4489SOL    HW125100   3.823   3.333   2.144  1.7469  0.1341  3.2455
 4489SOL    HW225101   3.922   3.439   2.161  1.0077  0.5449 -1.6496
 4490SOL     OW25102   2.849   2.217   3.850  0.0830 -0.5561 -0.0843
 4490SOL    HW125103   2.846   2.303   3.891  1.2536 -1.1508  1.2801
 4490SOL    HW225104   2.900   2.239   3.772  1.3667 -1.2123  0.5637
 4491SOL     OW25105   1.724   0.777   8.171  0.0816 -0.4058  0.2084
 4491SOL    HW125106   1.810   0.737   8.164 -0.2310 -1.3782  1.9863
 4491SOL    HW225107   1.706   0.819   8.086 -1.7754 -0.0138  0.7948
 4492SOL     OW25108   0.717   2.380   8.488 -0.2519 -0.5194  0.3310
 4492SOL    HW125109   0.718   2.425   8.403 -1.8880  0.3868  0.7939
 4492SOL    HW225110   0.765   2.300   8.467  2.5450  1.4651 -0.8276
 4493SOL     OW25111   1.637   2.845  16.846  0.4938 -0.7434  0.5274
 4493SOL    HW125112   1.618   2.819  16.937  0.4451  1.9417  1.2692
 4493SOL    HW225113   1.556   2.888  16.822 -0.9846 -1.8281  3.4713
 4494SOL     OW25114   1.250   4.492   3.199 -0.3911 -0.0348 -0.4388
 4494SOL    HW125115   1.338   4.525   3.180 -1.0351  1.5971 -0.5253
 4494SOL    HW225116   1.254   4.503   3.294 -1.1544  0.9038 -0.5216
 4495SOL     OW25117   1.122   3.341   9.393  0.2783 -0.0796  0.5294
 4495SOL    HW125118   1.069   3.371   9.468 -0.8969  2.6018 -1.3829
 4495SOL    HW225119   1.067   3.365   9.319  0.1140  1.4204  1.1265
 4496SOL     OW25120   3.608   3.639  15.617  0.1021 -0.2084 -0.0103
 4496SOL    HW125121   3.627   3.672  15.529 -1.6715 -1.3577 -0.8172
 4496SOL    HW225122   3.693   3.629  15.659  1.4193  1.9442 -2.1754
 4497SOL     OW25123   2.436   2.964   9.910 -0.4237  0.6157 -0.2911
 4497SOL    HW125124   2.340   2.971   9.913 -0.2190  2.0702  2.3313
 4497SOL    HW225125   2.461   2.964   9.817  1.9130  3.6355  0.3516
 4498SOL     OW25126   3.861   0.446   2.001  0.6662  0.1065  0.6184
 4498SOL    HW125127   3.849   0.455   1.906  0.2280 -1.4006  0.5350
 4498SOL    HW225128   3.797   0.507   2.037 -0.8353 -0.2325 -1.4876
 4499SOL     OW25129   3.222   3.606   3.300  0.3859 -0.3292  0.1698
 4499SOL    HW125130   3.288   3.670   3.328  0.7764  0.7776 -3.2634
 4499SOL    HW225131   3.207   3.558   3.381  0.9362  0.8296  0.9638
 4500SOL     OW25132   3.765   2.115   7.400  0.5864  0.3823 -0.0864
 4500SOL    HW125133   3.730   2.173   7.332 -1.7819 -1.0227 -0.0690
 4500SOL    HW225134   3.716   2.035   7.382  1.6206 -0.6426  1.6515
 4501SOL     OW25135   0.983   0.371  17.621  0.3985 -0.3299  0.6643
 4501SOL    HW125136   0.976   0.434  17.692 -1.4249 -0.2668  0.4520
 4501SOL    HW225137   0.889   0.349  17.622  0.4550 -0.5157  2.4860
 4502SOL     OW25138   4.301   0.441   5.913  0.5430 -0.2428  0.2646
 4502SOL    HW125139   4.334   0.468   5.828  1.2221 -0.8216  0.3469
 4502SOL    HW225140   4.206   0.445   5.902  0.6818  0.4945 -0.5761
 4503SOL     OW25141   2.645   1.576   5.241 -0.0543 -0.0128 -0.0238
 4503SOL    HW125142   2.723   1.626   5.268 -0.5655  0.5570  0.3939
 4503SOL    HW225143   2.645   1.587   5.146  0.7334  0.9954  0.0971
 4504SOL     OW25144   4.671   4.632   4.759 -0.1421  0.3349  0.1358
 4504SOL    HW125145   0.027   4.622   4.760 -0.4302 -2.5259  0.7333
 4504SOL    HW225146   4.653   4.554   4.812  3.7930  0.8742  2.2923
 4505SOL     OW25147   0.845   3.884   1.297 -0.5148 -0.1388 -0.4855
 4505SOL    HW125148   0.904   3.901   1.371  2.4523 -2.0147 -2.4229
 4505SOL    HW225149   0.805   3.970   1.282 -1.2270 -0.1448  1.3734
 4506SOL     OW25150   1.121   2.949  10.289  0.3070 -0.8468 -0.2416
 4506SOL    HW125151   1.101   3.042  10.292 -2.7510 -1.3599 -3.2260
 4506SOL    HW225152   1.191   2.938  10.353 -1.0886 -0.1156  1.3749
 4507SOL     OW25153   2.113   1.380   3.280  0.1956  0.2259 -0.2421
 4507SOL    HW125154   2.020   1.371   3.297  0.2600 -0.4080 -0.2346
 4507SOL    HW225155   2.112   1.473   3.259  1.9195  0.1680 -0.6376
 4508SOL     OW25156   0.526   3.337  15.152  0.0432 -0.2119 -0.0507
 4508SOL    HW125157   0.576   3.338  15.070  0.4314  2.3851  0.2330
 4508SOL    HW225158   0.453   3.394  15.131 -0.9928 -1.2667  0.6785
 4509SOL     OW25159   1.143   2.353   8.753 -0.0203 -0.5376  0.1404
 4509SOL    HW125160   1.154   2.338   8.659 -1.2807 -0.4251 -0.0379
 4509SOL    HW225161   1.198   2.281   8.783 -0.9632 -0.4354  2.0769
 4510SOL     OW25162   1.611   3.296   3.415 -0.3056  0.0517  0.0310
 4510SOL    HW125163   1.519   3.320   3.429 -0.4012 -0.7823  0.8247
 4510SOL    HW225164   1.620   3.282   3.321  3.2275  1.2002  0.1990
 4511SOL     OW25165   0.702   1.535   0.248  0.5737  0.2779  0.9169
 4511SOL    HW125166   0.608   1.536   0.267  0.2884  0.6098 -0.5306
 4511SOL    HW225167   0.709   1.606   0.185 -1.1851 -1.0934 -0.8354
 4512SOL     OW25168   4.363   3.308   0.161 -0.4680  0.4730  0.0940
 4512SOL    HW125169   4.308   3.245   0.114  2.3549 -0.7212 -1.5798
 4512SOL    HW225170   4.412   3.250   0.217  0.7399 -0.9143 -2.4039
 4513SOL     OW25171   2.675   1.230   5.714  0.1853 -0.3039  0.1666
 4513SOL    HW125172   2.667   1.174   5.792  3.9170  0.7332  1.2577
 4513SOL    HW225173   2.582   1.242   5.694 -0.0788 -2.8172 -0.1880
 4514SOL     OW25174   4.542   0.551   7.018  0.0847  0.3686 -0.1804
 4514SOL    HW125175   4.554   0.575   6.926 -1.0628  0.3965 -0.3317
 4514SOL    HW225176   4.567   0.459   7.017  1.2539  0.7014 -0.8963
 4515SOL     OW25177   0.655   2.073   9.435  0.0267 -0.3424  0.2463
 4515SOL    HW125178   0.567   2.047   9.407  0.2459 -1.2386  0.4025
 4515SOL    HW225179   0.658   2.033   9.522  2.1855  1.3412  0.9403
 4516SOL     OW25180   2.701   2.368   5.399  0.5402  0.3114  0.2891
 4516SOL    HW125181   2.728   2.296   5.343  1.4102  0.4180  0.5746
 4516SOL    HW225182   2.754   2.440   5.363  1.4768 -1.2589 -1.4471
 4517SOL     OW25183   1.426   4.514  12.754 -0.5960  0.3769 -0.1683
 4517SOL    HW125184   1.402   4.549  12.668 -0.9954  1.7968  0.5138
 4517SOL    HW225185   1.490   4.583  12.775  0.8453 -1.2230  0.6624
 4518SOL     OW25186   0.393   1.908   3.449 -0.1473 -0.4083  0.2171
 4518SOL    HW125187   0.392   1.850   3.525  2.0618 -0.3306  0.3088
 4518SOL    HW225188   0.333   1.975   3.482 -0.2231 -1.2005  1.6478
 4519SOL     OW25189   3.162   2.748   9.105  0.9135  0.2164 -0.4593
 4519SOL    HW125190   3.193   2.802   9.177  0.2665 -1.4252  1.0507
 4519SOL    HW225191   3.068   2.759   9.121  0.5439 -1.5715 -1.3492
 4520SOL     OW25192   0.446   0.243   4.742  0.1704 -0.1201  0.0272
 4520SOL    HW125193   0.464   0.150   4.755 -0.5943 -0.3519 -0.5339
 4520SOL    HW225194   0.394   0.258   4.820  0.4044  3.0240 -0.4477
 4521SOL     OW25195   2.739   4.549   1.401  0.0598 -0.0369  0.7733
 4521SOL    HW125196   2.792   4.470   1.415  0.8279  0.5585  1.2007
 4521SOL    HW225197   2.741   4.581   1.491 -0.7437 -0.8370  1.0796
 4522SOL     OW25198   0.371   0.676   8.302  0.5021  0.3381 -0.6475
 4522SOL    HW125199   0.324   0.722   8.371 -0.7483  0.2603 -1.4331
 4522SOL    HW225200   0.400   0.756   8.258  0.0598  1.8856  1.9003
 4523SOL     OW25201   0.466   4.608   3.538  0.1088  0.1615  0.1639
 4523SOL    HW125202   0.475   4.539   3.604  1.2393  0.2536  0.1155
 4523SOL    HW225203   0.544   4.596   3.483  0.3361 -0.3370  0.5875
 4524SOL     OW25204   0.644   3.198  12.129 -0.0760  0.2797 -0.7110
 4524SOL    HW125205   0.567   3.156  12.091 -0.0880 -0.3763  0.0325
 4524SOL    HW225206   0.649   3.280  12.079 -2.1383  0.0891 -1.2383
 4525SOL     OW25207   3.729   3.411   5.733  0.0749 -0.0490  0.7453
 4525SOL    HW125208   3.682   3.489   5.705 -0.8520 -1.2197 -1.0065
 4525SOL    HW225209   3.764   3.449   5.813  0.1427 -0.1008  0.7401
 4526SOL     OW25210   0.704   1.953  12.809  0.4244 -0.0219  0.9173
 4526SOL    HW125211   0.666   2.025  12.859 -0.7697  1.3395 -1.9203
 4526SOL    HW225212   0.788   1.947  12.854 -0.1101 -1.6376  1.7066
 4527SOL     OW25213   2.838   0.551   8.031 -0.3145  0.3993  0.5942
 4527SOL    HW125214   2.926   0.589   8.041 -0.1623  0.2453 -0.1606
 4527SOL    HW225215   2.806   0.580   7.946  1.3554  1.1483  0.2065
 4528SOL     OW25216   0.852   4.477   2.364  0.6845  0.3727 -0.0401
 4528SOL    HW125217   0.801   4.403   2.396  1.3789  0.1625  0.5855
 4528SOL    HW225218   0.921   4.483   2.430  0.3829 -0.0097  0.3067
 4529SOL     OW25219   0.602   3.281  10.889 -0.2084 -0.4027  0.1238
 4529SOL    HW125220   0.627   3.249  10.976  0.5693 -0.3664 -0.0898
 4529SOL    HW225221   0.507   3.292  10.894 -0.0101  1.5558 -0.4265
 4530SOL     OW25222   2.837   0.533  15.080 -0.1004  0.0442  0.4751
 4530SOL    HW125223   2.929   0.558  15.091 -0.5994  0.9811  2.4786
 4530SOL    HW225224   2.836   0.496  14.992 -0.5456 -1.6241  1.1792
 4531SOL     OW25225   1.204   2.336  14.775 -1.0870  0.6481  0.0385
 4531SOL    HW125226   1.252   2.262  14.813  1.2763  1.5062 -1.2162
 4531SOL    HW225227   1.246   2.408  14.822 -0.5555  0.0229  0.5339
 4532SOL     OW25228   2.874   3.743   4.575 -0.5955  0.2311 -0.0552
 4532SOL    HW125229   2.810   3.723   4.506 -0.4774  1.5840 -0.5507
 4532SOL    HW225230   2.820   3.807   4.621 -2.6345  0.0268 -2.1274
 4533SOL     OW25231   0.622   2.765   6.182  0.5276 -0.0943 -0.9814
 4533SOL    HW125232   0.629   2.696   6.248  1.1645 -0.8806 -1.8562
 4533SOL    HW225233   0.537   2.748   6.141  0.4037 -2.1106  0.1134
 4534SOL     OW25234   4.709   1.263   5.978  0.0648 -0.3823  0.3021
 4534SOL    HW125235   0.033   1.306   5.921 -0.9212 -0.4037 -0.8158
 4534SOL    HW225236   4.731   1.302   6.063  0.5381 -0.2543  0.1203
 4535SOL     OW25237   3.304   3.141   1.329  0.0191 -0.0774 -0.4245
 4535SOL    HW125238   3.321   3.132   1.235 -2.3906 -1.2923 -0.7318
 4535SOL    HW225239   3.301   3.054   1.369 -0.5524  0.9958  1.8757
 4536SOL     OW25240   2.533   2.129  16.632 -0.5496 -0.4131 -0.7071
 4536SOL    HW125241   2.589   2.159  16.560 -0.0898 -1.1471 -0.6631
 4536SOL    HW225242   2.455   2.184  16.628 -0.7272 -0.4864  1.9244
 4537SOL     OW25243   3.382   0.346   1.617  0.2978  0.7192 -0.1613
 4537SOL    HW125244   3.333   0.284   1.670 -0.7192  2.9770  1.5396
 4537SOL    HW225245   3.405   0.415   1.680 -0.2727  1.7514 -1.0713
 4538SOL     OW25246   0.293   0.037   3.692 -0.1035  0.5484  0.4290
 4538SOL    HW125247   0.329   4.690   3.674  1.0295  1.0094  0.4991
 4538SOL    HW225248   0.316   0.085   3.613 -0.0221 -1.5220 -0.8038
 4539SOL     OW25249   2.968   1.961   5.577 -0.1791  0.1724 -0.5998
 4539SOL    HW125250   2.972   1.866   5.581  0.2745  0.1904 -0.6477
 4539SOL    HW225251   2.920   1.973   5.659  2.1192 -2.7650  1.1779
 4540SOL     OW25252   3.881   4.094  11.984  0.1800 -0.5103  0.0693
 4540SOL    HW125253   3.794   4.091  11.945 -0.7237 -0.8845  2.1554
 4540SOL    HW225254   3.907   4.005  11.958 -0.4099 -0.6371 -0.0812
 4541SOL     OW25255   0.429   4.286   7.421 -0.3514  0.2563 -0.5024
 4541SOL    HW125256   0.380   4.364   7.396  0.6093  0.4025 -1.9287
 4541SOL    HW225257   0.518   4.321   7.423 -0.5390  0.7276 -0.4260
 4542SOL     OW25258   1.710   1.102   4.940 -0.0040  0.1476  0.2421
 4542SOL    HW125259   1.805   1.104   4.929  0.4112 -1.3116  3.8866
 4542SOL    HW225260   1.679   1.131   4.854  0.0065  0.4511  0.3402
 4543SOL     OW25261   3.618   3.272   7.527  0.1477 -0.0151 -0.4433
 4543SOL    HW125262   3.691   3.296   7.470  0.6697 -0.4248  0.0577
 4543SOL    HW225263   3.650   3.200   7.581 -0.2347  0.0073 -0.1853
 4544SOL     OW25264   0.109   1.550   4.203  0.0270  0.0441 -0.2591
 4544SOL    HW125265   0.193   1.578   4.241 -0.9807 -0.3316  2.2329
 4544SOL    HW225266   0.135   1.498   4.126  0.3780 -0.2305  0.0440
 4545SOL     OW25267   3.319   1.245   7.411 -0.1122 -0.2426 -0.2078
 4545SOL    HW125268   3.237   1.294   7.418  0.4165  0.6588 -0.3953
 4545SOL    HW225269   3.381   1.304   7.369  0.7758 -0.3173  1.0273
 4546SOL     OW25270   2.063   3.604   4.102 -0.0026  0.4095  0.0623
 4546SOL    HW125271   2.025   3.536   4.157 -1.2340  1.8269  0.9766
 4546SOL    HW225272   2.008   3.681   4.115  1.1948  1.4434 -1.0396
 4547SOL     OW25273   2.418   3.717   2.792 -0.3609  0.8662  0.2381
 4547SOL    HW125274   2.363   3.658   2.843 -1.1669  1.1350 -0.3257
 4547SOL    HW225275   2.414   3.792   2.852 -0.5411  0.2664  0.9737
 4548SOL     OW25276   4.367   0.971   3.504 -0.3153  0.4386 -0.4018
 4548SOL    HW125277   4.327   0.950   3.588  0.2881  1.0450  0.0322
 4548SOL    HW225278   4.333   0.896   3.454  0.3475  0.5913 -1.0838
 4549SOL     OW25279   3.169   3.163  11.238  0.1441 -0.3453 -0.5022
 4549SOL    HW125280   3.082   3.156  11.201 -1.0604  1.7469  1.9501
 4549SOL    HW225281   3.212   3.098  11.182  0.7808 -0.0198 -0.3907
 4550SOL     OW25282   4.337   4.122   6.487  0.2728  0.1831  0.1570
 4550SOL    HW125283   4.382   4.201   6.459  0.5444  0.0831  0.3073
 4550SOL    HW225284   4.343   4.135   6.582  0.9118 -2.4883  0.4997
 4551SOL     OW25285   0.017   0.180   2.778  0.5031 -0.1099  0.5563
 4551SOL    HW125286   0.038   0.089   2.796  0.9162 -0.6612 -2.7547
 4551SOL    HW225287   4.663   0.165   2.789  0.1684  0.3881 -1.6520
 4552SOL     OW25288   0.017   0.656  15.465  0.1457  0.5521 -0.0161
 4552SOL    HW125289   0.046   0.614  15.546  0.6685 -2.6085 -1.8753
 4552SOL    HW225290   4.691   0.716  15.501 -0.5473 -0.3939  0.3123
 4553SOL     OW25291   2.159   0.819   2.945  0.6733  0.0333 -0.0856
 4553SOL    HW125292   2.089   0.809   3.009  0.2969 -1.0825 -0.6728
 4553SOL    HW225293   2.215   0.742   2.958  0.4825  0.0732  0.9764
 4554SOL     OW25294   4.264   2.726   6.714  0.3487  0.0187  0.1226
 4554SOL    HW125295   4.217   2.657   6.760  0.6253  1.5607  2.6966
 4554SOL    HW225296   4.349   2.683   6.705  0.8682  0.5007  2.5805
 4555SOL     OW25297   2.268   0.588   0.963 -0.1046 -0.1617  0.8020
 4555SOL    HW125298   2.173   0.576   0.962 -0.0025 -1.0175  1.3823
 4555SOL    HW225299   2.293   0.587   0.870  1.9282 -0.4163  1.3436
 4556SOL     OW25300   3.952   0.264   1.581 -0.3728  0.1227  0.3619
 4556SOL    HW125301   3.988   0.278   1.494 -0.2977  2.1695  0.7339
 4556SOL    HW225302   3.906   0.181   1.567 -2.9515  1.4839  0.7533
 4557SOL     OW25303   0.317   3.782   6.003 -0.4654 -0.3645  0.1437
 4557SOL    HW125304   0.279   3.758   5.918  0.4244  0.2215 -0.4273
 4557SOL    HW225305   0.367   3.703   6.020  0.4794 -0.1777 -1.6801
 4558SOL     OW25306   4.526   1.786   6.907  0.4920 -0.4890 -0.4425
 4558SOL    HW125307   4.564   1.856   6.854  1.4070 -1.1831 -0.6854
 4558SOL    HW225308   4.600   1.732   6.932  0.0268 -0.0761  1.8849
 4559SOL     OW25309   1.885   4.084   5.885 -0.0690  0.1254 -0.0647
 4559SOL    HW125310   1.857   3.998   5.919 -3.0342  1.5674  1.1307
 4559SOL    HW225311   1.907   4.056   5.796  0.6266  0.8094 -0.1066
 4560SOL     OW25312   2.196   3.515   6.965 -0.1119 -0.2858  0.1439
 4560SOL    HW125313   2.162   3.550   7.048  1.3760 -1.3544  1.2202
 4560SOL    HW225314   2.144   3.435   6.958  0.2378 -0.4799 -0.2555
 4561SOL     OW25315   3.549   4.697   1.300 -0.4622 -0.1309 -0.6367
 4561SOL    HW125316   3.499   4.716   1.379 -0.7144  0.0223 -0.8318
 4561SOL    HW225317   3.531   4.605   1.280  1.7645 -0.7203  0.0193
 4562SOL     OW25318   1.166   4.290  10.663  0.0036  0.2306  0.7263
 4562SOL    HW125319   1.172   4.259  10.572 -1.4481  0.2221  0.6376
 4562SOL    HW225320   1.113   4.217  10.694 -0.3439 -0.0092 -0.4278
 4563SOL     OW25321   4.095   3.197  15.089  0.1003  0.1967 -0.1665
 4563SOL    HW125322   4.150   3.132  15.045  0.9226  0.3782  0.5860
 4563SOL    HW225323   4.159   3.268  15.082 -0.4313  0.7859  1.0563
 4564SOL     OW25324   0.655   2.766   4.187 -0.1334  0.3706  0.5218
 4564SOL    HW125325   0.659   2.861   4.178  1.6603  0.0565 -1.9638
 4564SOL    HW225326   0.584   2.735   4.131  0.7834  0.5544 -0.7293
 4565SOL     OW25327   0.522   1.328   6.913 -0.2081 -0.0412  0.0260
 4565SOL    HW125328   0.487   1.285   6.835 -3.1105  0.9573  0.7836
 4565SOL    HW225329   0.526   1.252   6.972 -0.8426 -0.6198 -0.6773
 4566SOL     OW25330   0.899   2.462  17.337 -0.2139 -0.1558  0.2311
 4566SOL    HW125331   0.860   2.549  17.337 -0.0105 -0.0642  1.8869
 4566SOL    HW225332   0.985   2.493  17.363 -0.9476  2.0288  0.0756
 4567SOL     OW25333   1.762   2.967   3.964  0.0461  0.2520 -0.6005
 4567SOL    HW125334   1.841   3.019   3.949  0.8685 -1.8009 -3.3191
 4567SOL    HW225335   1.694   3.028   3.934  1.0685  0.9269 -1.5555
 4568SOL     OW25336   0.531   2.783   9.181 -0.2851  0.1835 -0.4449
 4568SOL    HW125337   0.438   2.805   9.171 -0.6458 -0.7963  0.6560
 4568SOL    HW225338   0.565   2.837   9.252  1.9329 -0.7944 -0.7612
 4569SOL     OW25339   4.391   3.806   6.709 -0.5237 -0.1368  0.7784
 4569SOL    HW125340   4.333   3.764   6.772  1.6295  0.7683  3.3345
 4569SOL    HW225341   4.459   3.844   6.765 -0.9381  0.5337  0.8152
 4570SOL     OW25342   1.765   4.435  10.934 -0.1459  0.1993  0.1820
 4570SOL    HW125343   1.806   4.487  11.003  1.7946 -3.0024  1.4270
 4570SOL    HW225344   1.677   4.423  10.969 -0.8171  0.3347 -1.4405
 4571SOL     OW25345   0.903   0.859   2.027 -0.0218  0.4004 -0.1352
 4571SOL    HW125346   0.901   0.869   2.122  1.0800 -1.1405  0.0592
 4571SOL    HW225347   0.809   0.865   2.009  0.0079 -0.7192 -0.7008
 4572SOL     OW25348   3.119   1.244   7.747 -0.4316 -0.5834  0.3632
 4572SOL    HW125349   3.044   1.230   7.805 -0.5381  2.1156  0.9142
 4572SOL    HW225350   3.127   1.162   7.699 -2.3806 -0.0507 -0.8734
 4573SOL     OW25351   1.724   0.018  10.479 -0.1274 -0.1427 -0.0515
 4573SOL    HW125352   1.667   4.694  10.521  0.3983 -0.2302  0.5272
 4573SOL    HW225353   1.678   0.102  10.483  2.4690  1.0932  3.9081
 4574SOL     OW25354   4.449   1.476   6.811  0.3525  0.3285  0.5421
 4574SOL    HW125355   4.357   1.503   6.815 -0.0427 -0.8202 -0.6819
 4574SOL    HW225356   4.450   1.446   6.902  1.1845 -0.7854  0.1704
 4575SOL     OW25357   0.221   2.632   8.206  0.1793 -0.4025  0.4482
 4575SOL    HW125358   0.307   2.594   8.223 -0.5230 -2.4368 -0.4555
 4575SOL    HW225359   0.234   2.716   8.249 -0.5511 -0.1146  0.1104
 4576SOL     OW25360   1.794   3.767  16.267  0.8075  0.0831  0.2679
 4576SOL    HW125361   1.879   3.738  16.235  0.9656  1.1037 -0.2392
 4576SOL    HW225362   1.756   3.679  16.266  0.9004  0.0414  0.4430
 4577SOL     OW25363   4.307   3.806   1.050  0.2084 -0.2048  0.4982
 4577SOL    HW125364   4.285   3.781   1.140 -1.9861 -0.0997 -0.0096
 4577SOL    HW225365   4.394   3.766   1.050  0.3862  0.1963  1.4598
 4578SOL     OW25366   1.158   3.772   6.814  0.3893 -0.3538  0.2551
 4578SOL    HW125367   1.135   3.865   6.813  0.7629 -0.2839 -2.7245
 4578SOL    HW225368   1.075   3.740   6.848  0.1350 -0.1911 -0.2089
 4579SOL     OW25369   3.853   0.672   4.406  0.3091 -0.1721 -0.2476
 4579SOL    HW125370   3.927   0.699   4.351 -1.7240  1.1494 -2.3562
 4579SOL    HW225371   3.773   0.688   4.354 -0.7975  0.6657  1.7125
 4580SOL     OW25372   1.663   1.965   7.172 -0.1071  0.3453  0.0951
 4580SOL    HW125373   1.606   2.004   7.238 -0.2486 -3.3073  2.1731
 4580SOL    HW225374   1.628   2.006   7.093 -2.6949  0.0994  1.1142
 4581SOL     OW25375   0.250   0.514  16.652  0.1871 -0.4368  0.0932
 4581SOL    HW125376   0.209   0.456  16.588  0.5873 -1.3072  0.6273
 4581SOL    HW225377   0.290   0.459  16.719 -0.1497  1.1293  1.5957
 4582SOL     OW25378   0.290   3.200  16.021  0.2403  0.0972  0.1799
 4582SOL    HW125379   0.195   3.192  16.013  0.3212 -1.3589  0.7003
 4582SOL    HW225380   0.323   3.174  15.935  0.9574  0.3433  0.3810
 4583SOL     OW25381   1.864   2.845   9.084  0.3392 -0.1096  1.2120
 4583SOL    HW125382   1.790   2.890   9.125  0.2517  0.1008  0.8233
 4583SOL    HW225383   1.821   2.783   9.026  0.7633 -0.5394  1.3550
 4584SOL     OW25384   4.434   1.049   9.389 -0.4244 -0.6638  0.5873
 4584SOL    HW125385   4.472   0.980   9.443  0.1955 -2.6964 -2.4779
 4584SOL    HW225386   4.388   1.102   9.454  0.2831  0.7434 -0.0374
 4585SOL     OW25387   1.238   0.678   2.481  0.3838  0.1483  0.3779
 4585SOL    HW125388   1.278   0.671   2.394 -1.8810 -0.2885 -0.6304
 4585SOL    HW225389   1.322   0.668   2.527  0.3045 -2.0268  0.0617
 4586SOL     OW25390   0.931   3.464   8.686  0.1470  0.7297  1.0849
 4586SOL    HW125391   0.926   3.476   8.591  0.7236  0.5253  1.0246
 4586SOL    HW225392   0.843   3.487   8.716 -0.1265  0.3855  0.5514
 4587SOL     OW25393   4.494   2.653   8.587  0.2474 -0.4946  0.5424
 4587SOL    HW125394   4.419   2.706   8.561 -0.7878 -2.2549 -0.0051
 4587SOL    HW225395   4.565   2.711   8.617 -0.2365  0.2294  0.2985
 4588SOL     OW25396   0.910   3.040   3.064  0.2023  0.5224 -0.3150
 4588SOL    HW125397   0.907   2.983   2.988 -1.7908  0.9654 -0.5640
 4588SOL    HW225398   0.931   3.128   3.031 -0.6375  0.0954 -1.9665
 4589SOL     OW25399   0.280   4.235   5.098 -0.2689  0.0480 -0.2572
 4589SOL    HW125400   0.373   4.214   5.111  0.2848  1.7810 -1.3758
 4589SOL    HW225401   0.269   4.209   5.006  0.1038  0.8691 -0.5361
 4590SOL     OW25402   3.866   0.762   2.838  0.8087 -0.3519 -0.3399
 4590SOL    HW125403   3.845   0.845   2.882  0.8179 -1.5301  1.9236
 4590SOL    HW225404   3.848   0.704   2.913 -0.6399  0.1903 -0.2684
 4591SOL     OW25405   4.422   4.072   1.767  0.3994 -0.0262  0.3814
 4591SOL    HW125406   4.429   4.095   1.674  3.0364  1.0054  0.8320
 4591SOL    HW225407   4.338   4.109   1.792  1.0626  1.4705  0.3754
 4592SOL     OW25408   4.048   3.201   7.007  0.8420  0.1262  0.1769
 4592SOL    HW125409   4.105   3.161   7.073  1.4540 -1.8745 -1.5615
 4592SOL    HW225410   4.077   3.147   6.934 -0.2522  0.7497 -0.7160
 4593SOL     OW25411   2.040   3.538   0.399  0.1247  0.2543 -0.4072
 4593SOL    HW125412   2.071   3.487   0.474  1.8042 -0.5770 -1.6880
 4593SOL    HW225413   1.985   3.472   0.356 -0.1307  0.8248 -0.9532
 4594SOL     OW25414   0.041   0.116   3.177 -0.1575 -0.7985 -0.2054
 4594SOL    HW125415   0.056   0.152   3.264  0.2443 -1.1645 -0.1237
 4594SOL    HW225416   4.691   0.086   3.188 -0.6627  0.3956 -1.1176
 4595SOL     OW25417   2.743   3.480   8.870 -0.6500 -0.5861 -0.2879
 4595SOL    HW125418   2.787   3.417   8.813 -1.1219  1.3856 -2.8203
 4595SOL    HW225419   2.701   3.535   8.804 -0.0935  0.8378  0.5492
 4596SOL     OW25420   3.952   3.185  14.683 -0.0468 -0.3233 -0.2619
 4596SOL    HW125421   4.021   3.239  14.721 -2.1287  0.0841  2.9936
 4596SOL    HW225422   3.990   3.165  14.598 -1.5663  2.2451 -1.5427
 4597SOL     OW25423   3.948   1.680   4.983  0.0129 -0.2412  0.2520
 4597SOL    HW125424   3.933   1.749   4.919  1.1133  0.5129  0.8059
 4597SOL    HW225425   3.970   1.721   5.067 -1.0141 -0.3754  0.5785
 4598SOL     OW25426   0.073   3.951   5.664  0.6480 -0.6816 -0.6322
 4598SOL    HW125427   0.092   4.031   5.713 -1.0703 -1.2757  1.0161
 4598SOL    HW225428   0.162   3.919   5.653 -0.0767 -1.7522 -3.4323
 4599SOL     OW25429   2.242   4.005   7.596  0.3076 -0.5692 -0.1369
 4599SOL    HW125430   2.258   4.027   7.504 -0.5167 -0.3898 -0.2395
 4599SOL    HW225431   2.309   4.061   7.634  0.5397 -3.0934  3.1107
 4600SOL     OW25432   4.044   2.871   3.885 -0.0815 -0.3166 -0.3712
 4600SOL    HW125433   4.001   2.786   3.891  0.6980 -0.8026 -1.8052
 4600SOL    HW225434   4.068   2.884   3.977 -1.0127 -0.0615 -0.1586
 4601SOL     OW25435   3.789   1.918  14.990 -0.2764 -0.4503  0.3885
 4601SOL    HW125436   3.739   1.926  15.072  1.2416  0.4670  1.2280
 4601SOL    HW225437   3.829   2.005  14.986 -2.1401  0.3131 -1.4722
 4602SOL     OW25438   0.662   3.382   6.309  0.3204  0.1314  0.0618
 4602SOL    HW125439   0.634   3.417   6.394 -1.4798  2.3967 -1.4701
 4602SOL    HW225440   0.613   3.300   6.305  0.3629  0.2367 -2.3857
 4603SOL     OW25441   2.221   2.870   5.807 -0.1803 -0.7810  0.1949
 4603SOL    HW125442   2.147   2.850   5.750  0.7881  0.2515 -1.4176
 4603SOL    HW225443   2.295   2.827   5.764 -0.8650 -0.9543 -0.7850
 4604SOL     OW25444   0.600   2.480   4.775  0.1121  0.2120  0.4030
 4604SOL    HW125445   0.644   2.493   4.859 -0.2333  0.3877  0.5602
 4604SOL    HW225446   0.614   2.563   4.730  1.4906 -0.8368 -1.1211
 4605SOL     OW25447   1.567   2.085   8.146 -0.1358 -0.0533 -0.3591
 4605SOL    HW125448   1.611   2.127   8.072  2.3922 -0.1550  1.0810
 4605SOL    HW225449   1.632   2.018   8.168 -1.5689 -1.1055  0.6750
 4606SOL     OW25450   2.397   1.705   4.532 -0.0589  0.5838  0.2151
 4606SOL    HW125451   2.433   1.617   4.541  1.5871  1.0891 -1.5387
 4606SOL    HW225452   2.402   1.715   4.437  2.5541  3.1600  0.6053
 4607SOL     OW25453   2.318   1.960   6.963  0.4127  0.6670  0.0938
 4607SOL    HW125454   2.321   2.053   6.941  1.0378  1.4219  3.3426
 4607SOL    HW225455   2.344   1.921   6.880 -3.1881 -2.8486  0.6565
 4608SOL     OW25456   1.726   1.064   1.705 -0.1391  0.6726  0.2792
 4608SOL    HW125457   1.754   1.029   1.621 -1.6020  1.1584 -0.4157
 4608SOL    HW225458   1.660   1.001   1.733 -0.0137  1.2051  1.8271
 4609SOL     OW25459   1.764   0.044   6.919 -0.1297  0.1634  0.2495
 4609SOL    HW125460   1.783   4.693   6.900  1.5988  0.3758  0.9690
 4609SOL    HW225461   1.771   0.070   6.827  1.4403  1.2567  0.6709
 4610SOL     OW25462   2.840   0.838   6.144  0.2329 -0.1974  0.2103
 4610SOL    HW125463   2.802   0.864   6.228 -3.4791 -1.8862 -0.9130
 4610SOL    HW225464   2.777   0.778   6.102  1.2426  0.2562 -1.9474
 4611SOL     OW25465   2.556   4.006   6.482 -0.9305  0.3137 -0.4206
 4611SOL    HW125466   2.531   3.960   6.563  0.5760 -1.5079 -0.9857
 4611SOL    HW225467   2.472   4.031   6.445 -0.5615 -0.4398 -1.7677
 4612SOL     OW25468   2.886   0.972  11.414 -0.7635 -0.6935 -0.0034
 4612SOL    HW125469   2.831   1.046  11.387  0.2183 -0.2925 -0.9218
 4612SOL    HW225470   2.886   0.981  11.509 -1.5204 -0.6811 -0.0052
 4613SOL     OW25471   1.082   4.456   0.818  0.3174 -0.0297 -0.6261
 4613SOL    HW125472   1.052   4.541   0.850 -0.0400  0.4732 -2.2953
 4613SOL    HW225473   1.042   4.442   0.732 -2.2570  1.4048  0.3690
 4614SOL     OW25474   1.352   0.785  13.497  0.2462 -0.1744 -0.0424
 4614SOL    HW125475   1.424   0.812  13.553 -1.1747  0.7907  1.3050
 4614SOL    HW225476   1.392   0.731  13.429  3.5699  1.7975  0.3418
 4615SOL     OW25477   3.603   0.085   7.698 -0.0481 -0.2389  0.0955
 4615SOL    HW125478   3.616   0.158   7.759  1.6857 -0.2847 -0.2318
 4615SOL    HW225479   3.513   0.104   7.672  0.2871 -0.6561 -1.3612
 4616SOL     OW25480   1.348   0.842   6.048  0.1397 -0.2707  0.2978
 4616SOL    HW125481   1.364   0.748   6.056 -0.7032 -0.4724 -0.3235
 4616SOL    HW225482   1.260   0.854   6.082 -0.9301  1.0889 -2.8957
 4617SOL     OW25483   3.621   4.463   7.127  0.1573 -0.5087 -0.3030
 4617SOL    HW125484   3.710   4.496   7.115  1.6276 -4.7339 -1.0294
 4617SOL    HW225485   3.596   4.454   7.035  0.4576  1.1719 -0.5506
 4618SOL     OW25486   0.745   4.558   0.024  0.0723  0.0074  0.2120
 4618SOL    HW125487   0.747   4.553   0.119 -0.8108  0.3134  0.2485
 4618SOL    HW225488   0.668   4.506  17.755  0.2464  0.6802 -1.6559
 4619SOL     OW25489   1.675   3.483   9.386  0.2435 -0.1097 -0.6236
 4619SOL    HW125490   1.595   3.520   9.349  0.5743 -0.8671 -2.1180
 4619SOL    HW225491   1.708   3.444   9.304  1.4040  1.2951 -0.8193
 4620SOL     OW25492   1.323   3.238   6.949 -0.2382  0.0976 -0.1166
 4620SOL    HW125493   1.292   3.260   7.037  0.3601 -3.4833  0.9699
 4620SOL    HW225494   1.274   3.303   6.898 -1.0615  0.5622  1.2838
 4621SOL     OW25495   2.929   4.558   1.060 -0.0600  0.7053  0.1704
 4621SOL    HW125496   3.001   4.512   1.017  0.0444  1.2811 -0.2706
 4621SOL    HW225497   2.869   4.485   1.074  0.1243  0.6400  0.6085
 4622SOL     OW25498   3.061   0.089  17.377 -0.2468 -0.0601  0.1371
 4622SOL    HW125499   3.141   0.052  17.340  0.7201  1.3939  0.7955
 4622SOL    HW225500   2.995   0.024  17.353 -0.6465  1.5973 -3.2283
 4623SOL     OW25501   2.612   2.960   7.651 -0.0785  0.1444  0.0635
 4623SOL    HW125502   2.552   2.983   7.722 -0.6439 -1.3590  0.0576
 4623SOL    HW225503   2.635   3.049   7.624  1.3502  0.1726  1.3954
 4624SOL     OW25504   0.134   4.680   9.466  0.0764  0.1051 -0.0206
 4624SOL    HW125505   0.215   4.636   9.441  0.3252  0.5485  0.0173
 4624SOL    HW225506   0.107   4.710   9.379 -0.8783 -1.4262 -0.2508
 4625SOL     OW25507   2.274   4.623  10.592  0.0605  0.1755 -0.1966
 4625SOL    HW125508   2.347   4.613  10.531  1.2466 -0.6560  1.3623
 4625SOL    HW225509   2.252   4.713  10.568 -0.1061  0.1119 -0.2836
 4626SOL     OW25510   2.115   4.152   5.295 -0.2688  0.4024  0.1244
 4626SOL    HW125511   2.198   4.142   5.248 -0.5574  0.3303 -0.3744
 4626SOL    HW225512   2.093   4.236   5.253 -4.2575 -0.5398  0.2537
 4627SOL     OW25513   0.478   3.083   6.211  0.0414 -0.9285 -0.3084
 4627SOL    HW125514   0.490   3.146   6.140  0.5150  0.2898  0.8508
 4627SOL    HW225515   0.413   3.023   6.174 -1.0526 -0.4843  0.9017
 4628SOL     OW25516   0.123   4.406   8.668  0.4036 -0.0701  0.2844
 4628SOL    HW125517   0.028   4.401   8.675  0.3550 -1.9411 -1.4633
 4628SOL    HW225518   0.150   4.323   8.628  1.9199  0.0983  0.9476
 4629SOL     OW25519   0.382   2.721   8.481 -0.6222  0.6455  0.0855
 4629SOL    HW125520   0.342   2.645   8.522  0.0457 -1.4235 -3.0995
 4629SOL    HW225521   0.438   2.691   8.409 -0.9139 -0.9682  0.5453
 4630SOL     OW25522   2.145   0.049   6.552  0.1379  0.6201 -0.1141
 4630SOL    HW125523   2.123   0.059   6.645 -0.3468  0.0194 -0.1655
 4630SOL    HW225524   2.239   0.039   6.537  0.2701  1.4678  0.1386
 4631SOL     OW25525   0.894   2.087   3.459 -0.0100  0.0306 -0.6506
 4631SOL    HW125526   0.894   1.992   3.444  0.4861 -0.1685  0.6233
 4631SOL    HW225527   0.801   2.103   3.479  0.4620 -0.8341  2.3137
 4632SOL     OW25528   1.085   2.508   4.532 -0.2788 -0.3637 -0.0019
 4632SOL    HW125529   1.068   2.602   4.533  0.2886 -0.2661  0.5037
 4632SOL    HW225530   1.144   2.506   4.608 -1.5335 -0.0143  0.9717
 4633SOL     OW25531   0.618   1.836   6.892 -0.4030  0.1011 -0.0949
 4633SOL    HW125532   0.635   1.897   6.964 -1.9683 -0.9751  1.2096
 4633SOL    HW225533   0.523   1.829   6.902 -0.3670 -0.5340 -0.2320
 4634SOL     OW25534   1.406   0.449   6.127  0.1993 -0.5972 -0.1589
 4634SOL    HW125535   1.420   0.426   6.035  0.2498  1.5710 -0.6908
 4634SOL    HW225536   1.359   0.369   6.148 -0.5976 -0.1932 -0.4099
 4635SOL     OW25537   3.445   2.265  10.552  0.2296 -0.5282 -0.1433
 4635SOL    HW125538   3.359   2.302  10.531  0.5011  0.9494  1.4359
 4635SOL    HW225539   3.503   2.280  10.477 -0.8252  3.3179 -0.1506
 4636SOL     OW25540   1.202   2.287   5.020 -0.0096  0.5984 -0.6089
 4636SOL    HW125541   1.141   2.339   4.968  0.2584  0.6406 -0.8774
 4636SOL    HW225542   1.148   2.242   5.086  1.9360 -1.0712 -0.1667
 4637SOL     OW25543   2.779   0.933   9.246  0.5293 -0.5690  0.3015
 4637SOL    HW125544   2.700   0.977   9.277  0.7970  1.4240 -1.9391
 4637SOL    HW225545   2.740   0.872   9.184 -0.9236 -1.2884  1.9028
 4638SOL     OW25546   1.330   4.520  11.087 -0.1806 -0.3176 -0.3925
 4638SOL    HW125547   1.404   4.466  11.117  0.9613  0.8842 -1.0274
 4638SOL    HW225548   1.279   4.445  11.056 -2.2135 -0.0464  2.3087
 4639SOL     OW25549   0.570   0.439   3.010  0.0148 -0.4369  0.0992
 4639SOL    HW125550   0.638   0.410   2.949  0.4057  2.1464 -0.6809
 4639SOL    HW225551   0.531   0.352   3.016 -1.1123  0.0587 -0.1084
 4640SOL     OW25552   2.860   4.612   1.904 -0.3405 -0.1946 -0.6796
 4640SOL    HW125553   2.947   4.580   1.880 -1.2694 -1.8779 -1.8271
 4640SOL    HW225554   2.832   4.565   1.983  1.4889 -0.7275 -0.3487
 4641SOL     OW25555   1.247   4.486   2.906 -0.1700  0.1669 -0.2092
 4641SOL    HW125556   1.252   4.490   3.001 -1.9421  5.0729 -0.3062
 4641SOL    HW225557   1.161   4.453   2.881 -0.2820 -1.2300  1.9859
 4642SOL     OW25558   2.367   4.404   0.301 -0.4136  0.1290  0.1352
 4642SOL    HW125559   2.361   4.486   0.252 -0.4108 -0.6379 -1.1527
 4642SOL    HW225560   2.430   4.358   0.246  2.1251  0.7401  2.5370
 4643SOL     OW25561   0.912   2.277   2.642  0.0260  0.2407 -0.7501
 4643SOL    HW125562   0.974   2.321   2.700 -2.0741  2.0566  0.1216
 4643SOL    HW225563   0.967   2.258   2.566  0.0732 -0.0898 -0.6339
 4644SOL     OW25564   2.775   1.084   3.137 -0.0720  0.9198 -0.7343
 4644SOL    HW125565   2.818   1.091   3.222  2.2713  2.0757 -1.9927
 4644SOL    HW225566   2.841   1.026   3.099 -2.8028 -2.4299 -0.3274
 4645SOL     OW25567   4.189   3.567  13.812 -0.1796 -0.4144 -0.4204
 4645SOL    HW125568   4.130   3.627  13.858 -0.6979 -2.1343  1.1708
 4645SOL    HW225569   4.271   3.614  13.801 -0.7755  0.8701  0.6759
 4646SOL     OW25570   2.831   1.755  11.008 -0.4408 -0.0806  0.1202
 4646SOL    HW125571   2.919   1.738  10.975 -1.5225 -2.3203 -1.5777
 4646SOL    HW225572   2.838   1.836  11.059  0.6142 -0.0648 -0.0625
 4647SOL     OW25573   2.600   4.325   8.994 -0.0319 -0.1195  0.1068
 4647SOL    HW125574   2.564   4.263   9.058 -0.4314 -1.7434 -1.6606
 4647SOL    HW225575   2.521   4.370   8.965  0.8208  0.8896 -0.6054
 4648SOL     OW25576   2.327   4.013   7.323 -0.0105  0.4906  0.1105
 4648SOL    HW125577   2.341   4.050   7.236  0.2368 -1.3059 -0.6188
 4648SOL    HW225578   2.334   3.920   7.299  2.1235  1.0023 -1.2390
 4649SOL     OW25579   3.694   3.646   8.582  0.4551 -0.0623  0.3831
 4649SOL    HW125580   3.716   3.661   8.674  0.6535 -2.8753  0.7899
 4649SOL    HW225581   3.755   3.579   8.551  0.3468 -0.6687  1.4817
 4650SOL     OW25582   3.609   4.461   0.907 -0.3731 -1.1421 -0.2197
 4650SOL    HW125583   3.703   4.471   0.923 -0.3056 -1.0037 -0.7106
 4650SOL    HW225584   3.596   4.525   0.837  1.0609  0.0377  0.5829
 4651SOL     OW25585   2.706   4.366   2.784  0.1046  0.1277  0.4439
 4651SOL    HW125586   2.680   4.303   2.852  1.5421 -2.7124 -1.6494
 4651SOL    HW225587   2.736   4.432   2.847  2.4681  0.5064 -1.1154
 4652SOL     OW25588   0.121   2.646   3.822 -0.0432 -0.1503  0.2960
 4652SOL    HW125589   0.198   2.589   3.827  1.5847  1.8201 -2.4667
 4652SOL    HW225590   0.156   2.724   3.780 -0.9495  0.9953  1.6727
 4653SOL     OW25591   2.301   0.560   1.330 -0.3443  0.1809 -0.4175
 4653SOL    HW125592   2.367   0.594   1.390 -1.2524 -0.5108  0.9815
 4653SOL    HW225593   2.355   0.553   1.252 -3.6135 -1.4272 -2.5566
 4654SOL     OW25594   1.165   4.634   5.490  0.1597 -0.7769  0.4701
 4654SOL    HW125595   1.101   4.590   5.434 -0.7780  0.1098  0.8289
 4654SOL    HW225596   1.117   4.717   5.494 -1.5846 -1.7044 -1.4131
 4655SOL     OW25597   1.000   4.189   4.771 -0.4711 -0.5062  0.3749
 4655SOL    HW125598   0.977   4.281   4.782 -0.3286 -0.5653  1.1537
 4655SOL    HW225599   1.010   4.166   4.863  2.2702 -1.2344 -0.1100
 4656SOL     OW25600   1.734   1.333  13.134  0.2310 -0.5876  0.4041
 4656SOL    HW125601   1.789   1.383  13.074 -0.4196 -0.7018 -0.2809
 4656SOL    HW225602   1.806   1.284  13.175  2.4258  0.6416 -1.9706
 4657SOL     OW25603   3.649   4.298  16.357 -0.4147 -0.0210  0.1786
 4657SOL    HW125604   3.701   4.219  16.367  0.9246  0.6104 -1.7028
 4657SOL    HW225605   3.564   4.265  16.387  0.1365  1.1484  3.0667
 4658SOL     OW25606   3.696   4.263   8.720  0.1443  0.1766 -0.3380
 4658SOL    HW125607   3.615   4.275   8.670  0.2379 -3.3622 -1.3556
 4658SOL    HW225608   3.712   4.357   8.718 -0.8528  0.3060 -2.4471
 4659SOL     OW25609   3.762   2.020  17.200 -0.0351  0.3573 -0.2910
 4659SOL    HW125610   3.742   1.931  17.171 -0.8727  0.6729 -0.6975
 4659SOL    HW225611   3.700   2.018  17.272 -0.1242  1.6257 -0.3370
 4660SOL     OW25612   0.837   4.702   2.519 -0.2762 -0.1816 -0.3605
 4660SOL    HW125613   0.894   4.657   2.582  0.9417 -1.8480 -2.6628
 4660SOL    HW225614   0.812   4.631   2.461  1.5641  2.2072 -4.0634
 4661SOL     OW25615   2.754   1.155   1.924 -0.4666  0.4168 -0.0348
 4661SOL    HW125616   2.821   1.216   1.895  0.8257 -0.9197  0.0978
 4661SOL    HW225617   2.789   1.071   1.893 -0.7907  1.3723 -3.0377
 4662SOL     OW25618   4.707   0.381   6.789  0.3899  0.0458  0.7092
 4662SOL    HW125619   0.058   0.381   6.759  0.5773 -0.7905  1.2666
 4662SOL    HW225620   4.678   0.471   6.776 -0.8386 -0.4941 -0.2092
 4663SOL     OW25621   2.169   1.261  13.027 -0.2544 -0.3707  0.5935
 4663SOL    HW125622   2.098   1.199  13.010  0.9970 -2.4755  3.1149
 4663SOL    HW225623   2.231   1.200  13.067  0.5140 -0.5297 -0.8568
 4664SOL     OW25624   2.085   3.822  11.083  0.7412 -0.3986 -0.1928
 4664SOL    HW125625   2.040   3.867  11.012  0.8367  0.3778  0.2355
 4664SOL    HW225626   2.119   3.891  11.140 -0.5401  0.7712 -0.8577
 4665SOL     OW25627   1.084   3.547  13.308 -0.4137  0.2326  0.3146
 4665SOL    HW125628   1.062   3.456  13.287 -1.3957  0.0009  2.3363
 4665SOL    HW225629   1.145   3.538  13.381  0.0594 -2.3613 -0.4211
 4666SOL     OW25630   0.064   1.097  13.817 -0.2987  0.0833  0.4804
 4666SOL    HW125631   0.088   1.060  13.732  0.3738 -0.4281  0.8836
 4666SOL    HW225632   0.060   1.186  13.784 -1.7666 -0.8004 -1.7292
 4667SOL     OW25633   3.654   4.068  12.179 -0.0122 -0.1264  0.2660
 4667SOL    HW125634   3.722   4.105  12.235 -1.3075  2.1927  0.3222
 4667SOL    HW225635   3.695   4.006  12.118 -0.6799 -0.2604 -0.0494
 4668SOL     OW25636   2.998   1.729  16.732 -0.1767 -0.4558 -0.5486
 4668SOL    HW125637   3.039   1.760  16.813  0.5601 -2.8736 -0.0097
 4668SOL    HW225638   3.043   1.645  16.728  1.9401  0.7130 -1.6082
 4669SOL     OW25639   0.729   0.089  11.980 -0.5180  0.1887  0.1164
 4669SOL    HW125640   0.689   0.041  11.907  3.2795 -1.3077 -0.9696
 4669SOL    HW225641   0.653   0.082  12.038 -0.1876 -3.8505  0.0925
 4670SOL     OW25642   4.675   0.371   0.028 -0.9886  0.2391  0.5842
 4670SOL    HW125643   4.676   0.357  17.691  1.4193 -0.0959  0.6555
 4670SOL    HW225644   4.690   0.465   0.043  0.2621 -0.0336  1.0437
 4671SOL     OW25645   2.430   2.194   2.962  0.1287  0.1201  0.1894
 4671SOL    HW125646   2.406   2.115   2.915 -0.5973  0.6944 -0.4000
 4671SOL    HW225647   2.467   2.249   2.893  0.6473 -1.0661 -0.4576
 4672SOL     OW25648   2.214   3.947   3.885  0.3057  0.2036 -0.3861
 4672SOL    HW125649   2.215   3.937   3.981  1.8213 -2.6218 -0.7041
 4672SOL    HW225650   2.139   3.892   3.864  0.9081 -1.0631  0.7692
 4673SOL     OW25651   0.060   1.077   5.336  0.4240  0.1176 -0.2016
 4673SOL    HW125652   0.020   1.138   5.274  1.4929  0.3705 -0.6562
 4673SOL    HW225653   4.729   1.014   5.351  1.1947 -0.7860 -0.3426
 4674SOL     OW25654   4.545   0.517   9.091  0.0944  0.1198 -0.5861
 4674SOL    HW125655   4.543   0.573   9.013  0.2792  0.2120 -0.5250
 4674SOL    HW225656   4.535   0.581   9.161 -1.3826  0.1324 -0.8123
 4675SOL     OW25657   4.517   3.233  10.471 -0.1729  0.1866  0.3753
 4675SOL    HW125658   4.598   3.278  10.493 -0.1762 -0.4693  1.7309
 4675SOL    HW225659   4.545   3.141  10.473 -1.3800 -0.2129 -1.0177
 4676SOL     OW25660   0.919   4.235   2.077  0.0659 -0.3331  0.1611
 4676SOL    HW125661   0.835   4.279   2.064 -0.2980 -1.2608 -0.6033
 4676SOL    HW225662   0.920   4.229   2.172 -1.1496  1.4886  0.3071
 4677SOL     OW25663   4.692   0.829   9.143  0.0312 -0.2730 -0.2921
 4677SOL    HW125664   4.715   0.911   9.187  0.8709 -1.9166  2.2753
 4677SOL    HW225665   4.732   0.848   9.058  1.3197 -0.0784  0.3683
 4678SOL     OW25666   2.583   1.168   8.822 -0.0578 -0.5743  0.4511
 4678SOL    HW125667   2.586   1.096   8.758  0.3781 -1.2686  1.2368
 4678SOL    HW225668   2.674   1.194   8.834 -0.5779  0.8165  1.3286
 4679SOL     OW25669   1.386   3.354   9.427  0.2607  0.6417  0.0381
 4679SOL    HW125670   1.295   3.372   9.401  0.0737  0.7860  0.8042
 4679SOL    HW225671   1.414   3.437   9.466  0.9929  1.2724 -1.7906
 4680SOL     OW25672   1.439   2.755   3.064 -0.1058 -0.3430 -0.0066
 4680SOL    HW125673   1.500   2.799   3.124  1.4759 -3.3420  0.6029
 4680SOL    HW225674   1.435   2.662   3.087 -1.2127 -0.5351 -0.9984
 4681SOL     OW25675   3.947   4.162  13.472 -0.0211  0.1952  0.2426
 4681SOL    HW125676   3.906   4.089  13.518  1.6013  0.0693  1.4539
 4681SOL    HW225677   3.978   4.204  13.552  1.4458 -0.1720 -0.1263
 4682SOL     OW25678   0.312   0.621   3.044  0.4507 -0.1180  0.3437
 4682SOL    HW125679   0.349   0.559   2.981 -2.1602  0.0691 -1.3524
 4682SOL    HW225680   0.387   0.681   3.045 -0.0173  0.5135 -4.7737
 4683SOL     OW25681   3.547   3.752   3.600 -0.1116  0.0437  0.2902
 4683SOL    HW125682   3.533   3.840   3.635 -0.8904 -0.7379  1.9526
 4683SOL    HW225683   3.498   3.705   3.667  0.1095 -1.0702 -0.3189
 4684SOL     OW25684   1.809   3.729   3.885 -0.0998  0.5330 -0.0907
 4684SOL    HW125685   1.860   3.784   3.826  2.4102 -1.9211 -0.2378
 4684SOL    HW225686   1.838   3.767   3.968  0.4758  0.4198 -0.2376
 4685SOL     OW25687   4.166   0.733   8.066 -0.1935  0.7901 -0.2803
 4685SOL    HW125688   4.073   0.720   8.048 -0.3530  1.3436  0.1482
 4685SOL    HW225689   4.207   0.750   7.981  1.0223 -1.5773 -0.1860
 4686SOL     OW25690   0.396   2.183   6.888 -0.0026  0.4130  0.3532
 4686SOL    HW125691   0.349   2.241   6.828 -0.4934 -0.8772 -0.5160
 4686SOL    HW225692   0.487   2.205   6.867 -0.0691  1.5976  1.3046
 4687SOL     OW25693   3.373   0.085   4.428  0.0099 -0.4735 -0.3179
 4687SOL    HW125694   3.401   4.733   4.434  2.0600 -0.1199 -4.6253
 4687SOL    HW225695   3.279   0.086   4.447  0.0005 -0.9792 -0.3321
 4688SOL     OW25696   2.089   3.086   6.249  0.0972  0.9191  0.5181
 4688SOL    HW125697   2.088   3.019   6.180 -0.1606  0.7214  0.7116
 4688SOL    HW225698   2.125   3.035   6.321 -0.2562  0.4066  0.3304
 4689SOL     OW25699   2.728   4.318   3.833 -0.0614 -0.0111  0.1483
 4689SOL    HW125700   2.738   4.246   3.771 -3.5121 -1.6346  1.5302
 4689SOL    HW225701   2.711   4.380   3.762 -1.7917 -0.1776  0.4140
 4690SOL     OW25702   1.415   2.545   1.498 -0.0631 -0.0410 -0.5533
 4690SOL    HW125703   1.427   2.506   1.411 -0.7986  0.2103 -0.7656
 4690SOL    HW225704   1.437   2.473   1.557 -2.2452 -2.1722 -2.3533
 4691SOL     OW25705   3.964   2.244   3.936 -0.2464  0.0391  0.4932
 4691SOL    HW125706   3.958   2.311   4.004 -0.9682 -0.0835  0.5472
 4691SOL    HW225707   4.000   2.304   3.872 -1.1500  0.6934  0.5918
 4692SOL     OW25708   4.472   4.408  12.283 -0.4677 -0.6034 -0.5295
 4692SOL    HW125709   4.485   4.436  12.374  1.9806 -2.3077 -0.3228
 4692SOL    HW225710   4.505   4.482  12.232  0.9847 -1.2133 -0.4951
 4693SOL     OW25711   2.915   4.602  11.173  0.3008  0.1136  0.0518
 4693SOL    HW125712   2.951   4.523  11.213 -0.5884 -0.6380 -0.6356
 4693SOL    HW225713   2.980   4.672  11.168  0.4931 -0.0928 -0.3624
 4694SOL     OW25714   3.514   1.153   5.167 -0.2336 -0.2202 -0.2885
 4694SOL    HW125715   3.463   1.233   5.152 -0.6865 -0.0725  2.1026
 4694SOL    HW225716   3.476   1.124   5.250  0.6199  1.0788  0.5574
 4695SOL     OW25717   3.506   2.825   8.400  0.0653 -0.1982  0.1735
 4695SOL    HW125718   3.594   2.861   8.394 -0.3587  0.7321 -0.4909
 4695SOL    HW225719   3.472   2.873   8.475  1.6888 -0.6431  1.1769
 4696SOL     OW25720   3.562   0.454   5.045 -0.0603  0.2315 -0.6826
 4696SOL    HW125721   3.653   0.484   5.045 -0.2709  0.8908 -1.9471
 4696SOL    HW225722   3.526   0.493   5.125  0.3873 -2.4896  0.8297
 4697SOL     OW25723   3.531   0.834   2.184  0.2969 -0.3857 -0.3272
 4697SOL    HW125724   3.519   0.929   2.190 -0.6591 -0.5058 -0.2994
 4697SOL    HW225725   3.438   0.809   2.182  0.4056 -0.8910  1.1850
 4698SOL     OW25726   1.794   3.742   3.318 -0.4188  0.3456  0.1694
 4698SOL    HW125727   1.790   3.665   3.375  1.3710  0.0041 -0.1638
 4698SOL    HW225728   1.881   3.769   3.345  0.0734 -1.5036  0.4810
 4699SOL     OW25729   1.471   1.104   8.923 -0.4676  0.1088 -0.1477
 4699SOL    HW125730   1.444   1.135   8.836 -0.5231  3.5327  1.1053
 4699SOL    HW225731   1.467   1.009   8.909  0.6897 -0.0259  0.4823
 4700SOL     OW25732   0.287   0.655   5.331 -0.7822  0.0529 -0.2300
 4700SOL    HW125733   0.192   0.656   5.318 -0.6576 -2.4489 -1.1530
 4700SOL    HW225734   0.311   0.720   5.265  2.0635  1.7567  2.4486
 4701SOL     OW25735   1.210   1.856   9.282 -0.3371  0.8028 -0.3522
 4701SOL    HW125736   1.302   1.868   9.261 -0.1736  3.3780  1.8754
 4701SOL    HW225737   1.175   1.807   9.208  0.0905 -0.7281  0.4788
 4702SOL     OW25738   3.584   1.313  17.176 -0.1661 -0.4950  0.6508
 4702SOL    HW125739   3.514   1.253  17.199 -0.0797 -1.0298 -0.4466
 4702SOL    HW225740   3.660   1.279  17.222  0.9097  0.3725 -0.4605
 4703SOL     OW25741   0.860   2.719   2.128  0.0423  0.4039  0.8671
 4703SOL    HW125742   0.878   2.627   2.111  1.3421  0.7636  0.2966
 4703SOL    HW225743   0.765   2.709   2.142  0.2630 -1.5178  0.9255
 4704SOL     OW25744   0.902   2.327   4.692  0.3316 -0.4649 -0.1721
 4704SOL    HW125745   0.946   2.384   4.628  1.6295 -0.0160  1.1207
 4704SOL    HW225746   0.944   2.356   4.773  1.3606 -0.5839 -0.6608
 4705SOL     OW25747   2.802   2.641   5.427 -0.2537 -0.6369  1.1159
 4705SOL    HW125748   2.855   2.707   5.381 -1.9357  1.2877  1.9345
 4705SOL    HW225749   2.868   2.576   5.451  2.8014  0.2039 -5.0217
 4706SOL     OW25750   2.963   3.993   8.796  0.1630 -0.2101  0.0717
 4706SOL    HW125751   3.005   3.923   8.846  1.1467 -1.0757 -1.9888
 4706SOL    HW225752   2.995   4.069   8.846 -0.4901 -0.0169  0.2001
 4707SOL     OW25753   2.375   0.821  15.302 -0.0603  0.2876  0.2000
 4707SOL    HW125754   2.461   0.836  15.264  0.1277  0.7704  0.8207
 4707SOL    HW225755   2.370   0.725  15.303 -1.1003  0.3455  1.4920
 4708SOL     OW25756   0.114   3.275   6.731 -0.6577  0.0789  0.0563
 4708SOL    HW125757   0.079   3.241   6.648 -1.3162 -1.5157  0.9784
 4708SOL    HW225758   0.035   3.321   6.761 -1.6200 -0.9656 -0.8755
 4709SOL     OW25759   0.198   1.776   2.832 -0.1817  0.3745 -0.4253
 4709SOL    HW125760   0.110   1.783   2.869 -0.0881  0.7684 -0.2713
 4709SOL    HW225761   0.229   1.862   2.861  0.4603 -0.1115  0.2978
 4710SOL     OW25762   3.671   4.733   8.616  0.0225 -0.2217  0.6483
 4710SOL    HW125763   3.579   4.723   8.592 -0.1303  2.3217  0.1940
 4710SOL    HW225764   3.686   0.083   8.646  0.3640  0.3124 -1.1597
 4711SOL     OW25765   4.390   3.988   7.172  0.1299 -0.6018  0.7693
 4711SOL    HW125766   4.413   4.017   7.261  1.6281 -0.3187  0.2847
 4711SOL    HW225767   4.348   3.903   7.188 -2.6095  0.9715  2.0808
 4712SOL     OW25768   2.726   0.786   3.172 -0.0805  0.2326  0.1708
 4712SOL    HW125769   2.720   0.765   3.079 -0.6805  2.8603 -0.3726
 4712SOL    HW225770   2.688   0.874   3.172 -0.6279 -0.0177 -1.7295
 4713SOL     OW25771   1.700   0.631   9.878 -0.5328  0.8024  0.4354
 4713SOL    HW125772   1.640   0.706   9.875 -3.0448 -1.2837 -1.1760
 4713SOL    HW225773   1.726   0.648   9.969  1.3308 -1.4941  0.3215
 4714SOL     OW25774   3.988   1.498  14.487  0.3545  0.2173  0.1222
 4714SOL    HW125775   3.958   1.460  14.570  0.3040  0.8845  0.4050
 4714SOL    HW225776   3.905   1.530  14.454 -0.6994 -0.1931  2.3766
 4715SOL     OW25777   3.033   3.863  17.509 -0.2161 -0.6819 -0.1677
 4715SOL    HW125778   2.999   3.886  17.423 -0.6771 -0.3337  0.1060
 4715SOL    HW225779   3.098   3.795  17.495  2.7657  1.7734  1.7608
 4716SOL     OW25780   1.712   0.037  14.532  0.6670  0.1058 -0.2656
 4716SOL    HW125781   1.794   4.735  14.506  1.1514  1.4796 -0.9449
 4716SOL    HW225782   1.663   0.027  14.451 -2.2429 -2.0025  1.7363
 4717SOL     OW25783   3.578   1.760   7.778 -0.1994 -1.0821 -0.2440
 4717SOL    HW125784   3.580   1.855   7.792  0.9698 -0.8244 -2.1311
 4717SOL    HW225785   3.594   1.733   7.868  2.1649  0.7225 -0.1248
 4718SOL     OW25786   1.749   1.449   9.223  0.2258  0.3999  0.0333
 4718SOL    HW125787   1.709   1.522   9.177 -1.8081 -0.5255  0.3384
 4718SOL    HW225788   1.704   1.372   9.188  1.0478 -0.2260  0.3488
 4719SOL     OW25789   2.338   2.949  10.566  0.4156 -0.6652 -0.0749
 4719SOL    HW125790   2.334   2.862  10.527 -2.0922 -0.4553 -0.2994
 4719SOL    HW225791   2.339   2.933  10.660 -0.3490 -2.0154 -0.2957
 4720SOL     OW25792   0.065   4.289  17.567  0.4088  0.0535 -0.3988
 4720SOL    HW125793   0.109   4.313  17.648  0.2563 -3.1632  0.6189
 4720SOL    HW225794   0.051   4.377  17.532 -0.1049  0.2268  0.2396
 4721SOL     OW25795   4.275   3.478   7.160 -0.6039 -0.3218  0.3017
 4721SOL    HW125796   4.341   3.412   7.183 -1.8882 -1.3042  1.1620
 4721SOL    HW225797   4.331   3.523   7.097 -1.6326 -1.3485 -1.3413
 4722SOL     OW25798   3.954   1.023   7.561  0.3351  0.1453  0.4084
 4722SOL    HW125799   3.869   0.978   7.557 -0.3789  1.8245 -3.5247
 4722SOL    HW225800   3.941   1.086   7.631 -0.1888 -0.2719  0.6818
 4723SOL     OW25801   2.093   1.800   3.018  0.3683 -0.0321  0.5570
 4723SOL    HW125802   2.160   1.855   3.056  0.1709  1.0240 -0.6275
 4723SOL    HW225803   2.146   1.736   2.971 -1.5611 -1.8698  0.8397
 4724SOL     OW25804   3.434   1.504   7.781  0.3595  0.1229 -0.7094
 4724SOL    HW125805   3.347   1.537   7.761 -0.3788 -1.0044  0.6348
 4724SOL    HW225806   3.490   1.580   7.763  1.1279 -0.9572 -2.8822
 4725SOL     OW25807   3.494   3.433   0.707 -0.4514 -0.6892  0.2842
 4725SOL    HW125808   3.577   3.476   0.690 -2.3435  1.5699 -3.0565
 4725SOL    HW225809   3.438   3.479   0.645 -0.4440 -0.4085  0.4854
 4726SOL     OW25810   0.616   4.223   9.103  0.5094 -0.2549 -0.2701
 4726SOL    HW125811   0.609   4.133   9.072  0.4665 -1.3147  2.8165
 4726SOL    HW225812   0.707   4.232   9.074  0.2429  1.7061 -0.4757
 4727SOL     OW25813   3.485   1.571   5.591  0.0373 -0.0123  0.6420
 4727SOL    HW125814   3.428   1.639   5.555  1.2588  0.5022 -0.2797
 4727SOL    HW225815   3.562   1.602   5.545  0.2207 -1.1633  0.1827
 4728SOL     OW25816   2.477   4.128  12.466 -0.1738 -0.0785 -0.2056
 4728SOL    HW125817   2.452   4.079  12.545  1.1409 -1.5997 -0.7126
 4728SOL    HW225818   2.527   4.058  12.423 -2.5331 -1.2333 -1.0538
 4729SOL     OW25819   2.747   3.480   1.706 -0.0950  0.7155  0.4631
 4729SOL    HW125820   2.714   3.520   1.626  0.3679  0.7361  0.2857
 4729SOL    HW225821   2.842   3.490   1.695 -0.0571  0.2324  0.3786
 4730SOL     OW25822   4.727   0.624  14.121 -0.1617 -0.2396  0.8879
 4730SOL    HW125823   4.735   0.564  14.047  1.6007 -0.8175  1.5385
 4730SOL    HW225824   0.078   0.631  14.151  0.4696  0.2309 -1.1543
 4731SOL     OW25825   2.630   2.136  17.271 -0.1641  0.1906  0.2616
 4731SOL    HW125826   2.557   2.154  17.331  1.1547 -0.9787  2.2237
 4731SOL    HW225827   2.611   2.044  17.251 -1.9974  0.6523 -0.0451
 4732SOL     OW25828   4.411   1.040   6.474  0.1380 -0.7424 -1.0226
 4732SOL    HW125829   4.324   1.069   6.446  0.0074 -0.4671 -0.3201
 4732SOL    HW225830   4.386   0.953   6.505  2.8872 -1.4974 -0.9756
 4733SOL     OW25831   4.675   0.260   3.456  0.1367  0.5005 -0.6434
 4733SOL    HW125832   4.735   0.297   3.521 -0.3044 -0.4258  0.2970
 4733SOL    HW225833   4.666   0.169   3.485  0.7974  0.8781  0.7805
 4734SOL     OW25834   3.552   1.129   6.939  0.1729  0.1491 -0.4680
 4734SOL    HW125835   3.613   1.186   6.893  0.4289  0.1940 -0.0739
 4734SOL    HW225836   3.591   1.129   7.027  1.3425  0.6572 -1.0032
 4735SOL     OW25837   0.162   0.446   9.398  0.0763  0.0680 -0.2399
 4735SOL    HW125838   0.117   0.460   9.315 -0.4230  1.4375  0.2588
 4735SOL    HW225839   0.173   0.351   9.402  0.4469  0.1888  1.8824
 4736SOL     OW25840   1.098   2.299   6.949  0.5804 -0.7017 -0.4173
 4736SOL    HW125841   1.168   2.279   7.011 -0.2804  0.3107  0.8795
 4736SOL    HW225842   1.148   2.281   6.869 -0.3645 -0.1308 -1.1358
 4737SOL     OW25843   2.513   0.252   0.811 -0.8661  0.3020  0.4468
 4737SOL    HW125844   2.466   0.195   0.750  1.1743  1.1206 -1.8950
 4737SOL    HW225845   2.522   0.341   0.776  1.7767  0.0220  0.4564
 4738SOL     OW25846   2.055   3.346   5.286  0.2221 -0.0360  0.1076
 4738SOL    HW125847   1.995   3.273   5.275 -1.1303  1.0072  0.5128
 4738SOL    HW225848   2.055   3.351   5.382 -3.8139 -0.0619  0.1050
 4739SOL     OW25849   4.668   2.432   3.717 -0.2525  0.0582  0.2236
 4739SOL    HW125850   4.714   2.431   3.633 -0.2600  0.0544  0.2196
 4739SOL    HW225851   4.681   2.521   3.750 -0.6592 -0.4536  1.7727
 4740SOL     OW25852   2.063   1.316   9.042 -0.5067  0.3723  0.7074
 4740SOL    HW125853   2.123   1.391   9.041  0.1065 -0.1319 -0.3204
 4740SOL    HW225854   1.987   1.336   9.096 -0.8461 -0.2620  0.4683
 4741SOL     OW25855   1.244   1.509   4.971 -0.0692  0.3301 -0.0899
 4741SOL    HW125856   1.286   1.571   5.031 -1.1418  1.3143 -0.3579
 4741SOL    HW225857   1.308   1.438   4.971 -0.1835  0.2473 -2.7748
 4742SOL     OW25858   2.153   1.968   0.784  0.2985 -0.1761 -0.3031
 4742SOL    HW125859   2.137   2.062   0.776  0.0728 -0.1407  0.5904
 4742SOL    HW225860   2.200   1.952   0.865 -0.3172 -0.1778  0.0495
 4743SOL     OW25861   0.176   1.610   8.357 -0.5155 -0.0868  0.1475
 4743SOL    HW125862   0.119   1.681   8.389 -0.9186 -1.4459  2.4163
 4743SOL    HW225863   0.122   1.566   8.291  0.2638 -1.0523  0.1598
 4744SOL     OW25864   4.170   3.833  17.243 -0.4983 -0.5100 -0.5331
 4744SOL    HW125865   4.180   3.928  17.255  1.3303 -0.7418 -0.3079
 4744SOL    HW225866   4.228   3.824  17.168  0.0885  0.2321 -0.1657
 4745SOL     OW25867   1.686   0.324  14.449 -0.6377  0.1703  0.1865
 4745SOL    HW125868   1.715   0.351  14.537 -1.7905  1.1819  0.2505
 4745SOL    HW225869   1.707   0.231  14.443 -1.6329  0.0923 -2.0915
 4746SOL     OW25870   2.449   0.516   2.483  0.2068  0.0181  0.1024
 4746SOL    HW125871   2.473   0.567   2.406  1.4035  0.8602  1.0503
 4746SOL    HW225872   2.408   0.581   2.541 -1.6926 -1.2624  0.2104
 4747SOL     OW25873   1.807   1.773   8.918 -0.1370  0.4737  0.2255
 4747SOL    HW125874   1.886   1.821   8.892 -0.3091  1.6456  1.8646
 4747SOL    HW225875   1.782   1.828   8.993  2.8227  0.5498  1.1866
 4748SOL     OW25876   4.292   4.369   6.771  0.0732 -0.3045  0.0451
 4748SOL    HW125877   4.337   4.348   6.853  0.0386 -0.7864 -0.0622
 4748SOL    HW225878   4.265   4.284   6.738  2.8687 -0.7498 -1.0398
 4749SOL     OW25879   1.320   3.137   3.892 -0.3096 -0.4896 -0.1542
 4749SOL    HW125880   1.270   3.181   3.961 -2.3617 -1.4479 -1.0343
 4749SOL    HW225881   1.337   3.052   3.932 -0.3353 -0.5965 -0.3710
 4750SOL     OW25882   1.000   0.535   5.664 -0.4402 -0.9046  0.2617
 4750SOL    HW125883   0.989   0.630   5.664  3.3092 -0.4607 -2.7175
 4750SOL    HW225884   0.971   0.507   5.751 -0.2530 -1.5695  0.1155
 4751SOL     OW25885   0.153   2.841   4.113  0.3504 -0.2790 -0.2235
 4751SOL    HW125886   0.237   2.827   4.068  0.8967  0.0099  0.7044
 4751SOL    HW225887   0.133   2.924   4.069  1.0544 -0.0763 -0.1689
 4752SOL     OW25888   4.017   3.983   7.724 -0.8041 -0.5155  0.1656
 4752SOL    HW125889   4.067   3.946   7.796  1.6833  0.6368 -0.9889
 4752SOL    HW225890   4.049   3.920   7.660  2.0635  0.3975  0.7285
 4753SOL     OW25891   3.971   1.988  16.867 -0.3858 -0.2404 -0.0682
 4753SOL    HW125892   3.885   1.990  16.825 -0.4111  1.8147  0.0750
 4753SOL    HW225893   3.955   2.062  16.926  0.7855 -0.0273 -0.0147
 4754SOL     OW25894   4.705   0.088   6.144 -0.7046  1.0147  0.0234
 4754SOL    HW125895   4.663   0.050   6.221 -0.8081 -2.5242 -1.7761
 4754SOL    HW225896   4.631   0.117   6.090  0.3689  1.4401 -1.1989
 4755SOL     OW25897   4.406   1.961   3.828  0.1818 -0.1712 -0.9723
 4755SOL    HW125898   4.422   1.957   3.922  1.9340  0.1811 -1.2557
 4755SOL    HW225899   4.471   2.030   3.813 -1.7576  1.6770 -0.8865
 4756SOL     OW25900   4.294   3.856   4.535 -0.0811 -0.1908 -0.2170
 4756SOL    HW125901   4.295   3.846   4.630 -0.8633 -1.2577 -0.3205
 4756SOL    HW225902   4.202   3.867   4.510 -1.0935  0.0782  3.5856
 4757SOL     OW25903   4.686   0.875   6.572 -0.0812 -0.6102  0.3268
 4757SOL    HW125904   4.687   0.810   6.501  1.8635  0.5637 -0.7195
 4757SOL    HW225905   4.630   0.937   6.524  1.2761 -0.4329 -1.0451
 4758SOL     OW25906   3.157   0.613   7.678 -0.1474 -0.1660  0.2422
 4758SOL    HW125907   3.220   0.550   7.713  0.1187 -0.9795 -1.7045
 4758SOL    HW225908   3.209   0.693   7.686 -0.9012  0.4133 -0.6054
 4759SOL     OW25909   1.789   4.505   5.760  0.5268 -0.6664 -0.0055
 4759SOL    HW125910   1.828   4.535   5.842 -1.9207  3.7327 -0.4431
 4759SOL    HW225911   1.861   4.515   5.698 -1.0842  1.9262 -1.4701
 4760SOL     OW25912   2.962   4.046   4.718 -0.3154 -0.4970 -0.0532
 4760SOL    HW125913   2.992   4.124   4.764 -0.5199 -0.0365 -0.6929
 4760SOL    HW225914   2.958   3.983   4.790 -2.2897  1.1834  1.2964
 4761SOL     OW25915   0.600   2.410   2.821  0.2661 -0.3257 -0.5588
 4761SOL    HW125916   0.612   2.453   2.736 -0.0349  0.6083 -0.1264
 4761SOL    HW225917   0.659   2.335   2.820  2.5316  1.4682 -2.4930
 4762SOL     OW25918   2.055   2.832  10.241 -0.2722 -0.2258  0.1626
 4762SOL    HW125919   2.073   2.861  10.331 -1.3414 -0.7496  0.5383
 4762SOL    HW225920   2.142   2.802  10.215  1.0090  2.6736  1.1050
 4763SOL     OW25921   4.606   2.065   7.056  0.0501 -0.3846 -0.5301
 4763SOL    HW125922   4.553   1.994   7.092  1.6427 -1.0378  0.5361
 4763SOL    HW225923   4.681   2.017   7.021 -0.6104 -0.2673 -2.0820
 4764SOL     OW25924   2.242   3.502   9.920 -0.4190 -0.3412 -0.1374
 4764SOL    HW125925   2.303   3.575   9.928 -0.2449 -0.5995  0.8817
 4764SOL    HW225926   2.305   3.431   9.936 -0.7474 -0.6442 -0.1822
 4765SOL     OW25927   2.740   2.900   7.366  0.7712  0.1168 -0.3606
 4765SOL    HW125928   2.802   2.857   7.307 -0.8645 -0.6786 -1.5015
 4765SOL    HW225929   2.763   2.860   7.450  0.3132  0.1534 -0.2159
 4766SOL     OW25930   2.118   3.620   9.158 -0.3160 -0.0736 -0.8525
 4766SOL    HW125931   2.092   3.578   9.240  1.9385  4.0047  1.9078
 4766SOL    HW225932   2.107   3.551   9.092 -2.1319  0.3486 -0.9903
 4767SOL     OW25933   3.964   3.804   8.255  0.3112 -0.3422 -0.1510
 4767SOL    HW125934   3.900   3.748   8.213 -2.3398  0.3155  2.9654
 4767SOL    HW225935   4.037   3.793   8.195 -0.0144 -0.6772 -0.4813
 4768SOL     OW25936   2.305   2.098   4.084 -0.3971  0.1774 -0.2037
 4768SOL    HW125937   2.369   2.028   4.071  1.7647  1.5541  3.1431
 4768SOL    HW225938   2.350   2.177   4.053 -1.5252  0.1610 -1.9148
 4769SOL     OW25939   2.698   2.566   0.064  0.2272  0.2101  0.4873
 4769SOL    HW125940   2.773   2.615   0.031 -0.8978 -0.0229 -2.4572
 4769SOL    HW225941   2.653   2.634   0.114 -0.0992  0.0657  0.3888
 4770SOL     OW25942   0.967   4.511   0.302  0.4360  0.1820  0.5083
 4770SOL    HW125943   0.873   4.518   0.316  0.2077 -0.0231 -0.9769
 4770SOL    HW225944   0.996   4.476   0.387  0.1155 -0.8008  0.2116
 4771SOL     OW25945   3.901   1.795   9.656 -0.1531  0.2004 -0.0238
 4771SOL    HW125946   3.842   1.791   9.581 -0.9370 -0.4062  0.6307
 4771SOL    HW225947   3.976   1.842   9.620  0.6317 -2.0429 -1.3121
 4772SOL     OW25948   1.018   0.394   6.985  0.2679  0.2046  0.1196
 4772SOL    HW125949   0.986   0.462   6.925  0.2242  0.0854  0.0075
 4772SOL    HW225950   1.005   0.306   6.948  0.1291  0.2539  0.0470
 4773SOL     OW25951   4.604   3.570   9.716 -0.3115 -0.0215 -0.3260
 4773SOL    HW125952   4.638   3.495   9.668 -0.3718 -0.4264  0.2622
 4773SOL    HW225953   4.525   3.521   9.740  0.9143 -1.0100  1.7334
 4774SOL     OW25954   3.820   0.000   0.845  0.2607 -0.2155  0.0120
 4774SOL    HW125955   3.739   0.024   0.891 -1.0763 -0.4360 -2.2724
 4774SOL    HW225956   3.783   4.716   0.761 -0.4221  2.1568 -0.3696
 4775SOL     OW25957   3.900   1.385   8.076 -0.1936  0.6347 -0.2377
 4775SOL    HW125958   3.915   1.477   8.053 -0.8349  0.8478  0.1921
 4775SOL    HW225959   3.834   1.376   8.008 -0.1904  1.4079 -0.3451
 4776SOL     OW25960   0.245   2.536   7.044  0.0954  0.7524  0.0780
 4776SOL    HW125961   0.193   2.613   7.070  2.4467  1.7497  1.7911
 4776SOL    HW225962   0.191   2.473   7.091 -1.7203  1.2266 -1.3586
 4777SOL     OW25963   1.648   3.459   4.691  0.4952  0.7764  0.0668
 4777SOL    HW125964   1.583   3.391   4.711  1.9848  0.0281  2.2923
 4777SOL    HW225965   1.618   3.534   4.741 -4.8687 -0.0251 -1.9250
 4778SOL     OW25966   3.801   4.718  15.321  0.9189 -0.4163 -0.0345
 4778SOL    HW125967   3.787   0.023  15.404 -0.2547 -0.7975 -0.0227
 4778SOL    HW225968   3.770   4.630  15.345  0.4238  0.1249  1.3036
 4779SOL     OW25969   2.023   1.347   5.160  0.1914  0.8098 -0.3184
 4779SOL    HW125970   1.951   1.344   5.097  0.9580  2.3552 -1.2599
 4779SOL    HW225971   2.069   1.267   5.135  0.2415  0.5286  0.6594
 4780SOL     OW25972   3.275   3.473   5.624 -0.3081  0.2008 -0.2336
 4780SOL    HW125973   3.341   3.521   5.574  0.9114 -1.1128  0.0833
 4780SOL    HW225974   3.296   3.506   5.712 -2.6319  1.5180 -0.1728
 4781SOL     OW25975   4.363   1.487   9.118  0.1211  0.7819 -0.2796
 4781SOL    HW125976   4.361   1.506   9.024  0.5683  0.5946 -0.3298
 4781SOL    HW225977   4.272   1.460   9.130 -0.1129  0.8859 -1.8700
 4782SOL     OW25978   1.234   2.905  11.658 -0.5995  0.2309  0.5051
 4782SOL    HW125979   1.259   2.943  11.742  1.0786 -0.0322  0.1342
 4782SOL    HW225980   1.242   2.977  11.596 -1.4567  1.5939  2.0059
 4783SOL     OW25981   3.797   2.440   8.787 -0.6723  0.1581  0.5106
 4783SOL    HW125982   3.792   2.490   8.869  1.4853  1.0717  0.1021
 4783SOL    HW225983   3.745   2.491   8.726 -0.1924  0.0662  0.0244
 4784SOL     OW25984   0.650   1.914   7.551 -0.2320  0.0216  0.1064
 4784SOL    HW125985   0.725   1.962   7.586 -0.2858  1.3633 -1.6279
 4784SOL    HW225986   0.637   1.843   7.614  0.5626 -0.0859  0.1549
 4785SOL     OW25987   2.477   1.495   3.149 -0.0354  0.1942  0.9973
 4785SOL    HW125988   2.456   1.456   3.234 -0.9303  1.2610  1.2706
 4785SOL    HW225989   2.558   1.445   3.138 -1.0273 -1.5115  1.4347
 4786SOL     OW25990   4.287   1.961  16.100  0.3728  0.4180  0.2495
 4786SOL    HW125991   4.250   1.943  16.013  0.3963  0.8126  0.1607
 4786SOL    HW225992   4.217   1.999  16.152 -1.0907  1.5562 -2.5630
 4787SOL     OW25993   3.011   2.094   4.749  0.4417  0.5221 -0.2864
 4787SOL    HW125994   3.025   2.001   4.766 -0.3494  0.5841  0.7324
 4787SOL    HW225995   2.991   2.095   4.656  0.3966 -1.3598 -0.3019
 4788SOL     OW25996   1.011   4.528   1.296  0.3457 -1.0671  0.5797
 4788SOL    HW125997   1.102   4.512   1.270  1.4825  0.1201  3.7600
 4788SOL    HW225998   1.025   4.606   1.349 -1.6155  0.7072 -1.5063
 4789SOL     OW25999   3.495   3.068  12.713 -0.0876 -0.0050  0.5653
 4789SOL    HW126000   3.426   3.032  12.658  1.6612 -0.5399 -1.2974
 4789SOL    HW226001   3.477   3.161  12.708  0.9614  0.2303  1.0501
 4790SOL     OW26002   3.654   4.638  11.254  0.0021 -0.0024  0.0004
 4790SOL    HW126003   3.564   4.652  11.225 -0.2334 -0.3766  0.5509
 4790SOL    HW226004   3.678   4.563  11.199  2.1451  1.4256 -1.0236
 4791SOL     OW26005   1.473   4.433   2.451  0.0853 -0.1749  0.2052
 4791SOL    HW126006   1.534   4.362   2.430  0.8989  0.8653 -0.9802
 4791SOL    HW226007   1.486   4.443   2.545 -0.2446  1.4476  0.0805
 4792SOL     OW26008   4.041   0.238   1.312  0.0417 -0.7405  0.4518
 4792SOL    HW126009   3.961   0.216   1.264 -0.0371  1.9067 -0.6233
 4792SOL    HW226010   4.102   0.270   1.245 -0.2970  0.4489  0.7109
 4793SOL     OW26011   1.483   0.265   6.883  0.2094 -0.2980  0.7360
 4793SOL    HW126012   1.405   0.239   6.834  0.3167  1.3611 -0.3031
 4793SOL    HW226013   1.500   0.184   6.930  0.6176 -0.5175  0.2016
 4794SOL     OW26014   2.250   2.887  15.622 -0.4517 -0.1795  0.1793
 4794SOL    HW126015   2.306   2.826  15.669 -0.0091  1.0184  1.2244
 4794SOL    HW226016   2.188   2.826  15.583 -0.5524 -1.1469  1.8902
 4795SOL     OW26017   3.999   1.571  16.967 -0.5427 -0.3180 -0.1633
 4795SOL    HW126018   4.066   1.544  17.029 -1.0895  0.5611  0.8167
 4795SOL    HW226019   4.032   1.655  16.935 -0.8458  1.2056  3.4934
 4796SOL     OW26020   1.344   2.554  16.676 -0.0396  0.4998  0.0367
 4796SOL    HW126021   1.415   2.531  16.736  0.6603 -0.7579 -1.2971
 4796SOL    HW226022   1.316   2.467  16.648  1.3090 -0.4095  1.4563
 4797SOL     OW26023   3.116   1.168  17.702 -0.5581 -0.1845  0.0823
 4797SOL    HW126024   3.154   1.186   0.031 -0.4720  1.5551 -0.3231
 4797SOL    HW226025   3.155   1.084  17.675  0.0379  0.0338  0.2521
 4798SOL     OW26026   0.643   1.248   2.025  0.2486  0.4536 -0.1493
 4798SOL    HW126027   0.619   1.158   2.003 -0.5194  0.2025  1.7255
 4798SOL    HW226028   0.676   1.280   1.941 -1.5953  0.0618 -1.0314
 4799SOL     OW26029   3.162   2.429  10.677  0.8610 -0.1091 -0.1631
 4799SOL    HW126030   3.185   2.356  10.733  0.7753  0.9541  1.2604
 4799SOL    HW226031   3.153   2.392  10.589 -0.9850 -2.7655  1.1684
 4800SOL     OW26032   1.256   0.990   8.038 -0.1843  0.5633 -1.2396
 4800SOL    HW126033   1.305   1.021   8.113 -0.7247  2.7810 -1.8054
 4800SOL    HW226034   1.179   0.956   8.083 -0.6091  2.3538 -0.6268
 4801SOL     OW26035   1.817   0.160   6.643 -0.1213 -0.8359  0.4276
 4801SOL    HW126036   1.905   0.137   6.614  0.4731  1.9643  0.0351
 4801SOL    HW226037   1.764   0.147   6.564  0.9959  1.6006 -0.7229
 4802SOL     OW26038   1.289   1.792   3.093 -0.3423  0.3730  0.5331
 4802SOL    HW126039   1.294   1.877   3.136 -1.7047  1.3819 -1.2876
 4802SOL    HW226040   1.380   1.763   3.102 -0.3303  0.3972  0.4882
 4803SOL     OW26041   1.403   0.371   9.682  0.8542  0.0502  0.3712
 4803SOL    HW126042   1.377   0.396   9.593 -0.1128  1.1781  0.9728
 4803SOL    HW226043   1.336   0.309   9.709  0.7603  0.2829  0.6694
 4804SOL     OW26044   0.523   1.763   5.103  0.7053  0.1485 -0.0163
 4804SOL    HW126045   0.475   1.688   5.138 -0.6023  1.2142  0.4778
 4804SOL    HW226046   0.458   1.833   5.110 -0.5913 -1.2386  1.6366
 4805SOL     OW26047   1.869   4.291   3.110  0.8184 -0.0900 -0.1557
 4805SOL    HW126048   1.936   4.227   3.086  0.4252 -0.4939 -0.1913
 4805SOL    HW226049   1.831   4.312   3.025  0.8008 -2.6588 -0.7946
 4806SOL     OW26050   1.287   0.715  17.666  0.1810 -0.7043 -0.4745
 4806SOL    HW126051   1.300   0.622  17.646 -0.9633 -1.4254  2.1001
 4806SOL    HW226052   1.347   0.715  17.740 -0.6573  0.4213  0.2015
 4807SOL     OW26053   4.264   2.356   2.645 -0.1148 -0.0307  0.2728
 4807SOL    HW126054   4.260   2.451   2.628  0.6531 -0.1961 -0.8960
 4807SOL    HW226055   4.319   2.327   2.572  0.9621  0.3111  0.9607
 4808SOL     OW26056   2.401   4.122   3.687 -0.1125  0.4636  0.3887
 4808SOL    HW126057   2.333   4.082   3.741  0.5738 -0.7372  0.3740
 4808SOL    HW226058   2.401   4.204   3.736 -4.5356  0.7348  0.0090
 4809SOL     OW26059   2.763   3.147   4.351  0.2636  0.3855 -0.2011
 4809SOL    HW126060   2.755   3.151   4.255 -0.4556 -0.7711 -0.1888
 4809SOL    HW226061   2.753   3.052   4.357  2.0517  0.1362 -1.0183
 4810SOL     OW26062   2.942   4.243   4.176 -0.1608 -0.5265 -0.4628
 4810SOL    HW126063   2.863   4.196   4.149 -0.0068 -0.6461 -0.7043
 4810SOL    HW226064   2.902   4.310   4.231  0.5508  0.1619 -0.7848
 4811SOL     OW26065   3.079   3.399   2.735  0.3849  0.3412 -0.1848
 4811SOL    HW126066   2.995   3.419   2.694  0.9516  0.3596 -1.3210
 4811SOL    HW226067   3.047   3.406   2.825  0.6475 -0.2122 -0.0482
 4812SOL     OW26068   1.546   3.875   7.804 -0.3338  0.1295 -0.1063
 4812SOL    HW126069   1.527   3.838   7.717  0.3033 -1.0134  0.2479
 4812SOL    HW226070   1.536   3.805   7.868  0.3891 -0.1624 -0.3148
 4813SOL     OW26071   3.338   2.233  12.839 -0.1530  0.7807  0.5543
 4813SOL    HW126072   3.404   2.245  12.771 -2.1565 -0.9884 -1.6718
 4813SOL    HW226073   3.286   2.165  12.796  0.0497  1.4365 -0.7270
 4814SOL     OW26074   1.419   2.204  16.971 -0.1531 -0.1985  0.6810
 4814SOL    HW126075   1.480   2.163  17.032 -2.7267 -2.0681  2.0157
 4814SOL    HW226076   1.341   2.224  17.024  1.0291 -1.3615  2.8639
 4815SOL     OW26077   0.903   0.460   1.823  0.2984  0.2201  0.7482
 4815SOL    HW126078   0.914   0.368   1.847 -0.6751 -0.1530 -0.2305
 4815SOL    HW226079   0.878   0.498   1.906 -3.5494  1.9490 -1.2101
 4816SOL     OW26080   1.429   3.970   0.875  0.0194  0.1339  0.0281
 4816SOL    HW126081   1.338   3.974   0.847  0.0298 -2.4244 -0.3492
 4816SOL    HW226082   1.422   3.987   0.969  2.1445  0.2712  0.1615
 4817SOL     OW26083   0.034   0.566   1.782  0.4565 -0.1007  0.7904
 4817SOL    HW126084   4.692   0.542   1.824 -0.9753  2.0446 -0.7276
 4817SOL    HW226085   0.018   0.533   1.693 -1.3727  0.3803  0.9548
 4818SOL     OW26086   1.769   0.042   7.945  0.0847 -0.4281  0.5916
 4818SOL    HW126087   1.783   0.077   7.857  1.9391 -2.9592 -0.1024
 4818SOL    HW226088   1.847   0.075   7.990 -1.1401  1.9652  0.9800
 4819SOL     OW26089   1.649   2.941   6.757 -0.2120 -0.3387 -0.3701
 4819SOL    HW126090   1.738   2.944   6.792 -0.8399  1.5383  1.0684
 4819SOL    HW226091   1.628   2.853   6.789  0.9425 -1.0957 -1.6946
 4820SOL     OW26092   0.727   1.054   6.754 -0.0533  0.0151  0.5362
 4820SOL    HW126093   0.678   1.000   6.816 -0.2052  1.3453  1.5901
 4820SOL    HW226094   0.663   1.068   6.685 -0.0843 -3.7028 -0.2057
 4821SOL     OW26095   0.569   3.314  12.376 -0.2853 -0.0894 -0.2208
 4821SOL    HW126096   0.555   3.234  12.426 -1.2158  0.1011 -0.1792
 4821SOL    HW226097   0.594   3.272  12.293 -0.4068 -0.9342  0.1622
 4822SOL     OW26098   2.034   3.556   9.421 -0.2222  0.2390 -0.1007
 4822SOL    HW126099   1.994   3.581   9.504  2.4045 -2.9608  2.0984
 4822SOL    HW226100   2.026   3.463   9.438  0.8623  0.1962  0.1953
 4823SOL     OW26101   3.919   4.240   1.005 -0.3983  0.0245  0.4259
 4823SOL    HW126102   3.948   4.296   1.078 -1.3077  0.5246  0.4054
 4823SOL    HW226103   3.899   4.315   0.948 -1.1913  0.7880  1.7037
 4824SOL     OW26104   4.620   0.001   0.107  0.6500  0.5708  0.1275
 4824SOL    HW126105   4.631   0.064   0.178 -0.6527 -1.5489  2.2146
 4824SOL    HW226106   4.628   4.661   0.159 -2.0266 -1.0973 -2.0230
 4825SOL     OW26107   3.427   3.412   0.309 -0.3894 -0.0454  0.5560
 4825SOL    HW126108   3.337   3.419   0.277  1.1048  0.5836 -3.5677
 4825SOL    HW226109   3.401   3.345   0.372  0.4683  0.4762  1.4611
 4826SOL     OW26110   1.952   2.105   7.887 -0.0426 -0.3577 -0.0869
 4826SOL    HW126111   1.923   2.138   7.802 -0.7827  0.1198  0.3484
 4826SOL    HW226112   2.014   2.035   7.866  1.0932  0.6829 -0.1931
 4827SOL     OW26113   4.525   3.082  15.475 -0.2578  0.2822 -0.3216
 4827SOL    HW126114   4.616   3.090  15.447 -0.1381 -2.0837 -0.6693
 4827SOL    HW226115   4.489   3.116  15.393 -0.1194 -0.0659 -0.5272
 4828SOL     OW26116   3.167   4.496   3.434 -0.3462 -0.1569  0.1098
 4828SOL    HW126117   3.127   4.517   3.518 -0.1103  0.9092 -0.0385
 4828SOL    HW226118   3.242   4.556   3.439 -0.5481  0.1813 -0.9060
 4829SOL     OW26119   2.303   1.390   6.850 -0.2825 -0.0068 -0.5666
 4829SOL    HW126120   2.275   1.299   6.841 -0.6776  0.1101 -0.5467
 4829SOL    HW226121   2.344   1.389   6.936 -0.1928 -1.0184 -0.6192
 4830SOL     OW26122   3.015   0.540   6.719  0.0020  0.2286 -0.0453
 4830SOL    HW126123   3.016   0.580   6.632  2.1381  0.9883  0.3109
 4830SOL    HW226124   3.038   0.449   6.703  0.5788  0.0781  1.5754
 4831SOL     OW26125   3.267   2.073   2.190  0.1680 -0.0827 -0.1661
 4831SOL    HW126126   3.225   2.022   2.121  0.4065 -0.5538  0.0386
 4831SOL    HW226127   3.195   2.130   2.216 -1.2908 -1.6065 -0.8836
 4832SOL     OW26128   4.602   0.975   4.373  0.1342 -0.6899  0.3606
 4832SOL    HW126129   4.535   1.013   4.431  0.0945  3.6373 -2.5097
 4832SOL    HW226130   4.541   0.969   4.299  0.6913 -1.4726 -0.0295
 4833SOL     OW26131   3.827   1.907   2.538 -0.5211 -0.3038  0.3536
 4833SOL    HW126132   3.894   1.933   2.475  0.4338 -1.4757  0.9054
 4833SOL    HW226133   3.783   1.993   2.543  0.7159  0.4183 -1.1951
 4834SOL     OW26134   0.687   0.639   2.540 -0.4871  0.1358  0.0218
 4834SOL    HW126135   0.758   0.575   2.543 -1.9694 -1.4496  0.9402
 4834SOL    HW226136   0.660   0.613   2.452  0.2993  1.2320 -0.5448
 4835SOL     OW26137   2.452   0.081   3.938 -0.0012  0.4840 -0.1112
 4835SOL    HW126138   2.401   0.160   3.955  0.3722  0.3902  1.5343
 4835SOL    HW226139   2.385   0.021   3.906  0.5739 -0.0606 -0.2825
 4836SOL     OW26140   3.206   2.860   2.740 -0.0281 -0.1522 -0.0464
 4836SOL    HW126141   3.292   2.898   2.760 -0.4000  1.2492 -1.1606
 4836SOL    HW226142   3.148   2.900   2.805  0.5121  1.4001 -0.5301
 4837SOL     OW26143   2.712   1.869   6.096 -0.3368 -0.0771  0.7748
 4837SOL    HW126144   2.763   1.863   6.014  0.2665 -0.6299  1.1880
 4837SOL    HW226145   2.770   1.810   6.145  1.1095  1.8138  1.3447
 4838SOL     OW26146   1.543   4.417   5.943  0.6194  0.5316 -0.3603
 4838SOL    HW126147   1.609   4.414   6.013  0.2850  1.4820 -0.0022
 4838SOL    HW226148   1.469   4.457   5.990  2.0359  1.1118  1.3796
 4839SOL     OW26149   2.101   3.028  12.812  0.0819  0.0532 -0.2345
 4839SOL    HW126150   2.017   2.982  12.811  0.0460  0.1208 -0.9838
 4839SOL    HW226151   2.084   3.069  12.896  2.7515  1.0533 -0.1929
 4840SOL     OW26152   2.931   1.030   3.342 -0.2222 -0.5686  0.6841
 4840SOL    HW126153   2.981   0.952   3.366 -0.5606 -0.7345  0.8400
 4840SOL    HW226154   2.895   1.056   3.426 -2.7414 -0.6949 -0.3773
 4841SOL     OW26155   0.031   3.304  15.222  0.1684 -0.5217  0.3204
 4841SOL    HW126156   4.689   3.349  15.243  0.9537  1.0925 -0.0974
 4841SOL    HW226157   4.723   3.228  15.189 -0.5402 -0.5749  1.4651
 4842SOL     OW26158   2.744   0.031   3.578  0.1556 -0.2785  0.5909
 4842SOL    HW126159   2.666   0.087   3.573 -0.6635 -1.4466  0.2025
 4842SOL    HW226160   2.813   0.096   3.586 -0.1700  0.2163 -0.7301
 4843SOL     OW26161   0.680   1.518   7.021 -0.2329  0.7800 -0.3827
 4843SOL    HW126162   0.624   1.442   7.007 -0.6217  0.4470  2.9281
 4843SOL    HW226163   0.628   1.559   7.090  0.7353  0.7236  0.3838
 4844SOL     OW26164   0.985   4.501   2.857 -0.4437  0.4602  0.0407
 4844SOL    HW126165   0.895   4.504   2.824  0.5195  1.7550 -2.4574
 4844SOL    HW226166   0.978   4.501   2.952 -1.7012  1.9978 -0.0446
 4845SOL     OW26167   3.516   3.733   6.219  0.0890  0.0228 -0.3512
 4845SOL    HW126168   3.449   3.760   6.156  1.3602  0.4423 -1.5176
 4845SOL    HW226169   3.558   3.660   6.173 -0.1376 -0.4399  0.1732
 4846SOL     OW26170   0.620   3.544   2.616  0.1123 -0.0481 -0.2277
 4846SOL    HW126171   0.680   3.568   2.686 -1.0911 -1.5563  1.2980
 4846SOL    HW226172   0.669   3.478   2.567  2.6480  1.3073  0.4732
 4847SOL     OW26173   1.373   1.349   7.974  0.6433  0.3104  0.3373
 4847SOL    HW126174   1.374   1.323   7.881 -1.4364 -0.3091  0.4773
 4847SOL    HW226175   1.383   1.444   7.968 -0.3511  0.1460 -4.0886
 4848SOL     OW26176   4.203   2.570   6.080 -0.0945 -0.4943  0.8058
 4848SOL    HW126177   4.222   2.663   6.093  0.0103 -0.2943 -0.8462
 4848SOL    HW226178   4.290   2.547   6.047  0.5044  0.8877  1.4237
 4849SOL     OW26179   1.257   3.387   6.438  0.4007 -0.7223 -0.0613
 4849SOL    HW126180   1.256   3.291   6.428 -1.7215 -0.5137 -1.5961
 4849SOL    HW226181   1.181   3.419   6.390  0.1171  0.4925  1.1983
 4850SOL     OW26182   1.408   1.968   0.822 -0.1493  0.2122  0.2720
 4850SOL    HW126183   1.459   1.977   0.903 -1.6846  0.9692  1.1394
 4850SOL    HW226184   1.320   1.993   0.848 -0.9732 -2.8906  0.4383
 4851SOL     OW26185   3.079   4.256   6.452 -0.6197  0.1265  0.2360
 4851SOL    HW126186   3.158   4.215   6.488  0.3515  0.8302 -1.0821
 4851SOL    HW226187   3.093   4.244   6.358  3.6599  1.2366  0.7306
 4852SOL     OW26188   1.325   4.578   8.367 -0.0065  0.7078  0.2711
 4852SOL    HW126189   1.242   4.603   8.407 -0.3312  1.8802 -1.1347
 4852SOL    HW226190   1.365   4.664   8.359  2.2749 -0.2676  0.9853
 4853SOL     OW26191   0.884   0.448   0.528 -0.0257 -0.0970  0.2587
 4853SOL    HW126192   0.948   0.377   0.517 -0.1877 -0.2030 -0.0102
 4853SOL    HW226193   0.933   0.530   0.536 -0.2124  0.1247 -0.8625
 4854SOL     OW26194   0.071   2.824   3.237 -0.1576  0.5147 -0.6017
 4854SOL    HW126195   0.037   2.788   3.320  2.7129 -0.9308 -0.0587
 4854SOL    HW226196   0.151   2.868   3.266  0.3004 -1.0533  0.5607
 4855SOL     OW26197   1.588   0.606   5.331  0.0243 -0.0169 -0.1644
 4855SOL    HW126198   1.612   0.513   5.333 -1.3071 -0.3316  0.9139
 4855SOL    HW226199   1.649   0.641   5.397 -0.3175  0.4542 -0.0985
 4856SOL     OW26200   2.315   2.514   1.992 -0.0072  0.5384 -0.0841
 4856SOL    HW126201   2.349   2.500   2.081 -0.6919  0.7937  0.2230
 4856SOL    HW226202   2.318   2.421   1.969 -1.6709  0.4934 -0.1829
 4857SOL     OW26203   1.227   0.266   8.729  0.0025  0.4142 -0.5971
 4857SOL    HW126204   1.138   0.290   8.702 -0.4979 -0.2922  0.4595
 4857SOL    HW226205   1.197   0.210   8.800 -0.1897 -0.4954 -1.3991
 4858SOL     OW26206   2.518   3.293   4.728  0.6160 -0.2671  0.0612
 4858SOL    HW126207   2.524   3.368   4.668  1.6889  0.1239  0.6469
 4858SOL    HW226208   2.591   3.232   4.718  0.5957 -0.1939 -0.5483
 4859SOL     OW26209   3.946   3.669  12.534  0.2162  0.4347 -0.2032
 4859SOL    HW126210   3.950   3.759  12.500 -1.5599  0.7818  0.5107
 4859SOL    HW226211   3.872   3.676  12.594  2.3466  3.6660  2.0358
 4860SOL     OW26212   2.634   0.888   0.364  0.9305 -0.0295 -0.2796
 4860SOL    HW126213   2.651   0.957   0.428  1.4297 -0.0451 -0.3994
 4860SOL    HW226214   2.651   0.943   0.287 -0.8009 -1.5015 -1.6974
 4861SOL     OW26215   0.650   2.863  12.278  0.0133  0.2219  0.1512
 4861SOL    HW126216   0.681   2.878  12.188  1.0731  1.5681  0.7307
 4861SOL    HW226217   0.735   2.850  12.321  0.1739 -1.8664 -0.7867
 4862SOL     OW26218   3.084   1.556   8.977 -0.1954  0.2531  0.1459
 4862SOL    HW126219   3.003   1.542   8.928  0.0105 -0.5039  0.0223
 4862SOL    HW226220   3.146   1.554   8.903 -0.3963 -1.3970  0.0297
 4863SOL     OW26221   0.597   2.013   6.211 -0.5460 -0.1824  0.3565
 4863SOL    HW126222   0.654   1.940   6.236 -0.1181  0.3248  0.8369
 4863SOL    HW226223   0.515   1.970   6.232  0.0097  0.2712  3.3946
 4864SOL     OW26224   2.408   1.117   3.401 -0.0412 -0.1152  0.0755
 4864SOL    HW126225   2.327   1.106   3.451  0.4405  1.0581  1.0963
 4864SOL    HW226226   2.406   1.212   3.392  0.0582 -0.0554  0.6800
 4865SOL     OW26227   1.202   3.793   0.141 -0.2303  0.1556 -0.3158
 4865SOL    HW126228   1.285   3.789   0.093  0.0688 -0.1112  0.2135
 4865SOL    HW226229   1.161   3.874   0.113 -4.1150 -1.3453  1.1185
 4866SOL     OW26230   0.579   2.824   8.142  0.3019  0.4734 -0.2454
 4866SOL    HW126231   0.557   2.864   8.058  0.8390  0.6065 -0.3284
 4866SOL    HW226232   0.666   2.862   8.159 -0.3083  0.9701  1.7663
 4867SOL     OW26233   4.046   4.546   9.766  0.3398  0.2778  0.3396
 4867SOL    HW126234   4.008   4.615   9.820  1.1364  1.9355 -1.1956
 4867SOL    HW226235   4.125   4.532   9.817 -0.8407 -2.2540  1.4494
 4868SOL     OW26236   4.329   4.672  17.465  0.0038  0.5969 -0.6787
 4868SOL    HW126237   4.371   4.624  17.536 -1.8089  1.6373  1.0938
 4868SOL    HW226238   4.339   0.024  17.489  1.0410  0.6773 -1.3861
 4869SOL     OW26239   1.960   0.196  10.397  0.0573 -0.1465 -0.3380
 4869SOL    HW126240   1.978   0.223  10.487 -1.8929 -1.4329  0.4178
 4869SOL    HW226241   1.888   0.135  10.415  0.5899 -0.4718  0.6794
 4870SOL     OW26242   0.278   3.716  13.507  0.6401 -0.3448 -0.3308
 4870SOL    HW126243   0.214   3.717  13.578  1.8589 -1.7620  0.7939
 4870SOL    HW226244   0.356   3.685  13.553  1.3744  2.0820  0.0556
 4871SOL     OW26245   3.418   4.396   9.157 -0.6947  0.1324  0.5349
 4871SOL    HW126246   3.401   4.483   9.194  0.0442 -0.2246  1.6941
 4871SOL    HW226247   3.323   4.381   9.148 -0.8410  1.7292 -0.6627
 4872SOL     OW26248   4.482   2.563  11.179 -0.7208  0.7568 -0.0943
 4872SOL    HW126249   4.447   2.586  11.265  1.3698  1.2501  0.6054
 4872SOL    HW226250   4.555   2.623  11.192 -0.6248  0.5352  0.3994
 4873SOL     OW26251   1.691   0.800  11.107 -0.8838 -0.2223 -0.0269
 4873SOL    HW126252   1.654   0.827  11.023  1.8029 -2.0226 -1.8143
 4873SOL    HW226253   1.785   0.802  11.087 -0.9083  2.3854  0.1185
 4874SOL     OW26254   0.213   1.466  17.289  0.3640  0.7584  0.4028
 4874SOL    HW126255   0.294   1.416  17.273 -0.4547 -0.0126 -1.3736
 4874SOL    HW226256   0.197   1.447  17.381  0.6041  0.2986  0.3536
 4875SOL     OW26257   4.501   0.485  15.028 -0.2287 -0.1067 -0.5014
 4875SOL    HW126258   4.542   0.536  15.098 -1.7688  0.1391  0.2152
 4875SOL    HW226259   4.421   0.458  15.072  0.3302 -2.1352 -0.7252
 4876SOL     OW26260   1.744   0.349   6.827  0.0443 -0.1990 -0.0645
 4876SOL    HW126261   1.778   0.275   6.776  1.1599  1.2866 -1.4728
 4876SOL    HW226262   1.654   0.318   6.824 -0.5412  1.8599 -3.3020
 4877SOL     OW26263   1.807   3.569   8.934  0.2132 -0.2447 -0.5257
 4877SOL    HW126264   1.719   3.582   8.899  0.1394 -1.1810 -0.6801
 4877SOL    HW226265   1.825   3.478   8.912 -0.9037 -0.4735 -0.4754
 4878SOL     OW26266   1.665   2.264   4.266  0.0432 -0.0162 -0.0962
 4878SOL    HW126267   1.758   2.284   4.273  0.2921 -0.9327 -0.8409
 4878SOL    HW226268   1.642   2.297   4.179 -0.8723 -1.4867 -0.4300
 4879SOL     OW26269   0.854   0.280   4.754  0.9217 -0.3725 -0.1432
 4879SOL    HW126270   0.908   0.263   4.831  0.8618 -0.6908 -0.1696
 4879SOL    HW226271   0.767   0.291   4.792  0.1981  1.4111 -2.3177
 4880SOL     OW26272   2.872   0.517  11.323  0.1342 -0.0897  0.5382
 4880SOL    HW126273   2.796   0.461  11.342 -0.3608  0.7107  0.9161
 4880SOL    HW226274   2.831   0.601  11.346  0.0306 -0.1976  0.7456
 4881SOL     OW26275   4.449   0.560   4.026 -0.0136  0.0186 -0.4048
 4881SOL    HW126276   4.477   0.599   4.109 -0.8842  0.9618 -0.5631
 4881SOL    HW226277   4.362   0.529   4.049  0.1120  0.1520  0.2584
 4882SOL     OW26278   4.113   2.535   6.846  0.3428 -0.2526  0.2663
 4882SOL    HW126279   4.123   2.457   6.791  1.0061 -0.6701  0.9819
 4882SOL    HW226280   4.190   2.529   6.902  0.9974 -0.4416 -0.6507
 4883SOL     OW26281   1.416   4.262   4.980  0.0390  0.3304  0.2821
 4883SOL    HW126282   1.472   4.253   5.057  1.7277  0.8937 -0.8957
 4883SOL    HW226283   1.340   4.312   5.010 -0.4463  0.0142 -0.4245
 4884SOL     OW26284   3.731   2.215   9.970  0.5607 -0.1462  0.2196
 4884SOL    HW126285   3.678   2.163  10.031 -0.4690 -0.9252 -1.3195
 4884SOL    HW226286   3.817   2.172   9.971  0.6008 -0.0450  0.9064
 4885SOL     OW26287   0.619   3.965   4.443  0.2843 -0.4029 -0.3661
 4885SOL    HW126288   0.697   3.913   4.425 -1.0548 -2.0477 -1.4403
 4885SOL    HW226289   0.553   3.896   4.447 -0.4728  0.4323  1.6727
 4886SOL     OW26290   0.698   1.124   4.647  0.2000 -0.4463  0.5026
 4886SOL    HW126291   0.773   1.065   4.648  0.9739  0.4959 -2.5971
 4886SOL    HW226292   0.706   1.157   4.558  0.6492 -0.7073  0.4498
 4887SOL     OW26293   4.140   1.606   2.430 -0.4543 -0.0478 -0.3221
 4887SOL    HW126294   4.104   1.614   2.518  3.1288 -3.5946  1.4627
 4887SOL    HW226295   4.066   1.564   2.385 -0.6368 -2.4359  2.2071
 4888SOL     OW26296   2.698   4.190   7.129 -0.2603  0.2790 -0.7399
 4888SOL    HW126297   2.722   4.268   7.179 -1.3957  1.4971 -2.0524
 4888SOL    HW226298   2.777   4.172   7.078 -0.8505 -3.9094 -0.0926
 4889SOL     OW26299   4.641   3.159  14.577  0.1112  0.2603  0.6392
 4889SOL    HW126300   4.695   3.115  14.512 -1.5984 -0.6591 -0.1696
 4889SOL    HW226301   4.554   3.139  14.543 -0.2206 -0.9834  2.2318
 4890SOL     OW26302   0.431   3.306  16.703 -0.1626  0.7032  0.0935
 4890SOL    HW126303   0.447   3.400  16.703 -0.5711  0.7679 -0.6473
 4890SOL    HW226304   0.502   3.276  16.645  0.5419  1.9780  0.3012
 4891SOL     OW26305   2.640   2.867   9.416  0.3536  0.4828  0.1820
 4891SOL    HW126306   2.586   2.803   9.463  1.1730  0.3074  0.8850
 4891SOL    HW226307   2.727   2.836   9.441  0.9470  0.9331 -1.3282
 4892SOL     OW26308   4.383   4.427   9.553 -0.4222 -0.0291 -0.0397
 4892SOL    HW126309   4.458   4.398   9.501 -0.7830 -0.0231 -0.5582
 4892SOL    HW226310   4.368   4.342   9.593  0.3515  0.7284  1.8728
 4893SOL     OW26311   2.003   4.614  16.557  0.2919  0.4064  0.0010
 4893SOL    HW126312   1.946   4.542  16.583  0.4876 -0.4076 -1.8258
 4893SOL    HW226313   1.966   4.624  16.469 -0.5947  0.7122  0.4032
 4894SOL     OW26314   1.294   2.143  12.698 -0.3732  0.5914 -0.4081
 4894SOL    HW126315   1.379   2.137  12.742  0.4621 -0.7181 -2.2128
 4894SOL    HW226316   1.246   2.159  12.780  1.0283 -0.3100  0.5857
 4895SOL     OW26317   0.331   3.912   8.485  0.1347 -0.0035 -0.0595
 4895SOL    HW126318   0.326   3.998   8.526 -0.8517 -0.8277  1.5721
 4895SOL    HW226319   0.240   3.894   8.464 -0.2236  1.0315  0.6230
 4896SOL     OW26320   4.451   4.598  17.691 -0.3375  0.6693 -0.5084
 4896SOL    HW126321   4.433   4.516  17.738 -0.8192  0.7372 -0.5793
 4896SOL    HW226322   4.529   4.638  17.730  1.3458 -1.6284 -1.5162
 4897SOL     OW26323   2.558   0.952   5.499  0.2222  0.1562  0.3739
 4897SOL    HW126324   2.559   1.031   5.553 -1.3713  0.7071 -0.4045
 4897SOL    HW226325   2.638   0.957   5.447  0.3660  0.8773  0.6655
 4898SOL     OW26326   2.923   4.340   1.354  0.0772  0.3666  0.0857
 4898SOL    HW126327   2.990   4.408   1.364 -0.5596  1.3912 -2.4313
 4898SOL    HW226328   2.951   4.301   1.270  1.6491  0.6411  0.4849
 4899SOL     OW26329   1.661   1.543  14.427 -0.3753  0.1879  0.9628
 4899SOL    HW126330   1.697   1.501  14.349  1.6332  1.3133  1.2705
 4899SOL    HW226331   1.569   1.549  14.403 -0.2306 -3.7484 -0.6412
 4900SOL     OW26332   1.929   4.174  13.376  0.6092 -0.2975  0.3129
 4900SOL    HW126333   1.876   4.165  13.296  0.0953  1.7664  0.4201
 4900SOL    HW226334   1.859   4.150  13.436  0.6771 -3.0715 -0.7068
 4901SOL     OW26335   4.682   3.672  16.636 -0.0305  0.2511 -0.5892
 4901SOL    HW126336   4.589   3.687  16.619 -0.6699 -2.5752  0.3076
 4901SOL    HW226337   4.697   3.591  16.586  3.2622  0.5400 -0.0757
 4902SOL     OW26338   0.623   0.246   9.015  0.3349 -0.0286 -0.0914
 4902SOL    HW126339   0.603   0.323   8.962 -0.4114  1.3788  2.2530
 4902SOL    HW226340   0.583   0.266   9.100  2.0193  0.2362  0.6428
 4903SOL     OW26341   1.191   3.507  13.773  0.4886  0.6459  0.3563
 4903SOL    HW126342   1.204   3.424  13.728 -1.7396 -0.1394  1.1294
 4903SOL    HW226343   1.140   3.473  13.846 -0.0626  0.7717  0.0372
 4904SOL     OW26344   0.096   4.696  16.855 -0.4385 -0.4914 -0.6314
 4904SOL    HW126345   0.078   4.711  16.762 -1.3383 -2.5261 -0.7822
 4904SOL    HW226346   0.170   4.637  16.849  0.7955  1.2729 -2.5458
 4905SOL     OW26347   0.872   3.130   4.167  0.2849 -0.4249 -0.6428
 4905SOL    HW126348   0.782   3.118   4.197 -0.3294  1.3647 -1.6864
 4905SOL    HW226349   0.914   3.053   4.203  0.6789 -0.1897 -0.5984
 4906SOL     OW26350   2.522   2.887   9.021  0.3451 -0.0054 -0.8743
 4906SOL    HW126351   2.464   2.813   9.000  0.7787 -0.7190  0.4618
 4906SOL    HW226352   2.605   2.848   8.994  1.5308  0.6922  1.8834
 4907SOL     OW26353   0.846   1.670   5.469  0.1227  0.5113  0.2556
 4907SOL    HW126354   0.805   1.737   5.414  2.1733 -0.4673 -2.5206
 4907SOL    HW226355   0.934   1.670   5.430 -0.7726  1.4002 -1.7927
 4908SOL     OW26356   1.451   0.081   4.364 -0.6613  0.6407 -0.0822
 4908SOL    HW126357   1.501   0.000   4.353  0.6933  1.7109 -1.6458
 4908SOL    HW226358   1.388   0.077   4.291 -1.2991  0.5612  0.4714
 4909SOL     OW26359   2.283   2.057  17.051  0.5455 -0.1748  0.7174
 4909SOL    HW126360   2.214   2.028  17.110  1.0148 -0.0858  1.3076
 4909SOL    HW226361   2.325   1.971  17.043 -0.1064 -0.7424  3.3109
 4910SOL     OW26362   4.067   2.941   1.751  0.7347 -0.3378  0.0700
 4910SOL    HW126363   4.063   3.037   1.749  0.1879 -0.4473 -3.5463
 4910SOL    HW226364   4.106   2.918   1.667 -0.3184 -2.7739  0.2726
 4911SOL     OW26365   3.544   4.722   3.749  0.3886  0.0601 -0.4979
 4911SOL    HW126366   3.514   0.043   3.816 -1.0436 -0.1062 -1.0031
 4911SOL    HW226367   3.640   4.727   3.742  0.4311  0.0347  0.0782
 4912SOL     OW26368   3.304   3.290  15.542 -0.0372 -0.0984  0.2904
 4912SOL    HW126369   3.366   3.278  15.614  0.1897  3.2237  0.6600
 4912SOL    HW226370   3.291   3.198  15.520 -0.3461 -0.3162  1.3966
 4913SOL     OW26371   3.036   2.264  13.151  0.0174 -0.2051 -0.3406
 4913SOL    HW126372   3.008   2.180  13.115 -0.4629  0.3449 -1.2690
 4913SOL    HW226373   2.995   2.323  13.087 -0.9400 -0.7596 -0.2264
 4914SOL     OW26374   1.839   3.051   3.137 -0.0726  1.0017 -0.0305
 4914SOL    HW126375   1.877   3.138   3.127 -0.4480  1.2403  0.6268
 4914SOL    HW226376   1.905   3.016   3.197 -0.2094  1.5826  0.4600
 4915SOL     OW26377   2.820   1.325  17.433 -0.1305  0.5552  0.4296
 4915SOL    HW126378   2.913   1.338  17.413 -0.1143 -0.7399 -0.3268
 4915SOL    HW226379   2.794   1.263  17.365  1.2284 -1.1539  1.4665
 4916SOL     OW26380   4.096   1.034  12.069 -0.5383  0.6120 -0.4198
 4916SOL    HW126381   4.023   0.974  12.055 -0.5353  0.8736 -1.5606
 4916SOL    HW226382   4.169   0.972  12.075  0.3011  1.8162  1.8930
 4917SOL     OW26383   2.777   0.934   6.416 -0.1535  0.1852 -0.3861
 4917SOL    HW126384   2.810   0.879   6.487  1.2220 -0.3240 -1.4178
 4917SOL    HW226385   2.778   1.020   6.457  1.8801  0.2291 -0.5431
 4918SOL     OW26386   3.950   3.632   6.235 -0.1674 -0.0484  0.0415
 4918SOL    HW126387   3.947   3.623   6.330 -2.1382  0.2373  0.0069
 4918SOL    HW226388   3.966   3.547   6.195  1.3686  0.6421 -0.8436
 4919SOL     OW26389   3.199   4.067  15.868  0.4503 -0.3904 -0.1391
 4919SOL    HW126390   3.165   4.120  15.796  1.2830  2.5785  1.6221
 4919SOL    HW226391   3.121   4.051  15.921  0.4554  0.1508  0.0365
 4920SOL     OW26392   1.082   1.378   9.384 -0.5161 -0.3967 -0.3140
 4920SOL    HW126393   1.123   1.291   9.378  0.6844  0.3098 -2.1657
 4920SOL    HW226394   1.163   1.429   9.373 -0.4911 -0.0043  1.6269
 4921SOL     OW26395   2.235   2.255   2.455  0.5484  0.3222  0.5418
 4921SOL    HW126396   2.263   2.343   2.428 -2.9383  1.6347  1.1887
 4921SOL    HW226397   2.143   2.267   2.477  0.8494 -0.6025  2.2592
 4922SOL     OW26398   3.836   4.139   2.306 -0.1042  0.5159 -0.0507
 4922SOL    HW126399   3.860   4.086   2.382 -0.7486 -0.4288 -0.5082
 4922SOL    HW226400   3.754   4.092   2.295 -0.4591  0.7635  1.4866
 4923SOL     OW26401   2.623   4.592   5.278  0.0914 -0.1560  0.1863
 4923SOL    HW126402   2.717   4.586   5.259 -0.0214 -0.6461 -0.2291
 4923SOL    HW226403   2.601   4.685   5.271 -0.9133 -0.4450 -0.5845
 4924SOL     OW26404   2.195   3.058   0.742 -0.5773 -0.1816 -0.1990
 4924SOL    HW126405   2.195   3.080   0.835  3.8548 -0.5195 -0.0817
 4924SOL    HW226406   2.141   2.979   0.743 -2.5788  1.1865 -1.7822
 4925SOL     OW26407   4.457   3.427   2.909  0.5207  0.2401 -0.2473
 4925SOL    HW126408   4.452   3.469   2.995 -2.8996  0.1681 -0.4387
 4925SOL    HW226409   4.418   3.493   2.852  1.2693  1.7651  1.0077
 4926SOL     OW26410   1.154   1.279  12.106 -1.0006 -0.2550  0.3705
 4926SOL    HW126411   1.091   1.313  12.043 -0.6700  0.2476  0.3074
 4926SOL    HW226412   1.138   1.340  12.178 -2.4309 -0.7616  0.4780
 4927SOL     OW26413   1.353   2.933   3.655  0.5380 -0.1857 -0.0590
 4927SOL    HW126414   1.352   3.012   3.710 -0.5333 -2.2892  2.9803
 4927SOL    HW226415   1.322   2.878   3.727  1.7179  1.0471  1.3966
 4928SOL     OW26416   3.975   0.086  15.132  0.2939  0.6491  0.2179
 4928SOL    HW126417   3.922   0.059  15.207 -0.9199  0.8328 -0.5655
 4928SOL    HW226418   3.954   0.179  15.125 -2.9073  0.0340  1.6008
 4929SOL     OW26419   2.931   3.608   0.258 -0.3012 -0.0863  0.3000
 4929SOL    HW126420   2.879   3.660   0.196 -0.6011  0.9711  1.4427
 4929SOL    HW226421   2.929   3.525   0.210 -2.8561  0.8980 -1.3474
 4930SOL     OW26422   1.226   4.220   0.876 -0.5573 -0.5052  0.0209
 4930SOL    HW126423   1.293   4.253   0.937 -1.7865  3.4612 -0.7921
 4930SOL    HW226424   1.184   4.304   0.857 -0.4170 -0.6421 -0.8618
 4931SOL     OW26425   0.613   1.671   9.730 -0.1291 -0.5225  0.5502
 4931SOL    HW126426   0.526   1.640   9.754 -1.8069  1.5743 -2.8360
 4931SOL    HW226427   0.667   1.593   9.740 -0.6363 -0.9092  0.2963
 4932SOL     OW26428   0.392   2.046   3.766  0.1442  0.0747 -0.3872
 4932SOL    HW126429   0.466   2.007   3.719  1.8422  1.1070  1.4148
 4932SOL    HW226430   0.352   2.089   3.691  0.8582 -2.0160 -1.9781
 4933SOL     OW26431   4.193   4.374   0.519 -1.1939 -0.1514  0.1722
 4933SOL    HW126432   4.245   4.317   0.577 -1.6336  2.0692  2.7870
 4933SOL    HW226433   4.112   4.324   0.507 -0.7144 -0.2946 -2.4606
 4934SOL     OW26434   2.958   0.366   1.046 -0.2606  0.0710  0.6615
 4934SOL    HW126435   3.032   0.356   0.986 -0.2813 -0.7244  0.7590
 4934SOL    HW226436   2.912   0.283   1.035  0.4135 -0.2507  0.1974
 4935SOL     OW26437   2.542   3.679   5.239  0.1833  0.3550 -0.4252
 4935SOL    HW126438   2.475   3.617   5.266  0.6861 -0.7098 -1.6420
 4935SOL    HW226439   2.617   3.646   5.288 -0.5385 -0.9185 -0.1894
 4936SOL     OW26440   4.165   2.327   6.645  0.2478  0.1330 -0.5861
 4936SOL    HW126441   4.256   2.302   6.629 -0.2752 -0.8416 -1.9959
 4936SOL    HW226442   4.117   2.328   6.562  1.9235  0.8336 -1.5364
 4937SOL     OW26443   4.590   1.964   9.613 -0.2065 -0.5617 -0.0216
 4937SOL    HW126444   4.537   1.924   9.544 -0.3492  0.3630 -0.4539
 4937SOL    HW226445   4.569   2.056   9.597 -1.9836 -1.3426 -2.2030
 4938SOL     OW26446   2.889   3.487   1.426 -0.3026 -0.0175  0.6050
 4938SOL    HW126447   2.927   3.495   1.514  0.4032  0.2489  0.2775
 4938SOL    HW226448   2.806   3.527   1.453 -0.2622 -0.6231  1.6364
 4939SOL     OW26449   0.580   0.131   6.995  0.1910 -0.2824  0.5956
 4939SOL    HW126450   0.528   0.133   6.914 -0.5758 -1.7536  1.0674
 4939SOL    HW226451   0.605   0.224   7.002 -1.2311  0.1051  0.5276
 4940SOL     OW26452   3.567   2.581   7.330 -0.3747  0.8987 -0.1955
 4940SOL    HW126453   3.602   2.587   7.419  0.6396  1.7101 -0.6431
 4940SOL    HW226454   3.610   2.503   7.294  0.0598  1.3053 -0.5740
 4941SOL     OW26455   1.853   3.307   4.463 -0.5441  0.3701 -0.1627
 4941SOL    HW126456   1.786   3.354   4.511 -0.0107  0.9500  0.0127
 4941SOL    HW226457   1.924   3.299   4.527 -3.4834  0.6525  3.1242
 4942SOL     OW26458   3.361   2.683   5.285 -0.3322 -0.1494 -0.5232
 4942SOL    HW126459   3.289   2.745   5.296 -0.0170 -0.2652  2.1842
 4942SOL    HW226460   3.316   2.617   5.232 -1.6925  0.9481 -0.7407
 4943SOL     OW26461   2.122   3.918   7.812 -0.4260  0.1822 -0.2975
 4943SOL    HW126462   2.082   3.834   7.787  0.4337 -0.6074  1.0027
 4943SOL    HW226463   2.165   3.953   7.734  0.3834 -0.2730 -0.0574
 4944SOL     OW26464   2.111   2.435  15.346  0.3249  0.2715  0.2856
 4944SOL    HW126465   2.185   2.473  15.300 -0.9056  2.2031 -0.0949
 4944SOL    HW226466   2.126   2.342  15.328  0.6879  0.1336  1.3013
 4945SOL     OW26467   0.604   2.273  11.511 -0.1190 -0.5323  0.0874
 4945SOL    HW126468   0.570   2.185  11.528  2.4035 -1.3489  0.9511
 4945SOL    HW226469   0.620   2.305  11.600  1.1834 -1.3018  0.1296
 4946SOL     OW26470   4.249   3.853   9.125 -0.2634  0.3579 -0.0332
 4946SOL    HW126471   4.311   3.904   9.177 -1.6372  2.5221 -0.4864
 4946SOL    HW226472   4.306   3.806   9.065  1.3323  0.9918  0.9797
 4947SOL     OW26473   1.533   3.744   9.015 -0.3762  0.5550 -0.3960
 4947SOL    HW126474   1.613   3.797   9.019  0.1046 -0.0887 -1.3511
 4947SOL    HW226475   1.504   3.744   8.924 -0.0510  0.3589 -0.5014
 4948SOL     OW26476   2.357   2.805   8.220 -0.0571 -0.6083 -0.0537
 4948SOL    HW126477   2.369   2.897   8.245 -0.5699  0.4717 -3.7512
 4948SOL    HW226478   2.267   2.777   8.234 -0.1774 -0.2338 -0.0911
 4949SOL     OW26479   0.775   4.150   6.979  0.1403  0.0455  0.1586
 4949SOL    HW126480   0.847   4.099   7.017  1.9663  1.3263 -1.5815
 4949SOL    HW226481   0.701   4.106   7.020  0.1863  1.0365  1.3311
 4950SOL     OW26482   4.032   1.627   4.560 -0.1676  0.2918 -0.8846
 4950SOL    HW126483   4.050   1.641   4.467 -0.5522 -0.6087 -1.0867
 4950SOL    HW226484   4.108   1.677   4.591 -0.0851 -0.9778  0.9586
 4951SOL     OW26485   1.373   2.826   9.668  0.5849  0.2949  0.0998
 4951SOL    HW126486   1.413   2.905   9.633 -0.7446  1.4068  1.0686
 4951SOL    HW226487   1.431   2.807   9.742 -0.1221  1.8725  1.0588
 4952SOL     OW26488   1.325   2.191   7.123 -0.2760  0.0496 -0.2433
 4952SOL    HW126489   1.388   2.218   7.190 -1.5266  2.8866 -0.2259
 4952SOL    HW226490   1.384   2.147   7.062  2.0328  1.5335  0.9288
 4953SOL     OW26491   0.989   1.711   5.150 -0.2505 -0.1011  0.2498
 4953SOL    HW126492   1.047   1.706   5.226  1.3457  4.9247 -0.6438
 4953SOL    HW226493   0.965   1.618   5.151  1.7398 -0.6403 -0.3206
 4954SOL     OW26494   0.491   3.754  11.498  0.2586 -0.2590  0.0421
 4954SOL    HW126495   0.529   3.666  11.493 -0.3943 -0.5259 -0.1881
 4954SOL    HW226496   0.404   3.740  11.535 -0.4456  0.4713 -1.3070
 4955SOL     OW26497   4.576   2.029  17.242  0.2202  0.4367  0.5562
 4955SOL    HW126498   4.506   2.095  17.242 -1.0016 -0.8794 -1.6415
 4955SOL    HW226499   4.631   2.072  17.178  2.8562 -2.3770  0.9310
 4956SOL     OW26500   1.770   4.020  14.321 -0.1290 -0.1557 -0.2339
 4956SOL    HW126501   1.784   4.026  14.227  1.1488 -0.0181 -0.0403
 4956SOL    HW226502   1.685   3.979  14.330 -1.2763  2.4814  1.0593
 4957SOL     OW26503   1.672   0.722  16.730  0.1752  0.0487 -0.7560
 4957SOL    HW126504   1.727   0.723  16.652  0.0213  0.2621 -0.8593
 4957SOL    HW226505   1.684   0.807  16.773  0.3331  1.1092 -2.9069
 4958SOL     OW26506   4.735   2.425   5.303  0.0736  0.1166 -0.0127
 4958SOL    HW126507   0.048   2.468   5.370  2.0750 -1.4455 -0.6258
 4958SOL    HW226508   0.013   2.473   5.222  1.7696 -0.6017 -0.0457
 4959SOL     OW26509   3.494   1.609   1.982  0.0566 -0.3206  0.0915
 4959SOL    HW126510   3.483   1.640   1.892  2.5351  1.5988  0.4388
 4959SOL    HW226511   3.583   1.641   1.995 -0.2140  0.6944 -0.5322
 4960SOL     OW26512   4.353   1.285   2.949  0.4118 -0.4473  0.0320
 4960SOL    HW126513   4.400   1.352   2.998 -1.3096  0.4894  0.3968
 4960SOL    HW226514   4.302   1.340   2.890 -1.0395 -3.0216 -1.1439
 4961SOL     OW26515   3.322   0.355   2.610 -0.4152  0.3586  0.1814
 4961SOL    HW126516   3.339   0.431   2.554 -0.5634 -0.1453 -0.5399
 4961SOL    HW226517   3.410   0.349   2.649  0.0961  1.5008 -0.7875
 4962SOL     OW26518   3.925   0.865  12.002 -0.3292  0.4945  0.4316
 4962SOL    HW126519   3.852   0.844  11.943 -0.2053  1.9927 -0.2660
 4962SOL    HW226520   3.918   0.789  12.060  0.6881 -0.9134 -1.3290
 4963SOL     OW26521   1.196   0.014   1.045 -0.7961 -0.3271 -0.6244
 4963SOL    HW126522   1.118   0.022   0.990 -0.3598 -1.2619 -1.3773
 4963SOL    HW226523   1.197   4.663   1.073 -0.2595 -0.2521 -0.3880
 4964SOL     OW26524   1.645   0.704   1.578  0.0361  0.3896  0.2086
 4964SOL    HW126525   1.629   0.644   1.505  0.9078 -1.2563  1.3638
 4964SOL    HW226526   1.645   0.789   1.534  2.2137 -0.3134 -1.1176
 4965SOL     OW26527   0.260   0.636   6.357  1.0226  0.1055  0.2301
 4965SOL    HW126528   0.318   0.562   6.336  2.4100  0.9150  1.1396
 4965SOL    HW226529   0.265   0.690   6.279 -1.4249  0.7567  0.5479
 4966SOL     OW26530   4.547   3.023  13.377  0.1496  0.1316 -0.6534
 4966SOL    HW126531   4.612   2.975  13.427 -1.8482 -1.7430  0.1631
 4966SOL    HW226532   4.585   3.044  13.292 -0.8850 -0.0816 -1.1752
 4967SOL     OW26533   2.357   4.180   1.531  0.3620  0.1407  0.1735
 4967SOL    HW126534   2.315   4.262   1.507 -0.8646 -0.1462  1.2719
 4967SOL    HW226535   2.391   4.210   1.615 -0.1146  1.8828 -0.2581
 4968SOL     OW26536   3.759   1.589   7.613  0.3533  0.0220 -0.3157
 4968SOL    HW126537   3.837   1.643   7.607  0.8326 -0.6445 -0.0002
 4968SOL    HW226538   3.710   1.630   7.684  1.1438  2.3978 -1.1510
 4969SOL     OW26539   4.142   2.013   8.807 -0.2051 -0.1296  0.2741
 4969SOL    HW126540   4.213   2.029   8.869 -1.4672 -1.3936  2.0494
 4969SOL    HW226541   4.106   2.101   8.810  1.4731  0.5570  0.2553
 4970SOL     OW26542   3.512   3.774   8.374  1.1497  0.1656 -0.2508
 4970SOL    HW126543   3.445   3.706   8.367  0.1743  1.0870  0.0809
 4970SOL    HW226544   3.552   3.757   8.459 -0.8892 -0.4526  0.5687
 4971SOL     OW26545   0.621   3.933   2.620  0.1303 -0.5252  0.3013
 4971SOL    HW126546   0.694   3.914   2.561 -0.5343 -0.9754 -0.3951
 4971SOL    HW226547   0.667   3.905   2.699  0.6468  0.0221  0.1939
 4972SOL     OW26548   1.897   3.621  10.233  0.1801 -0.1149  0.5143
 4972SOL    HW126549   1.930   3.710  10.216 -2.4094  0.9541  1.0458
 4972SOL    HW226550   1.830   3.628  10.301 -1.4974  3.3042 -1.4971
 4973SOL     OW26551   0.225   3.185   5.262 -0.5946  0.5511  0.7209
 4973SOL    HW126552   0.307   3.231   5.277 -1.0014  1.9434 -1.3606
 4973SOL    HW226553   0.206   3.156   5.352  0.0840  0.8315  0.9538
 4974SOL     OW26554   3.021   3.092   0.518 -0.1874  0.6598  0.0960
 4974SOL    HW126555   2.990   3.093   0.609 -0.2666 -2.2925  0.0725
 4974SOL    HW226556   2.975   3.017   0.481 -0.1046  0.6963 -0.0807
 4975SOL     OW26557   0.837   4.598   6.768  0.4118  0.7576  0.3638
 4975SOL    HW126558   0.897   4.530   6.739  0.7923  1.3463 -0.2478
 4975SOL    HW226559   0.771   4.546   6.813  1.9944 -1.5399  0.0276
 4976SOL     OW26560   1.557   2.293   2.650 -0.3516  0.1352 -0.6962
 4976SOL    HW126561   1.626   2.275   2.585  1.4205  0.4514  1.0892
 4976SOL    HW226562   1.512   2.373   2.620 -1.8734 -0.3676  0.2596
 4977SOL     OW26563   1.180   3.542  13.036 -0.2155 -1.1592  0.4580
 4977SOL    HW126564   1.086   3.531  13.017  0.8030 -1.2149 -4.4590
 4977SOL    HW226565   1.184   3.530  13.131 -1.2309 -0.1379  0.6328
 4978SOL     OW26566   3.829   0.398   7.297 -0.1688 -0.1033  0.1124
 4978SOL    HW126567   3.920   0.384   7.272 -0.3941 -0.5793 -0.4352
 4978SOL    HW226568   3.788   0.358   7.220  2.9363  0.1424 -1.6380
 4979SOL     OW26569   0.118   1.601   5.060  0.0006 -0.7711  0.3726
 4979SOL    HW126570   0.205   1.563   5.045  0.4592  0.5710 -0.4507
 4979SOL    HW226571   0.125   1.642   5.146 -2.3514 -2.9375  1.5841
 4980SOL     OW26572   1.012   0.926   5.361 -0.3216 -0.2668 -0.6399
 4980SOL    HW126573   1.106   0.912   5.355 -0.2736  0.4020 -1.3965
 4980SOL    HW226574   1.007   1.021   5.354  0.9901 -0.2741 -1.5597
 4981SOL     OW26575   2.247   4.148  17.429  0.1455  0.7858 -0.5617
 4981SOL    HW126576   2.299   4.211  17.481 -2.0496 -0.6750  3.3947
 4981SOL    HW226577   2.283   4.063  17.451 -0.5585  0.5284 -0.4201
 4982SOL     OW26578   1.483   0.060  10.815  0.7277 -0.7189 -0.1227
 4982SOL    HW126579   1.575   0.067  10.791  0.6867  2.7591  0.6687
 4982SOL    HW226580   1.452   4.731  10.756  0.1466  1.0523 -1.9354
 4983SOL     OW26581   2.196   0.815   9.706  0.1214  0.2426 -0.0374
 4983SOL    HW126582   2.176   0.726   9.736 -0.7652  0.3427 -0.3452
 4983SOL    HW226583   2.178   0.863   9.787  4.1386 -0.1693  1.0988
 4984SOL     OW26584   1.863   2.134   5.036 -0.1591  0.1806 -0.2564
 4984SOL    HW126585   1.817   2.063   5.082  1.2117 -0.1649  0.5767
 4984SOL    HW226586   1.790   2.176   4.990 -1.5742 -0.6676  1.2128
 4985SOL     OW26587   3.808   3.348   8.798  0.1136 -0.0987  0.6470
 4985SOL    HW126588   3.876   3.344   8.730 -0.3721 -0.0168  0.1593
 4985SOL    HW226589   3.804   3.442   8.818  0.1446 -0.0408  0.3873
 4986SOL     OW26590   3.526   4.302   2.718 -0.4628 -0.1157 -0.4174
 4986SOL    HW126591   3.466   4.234   2.746 -0.4461  0.4111  0.8800
 4986SOL    HW226592   3.511   4.359   2.793 -1.0955 -0.9671  0.1084
 4987SOL     OW26593   2.043   1.085   2.988  0.2065 -0.6571 -0.5108
 4987SOL    HW126594   2.008   1.063   3.075 -1.7940  1.1389 -0.8707
 4987SOL    HW226595   2.083   1.000   2.970  2.2636  0.3999 -0.8673
 4988SOL     OW26596   1.308   2.746   6.772 -0.4889 -0.4782 -0.1965
 4988SOL    HW126597   1.403   2.739   6.773 -0.5408 -1.4190 -1.6481
 4988SOL    HW226598   1.287   2.838   6.753  0.0349  0.0424  1.7245
 4989SOL     OW26599   3.452   4.222   6.182 -0.1086 -0.4495  0.6058
 4989SOL    HW126600   3.398   4.187   6.111  0.9055 -0.0568 -0.3742
 4989SOL    HW226601   3.467   4.307   6.141  0.3385 -0.6652  0.3169
 4990SOL     OW26602   1.064   0.543   9.837  0.4257  0.4017 -0.1707
 4990SOL    HW126603   1.022   0.468   9.879 -0.2921  0.0062 -1.5905
 4990SOL    HW226604   1.050   0.528   9.743 -1.3702  1.3553 -0.0674
 4991SOL     OW26605   0.593   0.676  11.646  0.6322 -0.3315  0.0767
 4991SOL    HW126606   0.679   0.705  11.617 -0.2413  0.4029 -1.7878
 4991SOL    HW226607   0.534   0.737  11.602  2.9607  1.9231  0.0709
 4992SOL     OW26608   0.543   4.150   6.654  0.0780  0.4169 -0.3920
 4992SOL    HW126609   0.569   4.227   6.602  0.4384  1.3683  1.2130
 4992SOL    HW226610   0.517   4.196   6.734 -1.5617  1.5499 -1.5567
 4993SOL     OW26611   2.438   1.355   7.111 -0.5540  0.0991 -0.1744
 4993SOL    HW126612   2.534   1.360   7.115 -0.4567 -0.4418 -1.7331
 4993SOL    HW226613   2.411   1.429   7.166 -1.6615  0.3702 -1.0878
 4994SOL     OW26614   3.675   4.256  17.148  0.0714 -0.1983  0.1302
 4994SOL    HW126615   3.599   4.198  17.150 -0.8659  1.0593  0.7205
 4994SOL    HW226616   3.715   4.244  17.234 -1.2597 -1.9304  0.4852
 4995SOL     OW26617   1.928   3.108   9.210  0.4595 -0.3078  0.5434
 4995SOL    HW126618   1.907   3.024   9.169 -1.1680  1.1409 -1.5924
 4995SOL    HW226619   1.990   3.083   9.278 -0.0313 -1.2500  0.6493
 4996SOL     OW26620   0.926   1.586  16.585  0.0836  0.3022 -0.3303
 4996SOL    HW126621   1.016   1.589  16.551 -0.2043  1.1930 -1.0084
 4996SOL    HW226622   0.903   1.505  16.540 -0.7767  0.2781  0.1693
 4997SOL     OW26623   4.006   2.906   9.602 -0.0343 -0.4119 -0.3008
 4997SOL    HW126624   4.015   2.984   9.657  1.1044 -2.3611  2.2391
 4997SOL    HW226625   4.035   2.840   9.665  0.5619 -0.3073 -0.4711
 4998SOL     OW26626   1.426   1.782   9.910  0.2453  0.0518  0.5434
 4998SOL    HW126627   1.462   1.738   9.987 -0.5135 -2.7583 -0.7125
 4998SOL    HW226628   1.344   1.735   9.895  1.1247 -1.1698 -0.4951
 4999SOL     OW26629   0.424   2.274   2.968  0.0072  0.4469  0.3143
 4999SOL    HW126630   0.495   2.305   2.913 -1.3478 -1.0465 -2.2763
 4999SOL    HW226631   0.362   2.347   2.968  0.2345  0.6445  0.6430
 5000SOL     OW26632   3.577   3.911   2.877  0.0586  0.0864  0.3516
 5000SOL    HW126633   3.569   3.989   2.822 -2.1652 -0.5129 -0.1481
 5000SOL    HW226634   3.488   3.894   2.908  0.3674 -0.9417  0.6963
 5001SOL     OW26635   3.365   4.430   7.607 -0.1434 -0.0281 -0.1474
 5001SOL    HW126636   3.386   4.345   7.645 -3.1489  0.1913  2.0333
 5001SOL    HW226637   3.441   4.454   7.554 -1.5521  0.1921 -2.0460
 5002SOL     OW26638   3.176   0.734   8.413 -0.7034  0.3764 -0.1886
 5002SOL    HW126639   3.137   0.818   8.388 -2.2598 -0.2022  0.2984
 5002SOL    HW226640   3.233   0.759   8.485  0.4042  0.3656 -1.0587
 5003SOL     OW26641   1.327   4.638   9.405  0.7217 -0.8209 -0.1349
 5003SOL    HW126642   1.351   4.593   9.324  2.3361  0.6275 -0.4670
 5003SOL    HW226643   1.353   4.725   9.373  1.0894 -0.5246  0.9455
 5004SOL     OW26644   0.142   2.785   7.492  0.3200 -0.3497 -0.5674
 5004SOL    HW126645   0.232   2.818   7.492  0.8735 -1.8625  1.3703
 5004SOL    HW226646   0.140   2.721   7.563 -2.1474  0.4016  0.0381
 5005SOL     OW26647   1.963   4.493   3.450  0.4349  0.5743 -0.1242
 5005SOL    HW126648   1.965   4.495   3.354  1.4194 -1.5670 -0.1406
 5005SOL    HW226649   1.869   4.479   3.451  0.3206  1.3780  0.4647
 5006SOL     OW26650   1.516   1.883   2.326 -0.0766 -0.2029  0.0330
 5006SOL    HW126651   1.578   1.820   2.364 -1.3325 -0.0817  2.2793
 5006SOL    HW226652   1.482   1.822   2.261 -1.2190 -0.4600  0.8574
 5007SOL     OW26653   4.335   0.315   6.411  0.3231  0.2821 -0.0792
 5007SOL    HW126654   4.418   0.284   6.447 -0.2667  0.7545  1.6973
 5007SOL    HW226655   4.350   0.321   6.317 -0.4684 -0.9981 -0.2953
 5008SOL     OW26656   3.674   3.691  17.630 -0.0565 -0.3463 -0.2636
 5008SOL    HW126657   3.595   3.665  17.677  0.5723 -0.1157  0.9452
 5008SOL    HW226658   3.736   3.683  17.703 -1.4363 -0.3242  0.9148
 5009SOL     OW26659   2.038   0.970   1.923  0.6255 -0.2927  0.1694
 5009SOL    HW126660   1.995   0.936   2.001  1.0510 -2.2241 -0.4264
 5009SOL    HW226661   2.069   0.894   1.873  0.1016 -0.2313 -0.2524
 5010SOL     OW26662   2.676   0.702   5.137  0.2268  0.8363 -0.0117
 5010SOL    HW126663   2.711   0.784   5.102 -0.1593  1.5713  1.3162
 5010SOL    HW226664   2.720   0.639   5.080 -0.0048  0.1568  0.5625
 5011SOL     OW26665   2.327   0.133   7.846  0.2913 -0.1461 -0.4503
 5011SOL    HW126666   2.328   0.102   7.936 -0.1275  0.0105 -0.3945
 5011SOL    HW226667   2.357   0.223   7.853  0.3058 -0.2966  1.4352
 5012SOL     OW26668   2.197   0.463   2.680  0.1015  0.3915 -0.0681
 5012SOL    HW126669   2.245   0.546   2.676  0.5028  0.0563 -2.5139
 5012SOL    HW226670   2.107   0.482   2.651  0.7322  0.3256 -2.0928
 5013SOL     OW26671   0.706   1.227   4.309  0.3902 -0.1211 -0.0656
 5013SOL    HW126672   0.613   1.237   4.286 -0.0895  1.5084  2.5889
 5013SOL    HW226673   0.712   1.134   4.332  1.1272  0.0080  0.2816
 5014SOL     OW26674   2.325   3.007   7.016 -0.2082  0.2695 -0.7853
 5014SOL    HW126675   2.380   2.935   6.986  1.2807  0.1080  2.3943
 5014SOL    HW226676   2.386   3.066   7.061  0.7475 -0.6232 -0.9164
 5015SOL     OW26677   4.399   1.777   8.103 -0.4819  0.3226  0.0429
 5015SOL    HW126678   4.344   1.698   8.110  0.2165 -0.4261 -3.1488
 5015SOL    HW226679   4.395   1.801   8.196  0.6869  0.7708 -0.0213
 5016SOL     OW26680   2.631   3.534   4.604 -0.2811 -0.0093 -0.1836
 5016SOL    HW126681   2.646   3.503   4.515 -0.1563 -1.2747  0.2737
 5016SOL    HW226682   2.710   3.506   4.651 -1.5461  0.5332  2.2522
 5017SOL     OW26683   4.304   0.574   4.623  0.3425 -0.1934  0.1948
 5017SOL    HW126684   4.218   0.577   4.580  0.2022  0.7449  0.5334
 5017SOL    HW226685   4.287   0.585   4.717  2.2448 -0.7216  0.5829
 5018SOL     OW26686   0.725   0.855   7.845 -0.5114 -0.0893  0.1795
 5018SOL    HW126687   0.675   0.775   7.825 -1.0789  0.4381 -0.5176
 5018SOL    HW226688   0.727   0.851   7.940 -1.7590  1.2415  0.2497
 5019SOL     OW26689   2.115   3.582   0.885 -0.7587 -0.3618  0.1873
 5019SOL    HW126690   2.103   3.528   0.808  0.2218 -0.0885 -0.1545
 5019SOL    HW226691   2.178   3.529   0.934 -1.0448 -0.9155 -0.0444
 5020SOL     OW26692   1.926   3.272  10.119 -0.3094  0.1704 -0.2403
 5020SOL    HW126693   1.912   3.259  10.213  0.6087 -0.1025 -0.1442
 5020SOL    HW226694   2.005   3.219  10.120 -0.4730 -0.0883 -1.4274
 5021SOL     OW26695   3.050   0.419  12.971 -0.0848  0.2502  0.3479
 5021SOL    HW126696   3.105   0.352  13.011  0.5723  0.6687  0.1361
 5021SOL    HW226697   3.103   0.438  12.893  1.3671 -0.6564  1.1135
 5022SOL     OW26698   1.758   1.463  17.699  0.0168  0.1220 -0.2117
 5022SOL    HW126699   1.819   1.389  17.696 -0.6245 -0.4060 -0.1214
 5022SOL    HW226700   1.710   1.457  17.616  2.2428 -2.0403 -1.3474
 5023SOL     OW26701   1.145   0.124   2.823 -0.0941 -0.3412 -0.0281
 5023SOL    HW126702   1.170   0.200   2.875 -0.9503 -0.0137 -0.1012
 5023SOL    HW226703   1.231   0.081   2.819  1.4132  2.6727  0.0331
 5024SOL     OW26704   0.540   1.540  10.428  0.2400 -0.4725 -0.1382
 5024SOL    HW126705   0.604   1.551  10.358  1.8810 -0.7864  1.3105
 5024SOL    HW226706   0.560   1.608  10.492 -2.0936 -0.9868  1.1533
 5025SOL     OW26707   0.929   2.256   6.485 -0.3834 -0.0583 -0.4983
 5025SOL    HW126708   0.855   2.230   6.430 -0.3134  2.1200 -1.6078
 5025SOL    HW226709   0.876   2.289   6.558  0.0034  1.7654 -1.0452
 5026SOL     OW26710   1.941   3.831   1.594  0.2336 -0.0791 -0.1218
 5026SOL    HW126711   2.001   3.902   1.571  0.0996  0.1952  0.3883
 5026SOL    HW226712   1.899   3.879   1.665 -0.5344  0.4595 -0.9413
 5027SOL     OW26713   4.272   1.412   2.668 -0.3767 -0.0637  0.0985
 5027SOL    HW126714   4.189   1.458   2.663 -1.3297 -1.8505 -0.3622
 5027SOL    HW226715   4.323   1.486   2.701  0.7170 -0.4542 -0.7001
 5028SOL     OW26716   3.170   3.561   3.863  0.0560  0.7095  0.2509
 5028SOL    HW126717   3.262   3.582   3.849  0.5629 -0.9428  1.1819
 5028SOL    HW226718   3.163   3.618   3.940  0.4602  2.0393 -0.6960
 5029SOL     OW26719   0.046   3.971   2.725 -0.1576 -0.0162  0.4983
 5029SOL    HW126720   0.040   4.067   2.717  1.1162  0.1187  1.1380
 5029SOL    HW226721   0.133   3.947   2.692 -1.1195 -3.8012  0.7411
 5030SOL     OW26722   3.451   1.063  17.223 -0.3695  0.0552 -0.3105
 5030SOL    HW126723   3.536   1.027  17.198 -0.4661 -0.3181 -0.0891
 5030SOL    HW226724   3.398   1.006  17.168  0.5228 -2.9420  1.9646
 5031SOL     OW26725   4.160   3.773  14.740  0.2015  0.4565 -0.0960
 5031SOL    HW126726   4.137   3.856  14.782  0.1670  0.8501 -0.9081
 5031SOL    HW226727   4.077   3.747  14.701  0.7812 -0.6579 -0.5667
 5032SOL     OW26728   0.213   0.790   8.778 -0.4172  0.8459 -0.2091
 5032SOL    HW126729   0.257   0.780   8.863 -0.2326 -0.7074 -0.4961
 5032SOL    HW226730   0.143   0.853   8.796 -0.5372  0.2736  1.2954
 5033SOL     OW26731   3.050   2.460   3.073 -0.3088  0.0573  0.8664
 5033SOL    HW126732   2.970   2.411   3.053 -0.1113 -0.6226  1.7743
 5033SOL    HW226733   3.007   2.532   3.119  2.8427  1.3114  1.8325
 5034SOL     OW26734   2.801   2.495  11.777 -0.1490  0.2423  0.1134
 5034SOL    HW126735   2.803   2.427  11.709  1.7287  0.8650 -0.4434
 5034SOL    HW226736   2.730   2.552  11.747  0.8518  0.8512 -1.0941
 5035SOL     OW26737   1.584   2.541   3.209 -0.3583 -0.6412 -0.4988
 5035SOL    HW126738   1.570   2.584   3.293 -2.1015  0.9261 -1.5854
 5035SOL    HW226739   1.679   2.530   3.213 -0.6578 -2.5003  1.1766
 5036SOL     OW26740   2.359   4.190   9.042 -0.8890  0.2806 -0.3481
 5036SOL    HW126741   2.287   4.134   9.068 -1.7881  1.0083 -1.2359
 5036SOL    HW226742   2.404   4.140   8.973  0.1173 -2.6197  2.4051
 5037SOL     OW26743   2.020   3.577   7.387  0.0380 -0.0329 -0.0755
 5037SOL    HW126744   2.042   3.624   7.306  0.8429  1.7502  1.1841
 5037SOL    HW226745   1.983   3.495   7.353  0.6171 -0.4776  0.3796
 5038SOL     OW26746   1.274   1.134   4.124  0.4517  0.4359 -0.4878
 5038SOL    HW126747   1.241   1.160   4.038 -4.2257 -4.4851 -0.1873
 5038SOL    HW226748   1.188   1.115   4.162 -0.5132  1.4596 -2.1798
 5039SOL     OW26749   4.109   2.388   3.766 -0.0159 -0.0116 -0.0555
 5039SOL    HW126750   4.170   2.318   3.744 -1.0496 -2.1281  3.8348
 5039SOL    HW226751   4.139   2.448   3.698  3.0595 -0.7779  0.6239
 5040SOL     OW26752   0.848   1.817   9.520 -0.2071  0.5479 -0.2801
 5040SOL    HW126753   0.885   1.823   9.432 -1.5393 -0.2117 -0.8845
 5040SOL    HW226754   0.760   1.850   9.504  0.2029 -0.1481 -4.1045
 5041SOL     OW26755   2.681   2.468   4.873 -0.0466  0.1835 -0.4009
 5041SOL    HW126756   2.674   2.519   4.954  0.4182 -0.4480  0.0358
 5041SOL    HW226757   2.587   2.477   4.855 -0.3733 -1.6342  0.4270
 5042SOL     OW26758   1.083   3.563   7.469 -0.1214  0.2654  0.0295
 5042SOL    HW126759   1.033   3.531   7.544 -0.4047 -1.3099 -0.8211
 5042SOL    HW226760   1.066   3.656   7.478  0.5445  0.3362  0.6045
 5043SOL     OW26761   3.707   2.995   6.163  0.6727  0.1805 -0.0760
 5043SOL    HW126762   3.697   3.006   6.258  1.0447 -1.1426  0.1254
 5043SOL    HW226763   3.624   2.950   6.147 -1.1160  3.0139  1.3136
 5044SOL     OW26764   3.994   3.989   3.959 -0.0504  0.0318  0.3853
 5044SOL    HW126765   3.990   3.964   4.051  0.5307 -0.0646  0.3827
 5044SOL    HW226766   3.914   4.041   3.944  0.2263 -0.0999 -1.5218
 5045SOL     OW26767   2.271   4.685   7.063  0.0644 -0.2320 -0.0582
 5045SOL    HW126768   2.180   4.681   7.092  0.5286 -2.9483  1.0247
 5045SOL    HW226769   2.297   0.031   7.097 -2.1396 -0.0608  1.2060
 5046SOL     OW26770   3.397   3.594   8.649 -0.7481 -0.2337 -0.1568
 5046SOL    HW126771   3.350   3.646   8.714  2.9874 -1.8279  3.7985
 5046SOL    HW226772   3.487   3.604   8.680  0.8553 -1.7379 -4.2788
 5047SOL     OW26773   2.516   0.832   7.033 -0.2930 -0.5834 -0.1706
 5047SOL    HW126774   2.590   0.885   7.064 -0.8487 -0.1165  0.3611
 5047SOL    HW226775   2.546   0.812   6.944  1.8847  0.1683  0.3960
 5048SOL     OW26776   4.470   3.476   4.019 -0.0483 -0.1868  0.1011
 5048SOL    HW126777   4.466   3.429   3.936 -0.1878 -2.0978  1.1753
 5048SOL    HW226778   4.451   3.566   3.994 -0.8401 -1.0886 -2.5518
 5049SOL     OW26779   2.304   3.950   0.583  0.1063 -0.0964 -0.3354
 5049SOL    HW126780   2.243   3.880   0.561 -1.5151  0.4113  2.4979
 5049SOL    HW226781   2.267   4.024   0.535 -0.1109  1.2192  1.8346
 5050SOL     OW26782   0.401   2.069   7.416 -0.3278 -0.5402 -0.0133
 5050SOL    HW126783   0.477   2.059   7.474 -2.3427  1.7948  3.0248
 5050SOL    HW226784   0.360   2.146   7.455 -0.8760 -0.3068 -1.0420
 5051SOL     OW26785   1.031   1.206   5.341 -0.6488  0.0833  0.7001
 5051SOL    HW126786   0.983   1.276   5.385 -1.9245  0.3558 -1.1380
 5051SOL    HW226787   1.122   1.234   5.357 -0.4446  0.5323 -1.2426
 5052SOL     OW26788   1.009   2.686   4.973  0.0322  0.4575 -0.5348
 5052SOL    HW126789   1.008   2.681   5.068  1.3608 -0.3586 -0.5739
 5052SOL    HW226790   0.937   2.747   4.957 -0.1103  0.5598  0.4758
 5053SOL     OW26791   1.129   2.252   9.132  0.0707 -0.3299  0.6864
 5053SOL    HW126792   1.178   2.305   9.069 -0.2980 -0.2867  0.4364
 5053SOL    HW226793   1.151   2.305   9.209  0.5481  0.3713  0.0675
 5054SOL     OW26794   0.858   3.476   4.833 -0.1456  0.1121  0.0616
 5054SOL    HW126795   0.771   3.449   4.803 -0.8090  1.1834  1.0280
 5054SOL    HW226796   0.914   3.461   4.757  0.0532  0.5803  0.1188
 5055SOL     OW26797   4.445   4.669   0.947 -0.7064 -0.3144 -0.4911
 5055SOL    HW126798   4.489   0.012   0.967 -1.3780 -0.3519  1.1913
 5055SOL    HW226799   4.487   4.618   1.017  1.3087 -0.9813 -2.1875
 5056SOL     OW26800   3.687   2.323   9.294 -0.2108 -0.2444 -0.1755
 5056SOL    HW126801   3.669   2.298   9.204  2.1898  2.7267 -1.4872
 5056SOL    HW226802   3.617   2.383   9.319 -0.0527 -1.3095  2.8611
 5057SOL     OW26803   4.379   2.747   8.235 -0.4872 -0.0570  0.1149
 5057SOL    HW126804   4.338   2.660   8.239 -2.7629  0.9357 -1.7894
 5057SOL    HW226805   4.472   2.726   8.227 -0.3627 -0.1983  1.9390
 5058SOL     OW26806   1.897   3.559   7.775 -0.2557  0.4448 -0.3223
 5058SOL    HW126807   1.849   3.544   7.693 -1.3866 -1.0041  0.5987
 5058SOL    HW226808   1.834   3.534   7.843  0.9227 -0.1948  0.5104
 5059SOL     OW26809   3.548   1.008   8.851  0.0567  0.3387  0.0143
 5059SOL    HW126810   3.536   1.059   8.931 -1.8864 -0.4073  0.1888
 5059SOL    HW226811   3.620   1.056   8.810 -0.3972  0.6201 -0.4472
 5060SOL     OW26812   1.998   0.081   4.260 -0.1922  0.1108  0.0296
 5060SOL    HW126813   1.975   0.073   4.352 -2.1442 -0.1921 -0.4718
 5060SOL    HW226814   2.086   0.046   4.249 -0.6584 -0.9553 -0.3857
 5061SOL     OW26815   0.113   0.196   4.532  0.3024  0.7752 -0.3888
 5061SOL    HW126816   0.109   0.193   4.628 -1.3368  0.1772 -0.4824
 5061SOL    HW226817   0.150   0.110   4.513 -0.6410 -0.4987  3.5313
 5062SOL     OW26818   1.636   0.496  14.238 -0.2847 -0.6524  0.1098
 5062SOL    HW126819   1.562   0.491  14.299 -0.0935 -0.8515  0.3257
 5062SOL    HW226820   1.661   0.404  14.244 -0.9504 -0.7747  1.0695
 5063SOL     OW26821   2.330   0.576   7.440  0.3188  0.8721 -1.1760
 5063SOL    HW126822   2.245   0.562   7.482  0.4209 -2.7406 -2.1712
 5063SOL    HW226823   2.312   0.577   7.346 -1.5844 -3.5055 -0.8674
 5064SOL     OW26824   3.401   4.308   1.693 -0.2741 -0.0225 -0.4727
 5064SOL    HW126825   3.333   4.348   1.639 -0.9465 -0.4808  0.0249
 5064SOL    HW226826   3.399   4.360   1.773  1.4283  2.6584 -2.1826
 5065SOL     OW26827   3.257   4.317   8.166  0.2981 -0.1447  0.0432
 5065SOL    HW126828   3.193   4.337   8.234  0.8802 -1.1481  0.8813
 5065SOL    HW226829   3.220   4.368   8.094 -1.8375 -0.3957  0.9636
 5066SOL     OW26830   3.649   0.326   3.364 -0.9530  0.3504  0.1227
 5066SOL    HW126831   3.640   0.251   3.423  1.0565  0.1274  0.1702
 5066SOL    HW226832   3.686   0.273   3.293 -0.0566  0.5789  0.4200
 5067SOL     OW26833   0.768   0.242  14.489 -0.0714 -0.2702  0.4215
 5067SOL    HW126834   0.676   0.267  14.479 -0.0529 -0.0262  0.8797
 5067SOL    HW226835   0.806   0.321  14.527  1.2834  0.2498 -1.9701
 5068SOL     OW26836   2.755   3.707   0.073 -0.1757  0.2360 -0.1746
 5068SOL    HW126837   2.664   3.711   0.101 -0.2225  0.5977 -0.3819
 5068SOL    HW226838   2.758   3.759  17.750  0.6874  0.5656  0.0736
 5069SOL     OW26839   2.232   4.435   2.286 -0.2256  0.2977 -0.4494
 5069SOL    HW126840   2.167   4.385   2.336  0.9891  0.0776  0.9104
 5069SOL    HW226841   2.292   4.450   2.359 -1.7958 -2.2378  1.3437
 5070SOL     OW26842   0.348   4.693   5.186  0.3609  0.5452  0.6340
 5070SOL    HW126843   0.285   0.024   5.174 -0.8902 -0.5661  0.5915
 5070SOL    HW226844   0.326   4.672   5.277  1.7246 -0.5669  0.7062
 5071SOL     OW26845   2.554   0.926   1.709  0.6052  0.4442 -0.1844
 5071SOL    HW126846   2.533   1.011   1.671  0.9117  0.9573  0.7836
 5071SOL    HW226847   2.569   0.879   1.627  0.5270  3.2706 -1.8105
 5072SOL     OW26848   2.415   0.425   8.924  0.1877  0.0595 -0.5467
 5072SOL    HW126849   2.405   0.492   8.992  1.7317 -0.6948  0.4204
 5072SOL    HW226850   2.355   0.449   8.853  1.4365 -0.5762 -1.8083
 5073SOL     OW26851   4.689   2.155  17.027  0.0827 -0.3992 -0.5663
 5073SOL    HW126852   4.634   2.127  16.954 -0.2587 -1.5145  0.1269
 5073SOL    HW226853   4.722   2.238  16.991  3.7713 -1.7629 -0.3119
 5074SOL     OW26854   3.743   3.098   6.859  0.0293  0.1129 -0.1206
 5074SOL    HW126855   3.736   3.154   6.781  0.6399  0.6576  0.2148
 5074SOL    HW226856   3.747   3.166   6.926 -0.4636  0.1456 -0.1251
 5075SOL     OW26857   2.705   1.130   2.430 -0.5450 -0.2647 -0.3032
 5075SOL    HW126858   2.716   1.191   2.358  2.7979  0.0434  0.4315
 5075SOL    HW226859   2.786   1.079   2.431 -1.0779 -1.1098 -0.4786
 5076SOL     OW26860   4.107   0.645  12.835  0.0508 -0.3089  0.3588
 5076SOL    HW126861   4.168   0.615  12.902  1.6691  0.0681 -0.9639
 5076SOL    HW226862   4.062   0.562  12.818 -0.7587  0.5277 -1.5808
 5077SOL     OW26863   2.124   4.586   9.354  0.8267  0.0042 -0.7214
 5077SOL    HW126864   2.042   4.539   9.367  1.3819 -0.8039 -0.2051
 5077SOL    HW226865   2.176   4.514   9.319 -0.0003 -1.0064  0.1635
 5078SOL     OW26866   0.588   0.544   1.770  0.2417  0.1610  0.0026
 5078SOL    HW126867   0.587   0.467   1.713  2.9161 -2.7354  3.8888
 5078SOL    HW226868   0.659   0.585   1.721 -0.7481 -0.1439 -1.6752
 5079SOL     OW26869   2.584   0.641   7.550  0.5826  0.3904  0.5394
 5079SOL    HW126870   2.620   0.661   7.636  1.9185 -1.6873  0.4691
 5079SOL    HW226871   2.497   0.624   7.583  1.0041  1.5104  2.2163
 5080SOL     OW26872   3.837   3.874   6.317 -0.1137 -0.2928  0.0736
 5080SOL    HW126873   3.815   3.845   6.405 -0.2154 -0.7244 -0.0949
 5080SOL    HW226874   3.846   3.786   6.281  1.2045  0.5876 -1.7832
 5081SOL     OW26875   2.829   2.451   7.928 -0.4768  0.4641  0.1246
 5081SOL    HW126876   2.802   2.479   8.016 -1.0070 -2.0721  0.7878
 5081SOL    HW226877   2.924   2.453   7.930 -0.4913 -0.8182  2.5000
 5082SOL     OW26878   2.794   3.437   9.782 -0.1432  0.9302  0.1789
 5082SOL    HW126879   2.768   3.372   9.717 -1.2685 -2.3302  3.8626
 5082SOL    HW226880   2.880   3.405   9.810  0.0545 -0.4945 -2.0112
 5083SOL     OW26881   0.600   1.002   5.560 -0.4182  0.0948 -0.1703
 5083SOL    HW126882   0.686   0.989   5.601  0.4864 -2.6916 -2.9740
 5083SOL    HW226883   0.615   1.081   5.508  0.7903 -0.9878 -1.4849
 5084SOL     OW26884   1.535   3.372  15.522 -0.3041  0.1650  0.0451
 5084SOL    HW126885   1.583   3.445  15.481  0.8736  0.5081  2.0237
 5084SOL    HW226886   1.511   3.315  15.449 -1.3574  1.8653 -0.9350
 5085SOL     OW26887   2.785   2.154  12.448 -0.3801 -0.3243  0.2814
 5085SOL    HW126888   2.873   2.124  12.472  0.0248  1.2510  0.8107
 5085SOL    HW226889   2.755   2.179  12.535 -0.0295 -3.9157  1.4445
 5086SOL     OW26890   1.965   3.724   6.624 -0.1383 -0.0255  0.0239
 5086SOL    HW126891   1.913   3.698   6.700  1.4171  0.9066  1.4250
 5086SOL    HW226892   1.958   3.653   6.561 -0.8316  0.5806 -0.5756
 5087SOL     OW26893   2.644   0.671  12.002  0.1952 -0.0275  0.5197
 5087SOL    HW126894   2.703   0.611  12.047  1.5454  0.3794 -0.7028
 5087SOL    HW226895   2.558   0.669  12.043  0.4445 -1.5256  0.9725
 5088SOL     OW26896   1.547   0.789   5.737 -0.4659 -0.1848 -0.3259
 5088SOL    HW126897   1.459   0.758   5.719 -1.0460  1.7617 -0.8883
 5088SOL    HW226898   1.540   0.782   5.832  0.6724  2.2290 -0.0573
 5089SOL     OW26899   3.868   3.117   1.545 -0.4121 -0.0169  0.3527
 5089SOL    HW126900   3.776   3.136   1.524  0.0838  0.8988 -0.9859
 5089SOL    HW226901   3.901   3.153   1.463 -0.6997 -0.7441 -0.0853
 5090SOL     OW26902   0.312   2.361  15.036  0.1459 -0.3155  0.0946
 5090SOL    HW126903   0.297   2.351  14.942  0.1061  2.9336 -0.2582
 5090SOL    HW226904   0.401   2.330  15.046 -0.4280 -2.5471 -1.7903
 5091SOL     OW26905   1.141   2.646   6.952  0.1356 -0.1015 -0.4036
 5091SOL    HW126906   1.092   2.585   6.896 -0.6347 -1.3429  1.6094
 5091SOL    HW226907   1.208   2.677   6.891 -1.6594  2.1013 -1.2429
 5092SOL     OW26908   0.249   1.852  11.230 -0.1843  0.2274  0.4384
 5092SOL    HW126909   0.269   1.939  11.265  1.6121  0.3648 -0.9073
 5092SOL    HW226910   0.154   1.863  11.240 -0.1508  0.5710  0.3876
 5093SOL     OW26911   2.267   4.086   8.459 -0.5925  0.1829  0.1951
 5093SOL    HW126912   2.330   4.070   8.389  0.5619  1.4354  0.9506
 5093SOL    HW226913   2.208   4.155   8.427 -1.6358 -1.4044 -1.3145
 5094SOL     OW26914   0.708   1.105   1.714  0.6318  0.2187  0.1460
 5094SOL    HW126915   0.710   1.074   1.623 -1.9897 -0.1671  0.2256
 5094SOL    HW226916   0.633   1.163   1.711  1.5235  1.2783 -1.5209
 5095SOL     OW26917   4.499   3.211   4.376  0.0289  0.1541  0.2340
 5095SOL    HW126918   4.444   3.270   4.323 -0.1947  0.5513  0.9167
 5095SOL    HW226919   4.511   3.134   4.320 -0.2645  0.6818 -0.5614
 5096SOL     OW26920   1.961   3.514  16.733 -0.1042 -0.5209  0.1845
 5096SOL    HW126921   2.039   3.494  16.784 -0.5604 -1.2436  0.5833
 5096SOL    HW226922   1.965   3.464  16.651  0.0163 -3.0929  1.7676
 5097SOL     OW26923   2.184   3.021   6.517  0.3271  0.1777 -0.4269
 5097SOL    HW126924   2.174   3.064   6.601 -1.3770 -1.2547  0.1143
 5097SOL    HW226925   2.167   2.929   6.538  1.3621  0.0029 -0.3244
 5098SOL     OW26926   3.627   3.933  14.866  0.0474 -0.1791  0.1950
 5098SOL    HW126927   3.535   3.961  14.862 -1.0715 -3.8365  0.2790
 5098SOL    HW226928   3.637   3.895  14.779 -0.3686  0.8451 -0.3100
 5099SOL     OW26929   0.682   1.140  12.082  0.3256  0.6563  0.6206
 5099SOL    HW126930   0.624   1.066  12.101 -0.3182  0.0737 -3.4681
 5099SOL    HW226931   0.770   1.103  12.079  0.6151  1.2572  1.7487
 5100SOL     OW26932   3.613   3.895   1.980 -0.4439  0.5586 -0.4881
 5100SOL    HW126933   3.554   3.930   1.913 -2.4716 -0.1076  0.9647
 5100SOL    HW226934   3.556   3.875   2.054 -0.8226 -0.8083 -1.1632
 5101SOL     OW26935   0.450   3.592   3.927 -0.6126  0.1391  0.1518
 5101SOL    HW126936   0.386   3.537   3.881 -1.4213  0.1055  1.3249
 5101SOL    HW226937   0.423   3.680   3.900 -1.0077 -0.1910 -0.5113
 5102SOL     OW26938   2.693   3.542   2.509 -0.4548 -0.1918  0.4670
 5102SOL    HW126939   2.697   3.522   2.416  0.2171  0.3007  0.3847
 5102SOL    HW226940   2.600   3.560   2.519 -0.4664 -0.4996  0.9039
 5103SOL     OW26941   2.849   0.232   1.340 -0.5123 -0.4722  0.4172
 5103SOL    HW126942   2.811   0.145   1.322 -1.4208  0.3447 -1.6175
 5103SOL    HW226943   2.771   0.283   1.318 -0.0243  0.0335 -0.1210
 5104SOL     OW26944   2.478   4.041   1.133  0.3631  0.3401  0.2478
 5104SOL    HW126945   2.503   4.055   1.042 -0.7685  0.9608  0.0247
 5104SOL    HW226946   2.521   4.116   1.175  1.9673 -1.2312  1.4131
 5105SOL     OW26947   0.630   3.787   8.570 -0.0784  0.2810  0.4176
 5105SOL    HW126948   0.646   3.694   8.586  0.5523  0.3481  0.2015
 5105SOL    HW226949   0.537   3.793   8.547  0.7814 -0.8028 -3.3914
 5106SOL     OW26950   3.838   3.895   2.887  0.7960 -0.0442  0.2372
 5106SOL    HW126951   3.881   3.862   2.808  0.4587  3.6624 -1.5011
 5106SOL    HW226952   3.745   3.896   2.864  1.1312 -2.2227 -1.2681
 5107SOL     OW26953   3.633   4.056   9.497 -0.1702 -0.1978  0.2031
 5107SOL    HW126954   3.706   4.115   9.514 -0.5548  0.9623 -2.1163
 5107SOL    HW226955   3.585   4.109   9.434 -0.2957 -0.9040 -0.3013
 5108SOL     OW26956   3.113   4.662   4.940  0.4760  0.3603 -0.2427
 5108SOL    HW126957   3.200   4.633   4.969  0.6019  0.2111 -0.7592
 5108SOL    HW226958   3.134   0.003   4.894 -1.6131  0.3710 -1.1784
 5109SOL     OW26959   1.936   1.561   7.161  0.1538  0.3200  0.1088
 5109SOL    HW126960   1.949   1.560   7.256  0.7468 -1.2646  0.0060
 5109SOL    HW226961   1.996   1.631   7.138 -1.2122  1.5906  0.4459
 5110SOL     OW26962   0.956   0.961   1.772 -0.0449  0.2064  0.2030
 5110SOL    HW126963   0.870   0.993   1.744 -0.6937  0.0483  2.0631
 5110SOL    HW226964   0.939   0.927   1.859  3.4215 -0.6513  0.5491
 5111SOL     OW26965   2.778   2.464   6.740 -0.5282 -0.3799 -0.1259
 5111SOL    HW126966   2.767   2.535   6.676  1.3192  0.3958  0.4556
 5111SOL    HW226967   2.694   2.418   6.729  0.1553 -1.0360 -2.5496
 5112SOL     OW26968   1.174   1.930  10.636  0.8062  0.0977 -0.5101
 5112SOL    HW126969   1.213   1.934  10.724  1.5564 -0.3688 -0.8272
 5112SOL    HW226970   1.241   1.905  10.574  0.9428  2.2979 -1.2478
 5113SOL     OW26971   4.464   3.230   2.003  0.4289 -0.0546  0.2951
 5113SOL    HW126972   4.394   3.281   1.962 -0.3080 -1.7927 -0.6349
 5113SOL    HW226973   4.435   3.139   2.009  0.2430 -0.0496 -0.4825
 5114SOL     OW26974   1.563   0.808  10.844 -0.5298  0.1091 -0.2002
 5114SOL    HW126975   1.491   0.752  10.872 -0.4077  0.0924  0.0796
 5114SOL    HW226976   1.616   0.746  10.793 -0.0774  0.5237 -0.2408
 5115SOL     OW26977   4.600   4.091  15.034  0.1644 -0.0965  0.2431
 5115SOL    HW126978   4.521   4.042  15.013  0.1473  1.2003 -2.6450
 5115SOL    HW226979   4.649   4.019  15.075  1.0678 -0.6333 -1.7745
 5116SOL     OW26980   1.436   2.341   4.379 -0.3212 -0.5377  0.2056
 5116SOL    HW126981   1.527   2.336   4.347 -0.5349 -2.8570 -0.0183
 5116SOL    HW226982   1.446   2.318   4.471  0.5137  0.1176  0.2866
 5117SOL     OW26983   2.983   0.660   9.148  0.1148  0.3735  0.2695
 5117SOL    HW126984   2.897   0.700   9.144 -0.1198  0.0512  2.2919
 5117SOL    HW226985   3.013   0.686   9.235  1.8019 -1.4993  0.2520
 5118SOL     OW26986   0.589   1.324   9.152  0.6214  0.6173 -0.4228
 5118SOL    HW126987   0.546   1.279   9.225 -0.0020  1.1852 -0.4368
 5118SOL    HW226988   0.675   1.339   9.192  0.0525  0.9445  0.6682
 5119SOL     OW26989   2.579   3.309  16.206 -0.0845 -0.2209 -0.0828
 5119SOL    HW126990   2.648   3.345  16.150 -0.2531  0.8907  0.4299
 5119SOL    HW226991   2.537   3.392  16.228 -1.1890 -0.7626 -0.1515
 5120SOL     OW26992   0.245   0.325   8.816 -0.1153  0.0394 -0.3969
 5120SOL    HW126993   0.161   0.368   8.800 -0.4502 -0.6336 -0.4522
 5120SOL    HW226994   0.282   0.326   8.728 -2.1678 -0.2135 -1.2728
 5121SOL     OW26995   4.362   0.241   8.530  0.4019 -0.3094 -0.3506
 5121SOL    HW126996   4.277   0.276   8.504  0.0822  0.4299  1.7149
 5121SOL    HW226997   4.419   0.316   8.547 -1.4430  0.8645  0.6325
 5122SOL     OW26998   4.363   4.683   6.222 -0.2498  0.5833  0.0515
 5122SOL    HW126999   4.398   4.597   6.200  1.8375  1.8698 -1.6556
 5122SOL    HW227000   4.426   4.721   6.284  1.2968  0.2685 -1.3363
 5123SOL     OW27001   2.612   3.389  12.169  0.7557 -0.0071  0.0236
 5123SOL    HW127002   2.631   3.325  12.101  2.1311  1.4046 -0.9273
 5123SOL    HW227003   2.586   3.332  12.241 -1.6186 -0.2329 -1.0185
 5124SOL     OW27004   2.062   1.372   4.069  0.2901 -0.3832  0.1596
 5124SOL    HW127005   1.973   1.347   4.094 -0.4373  1.5821 -0.4637
 5124SOL    HW227006   2.063   1.465   4.093  0.1328 -0.2122 -0.4868
 5125SOL     OW27007   3.933   2.664   3.047  0.1630 -0.1362  0.0565
 5125SOL    HW127008   3.860   2.607   3.070 -0.4319  1.4760  2.2310
 5125SOL    HW227009   3.992   2.603   3.002  0.9801 -0.5295  1.6307
 5126SOL     OW27010   4.725   0.210  15.726 -0.1520 -0.1491  0.0275
 5126SOL    HW127011   4.726   0.291  15.777 -1.8325 -0.4949  0.6070
 5126SOL    HW227012   0.039   0.247  15.656  1.4118 -0.5544  1.0052
 5127SOL     OW27013   4.640   2.499   5.737  0.7285  0.2614  0.1038
 5127SOL    HW127014   4.601   2.455   5.813  2.6193 -0.2292  0.7990
 5127SOL    HW227015   4.620   2.591   5.750  0.0336 -0.0200  1.0321
 5128SOL     OW27016   1.697   0.229   6.249  0.2174 -0.4119  0.1399
 5128SOL    HW127017   1.689   0.304   6.308  0.3621  1.9092 -2.8628
 5128SOL    HW227018   1.788   0.202   6.260  0.8187  1.9340  0.9386
 5129SOL     OW27019   3.067   2.317   9.637  0.2830 -0.0127  0.0356
 5129SOL    HW127020   3.100   2.300   9.725 -0.0112  2.1085  0.5506
 5129SOL    HW227021   3.010   2.391   9.659 -0.2918 -0.2329 -0.6790
 5130SOL     OW27022   0.589   3.154   1.049 -0.4800  0.4030  0.1087
 5130SOL    HW127023   0.624   3.210   1.118  0.6350  0.3258 -0.3822
 5130SOL    HW227024   0.671   3.110   1.025  0.1691  0.0449  3.0274
 5131SOL     OW27025   3.417   2.069   6.051 -0.2767 -0.1064 -0.3611
 5131SOL    HW127026   3.505   2.078   6.014 -0.8854  1.1400 -1.5073
 5131SOL    HW227027   3.371   2.141   6.007  1.8486  1.4303 -0.0731
 5132SOL     OW27028   1.393   0.225   6.564 -0.2052  0.4476  0.0978
 5132SOL    HW127029   1.336   0.168   6.616 -0.3065 -0.4620 -0.9975
 5132SOL    HW227030   1.332   0.279   6.513 -1.2420 -0.9601 -0.1588
 5133SOL     OW27031   2.819   2.883   3.653 -0.5996 -0.2776 -0.3034
 5133SOL    HW127032   2.877   2.934   3.710  1.6515  0.2946 -3.1276
 5133SOL    HW227033   2.735   2.919   3.681  0.3489  0.9761  0.9351
 5134SOL     OW27034   3.050   3.766   6.211  0.6503 -0.4266 -0.4023
 5134SOL    HW127035   3.064   3.718   6.129 -2.8063 -0.3326 -1.0649
 5134SOL    HW227036   2.958   3.789   6.197  1.1530  1.4797 -0.6460
 5135SOL     OW27037   1.886   1.578   4.655  0.0441  0.2705  0.5083
 5135SOL    HW127038   1.957   1.631   4.692  0.5231  1.2051 -1.7161
 5135SOL    HW227039   1.816   1.643   4.648  1.1931  1.3315 -1.2703
 5136SOL     OW27040   1.921   2.158   7.537  0.4550 -0.3620 -0.2075
 5136SOL    HW127041   1.953   2.200   7.617  0.5202 -0.3347 -0.2482
 5136SOL    HW227042   1.886   2.229   7.484  1.0955 -1.2191 -1.7750
 5137SOL     OW27043   1.744   3.844   2.651 -0.2711 -0.0279 -0.2705
 5137SOL    HW127044   1.671   3.784   2.640 -1.0678  1.0003 -0.6210
 5137SOL    HW227045   1.698   3.923   2.680  0.3561 -0.3531  1.6342
 5138SOL     OW27046   1.576   1.548   7.804 -0.1767 -0.5575  0.5075
 5138SOL    HW127047   1.547   1.594   7.884 -0.5386  1.2577 -0.6663
 5138SOL    HW227048   1.622   1.615   7.754 -2.4684  0.8488  0.2973
 5139SOL     OW27049   2.469   3.022   0.275  0.0629  0.0483  0.1478
 5139SOL    HW127050   2.411   3.060   0.341 -0.5828  0.9632 -0.9436
 5139SOL    HW227051   2.522   3.098   0.251 -0.6722  0.0456 -1.4351
 5140SOL     OW27052   1.373   1.436   3.707  0.3834  0.0547 -0.2120
 5140SOL    HW127053   1.347   1.514   3.757  0.2914 -0.4421  0.5231
 5140SOL    HW227054   1.457   1.459   3.669  2.3187 -1.6006  3.1322
 5141SOL     OW27055   0.309   0.994   4.231 -0.6214 -0.7951  1.0535
 5141SOL    HW127056   0.214   0.984   4.218 -0.5466  2.4954 -1.9481
 5141SOL    HW227057   0.334   0.925   4.170  0.8753 -0.1289  0.9166
 5142SOL     OW27058   1.117   2.507  12.109  0.6245 -0.6395 -0.6746
 5142SOL    HW127059   1.059   2.461  12.170  0.4983 -1.6630 -1.5592
 5142SOL    HW227060   1.080   2.595  12.116  0.4757 -0.9062  1.9318
 5143SOL     OW27061   0.000   4.360   1.772 -0.2232 -0.1178 -0.4244
 5143SOL    HW127062   4.729   4.329   1.682  0.6917  1.2478 -1.0056
 5143SOL    HW227063   4.680   4.307   1.824  1.5602 -2.2606 -0.5315
 5144SOL     OW27064   3.064   0.030   4.521  0.0854  0.3547 -0.0725
 5144SOL    HW127065   3.060   4.689   4.573  1.5271 -1.2230 -2.3974
 5144SOL    HW227066   3.013   0.001   4.445  0.0911 -0.0856  0.0894
 5145SOL     OW27067   4.441   2.395   3.572  0.1877 -0.2707 -0.4156
 5145SOL    HW127068   4.520   2.399   3.626  0.1363  0.3659 -0.3834
 5145SOL    HW227069   4.446   2.305   3.540 -3.2608  0.1942 -2.2953
 5146SOL     OW27070   0.736   0.966   7.443 -0.3006 -0.5318 -0.2739
 5146SOL    HW127071   0.657   0.913   7.450 -1.5036  0.9493 -2.5209
 5146SOL    HW227072   0.784   0.917   7.509 -3.1014 -0.7255  1.6321
 5147SOL     OW27073   3.249   2.823   3.072  0.0856 -0.2838  0.9745
 5147SOL    HW127074   3.166   2.861   3.042  1.9836  2.8549 -0.3326
 5147SOL    HW227075   3.258   2.861   3.160 -1.1486  1.6414  0.2866
 5148SOL     OW27076   3.757   0.819   8.096  0.2756  0.6727 -0.4421
 5148SOL    HW127077   3.725   0.879   8.029  1.7061  4.0712  1.9284
 5148SOL    HW227078   3.679   0.766   8.113  1.5109 -1.1090 -0.3867
 5149SOL     OW27079   2.758   3.711   3.910  0.8134 -0.2334  0.0007
 5149SOL    HW127080   2.703   3.761   3.850 -0.5341 -2.2645 -0.4444
 5149SOL    HW227081   2.688   3.680   3.968  1.8235 -0.4548  1.1188
 5150SOL     OW27082   3.543   2.851  11.923  0.0597  0.4170 -0.1565
 5150SOL    HW127083   3.560   2.931  11.974 -0.9620  0.9465 -0.6557
 5150SOL    HW227084   3.616   2.863  11.863  2.2097 -0.8738  2.1726
 5151SOL     OW27085   2.345   0.338  11.188 -0.1857 -0.1108 -0.1184
 5151SOL    HW127086   2.378   0.383  11.111  0.4016  2.3039  1.5368
 5151SOL    HW227087   2.414   0.279  11.216 -0.5906 -1.0126 -1.0514
 5152SOL     OW27088   2.823   2.781  17.377 -0.1818  0.2046 -0.4037
 5152SOL    HW127089   2.831   2.703  17.321 -1.9276 -0.0770 -0.2399
 5152SOL    HW227090   2.868   2.855  17.335 -2.7223  2.9235  1.6535
 5153SOL     OW27091   1.039   0.861   2.744 -0.4080 -0.2597  0.1038
 5153SOL    HW127092   0.950   0.894   2.729 -0.6057 -0.2320  1.3389
 5153SOL    HW227093   1.074   0.851   2.656  0.4119 -1.5934  0.5993
 5154SOL     OW27094   3.196   2.176   3.051 -0.0471  0.5811  0.2731
 5154SOL    HW127095   3.179   2.235   2.978  1.0708 -0.6086 -0.9557
 5154SOL    HW227096   3.169   2.099   3.001 -0.6180  0.5517  0.6382
 5155SOL     OW27097   1.289   3.326  10.208 -0.3062  0.0800 -0.3010
 5155SOL    HW127098   1.210   3.288  10.245 -0.7702  1.3385  0.0145
 5155SOL    HW227099   1.287   3.277  10.126 -0.1562  1.1014 -0.9206
 5156SOL     OW27100   0.394   3.664   8.354  0.1298 -0.4325 -0.1990
 5156SOL    HW127101   0.388   3.616   8.436 -1.9505 -1.8704 -1.1921
 5156SOL    HW227102   0.372   3.750   8.389  1.0081 -0.9515  1.6200
 5157SOL     OW27103   4.040   1.681  15.556  0.2517 -0.5166  0.1010
 5157SOL    HW127104   4.052   1.639  15.471 -2.6584 -3.0586  0.9666
 5157SOL    HW227105   3.956   1.645  15.582  0.5419 -2.2861 -1.3775
 5158SOL     OW27106   2.440   2.372   6.423 -0.5530 -0.2394 -0.1093
 5158SOL    HW127107   2.350   2.404   6.423  0.9352  3.8591  0.6486
 5158SOL    HW227108   2.427   2.316   6.346 -0.1411 -1.3762  0.6438
 5159SOL     OW27109   3.796   1.778   0.284  0.1850  0.0991  0.3739
 5159SOL    HW127110   3.859   1.706   0.279  0.1331  0.1751 -1.2102
 5159SOL    HW227111   3.787   1.812   0.195 -1.5787  0.9558  0.8909
 5160SOL     OW27112   2.122   1.427  10.537 -0.5741 -0.9578 -0.2413
 5160SOL    HW127113   2.143   1.520  10.523 -2.0916 -0.7290 -0.9899
 5160SOL    HW227114   2.165   1.415  10.621 -0.5430  1.6712  0.1091
 5161SOL     OW27115   3.992   3.116   2.468  0.7369 -0.0739  0.2641
 5161SOL    HW127116   4.072   3.128   2.519  2.5778 -0.8501 -2.4699
 5161SOL    HW227117   4.029   3.057   2.403 -0.0196 -0.4373  0.1611
 5162SOL     OW27118   1.887   2.662   5.003  0.7233  0.0973 -0.2306
 5162SOL    HW127119   1.950   2.725   5.037 -0.1874  0.9259 -0.0893
 5162SOL    HW227120   1.939   2.614   4.939  1.5659  1.3213 -0.4596
 5163SOL     OW27121   1.562   1.587   7.208 -0.1252  0.6934 -0.0907
 5163SOL    HW127122   1.563   1.658   7.272 -0.0121  0.7421 -0.1470
 5163SOL    HW227123   1.579   1.628   7.123  1.3030  1.2318  0.4438
 5164SOL     OW27124   4.669   3.723  11.205  0.4316  0.4207  0.5418
 5164SOL    HW127125   0.005   3.780  11.215  0.0851  0.9320  0.2758
 5164SOL    HW227126   4.604   3.791  11.186  0.1123  0.2808  1.1191
 5165SOL     OW27127   3.139   2.658   3.976  0.6238 -0.2154  0.0159
 5165SOL    HW127128   3.058   2.709   3.978  0.3947 -0.4836 -1.8813
 5165SOL    HW227129   3.105   2.569   3.979  0.6240 -0.1751  1.2394
 5166SOL     OW27130   0.567   2.248   3.405 -0.0493  0.2011  0.5528
 5166SOL    HW127131   0.478   2.271   3.379 -0.3443 -0.6255  0.8261
 5166SOL    HW227132   0.580   2.164   3.360 -3.7968 -0.2864  0.4188
 5167SOL     OW27133   2.061   4.227  16.420  0.1359 -0.2544  0.2852
 5167SOL    HW127134   2.147   4.266  16.408  0.0663 -0.3549 -0.5729
 5167SOL    HW227135   2.051   4.183  16.335  0.8171  0.2528 -0.0586
 5168SOL     OW27136   0.373   0.810   3.934  0.3743  0.6027 -0.0006
 5168SOL    HW127137   0.307   0.831   3.867 -0.3990 -0.6840  0.3558
 5168SOL    HW227138   0.447   0.787   3.878 -0.4719  1.2613 -1.3821
 5169SOL     OW27139   3.805   4.333   9.244  0.8170 -0.3334 -0.3137
 5169SOL    HW127140   3.720   4.290   9.238  0.5140  0.3161 -0.8163
 5169SOL    HW227141   3.782   4.415   9.200 -0.0270 -0.8233 -0.7797
 5170SOL     OW27142   4.551   2.144   9.154 -0.7454  0.1056 -0.3304
 5170SOL    HW127143   4.509   2.201   9.219  2.0685  0.4682  1.1372
 5170SOL    HW227144   4.618   2.208   9.132 -1.4280  0.0336 -2.6863
 5171SOL     OW27145   3.506   3.330   1.204  0.5867  0.3269  0.1028
 5171SOL    HW127146   3.498   3.317   1.109  1.0687  0.8689 -0.0103
 5171SOL    HW227147   3.600   3.338   1.212  0.6400 -0.5891  0.4218
 5172SOL     OW27148   1.390   3.690   7.967  0.1581  0.1094 -0.1489
 5172SOL    HW127149   1.406   3.739   8.048 -3.6265 -0.3006  0.8537
 5172SOL    HW227150   1.326   3.626   7.997  2.1554 -2.0550 -0.4941
 5173SOL     OW27151   4.175   0.195   9.115 -0.4414 -0.1753  0.3029
 5173SOL    HW127152   4.260   0.178   9.157  1.3351 -0.2322 -3.3484
 5173SOL    HW227153   4.124   0.136   9.172 -1.4097  0.9332  0.5743
 5174SOL     OW27154   0.558   3.142  13.110 -0.2886  0.1820  0.1908
 5174SOL    HW127155   0.517   3.228  13.096 -0.0013  0.4101  0.7485
 5174SOL    HW227156   0.502   3.083  13.059 -0.3096  0.2681  0.1140
 5175SOL     OW27157   0.569   4.613   0.572  0.7290 -0.2266 -0.2759
 5175SOL    HW127158   0.577   4.615   0.667  0.6984 -1.2998 -0.2487
 5175SOL    HW227159   0.534   4.527   0.549 -0.5962  0.4389 -0.8003
 5176SOL     OW27160   1.547   0.324   3.943  0.1494  0.2862  0.4152
 5176SOL    HW127161   1.454   0.323   3.919  0.5734 -0.1881 -1.1797
 5176SOL    HW227162   1.529   0.323   4.038 -0.5686 -0.3080  0.2774
 5177SOL     OW27163   1.681   2.099   2.331 -0.5272  0.5493  0.0678
 5177SOL    HW127164   1.616   2.029   2.328  1.3812 -1.1738 -1.2637
 5177SOL    HW227165   1.652   2.161   2.264  0.8294 -1.7324 -2.6166
 5178SOL     OW27166   3.872   1.570   6.593  0.5688 -0.2265 -0.9150
 5178SOL    HW127167   3.862   1.518   6.512 -1.1954 -2.1375  0.5224
 5178SOL    HW227168   3.869   1.654   6.548  1.7316 -0.9822 -2.4537
 5179SOL     OW27169   2.451   3.308   0.344  0.4053 -0.6201  0.2115
 5179SOL    HW127170   2.418   3.397   0.331  0.1012 -0.7451  0.1192
 5179SOL    HW227171   2.411   3.286   0.427 -0.7978 -0.5193 -0.3460
 5180SOL     OW27172   2.533   1.948   9.548  0.0109 -0.4787 -0.0994
 5180SOL    HW127173   2.490   1.875   9.504  0.0042 -1.2120  1.1428
 5180SOL    HW227174   2.517   2.018   9.485  0.3694  0.5673  0.9680
 5181SOL     OW27175   2.431   1.807  17.031  0.4112  0.2284  0.3222
 5181SOL    HW127176   2.363   1.751  16.993 -0.2919  1.5409 -0.3486
 5181SOL    HW227177   2.458   1.863  16.958  2.2287  0.1892  0.9499
 5182SOL     OW27178   0.198   0.177   5.117 -0.2097  0.3945  0.2779
 5182SOL    HW127179   0.120   0.152   5.069  0.5901 -2.8441  0.6834
 5182SOL    HW227180   0.164   0.237   5.184  0.1210  1.7081 -0.7208
 5183SOL     OW27181   0.340   2.984  17.170  0.4278 -0.7281 -0.0694
 5183SOL    HW127182   0.352   2.997  17.076 -3.4771  1.0880 -0.3122
 5183SOL    HW227183   0.344   3.077  17.192 -0.9792 -0.5981 -0.3405
 5184SOL     OW27184   1.787   0.802   7.333  0.0321 -0.1054 -0.4174
 5184SOL    HW127185   1.754   0.762   7.253  1.1285  1.4130 -1.6302
 5184SOL    HW227186   1.827   0.725   7.373 -1.1508 -0.1149  0.7717
 5185SOL     OW27187   4.476   2.521   2.130  0.1333  0.3350 -0.1451
 5185SOL    HW127188   4.479   2.441   2.078  0.9548 -0.2157  0.7678
 5185SOL    HW227189   4.565   2.531   2.163 -0.0731  1.2934  0.1508
 5186SOL     OW27190   3.739   2.221   3.499  0.2761 -0.2940  0.1716
 5186SOL    HW127191   3.808   2.159   3.474 -1.1167 -0.3214 -3.6798
 5186SOL    HW227192   3.679   2.178   3.559 -1.1698 -0.5108 -1.4231
 5187SOL     OW27193   1.715   4.114   6.529  0.0444  0.2317 -0.4667
 5187SOL    HW127194   1.795   4.072   6.558  0.4256  0.6682 -0.8826
 5187SOL    HW227195   1.665   4.040   6.495  1.7179 -2.7479  3.6186
 5188SOL     OW27196   2.907   1.590   8.297 -0.5090  0.0009 -0.0032
 5188SOL    HW127197   2.876   1.636   8.376 -1.7860 -0.3275 -0.3164
 5188SOL    HW227198   3.000   1.612   8.303 -0.5872  0.4223 -0.3126
 5189SOL     OW27199   3.293   2.372   2.352  0.6876  0.3325  0.3223
 5189SOL    HW127200   3.357   2.304   2.334  1.1295  1.2717 -1.6780
 5189SOL    HW227201   3.214   2.318   2.343  1.7082 -0.9751 -0.6272
 5190SOL     OW27202   3.784   1.128   8.837 -0.1765  0.0334 -0.6965
 5190SOL    HW127203   3.869   1.110   8.796  0.3093  0.0897  0.2868
 5190SOL    HW227204   3.817   1.121   8.926 -1.5431 -1.8428 -0.3468
 5191SOL     OW27205   2.956   4.366  17.641 -0.5036  0.1307 -0.2680
 5191SOL    HW127206   3.017   4.417  17.586  0.1478 -1.9918 -1.5161
 5191SOL    HW227207   2.992   4.277  17.641  1.6013  0.9857  1.4119
 5192SOL     OW27208   1.960   0.744   3.466 -0.1530  0.1070  0.1173
 5192SOL    HW127209   1.867   0.732   3.450  0.5448 -1.3258 -2.7581
 5192SOL    HW227210   1.991   0.654   3.469 -0.2477  0.0381 -1.3136
 5193SOL     OW27211   1.025   3.278  13.291  0.2243  0.2526 -0.4539
 5193SOL    HW127212   1.061   3.189  13.300 -2.5084 -0.7242  0.8075
 5193SOL    HW227213   0.968   3.263  13.216  0.9513  0.6273 -1.0891
 5194SOL     OW27214   1.299   4.098  16.213 -0.3506 -0.2249  0.0906
 5194SOL    HW127215   1.388   4.083  16.183  0.7903  3.2894  1.6841
 5194SOL    HW227216   1.295   4.018  16.266 -0.7468 -0.4628 -0.2966
 5195SOL     OW27217   1.822   2.801   7.144 -0.1676 -0.0002  0.3468
 5195SOL    HW127218   1.818   2.770   7.053 -0.2176 -1.2355  0.7742
 5195SOL    HW227219   1.850   2.723   7.192 -0.2693 -0.2909 -0.0588
 5196SOL     OW27220   2.076   3.779   0.547  0.0716 -0.3961 -0.1402
 5196SOL    HW127221   2.071   3.795   0.453  0.5703  2.0534  0.2328
 5196SOL    HW227222   2.126   3.700   0.565 -0.4211 -0.8656 -0.8644
 5197SOL     OW27223   3.908   2.240   6.820  0.2596 -0.7795  0.1436
 5197SOL    HW127224   3.864   2.187   6.887 -1.5384  1.0012  0.3808
 5197SOL    HW227225   3.998   2.229   6.853 -0.5402  0.1362  2.6600
 5198SOL     OW27226   1.790   4.030   9.214  0.0833  0.6148  0.0211
 5198SOL    HW127227   1.833   4.066   9.292  0.3748  0.2615  0.0270
 5198SOL    HW227228   1.829   3.942   9.213  0.8609  0.9012  3.0718
 5199SOL     OW27229   0.431   4.171   6.069  0.2683  0.9852 -0.0785
 5199SOL    HW127230   0.436   4.196   5.977  0.4884  0.7780 -0.1229
 5199SOL    HW227231   0.376   4.236   6.113 -1.9966 -0.5936 -0.5215
 5200SOL     OW27232   3.784   4.027  16.178  0.0938 -0.5116  0.6102
 5200SOL    HW127233   3.690   4.008  16.179 -0.0978  0.4402  0.9284
 5200SOL    HW227234   3.815   4.027  16.269  1.9235 -1.1352 -0.0150
 5201SOL     OW27235   3.771   0.275  15.935 -0.1130  0.1139  0.1665
 5201SOL    HW127236   3.763   0.246  16.025  0.5602  0.2131  0.2594
 5201SOL    HW227237   3.864   0.301  15.933 -0.6875  2.3018  2.1137
 5202SOL     OW27238   0.189   1.452  12.396  0.8094 -0.5779  0.2390
 5202SOL    HW127239   0.208   1.412  12.311 -0.1617 -0.8999  0.1743
 5202SOL    HW227240   0.101   1.489  12.384  0.8326 -0.7315 -0.3871
 5203SOL     OW27241   0.306   3.916   3.231  0.1542 -0.2198 -0.1057
 5203SOL    HW127242   0.394   3.951   3.242  0.3344 -0.7453  0.1533
 5203SOL    HW227243   0.275   3.900   3.320  1.2810  3.5605  0.9540
 5204SOL     OW27244   2.516   0.101  17.374  0.4066  0.0875 -0.3009
 5204SOL    HW127245   2.565   0.163  17.320  1.8731 -0.5214  0.3462
 5204SOL    HW227246   2.448   0.069  17.314  0.4264  4.2506 -2.5663
 5205SOL     OW27247   0.896   3.108   0.492  0.4367 -0.3369  0.6741
 5205SOL    HW127248   0.914   3.061   0.411  0.6802  0.9819 -0.0346
 5205SOL    HW227249   0.887   3.036   0.555 -0.0552  0.2034  1.2287
 5206SOL     OW27250   0.710   1.029   4.974 -0.3716  0.2995  0.4175
 5206SOL    HW127251   0.801   1.053   4.996 -0.2441  0.9084 -0.8053
 5206SOL    HW227252   0.727   0.993   4.887  0.0766  0.7311  0.3268
 5207SOL     OW27253   1.718   1.899   6.492  0.1338 -0.0163  0.0969
 5207SOL    HW127254   1.711   1.819   6.439 -0.8439 -0.3361  0.7099
 5207SOL    HW227255   1.628   1.923   6.512 -0.9609 -3.6989 -0.5476
 5208SOL     OW27256   1.326   3.457   9.807 -0.1370  0.2734 -0.0079
 5208SOL    HW127257   1.357   3.453   9.898 -0.6535  0.1340  0.1563
 5208SOL    HW227258   1.256   3.522   9.816 -0.6021  0.0317 -1.9532
 5209SOL     OW27259   2.946   1.682   5.614  0.0417 -0.4666  0.4725
 5209SOL    HW127260   2.911   1.670   5.526 -2.5527 -0.2666  1.4714
 5209SOL    HW227261   2.954   1.591   5.642  0.1915 -0.2897  1.0166
 5210SOL     OW27262   2.039   2.429   7.327  0.2274 -0.0129  0.0277
 5210SOL    HW127263   1.990   2.508   7.305  0.2660  0.0540  0.1902
 5210SOL    HW227264   1.976   2.359   7.305  0.5512 -0.8202  1.6418
 5211SOL     OW27265   3.664   3.778   8.095  0.4989  0.6404 -0.0850
 5211SOL    HW127266   3.609   3.712   8.053 -1.8964  1.5943  1.5229
 5211SOL    HW227267   3.643   3.785   8.188  0.4427 -0.7560 -0.0020
 5212SOL     OW27268   4.566   2.941   4.026  0.1614 -0.0872 -0.3988
 5212SOL    HW127269   4.637   3.004   4.015 -0.2440  0.6630  1.4445
 5212SOL    HW227270   4.595   2.868   3.971 -1.2967 -1.4444  0.6449
 5213SOL     OW27271   1.240   0.701   9.671  0.1749 -0.1692 -0.0180
 5213SOL    HW127272   1.320   0.750   9.688  1.0975 -1.6605 -0.1071
 5213SOL    HW227273   1.226   0.653   9.753  0.8136 -0.2765  0.0294
 5214SOL     OW27274   3.455   0.592   4.811  0.4232  0.3985 -0.0290
 5214SOL    HW127275   3.542   0.614   4.779 -0.9470  2.6987 -2.1411
 5214SOL    HW227276   3.475   0.551   4.895 -1.1180 -0.2718  0.0262
 5215SOL     OW27277   3.354   4.314   0.824 -0.1485 -0.3771 -0.5272
 5215SOL    HW127278   3.437   4.341   0.862 -0.1558 -0.7659 -0.2420
 5215SOL    HW227279   3.347   4.224   0.853 -0.5580  0.1034  0.8526
 5216SOL     OW27280   1.252   4.643   1.419  0.5601  0.2889 -0.8596
 5216SOL    HW127281   1.344   4.638   1.445  0.2789  3.0268  0.6296
 5216SOL    HW227282   1.203   4.595   1.486  0.7829 -0.1631 -1.0195
 5217SOL     OW27283   2.584   3.326   3.170 -0.4917  0.3578 -0.0969
 5217SOL    HW127284   2.526   3.393   3.206 -0.1572  1.1365 -1.0360
 5217SOL    HW227285   2.526   3.253   3.148  1.0414 -1.4482  1.7902
 5218SOL     OW27286   0.870   1.888   1.105  0.1679  0.6612 -0.0140
 5218SOL    HW127287   0.785   1.908   1.066 -0.2513 -1.1384 -0.0403
 5218SOL    HW227288   0.908   1.975   1.116 -0.1563  0.9874 -1.3724
 5219SOL     OW27289   4.150   1.429  13.214 -0.4650 -0.4046  0.3826
 5219SOL    HW127290   4.136   1.477  13.295 -2.1263  0.4389 -0.3962
 5219SOL    HW227291   4.189   1.497  13.160 -0.6383 -1.4869 -1.1056
 5220SOL     OW27292   1.746   2.103   6.680 -0.3112 -0.3178 -0.1899
 5220SOL    HW127293   1.802   2.092   6.757 -2.9313 -1.1743  1.5994
 5220SOL    HW227294   1.772   2.037   6.616  1.6914 -0.3982  0.7168
 5221SOL     OW27295   2.032   3.970   8.830  0.2347 -0.0146 -0.1338
 5221SOL    HW127296   1.971   4.039   8.856  1.9436  2.5454 -2.9902
 5221SOL    HW227297   1.995   3.893   8.873 -1.0841  0.3108 -0.6866
 5222SOL     OW27298   1.391   0.450   7.840  0.3258  0.0058  0.0795
 5222SOL    HW127299   1.486   0.441   7.837  0.1642 -1.2014 -1.2001
 5222SOL    HW227300   1.380   0.528   7.786  0.7178  1.2082  1.7148
 5223SOL     OW27301   0.326   0.868   9.302 -0.3154  0.1748  0.4256
 5223SOL    HW127302   0.419   0.889   9.307 -0.1398 -0.1366 -1.5044
 5223SOL    HW227303   0.284   0.933   9.359 -0.1713  0.5341  0.1234
 5224SOL     OW27304   3.986   1.770   5.261  0.1061 -0.8298  0.0344
 5224SOL    HW127305   4.039   1.845   5.236 -0.3328  0.5674  3.2171
 5224SOL    HW227306   3.918   1.825   5.300 -0.2506 -1.9280  0.9864
 5225SOL     OW27307   2.306   4.564   2.052  0.1780  0.3382 -0.2613
 5225SOL    HW127308   2.303   4.490   2.114 -3.0552 -0.9190 -1.9003
 5225SOL    HW227309   2.264   4.630   2.108  0.2847 -2.5995  3.2881
 5226SOL     OW27310   3.037   1.501   8.050  0.3463  0.3506  0.3402
 5226SOL    HW127311   3.074   1.588   8.049 -0.4397  0.6372 -2.7668
 5226SOL    HW227312   2.967   1.509   7.984 -1.3978  2.0544  2.3886
 5227SOL     OW27313   1.869   0.666   4.352 -0.4916  0.3704  0.0123
 5227SOL    HW127314   1.896   0.574   4.363  0.4882  0.4174 -1.9839
 5227SOL    HW227315   1.785   0.663   4.306 -0.5212 -3.1147  0.2727
 5228SOL     OW27316   2.871   2.639   3.245 -0.0591 -0.3268  0.0314
 5228SOL    HW127317   2.934   2.652   3.315  1.2659 -1.7439 -0.9049
 5228SOL    HW227318   2.811   2.712   3.257  0.4682  0.6217 -3.0698
 5229SOL     OW27319   3.942   2.157   6.004 -0.6051  0.0431 -0.0957
 5229SOL    HW127320   3.978   2.087   6.058 -1.9202 -0.4347  0.1529
 5229SOL    HW227321   4.014   2.184   5.947  0.8912 -0.3328  1.6205
 5230SOL     OW27322   0.240   0.080   2.326 -0.0557 -0.2543 -0.2024
 5230SOL    HW127323   0.263   0.132   2.249  1.4875 -1.9937 -0.9170
 5230SOL    HW227324   0.328   0.070   2.363 -0.4711  2.6010  1.5349
 5231SOL     OW27325   1.619   0.746   8.571 -0.0647  0.0869  0.3848
 5231SOL    HW127326   1.601   0.662   8.613  0.3225  0.3810  1.1358
 5231SOL    HW227327   1.530   0.778   8.559  0.6894  2.2894  0.6813
 5232SOL     OW27328   4.332   0.185  13.772  0.2421 -0.5020  0.2775
 5232SOL    HW127329   4.359   0.273  13.798 -1.1492 -0.2420  0.8480
 5232SOL    HW227330   4.238   0.181  13.789 -0.0520  1.6496 -0.8469
 5233SOL     OW27331   2.076   4.182   2.978  0.1448  0.2504 -0.3031
 5233SOL    HW127332   2.042   4.179   2.889 -1.0261  1.1264  0.1004
 5233SOL    HW227333   2.140   4.253   2.986  0.3490  0.2180 -1.6343
 5234SOL     OW27334   1.061   0.780   5.933  0.6053 -0.5963  0.3280
 5234SOL    HW127335   1.122   0.759   5.862  0.4228 -0.0730  0.0220
 5234SOL    HW227336   1.040   0.871   5.911 -2.2991 -1.3084  0.1567
 5235SOL     OW27337   2.103   3.098   8.212 -0.3176  0.2749  0.1618
 5235SOL    HW127338   2.044   3.129   8.281 -3.2755 -3.0244 -0.8546
 5235SOL    HW227339   2.177   3.088   8.271  0.0797  1.5622 -0.1187
 5236SOL     OW27340   0.272   0.878   3.617  0.1541  0.1687 -0.4369
 5236SOL    HW127341   0.224   0.817   3.673  0.6201  1.0054  0.8932
 5236SOL    HW227342   0.203   0.899   3.554  0.4270 -1.5079 -1.2967
 5237SOL     OW27343   1.321   2.403   7.610  0.2524  0.3939 -0.0269
 5237SOL    HW127344   1.296   2.482   7.659  0.8543 -0.3981  1.5796
 5237SOL    HW227345   1.249   2.411   7.547 -0.3768  0.9149  0.7491
 5238SOL     OW27346   3.445   4.163  10.773  0.1823  0.0248  0.7527
 5238SOL    HW127347   3.355   4.189  10.751  1.2125  2.5561 -0.4114
 5238SOL    HW227348   3.433   4.071  10.798  0.5533 -0.7789 -2.0016
 5239SOL     OW27349   2.193   0.889   3.494 -0.9570 -0.1631  0.1895
 5239SOL    HW127350   2.189   0.951   3.421  0.9621 -0.1680  0.0746
 5239SOL    HW227351   2.119   0.835   3.469  1.5007 -3.6041  0.3244
 5240SOL     OW27352   3.782   3.514   8.006  0.5084 -0.2048 -0.5632
 5240SOL    HW127353   3.774   3.428   7.966  0.8799 -1.7196  2.6093
 5240SOL    HW227354   3.713   3.552   7.951 -1.9702 -0.8883  2.0686
 5241SOL     OW27355   0.718   4.602  16.432  0.0618  0.0127 -0.2313
 5241SOL    HW127356   0.788   4.537  16.434 -0.7868 -0.9588 -2.2765
 5241SOL    HW227357   0.742   4.635  16.346  0.3725  3.2632  1.1024
 5242SOL     OW27358   0.965   0.953   9.409  0.8249  0.0629  0.4363
 5242SOL    HW127359   1.035   0.929   9.348  0.9969 -0.4946  0.8603
 5242SOL    HW227360   0.924   0.868   9.425 -1.3927  1.0485  0.0489
 5243SOL     OW27361   2.607   2.425  16.623 -0.2371 -0.1576 -0.3294
 5243SOL    HW127362   2.670   2.487  16.659 -0.2549 -0.9922  1.1336
 5243SOL    HW227363   2.521   2.465  16.637  0.5341  1.4391 -0.1692
 5244SOL     OW27364   1.093   0.390   2.251  0.0238  0.3638 -0.3187
 5244SOL    HW127365   1.054   0.474   2.276  3.5074  1.6005  1.0415
 5244SOL    HW227366   1.135   0.368   2.334 -2.4479 -1.5318  0.4403
 5245SOL     OW27367   0.496   2.391   6.337 -0.2598  0.5161  0.7148
 5245SOL    HW127368   0.441   2.437   6.400 -1.7870  2.1971 -1.8327
 5245SOL    HW227369   0.459   2.420   6.253  1.6760 -0.6238 -0.5474
 5246SOL     OW27370   0.850   3.968   0.906 -0.1201 -0.3454  0.0740
 5246SOL    HW127371   0.788   3.905   0.944 -1.0818  1.2544  1.1996
 5246SOL    HW227372   0.794   4.006   0.838 -1.1436 -1.8020  0.1008
 5247SOL     OW27373   3.152   2.991   6.345 -0.5326 -0.6038 -0.1013
 5247SOL    HW127374   3.091   3.054   6.383 -0.5957  0.7378 -2.4203
 5247SOL    HW227375   3.208   3.051   6.295  0.1460  0.4537  1.9255
 5248SOL     OW27376   0.108   1.843   5.304 -1.1165 -0.3677  0.0280
 5248SOL    HW127377   0.078   1.784   5.374 -0.3505 -0.0870  0.6003
 5248SOL    HW227378   0.084   1.925   5.348  0.6506 -2.2308  4.5655
 5249SOL     OW27379   2.595   0.505  15.194 -0.3523 -0.2152  0.5179
 5249SOL    HW127380   2.669   0.535  15.141 -0.1279  2.6597  2.4258
 5249SOL    HW227381   2.636   0.443  15.254  0.3523 -0.8561 -0.6396
 5250SOL     OW27382   0.927   0.188   5.010 -0.2107 -0.3392 -0.2958
 5250SOL    HW127383   0.859   0.208   5.075  1.9595 -0.8066  2.0836
 5250SOL    HW227384   1.006   0.222   5.052 -0.7652  1.8491 -0.9735
 5251SOL     OW27385   2.072   2.347   7.726  0.5044 -0.0236  0.2288
 5251SOL    HW127386   2.106   2.436   7.726  1.1283 -0.2592 -0.8081
 5251SOL    HW227387   2.150   2.291   7.728  1.3645  1.0337 -2.9638
 5252SOL     OW27388   2.027   2.814  14.924 -0.2969 -0.4998 -0.8377
 5252SOL    HW127389   2.112   2.772  14.909  0.3000  0.7393 -0.9695
 5252SOL    HW227390   2.062   2.903  14.927  0.0031 -0.6119 -0.9459
 5253SOL     OW27391   0.039   1.817  11.890 -0.2349 -0.3290  0.4100
 5253SOL    HW127392   0.094   1.776  11.956 -0.0989  4.3084  3.1949
 5253SOL    HW227393   0.107   1.824  11.822  0.1916 -0.7035  0.8004
 5254SOL     OW27394   3.300   4.118   9.387 -0.2902 -0.1559 -0.0103
 5254SOL    HW127395   3.337   4.114   9.475 -0.2523  0.6802  0.0164
 5254SOL    HW227396   3.244   4.196   9.388 -0.2738 -0.1533  0.4531
 5255SOL     OW27397   0.522   1.585   7.226  0.8611  0.0781  0.1417
 5255SOL    HW127398   0.529   1.681   7.230 -1.6510  0.2775  0.1795
 5255SOL    HW227399   0.451   1.568   7.288 -0.9689  1.8256 -1.4489
 5256SOL     OW27400   1.743   1.857   1.273 -0.5807 -0.2193  0.2171
 5256SOL    HW127401   1.703   1.943   1.286 -0.5206 -0.4358  1.7669
 5256SOL    HW227402   1.668   1.812   1.235 -0.8921  0.3655  0.1339
 5257SOL     OW27403   2.164   4.605   2.557 -0.2425  0.0732  0.1600
 5257SOL    HW127404   2.106   4.590   2.631 -0.8949  1.7334 -0.0183
 5257SOL    HW227405   2.111   4.670   2.511 -3.0483 -1.6235  1.0073
 5258SOL     OW27406   4.071   1.244   1.603 -0.3291  0.1559  0.2104
 5258SOL    HW127407   4.163   1.249   1.577 -0.1078 -0.6312  0.8245
 5258SOL    HW227408   4.028   1.263   1.520 -2.5728 -2.7922  0.7157
 5259SOL     OW27409   4.306   1.117   6.106  0.3434  0.2941 -0.3160
 5259SOL    HW127410   4.306   1.052   6.035 -1.0367  1.3183 -1.2421
 5259SOL    HW227411   4.212   1.132   6.102  0.1899 -0.6690 -0.5038
 5260SOL     OW27412   1.126   2.279   6.140 -0.6191  0.9468  0.7075
 5260SOL    HW127413   1.087   2.192   6.144  0.9893  0.2961  2.3252
 5260SOL    HW227414   1.197   2.270   6.076  0.1363  1.0702  1.5274
 5261SOL     OW27415   1.970   4.271   9.821  0.6722  0.1293 -0.1034
 5261SOL    HW127416   2.014   4.312   9.747 -0.1210  0.5147 -0.3574
 5261SOL    HW227417   2.040   4.210   9.845 -0.3085 -0.6570  0.7799
 5262SOL     OW27418   4.133   4.396  17.446 -0.1475 -0.2091  0.1097
 5262SOL    HW127419   4.210   4.352  17.410 -0.7868 -1.5473  0.4178
 5262SOL    HW227420   4.146   4.484  17.410 -0.1060  0.1331  0.9537
 5263SOL     OW27421   1.900   1.824   2.223  0.0696  0.0260  0.4927
 5263SOL    HW127422   1.985   1.818   2.267 -0.6938  0.4423  2.0341
 5263SOL    HW227423   1.912   1.890   2.155  0.1372  0.3186  0.7899
 5264SOL     OW27424   0.153   0.189  11.392  0.5766  0.3257  0.1757
 5264SOL    HW127425   0.213   0.114  11.398 -0.9444 -1.0225 -1.1410
 5264SOL    HW227426   0.090   0.173  11.462 -2.1749  0.1007 -2.3369
 5265SOL     OW27427   0.154   0.376  14.390 -0.3650  0.0112 -0.1478
 5265SOL    HW127428   0.215   0.315  14.431 -2.1885 -0.4427  1.9153
 5265SOL    HW227429   0.205   0.433  14.333 -1.5097 -0.4208 -1.5939
 5266SOL     OW27430   0.090   2.404   3.489 -0.0186 -0.1970  0.4222
 5266SOL    HW127431   0.070   2.490   3.453  0.9201  0.3025  1.0928
 5266SOL    HW227432   0.179   2.418   3.522 -0.1431  1.9738 -0.1941
 5267SOL     OW27433   3.293   4.097   0.933  0.1532 -0.2439 -0.5487
 5267SOL    HW127434   3.310   4.018   0.985 -0.9512 -0.7254 -0.9262
 5267SOL    HW227435   3.262   4.059   0.851 -2.2838 -0.5909  0.5587
 5268SOL     OW27436   3.064   1.858  10.461 -0.4467  0.1021  0.5708
 5268SOL    HW127437   3.008   1.789  10.426  1.1111  0.0168 -1.7231
 5268SOL    HW227438   3.065   1.823  10.551  1.1280  1.3065  1.0228
 5269SOL     OW27439   0.032   2.414   7.321  0.4723  0.2230  0.5138
 5269SOL    HW127440   4.723   2.436   7.400 -3.0087 -0.2497 -1.4706
 5269SOL    HW227441   4.700   2.409   7.258  0.2161  1.0600  0.7468
 5270SOL     OW27442   4.613   2.712   3.892  0.3691 -0.2495  0.1257
 5270SOL    HW127443   4.589   2.641   3.952  2.4081  1.5631  3.0969
 5270SOL    HW227444   4.701   2.682   3.869 -0.3477 -1.3151 -1.2141
 5271SOL     OW27445   1.166   3.500   9.075  0.1308  0.4809 -0.4426
 5271SOL    HW127446   1.189   3.556   9.150 -1.3476 -0.4468  0.7041
 5271SOL    HW227447   1.143   3.576   9.021 -0.3149  0.7018  0.0505
 5272SOL     OW27448   1.307   0.383  11.646 -0.1756 -0.3920  0.1501
 5272SOL    HW127449   1.382   0.328  11.622  1.5816  1.5936  1.0596
 5272SOL    HW227450   1.246   0.320  11.684 -1.8243 -0.2204 -2.1759
 5273SOL     OW27451   4.314   4.577   2.139 -0.4546  0.5870 -0.2712
 5273SOL    HW127452   4.399   4.587   2.095  0.4485 -2.1498  0.8535
 5273SOL    HW227453   4.287   4.668   2.128 -0.9125  0.1512 -2.7815
 5274SOL     OW27454   2.666   4.301   1.711 -0.3105 -0.3531  0.6658
 5274SOL    HW127455   2.674   4.394   1.690 -0.4782 -0.6535 -0.6931
 5274SOL    HW227456   2.573   4.295   1.733 -0.9107  0.5918 -1.6506
 5275SOL     OW27457   1.193   3.331   5.695  0.1350  0.3191 -0.1756
 5275SOL    HW127458   1.115   3.280   5.718  0.8891 -0.6877  0.1377
 5275SOL    HW227459   1.241   3.267   5.643  0.3030  0.9158 -0.7499
 5276SOL     OW27460   2.983   2.292   4.923  0.2686  0.1247 -0.3400
 5276SOL    HW127461   2.976   2.202   4.890 -1.3605 -0.5021  1.6643
 5276SOL    HW227462   3.065   2.330   4.893  1.5900 -0.0475  3.0913
 5277SOL     OW27463   1.726   1.459  11.257 -0.2814  0.0669  0.4795
 5277SOL    HW127464   1.792   1.409  11.209 -0.9272 -2.3646  2.1424
 5277SOL    HW227465   1.724   1.425  11.347  0.9401 -2.0500 -0.2979
 5278SOL     OW27466   2.588   1.590  14.362  0.5209  1.1485  0.1075
 5278SOL    HW127467   2.580   1.558  14.451  0.8389  0.6504 -0.0434
 5278SOL    HW227468   2.683   1.605  14.356  0.9291 -1.5162 -0.3271
 5279SOL     OW27469   3.272   3.760   2.174  0.1252 -0.4394 -0.3786
 5279SOL    HW127470   3.267   3.778   2.080  0.7235  0.6800 -0.1929
 5279SOL    HW227471   3.276   3.849   2.211  2.2521 -0.3133 -0.9619
 5280SOL     OW27472   0.975   2.676   6.201 -0.0018 -0.1514 -0.3509
 5280SOL    HW127473   1.022   2.659   6.119 -2.8195 -1.1727 -1.7414
 5280SOL    HW227474   0.984   2.594   6.249 -2.9720 -0.9118 -1.0979
 5281SOL     OW27475   3.560   4.730   5.299  0.4030  0.3909  0.3220
 5281SOL    HW127476   3.612   0.006   5.378  0.6023 -0.0020  0.2688
 5281SOL    HW227477   3.493   0.053   5.326 -1.1688 -1.1690  0.0319
 5282SOL     OW27478   4.009   0.214  14.515  0.3122  0.0212  0.2804
 5282SOL    HW127479   4.005   0.196  14.421  0.0302  0.2780  0.2424
 5282SOL    HW227480   4.071   0.287  14.519 -0.5776  0.9028 -2.3398
 5283SOL     OW27481   3.738   3.930   5.276 -0.1127  0.0435  0.4062
 5283SOL    HW127482   3.708   3.937   5.366 -0.6659 -1.0429  0.3079
 5283SOL    HW227483   3.703   4.008   5.233  1.5398  0.5580 -0.0012
 5284SOL     OW27484   2.187   0.795  14.057  0.6149 -0.5379 -0.1954
 5284SOL    HW127485   2.096   0.811  14.083  2.1157  0.8574  4.2830
 5284SOL    HW227486   2.183   0.699  14.060  3.3137 -0.6305  0.1138
 5285SOL     OW27487   1.043   4.270   7.195  0.4267  0.0481 -0.0815
 5285SOL    HW127488   0.997   4.338   7.146  0.1188 -0.4805 -0.5234
 5285SOL    HW227489   1.132   4.303   7.207 -0.3481  1.9918  0.4453
 5286SOL     OW27490   0.844   2.929  15.284  0.4573  0.4215  0.3586
 5286SOL    HW127491   0.840   2.928  15.380  2.6787 -0.5187  0.4578
 5286SOL    HW227492   0.821   3.020  15.266 -0.4975  0.5524  2.2318
 5287SOL     OW27493   2.045   3.913   4.735  0.2177 -0.2097  0.0291
 5287SOL    HW127494   2.140   3.911   4.721  0.1029 -0.0926 -0.7660
 5287SOL    HW227495   2.032   4.008   4.726 -2.3550 -0.4429  1.3009
 5288SOL     OW27496   4.019   3.601  13.590  0.2137 -0.3242  0.2766
 5288SOL    HW127497   4.042   3.694  13.579 -0.8065 -0.1499 -0.4079
 5288SOL    HW227498   4.057   3.578  13.674  1.4962 -0.9613 -0.4805
 5289SOL     OW27499   1.667   1.498   8.418 -0.3717  0.6939 -0.0066
 5289SOL    HW127500   1.728   1.561   8.378 -0.0433 -1.0420 -2.2538
 5289SOL    HW227501   1.706   1.480   8.503 -0.6008 -1.9263 -0.4556
 5290SOL     OW27502   1.455   2.492   2.523  0.2612 -0.3251  0.3848
 5290SOL    HW127503   1.421   2.478   2.434  1.3363  0.8112 -0.2136
 5290SOL    HW227504   1.447   2.588   2.523  0.1200 -0.3380  0.6401
 5291SOL     OW27505   4.400   2.705  12.006  0.1014 -0.1071 -0.0266
 5291SOL    HW127506   4.448   2.652  12.069  0.2087  1.0560  0.8634
 5291SOL    HW227507   4.451   2.783  11.986 -0.5771  0.1115 -0.9114
 5292SOL     OW27508   3.136   3.739   8.219 -0.7709 -0.1885 -0.2498
 5292SOL    HW127509   3.154   3.713   8.309 -1.1232  0.9906  0.1487
 5292SOL    HW227510   3.201   3.691   8.167 -0.5003 -0.3172  0.2150
 5293SOL     OW27511   3.922   2.757   4.797  0.0739 -0.3562  0.2851
 5293SOL    HW127512   3.928   2.776   4.891 -3.0792 -0.4638  0.4877
 5293SOL    HW227513   3.845   2.700   4.791 -0.7500  0.8927 -0.8983
 5294SOL     OW27514   2.195   3.402   2.159 -0.2643 -0.4009 -0.4015
 5294SOL    HW127515   2.257   3.398   2.233  0.0611  1.7083 -0.5637
 5294SOL    HW227516   2.235   3.465   2.099  1.2906 -0.8642  0.1353
 5295SOL     OW27517   3.684   2.667   9.943  0.0172 -0.1616  0.7928
 5295SOL    HW127518   3.595   2.647   9.972  0.4382 -2.6237  0.3915
 5295SOL    HW227519   3.736   2.634  10.016  2.0614  1.5573  0.1034
 5296SOL     OW27520   2.397   4.147   7.894  1.1977  0.4261  0.1336
 5296SOL    HW127521   2.434   4.173   7.810 -1.8647 -0.6092 -1.5019
 5296SOL    HW227522   2.476   4.124   7.944  1.2313 -0.6644 -0.4200
 5297SOL     OW27523   3.799   0.106   8.362  0.1335 -0.1196  0.0470
 5297SOL    HW127524   3.761   0.052   8.431 -0.0600 -0.0448 -0.0032
 5297SOL    HW227525   3.889   0.119   8.392  0.3561 -0.1000 -0.6332
 5298SOL     OW27526   2.343   3.665   8.922 -0.2887 -0.1834 -0.1385
 5298SOL    HW127527   2.319   3.757   8.919  1.2569  0.1708 -1.7491
 5298SOL    HW227528   2.372   3.650   9.011  1.7866 -1.5118 -1.0342
 5299SOL     OW27529   2.637   0.386   4.724  0.2643  0.1388 -0.5547
 5299SOL    HW127530   2.593   0.302   4.711 -1.4074  0.7036  1.4132
 5299SOL    HW227531   2.722   0.348   4.700  0.4358 -1.8831  3.2555
 5300SOL     OW27532   1.171   4.519   7.555 -0.4724 -0.3783 -0.4640
 5300SOL    HW127533   1.144   4.600   7.597 -0.1757  0.0238 -1.0584
 5300SOL    HW227534   1.232   4.487   7.622 -2.4033  0.2942  1.6116
 5301SOL     OW27535   3.779   1.905   4.497 -0.2457  0.3632 -0.3059
 5301SOL    HW127536   3.784   1.880   4.405  2.1608 -1.3992  0.2952
 5301SOL    HW227537   3.798   1.997   4.477 -2.1716  1.1386  1.4509
 5302SOL     OW27538   2.343   4.614   6.099 -0.1915  0.1769  0.0178
 5302SOL    HW127539   2.319   4.685   6.039  1.1981 -0.5705 -1.4408
 5302SOL    HW227540   2.324   4.540   6.041 -0.4170 -1.9513  2.8545
 5303SOL     OW27541   3.558   0.578   6.110  0.4791  0.3827  0.2261
 5303SOL    HW127542   3.573   0.535   6.026 -1.6977  0.3272 -0.1462
 5303SOL    HW227543   3.647   0.583   6.144  0.2842 -0.1682  0.8372
 5304SOL     OW27544   0.131   4.208   8.452 -0.0334 -0.3783 -0.4951
 5304SOL    HW127545   0.089   4.199   8.367  0.1176 -1.3751 -0.4630
 5304SOL    HW227546   0.224   4.194   8.436 -0.0846 -1.3943  0.0713
 5305SOL     OW27547   1.322   3.753   1.040 -0.0510  0.0610 -0.1085
 5305SOL    HW127548   1.318   3.832   1.094 -1.5254 -1.0643  1.4304
 5305SOL    HW227549   1.264   3.779   0.969  0.4907  1.3219 -0.0860
 5306SOL     OW27550   2.416   4.512   1.646  0.1697  0.0526  0.0055
 5306SOL    HW127551   2.375   4.450   1.586 -2.2233  1.9864 -0.3586
 5306SOL    HW227552   2.395   4.598   1.609  0.7338 -0.5766 -1.7992
 5307SOL     OW27553   3.049   0.142   3.264  0.6360 -0.0009 -0.4628
 5307SOL    HW127554   3.038   0.225   3.219 -1.4306 -0.3987 -0.7243
 5307SOL    HW227555   3.140   0.148   3.292  0.6849 -1.6979 -0.2196
 5308SOL     OW27556   2.439   2.993   9.621 -0.0191 -0.4782  0.5045
 5308SOL    HW127557   2.386   2.916   9.602 -1.2960 -0.2175  3.0465
 5308SOL    HW227558   2.492   2.989   9.541 -2.4494 -2.8167 -0.9814
 5309SOL     OW27559   3.582   3.156   1.480  0.4126  0.9160  0.2803
 5309SOL    HW127560   3.548   3.112   1.557  1.0982 -0.8342 -0.4088
 5309SOL    HW227561   3.498   3.164   1.434  0.8897 -0.5563 -0.8524
 5310SOL     OW27562   1.711   4.198   6.078 -0.4688 -0.4538 -0.8441
 5310SOL    HW127563   1.775   4.156   6.136 -0.9890 -1.9852 -1.3984
 5310SOL    HW227564   1.745   4.161   5.997  1.9333  0.5322 -0.3069
 5311SOL     OW27565   0.259   3.579   8.147  0.3022 -0.4232 -0.4161
 5311SOL    HW127566   0.297   3.630   8.075 -0.3677  1.9516  0.9254
 5311SOL    HW227567   0.316   3.610   8.217  0.4270 -1.2720 -0.1435
 5312SOL     OW27568   0.408   3.541   6.141 -0.9944 -1.1542  0.0600
 5312SOL    HW127569   0.345   3.562   6.210  1.3731  0.5223  1.7327
 5312SOL    HW227570   0.497   3.558   6.171 -0.4186 -2.5550 -0.8630
 5313SOL     OW27571   0.169   2.960  10.066  0.6995  0.2966  0.2070
 5313SOL    HW127572   0.232   2.892  10.089 -2.3795 -2.1540  1.4910
 5313SOL    HW227573   0.232   3.028  10.043  0.5202  0.4896  0.2843
 5314SOL     OW27574   4.161   0.966   5.917 -0.2789 -0.0344 -0.0172
 5314SOL    HW127575   4.079   0.917   5.922 -1.1231  1.4268  0.5369
 5314SOL    HW227576   4.147   1.021   5.840 -1.1816  1.0823  0.9561
 5315SOL     OW27577   2.745   3.092   4.666 -0.7659  0.0803 -0.2617
 5315SOL    HW127578   2.743   2.996   4.662 -1.2320  0.0676  0.3097
 5315SOL    HW227579   2.771   3.105   4.575 -0.7980  0.8204 -0.1624
 5316SOL     OW27580   4.617   2.693   4.465 -0.1157  0.3364 -0.3408
 5316SOL    HW127581   4.593   2.762   4.526 -0.8024 -0.9123  0.8102
 5316SOL    HW227582   4.636   2.744   4.386 -2.5308  0.9043 -0.5597
 5317SOL     OW27583   2.331   1.471  13.747  0.3978  0.0364  0.1163
 5317SOL    HW127584   2.386   1.455  13.824  1.3358  0.8410 -0.3859
 5317SOL    HW227585   2.374   1.550  13.716 -0.7047  0.8506  0.6703
 5318SOL     OW27586   3.153   3.239   9.329  0.2826  0.1635 -0.6418
 5318SOL    HW127587   3.174   3.220   9.238 -1.2261  0.7415 -1.1067
 5318SOL    HW227588   3.229   3.201   9.373  1.4780  1.8412 -1.2569
 5319SOL     OW27589   2.288   1.508   7.717  0.2354  0.5433 -0.2778
 5319SOL    HW127590   2.261   1.426   7.758 -0.2297  0.5983 -0.4800
 5319SOL    HW227591   2.272   1.571   7.786  4.4053  1.9353 -0.5722
 5320SOL     OW27592   1.471   4.405  13.480  0.5039  0.4274 -0.4492
 5320SOL    HW127593   1.450   4.412  13.574  0.0518  1.1777 -0.6010
 5320SOL    HW227594   1.383   4.398  13.443  0.8019 -2.0488 -0.6544
 5321SOL     OW27595   2.984   3.919   4.960  0.2207 -0.3068 -0.6878
 5321SOL    HW127596   3.065   3.867   4.966  0.2525 -0.2239 -0.4255
 5321SOL    HW227597   2.971   3.947   5.050  1.7217 -2.2975  0.1403
 5322SOL     OW27598   2.937   0.912   2.956 -0.2492  0.0252 -0.3679
 5322SOL    HW127599   2.919   0.864   2.875  1.6301 -0.6553 -0.3859
 5322SOL    HW227600   2.999   0.976   2.920 -1.2094 -0.1208 -2.2631
 5323SOL     OW27601   2.894   1.665  12.067 -0.1612 -0.1181 -0.4149
 5323SOL    HW127602   2.985   1.649  12.041  0.0251 -0.3324  0.3778
 5323SOL    HW227603   2.850   1.682  11.984  2.7091 -1.1204 -2.1453
 5324SOL     OW27604   4.597   0.476   6.260 -0.1465  0.0018  0.8407
 5324SOL    HW127605   4.599   0.427   6.342 -0.6462 -1.8362 -0.2446
 5324SOL    HW227606   4.535   0.431   6.203 -2.2159  2.0516  1.4712
 5325SOL     OW27607   3.019   3.033   9.059  0.1171  0.8831  0.2654
 5325SOL    HW127608   2.975   2.954   9.092  4.4237 -1.3123  0.7668
 5325SOL    HW227609   2.943   3.090   9.045 -0.6689  0.0523  1.0677
 5326SOL     OW27610   3.068   3.758   1.693 -0.3170  0.2329  0.6569
 5326SOL    HW127611   3.142   3.741   1.635 -0.4563 -0.2453  0.6171
 5326SOL    HW227612   3.007   3.692   1.658  0.5275  0.9943 -2.2150
 5327SOL     OW27613   4.644   2.546   7.551  0.6089 -0.1809  0.5389
 5327SOL    HW127614   4.731   2.580   7.570 -0.3642  2.0959  0.9290
 5327SOL    HW227615   4.592   2.586   7.621 -1.2721  2.7993 -2.5832
 5328SOL     OW27616   4.513   2.875  11.645  0.1831 -0.7528  0.3432
 5328SOL    HW127617   4.452   2.933  11.600  0.5749 -1.4343 -1.0793
 5328SOL    HW227618   4.500   2.890  11.738 -1.0840 -0.2241  0.0824
 5329SOL     OW27619   2.551   3.011   3.762 -0.1449 -0.3134  0.0543
 5329SOL    HW127620   2.544   3.007   3.857  0.3924 -0.3086  0.0896
 5329SOL    HW227621   2.536   3.104   3.748  0.7123 -0.4267 -1.5656
 5330SOL     OW27622   0.971   1.856  13.293  0.1497 -0.1209 -0.3726
 5330SOL    HW127623   1.020   1.774  13.290  2.7836  1.5392 -2.6473
 5330SOL    HW227624   1.021   1.908  13.356 -1.5262 -0.1869  0.9762
 5331SOL     OW27625   2.332   3.437   8.738 -0.3914 -0.0155  0.3151
 5331SOL    HW127626   2.346   3.501   8.809 -0.6309 -2.2075  2.3337
 5331SOL    HW227627   2.278   3.370   8.780  1.0630 -0.8521  0.8768
 5332SOL     OW27628   3.696   4.498  17.059  0.7262 -0.2964  0.2315
 5332SOL    HW127629   3.786   4.500  17.091  0.4782 -1.7500  1.0429
 5332SOL    HW227630   3.661   4.412  17.081  2.2433 -0.4052  2.1436
 5333SOL     OW27631   0.755   3.710  11.231  0.1831 -0.5884  0.4262
 5333SOL    HW127632   0.713   3.718  11.145 -0.0950 -2.2685  0.4059
 5333SOL    HW227633   0.813   3.785  11.243 -1.1511  0.0932  2.6822
 5334SOL     OW27634   0.593   2.932   5.661 -0.6630  0.0298  0.3172
 5334SOL    HW127635   0.551   3.012   5.696 -2.9891 -0.8415 -0.4619
 5334SOL    HW227636   0.540   2.916   5.583  0.3055  0.2261 -0.3752
 5335SOL     OW27637   0.726   1.017   1.424 -0.1239  0.1887 -0.4806
 5335SOL    HW127638   0.746   1.032   1.332  1.7219  3.5417  0.4729
 5335SOL    HW227639   0.783   0.943   1.447 -0.7936 -0.7713 -1.9460
 5336SOL     OW27640   1.024   0.339   5.488  0.0584 -0.4125 -0.6674
 5336SOL    HW127641   1.027   0.424   5.531 -0.0044 -0.1049 -1.2779
 5336SOL    HW227642   1.060   0.280   5.555 -2.3257 -2.1821 -0.9352
 5337SOL     OW27643   3.096   3.226   3.948 -0.1105  0.7917 -0.2949
 5337SOL    HW127644   3.046   3.308   3.950  3.8959  3.0941  3.9845
 5337SOL    HW227645   3.094   3.222   4.043 -1.8849  1.2750 -0.3109
 5338SOL     OW27646   0.595   3.015   2.836  0.0991  0.1458 -0.0910
 5338SOL    HW127647   0.593   3.077   2.762  3.2133 -0.6628 -0.8411
 5338SOL    HW227648   0.524   2.957   2.811 -1.0682  1.3220  0.4840
 5339SOL     OW27649   1.559   3.824  12.854 -0.4900  0.2533  0.0239
 5339SOL    HW127650   1.485   3.837  12.913 -0.2718  0.8242  0.1726
 5339SOL    HW227651   1.584   3.734  12.875 -0.3378  0.2646 -0.1028
 5340SOL     OW27652   3.730   4.528   6.573 -0.3981 -0.6086 -0.2773
 5340SOL    HW127653   3.696   4.454   6.522 -1.3010 -0.4761  0.1328
 5340SOL    HW227654   3.810   4.543   6.523 -0.1910  1.2703  0.6409
 5341SOL     OW27655   3.562   1.760  15.296  0.2814  0.4477  0.0666
 5341SOL    HW127656   3.501   1.731  15.362  0.0439  0.3377 -0.2008
 5341SOL    HW227657   3.516   1.717  15.224 -0.2923  0.7597  0.2477
 5342SOL     OW27658   0.264   3.024  16.351 -0.1447 -0.1335 -0.3794
 5342SOL    HW127659   0.186   2.969  16.338 -0.6584  0.1616  1.5069
 5342SOL    HW227660   0.284   3.002  16.442 -0.5218 -1.2186 -0.5455
 5343SOL     OW27661   2.658   3.869   9.601  0.1584 -0.3107 -0.3180
 5343SOL    HW127662   2.723   3.807   9.635  1.0192  1.1715  0.7509
 5343SOL    HW227663   2.638   3.827   9.517  0.2743 -2.6822  0.8462
 5344SOL     OW27664   1.906   3.789  16.725  0.5421  0.0182 -0.4366
 5344SOL    HW127665   1.946   3.839  16.654  0.5111  0.6953  0.0292
 5344SOL    HW227666   1.935   3.698  16.722 -0.7163 -0.4305  1.1040
 5345SOL     OW27667   4.531   0.286  14.858 -0.5266  1.0257 -0.2229
 5345SOL    HW127668   4.543   0.369  14.905 -2.5302 -0.5311  3.0113
 5345SOL    HW227669   4.489   0.323  14.780  0.5629  1.0390 -0.8051
 5346SOL     OW27670   3.475   3.613   3.855  0.6245  0.0660 -0.2614
 5346SOL    HW127671   3.492   3.535   3.908 -1.8996 -0.6831 -0.5732
 5346SOL    HW227672   3.468   3.674   3.928 -1.4303 -0.0980 -0.3210
 5347SOL     OW27673   0.518   0.745   9.034 -0.4248 -0.1433 -0.2814
 5347SOL    HW127674   0.520   0.841   9.040 -0.1637 -0.1631 -0.0502
 5347SOL    HW227675   0.427   0.734   9.062  0.1651 -1.0439  1.2926
 5348SOL     OW27676   4.027   4.670   1.035 -0.6239 -1.0184  0.2648
 5348SOL    HW127677   3.979   0.013   1.037 -1.3960 -1.4580  0.1519
 5348SOL    HW227678   4.001   4.640   1.123  1.5036 -0.6586  1.0083
 5349SOL     OW27679   1.272   4.103   3.594  0.4171  0.1180  0.5634
 5349SOL    HW127680   1.365   4.115   3.575  0.0036  0.2384 -1.4125
 5349SOL    HW227681   1.272   4.018   3.639 -1.4211 -0.8523 -1.2250
 5350SOL     OW27682   1.685   0.958   9.615 -0.2489  0.1731 -0.4604
 5350SOL    HW127683   1.750   0.892   9.592 -1.6485 -0.8043 -1.6208
 5350SOL    HW227684   1.733   1.022   9.668 -1.9332  1.3185 -0.3146
 5351SOL     OW27685   2.671   0.797  15.514  0.3342  0.0401 -0.1213
 5351SOL    HW127686   2.727   0.798  15.591  0.1103  1.9866  0.0031
 5351SOL    HW227687   2.728   0.814  15.439 -1.7714  0.3861 -1.6563
 5352SOL     OW27688   0.739   2.352   0.073 -0.2564 -0.0846 -0.2490
 5352SOL    HW127689   0.796   2.316   0.141  2.4960  2.3085 -1.2900
 5352SOL    HW227690   0.703   2.267   0.045  2.8949 -1.3651 -0.4180
 5353SOL     OW27691   1.572   2.455   7.435 -0.2761 -0.3236 -0.1220
 5353SOL    HW127692   1.572   2.539   7.481 -1.5688 -0.8252  0.7833
 5353SOL    HW227693   1.480   2.429   7.438 -0.5453  0.5703 -0.4397
 5354SOL     OW27694   3.619   3.021   3.096 -0.5394  0.5153  0.0184
 5354SOL    HW127695   3.585   2.983   3.178 -0.5710 -0.2835 -0.3605
 5354SOL    HW227696   3.645   3.110   3.117 -0.2179  0.2256  0.8599
 5355SOL     OW27697   0.016   4.340   1.178 -0.3658  0.0140 -0.1258
 5355SOL    HW127698   0.108   4.337   1.152  0.2211  1.8245  1.6628
 5355SOL    HW227699   0.002   4.246   1.179  1.0554 -0.1914  0.8050
 5356SOL     OW27700   2.568   4.460  13.092 -0.2850  0.5918 -0.2903
 5356SOL    HW127701   2.579   4.552  13.115  1.2335  0.1786  0.6374
 5356SOL    HW227702   2.480   4.442  13.123  0.9405 -3.4902  0.7907
 5357SOL     OW27703   3.505   3.739   5.116 -0.2773  0.2972 -0.0536
 5357SOL    HW127704   3.530   3.688   5.039 -2.4461 -0.7076 -0.0978
 5357SOL    HW227705   3.533   3.684   5.188  0.7706  1.9401  0.7993
 5358SOL     OW27706   1.568   4.101  12.849  0.8641 -0.2153  0.1244
 5358SOL    HW127707   1.602   4.129  12.934 -1.4112 -2.7849  1.8736
 5358SOL    HW227708   1.530   4.016  12.872 -0.4890  0.1039 -0.9719
 5359SOL     OW27709   2.242   1.349   2.581  0.3581  0.0645 -0.1970
 5359SOL    HW127710   2.283   1.320   2.662 -1.9234 -0.0639  0.9260
 5359SOL    HW227711   2.291   1.430   2.570 -1.1161  0.6979 -2.1611
 5360SOL     OW27712   4.528   3.573  17.638 -0.2139 -0.5203 -0.2898
 5360SOL    HW127713   4.602   3.632  17.620 -0.2054 -0.4544 -0.0387
 5360SOL    HW227714   4.537   3.511  17.566 -0.0038  0.8939 -1.4861
 5361SOL     OW27715   4.432   0.745   9.201  0.3109  0.2442 -0.6885
 5361SOL    HW127716   4.518   0.778   9.175  0.0584  2.1785  0.8971
 5361SOL    HW227717   4.407   0.823   9.250  3.0780  0.8269 -0.2257
 5362SOL     OW27718   0.565   2.123  10.533  0.2087  0.0787 -0.7527
 5362SOL    HW127719   0.516   2.120  10.451  0.7536 -0.0976 -1.0710
 5362SOL    HW227720   0.655   2.106  10.508 -0.3230 -2.9413 -0.5301
 5363SOL     OW27721   4.280   1.499   4.647  0.1315 -0.0952  0.5614
 5363SOL    HW127722   4.202   1.479   4.596 -0.1312  1.2698  0.4184
 5363SOL    HW227723   4.269   1.594   4.656 -3.2940 -0.4097 -0.6461
 5364SOL     OW27724   0.101   4.147  14.163  0.5646 -0.6536  0.1487
 5364SOL    HW127725   0.128   4.063  14.127  0.9118  0.5043 -2.3452
 5364SOL    HW227726   0.115   4.130  14.255 -1.6411 -1.7889  0.2879
 5365SOL     OW27727   3.711   2.084  10.713  0.6965 -0.6365  0.0388
 5365SOL    HW127728   3.742   2.171  10.692 -2.1874 -0.4615 -3.6122
 5365SOL    HW227729   3.620   2.099  10.740  0.3712 -1.6299 -0.4627
 5366SOL     OW27730   4.633   0.435   2.413  0.2088 -0.4131  0.1157
 5366SOL    HW127731   4.700   0.385   2.459  0.3051 -0.8099 -0.4579
 5366SOL    HW227732   4.672   0.507   2.365 -1.6110  0.2943 -0.3074
 5367SOL     OW27733   0.898   1.373   7.956  0.1095 -0.1705  0.0311
 5367SOL    HW127734   0.896   1.434   8.029  0.7830 -0.7430  0.5251
 5367SOL    HW227735   0.888   1.287   7.998 -0.0809  0.6223  1.5888
 5368SOL     OW27736   3.040   2.171  14.075  0.0805  0.4643 -0.0540
 5368SOL    HW127737   3.083   2.249  14.111  1.3131 -0.1423 -0.2343
 5368SOL    HW227738   3.093   2.099  14.108 -2.1291 -2.2780 -2.4567
 5369SOL     OW27739   4.531   0.789   3.829  0.1045  0.0696  0.0293
 5369SOL    HW127740   4.536   0.772   3.735  0.9706  1.2130 -0.1216
 5369SOL    HW227741   4.534   0.699   3.863 -1.8695 -0.9507 -2.5053
 5370SOL     OW27742   4.565   4.015   0.848 -0.2494 -0.4491 -0.0836
 5370SOL    HW127743   4.514   4.021   0.929 -0.6873 -0.0368 -0.3911
 5370SOL    HW227744   4.505   4.054   0.784 -1.7434 -1.6102  0.5945
 5371SOL     OW27745   0.595   2.914   4.704  0.5960  0.4532 -0.1154
 5371SOL    HW127746   0.531   2.985   4.705 -0.3894 -0.3892 -1.9721
 5371SOL    HW227747   0.560   2.857   4.635 -0.4881  0.5333  0.3652
 5372SOL     OW27748   2.842   0.566   4.268  0.1964  0.7438 -0.2178
 5372SOL    HW127749   2.767   0.598   4.218  0.9184 -1.7111 -2.9123
 5372SOL    HW227750   2.825   0.472   4.268  1.2878  0.5480 -0.6710
 5373SOL     OW27751   0.314   3.171  16.902  0.2068 -0.2418 -0.3174
 5373SOL    HW127752   0.374   3.220  16.959 -0.3020  0.6165 -0.5136
 5373SOL    HW227753   0.359   3.195  16.822 -1.5202 -0.8141 -1.4510
 5374SOL     OW27754   0.655   4.555   8.894  0.7563 -0.8720 -0.1511
 5374SOL    HW127755   0.603   4.633   8.875  2.1986  0.3801  1.0484
 5374SOL    HW227756   0.602   4.483   8.858  2.2318 -2.0071 -0.0601
 5375SOL     OW27757   3.927   0.133  11.959 -0.3885 -0.1337  0.0943
 5375SOL    HW127758   3.834   0.110  11.952 -0.7300  2.1830 -3.0006
 5375SOL    HW227759   3.950   0.048  11.920  0.4242  0.3899 -0.5502
 5376SOL     OW27760   0.853   2.315   0.300 -0.5719 -0.2479 -0.7174
 5376SOL    HW127761   0.875   2.388   0.359  0.0229 -0.3047 -0.8644
 5376SOL    HW227762   0.879   2.248   0.362 -0.4538 -0.3683 -0.8947
 5377SOL     OW27763   1.384   4.512   4.174 -0.8730  0.1781 -0.2613
 5377SOL    HW127764   1.315   4.459   4.214 -0.8877 -0.7780 -1.5817
 5377SOL    HW227765   1.447   4.529   4.245 -0.6852 -1.5973 -0.0142
 5378SOL     OW27766   0.360   4.417  17.257 -0.0617 -0.2020 -0.2327
 5378SOL    HW127767   0.299   4.349  17.287 -0.4806  0.9635  1.5383
 5378SOL    HW227768   0.416   4.375  17.192  0.4159 -1.1328  0.7722
 5379SOL     OW27769   3.771   2.155  13.555 -0.2095  0.5341 -0.0877
 5379SOL    HW127770   3.687   2.145  13.510 -1.5174  2.1653  1.9716
 5379SOL    HW227771   3.785   2.066  13.589  0.7395 -0.3785 -2.8748
 5380SOL     OW27772   3.363   3.854   4.718 -0.0709  0.3064  0.3159
 5380SOL    HW127773   3.357   3.948   4.734 -1.5702 -0.1596  2.4656
 5380SOL    HW227774   3.312   3.840   4.638  0.6081  0.1766 -0.0933
 5381SOL     OW27775   4.720   3.328   9.624 -0.0719  0.1651 -0.4161
 5381SOL    HW127776   4.680   3.241   9.628 -1.7129  0.8774 -1.2461
 5381SOL    HW227777   0.056   3.306   9.570  0.5243  1.9018 -0.2706
 5382SOL     OW27778   1.067   2.081   3.708  0.9297  0.2196 -0.3828
 5382SOL    HW127779   1.024   2.121   3.632 -0.0910 -0.5995 -0.2366
 5382SOL    HW227780   1.161   2.086   3.690  0.6301  0.4561 -1.9029
 5383SOL     OW27781   1.770   3.750   5.615 -0.4630 -0.3982 -0.7214
 5383SOL    HW127782   1.782   3.667   5.661 -0.5787  0.2730  0.5225
 5383SOL    HW227783   1.856   3.766   5.576 -0.0276 -1.0123 -0.0055
 5384SOL     OW27784   4.342   0.612   5.546 -0.0809  0.0161  0.2682
 5384SOL    HW127785   4.368   0.674   5.477  0.6930  0.5896  1.0770
 5384SOL    HW227786   4.423   0.563   5.563 -0.3683  0.3182  2.4309
 5385SOL     OW27787   4.454   3.275   2.311 -0.6787 -0.1656  0.1786
 5385SOL    HW127788   4.509   3.331   2.367  2.1448 -0.7482 -1.9964
 5385SOL    HW227789   4.516   3.202   2.318  0.5075  0.6905 -1.3337
 5386SOL     OW27790   1.925   3.330   7.314 -0.3342 -0.2674 -0.1626
 5386SOL    HW127791   1.850   3.308   7.258 -0.4833 -0.6297  0.1730
 5386SOL    HW227792   1.994   3.284   7.266  0.0750 -0.3728  0.5288
 5387SOL     OW27793   3.311   1.298   4.681  0.1347  0.3159 -0.1416
 5387SOL    HW127794   3.217   1.285   4.691  0.5038 -1.9536  0.3975
 5387SOL    HW227795   3.307   1.367   4.614  1.5311  0.0764 -0.4662
 5388SOL     OW27796   2.095   2.448   8.339  0.0567 -0.3942  0.6873
 5388SOL    HW127797   2.106   2.425   8.247  0.5961 -0.0995  0.6738
 5388SOL    HW227798   2.172   2.400   8.371  0.3955 -0.9825 -1.0098
 5389SOL     OW27799   1.653   3.414  13.303  0.4765  0.3697 -0.4934
 5389SOL    HW127800   1.575   3.452  13.264  0.0698 -0.8571 -0.8872
 5389SOL    HW227801   1.689   3.499  13.328  2.5307 -0.5222 -0.3849
 5390SOL     OW27802   1.962   1.874   4.937 -0.2914  0.5523 -0.3824
 5390SOL    HW127803   1.955   1.955   4.887  0.8658  0.5417 -0.5742
 5390SOL    HW227804   1.872   1.871   4.969 -0.1433  1.2963  0.1076
 5391SOL     OW27805   2.312   2.538   8.108 -0.2273 -0.0123 -0.5981
 5391SOL    HW127806   2.255   2.469   8.075  1.1121 -2.1470  1.5797
 5391SOL    HW227807   2.254   2.614   8.104  0.7492  0.7163 -0.9214
 5392SOL     OW27808   0.138   2.245   6.728  0.3922 -0.4148 -0.2611
 5392SOL    HW127809   0.158   2.170   6.673 -1.6042 -0.6694 -0.6640
 5392SOL    HW227810   0.103   2.307   6.664  0.3027  0.7157  0.8776
 5393SOL     OW27811   4.584   3.701   7.311 -0.4827 -0.1031  0.4134
 5393SOL    HW127812   4.530   3.672   7.237  0.6893  0.0393 -0.4991
 5393SOL    HW227813   4.650   3.748   7.260 -2.3535  0.5792 -1.3838
 5394SOL     OW27814   3.624   3.180   7.121  0.0095 -0.1364  0.5553
 5394SOL    HW127815   3.638   3.146   7.210  0.5339  0.6626  0.7764
 5394SOL    HW227816   3.573   3.107   7.088 -0.5513  0.5637 -0.1215
 5395SOL     OW27817   4.242   3.113   4.077 -0.4376  0.1904 -0.0964
 5395SOL    HW127818   4.150   3.139   4.069 -1.2879 -3.0820 -0.8920
 5395SOL    HW227819   4.266   3.160   4.156 -0.8384 -0.7108  0.5569
 5396SOL     OW27820   2.574   0.594   4.102  0.5130 -0.1049  0.5036
 5396SOL    HW127821   2.559   0.545   4.184  0.9770  2.2106  1.9612
 5396SOL    HW227822   2.503   0.657   4.115  1.2341  1.1200 -1.7967
 5397SOL     OW27823   4.047   1.416   3.346  0.0359  0.4683 -0.8658
 5397SOL    HW127824   4.102   1.491   3.323 -0.6549  0.3953 -2.7476
 5397SOL    HW227825   3.958   1.436   3.316 -1.1169  0.9968  2.9012
 5398SOL     OW27826   4.530   1.129   8.025  0.0571  0.3534  0.7351
 5398SOL    HW127827   4.516   1.038   8.052 -1.9840  1.0399  1.9719
 5398SOL    HW227828   4.622   1.140   8.047  0.3648  0.7970 -0.7640
 5399SOL     OW27829   1.225   2.093   7.449 -0.1575 -0.6371  0.2138
 5399SOL    HW127830   1.190   2.181   7.443 -0.2753 -0.5491  2.0014
 5399SOL    HW227831   1.153   2.048   7.405 -0.1103 -0.9966  0.4976
 5400SOL     OW27832   1.879   0.486   2.696 -0.3645 -0.4162  0.9697
 5400SOL    HW127833   1.852   0.539   2.771  1.6011  1.2401  0.5063
 5400SOL    HW227834   1.823   0.514   2.625  0.5531  1.0273  0.8230
 5401SOL     OW27835   1.936   0.533   3.118 -0.2561 -0.2929 -0.1489
 5401SOL    HW127836   1.901   0.468   3.179 -0.4132  1.3281  1.4637
 5401SOL    HW227837   1.975   0.474   3.054 -2.0546 -1.0702 -0.5245
 5402SOL     OW27838   1.479   1.962   8.719  0.2669 -0.0043  0.9378
 5402SOL    HW127839   1.461   1.890   8.659 -0.2604  1.1534 -0.2832
 5402SOL    HW227840   1.463   1.921   8.804 -1.1066 -0.4585  0.4445
 5403SOL     OW27841   4.299   1.855  15.367 -0.4776  0.0029 -0.5488
 5403SOL    HW127842   4.359   1.794  15.322  0.9303 -0.5157  2.0292
 5403SOL    HW227843   4.297   1.933  15.311  0.2171  0.3336 -0.1163
 5404SOL     OW27844   3.805   2.053   3.826 -0.0897 -0.9484 -0.3416
 5404SOL    HW127845   3.837   1.979   3.877  0.2095 -1.1636 -0.8395
 5404SOL    HW227846   3.846   2.126   3.873 -0.5725 -0.3133 -0.8978
 5405SOL     OW27847   3.516   1.074  11.121 -0.6978 -0.8613 -0.0013
 5405SOL    HW127848   3.610   1.091  11.115 -0.8122  0.1539  0.9732
 5405SOL    HW227849   3.493   1.137  11.191 -1.3669  0.6599 -1.5891
 5406SOL     OW27850   0.191   2.041   6.536 -0.1539 -0.1894  0.2775
 5406SOL    HW127851   0.205   1.955   6.497  1.0808  0.5902 -0.9776
 5406SOL    HW227852   0.280   2.075   6.536  0.6227 -2.2304 -1.7557
 5407SOL     OW27853   4.267   2.224   6.309  0.3382  0.2729  0.3440
 5407SOL    HW127854   4.331   2.211   6.238 -3.4908 -0.6376 -2.9663
 5407SOL    HW227855   4.281   2.144   6.358 -1.7091 -0.0996  0.3071
 5408SOL     OW27856   4.578   3.621   3.440 -0.1837  0.0026 -0.5193
 5408SOL    HW127857   4.572   3.533   3.402 -0.7651 -0.2674  0.1967
 5408SOL    HW227858   4.622   3.671   3.372  2.2728  0.5541  1.4562
 5409SOL     OW27859   0.881   1.705   7.623  0.0404  0.4545  0.1248
 5409SOL    HW127860   0.942   1.650   7.672 -0.7035  2.2427  3.0309
 5409SOL    HW227861   0.864   1.659   7.540 -1.5676 -0.1124  0.7541
 5410SOL     OW27862   0.480   0.751   5.574 -0.7534  0.5042  0.0433
 5410SOL    HW127863   0.406   0.749   5.512  0.0334  1.4866 -0.9220
 5410SOL    HW227864   0.508   0.842   5.567  1.6441 -0.3005 -0.6196
 5411SOL     OW27865   4.300   3.835   9.518 -0.0998  0.1769 -0.5964
 5411SOL    HW127866   4.304   3.845   9.613 -0.7329  2.1249 -0.7923
 5411SOL    HW227867   4.394   3.814   9.515 -0.1813 -0.0466 -1.4244
 5412SOL     OW27868   1.349   1.385  13.422 -1.0208  0.1565 -0.4864
 5412SOL    HW127869   1.430   1.433  13.439  0.1435 -0.6978 -3.4476
 5412SOL    HW227870   1.340   1.318  13.489  1.3702  0.5323  0.2008
 5413SOL     OW27871   2.925   2.602   7.497  0.3736 -0.0701  0.0052
 5413SOL    HW127872   2.863   2.609   7.424  2.1974  1.0922 -1.4435
 5413SOL    HW227873   2.868   2.633   7.567 -1.7662 -0.8203 -1.3735
 5414SOL     OW27874   3.818   3.073  14.915  0.3264  0.5721  0.8886
 5414SOL    HW127875   3.724   3.066  14.901  0.3285  1.2439  0.5353
 5414SOL    HW227876   3.846   3.111  14.831  2.4194 -0.2047  1.2306
 5415SOL     OW27877   1.347   2.080   4.500  0.4058 -0.4386 -0.2291
 5415SOL    HW127878   1.308   2.066   4.587  1.2587  0.4888  0.3110
 5415SOL    HW227879   1.270   2.127   4.468  0.2129 -0.6384 -0.0617
 5416SOL     OW27880   3.539   0.125  10.293  0.1901 -0.3383  0.0741
 5416SOL    HW127881   3.519   0.212  10.328  0.9530  0.0560 -0.4551
 5416SOL    HW227882   3.630   0.141  10.269 -0.0026 -0.9274 -1.0351
 5417SOL     OW27883   4.146   3.493   2.853 -0.1734  0.4566  0.3255
 5417SOL    HW127884   4.054   3.481   2.827  0.1814  1.4461 -1.3822
 5417SOL    HW227885   4.198   3.484   2.773  0.5252  0.0304  0.8336
 5418SOL     OW27886   2.221   0.895   4.581 -0.0677 -0.0854  0.4852
 5418SOL    HW127887   2.296   0.954   4.567 -2.2977  2.1359 -2.0382
 5418SOL    HW227888   2.143   0.950   4.576  1.3828  1.9599  0.4028
 5419SOL     OW27889   1.319   1.209   8.207 -0.3839 -0.4482  0.6589
 5419SOL    HW127890   1.258   1.254   8.266 -0.9949  0.2042 -0.4756
 5419SOL    HW227891   1.312   1.266   8.131  1.6546 -1.5522 -0.3510
 5420SOL     OW27892   2.454   2.562   7.891  0.4313 -0.5295 -0.2166
 5420SOL    HW127893   2.478   2.654   7.879  1.1996 -0.3975  2.2861
 5420SOL    HW227894   2.415   2.564   7.978  0.4455  1.4870 -0.2695
 5421SOL     OW27895   0.878   2.113   6.989  0.0195  0.1459 -0.0465
 5421SOL    HW127896   0.924   2.190   7.023 -2.4249  2.5342 -2.1203
 5421SOL    HW227897   0.870   2.135   6.896  3.8960  0.1070 -0.3752
 5422SOL     OW27898   0.906   2.592   2.723 -0.0011  0.2957  0.2495
 5422SOL    HW127899   0.954   2.532   2.780  0.2796 -0.6370 -0.9805
 5422SOL    HW227900   0.833   2.609   2.783 -0.4014  0.0437 -0.1722
 5423SOL     OW27901   0.126   2.013   7.737  0.1746  0.8048  0.0245
 5423SOL    HW127902   0.143   1.984   7.826  1.4602  2.4153  0.3152
 5423SOL    HW227903   0.070   1.944   7.702  2.3315 -1.3811  0.8990
 5424SOL     OW27904   0.884   0.120   4.252 -0.0481 -0.0824 -0.2993
 5424SOL    HW127905   0.856   0.033   4.224 -0.4667  0.2261 -0.8365
 5424SOL    HW227906   0.806   0.149   4.299 -0.2828 -0.6438 -0.3358
 5425SOL     OW27907   0.083   4.469   5.766 -0.2836 -0.5041  0.1196
 5425SOL    HW127908   0.110   4.479   5.674  2.7155  2.6617  1.3370
 5425SOL    HW227909   0.035   4.551   5.774  1.3203  0.2531  1.8210
 5426SOL     OW27910   0.207   0.769  13.811  1.0373 -0.6557 -0.2784
 5426SOL    HW127911   0.146   0.841  13.797 -0.4102 -1.9077 -0.4253
 5426SOL    HW227912   0.235   0.796  13.899 -0.7380 -1.1877  0.4387
 5427SOL     OW27913   1.091   1.185   6.151 -0.8794 -0.1382 -0.2449
 5427SOL    HW127914   1.090   1.154   6.242  1.3608 -1.5927 -0.7063
 5427SOL    HW227915   1.177   1.226   6.158 -0.5442 -1.3779  3.2525
 5428SOL     OW27916   4.312   4.335   1.404 -0.3804 -0.5075  0.0395
 5428SOL    HW127917   4.300   4.317   1.311  0.9958  0.4720 -0.3458
 5428SOL    HW227918   4.222   4.343   1.434 -0.8348  2.5491 -2.1013
 5429SOL     OW27919   1.215   4.725   4.900  0.4617  0.0817  0.3496
 5429SOL    HW127920   1.202   0.070   4.857  0.8154 -0.5171 -0.9500
 5429SOL    HW227921   1.286   0.007   4.961  1.8084  0.3148 -1.3012
 5430SOL     OW27922   4.416   1.924  16.768  0.4760  0.5414 -0.3977
 5430SOL    HW127923   4.380   2.013  16.774  0.1363  0.3661  0.1225
 5430SOL    HW227924   4.501   1.935  16.725 -0.0930  1.8224 -1.2178
 5431SOL     OW27925   0.270   1.623  10.901  0.2142 -0.2017 -0.4295
 5431SOL    HW127926   0.204   1.562  10.934 -1.0624  1.7848  0.7105
 5431SOL    HW227927   0.272   1.596  10.809  0.3722 -1.2545 -0.1186
 5432SOL     OW27928   1.124   3.890   1.686  0.1231  0.0460  0.2607
 5432SOL    HW127929   1.141   3.910   1.594  1.1866  0.1420  0.4778
 5432SOL    HW227930   1.120   3.979   1.721  1.7599 -0.4964  1.8178
 5433SOL     OW27931   3.361   3.764  16.666  0.2191 -0.0764  0.2669
 5433SOL    HW127932   3.430   3.763  16.599 -0.5767  1.0592 -0.5793
 5433SOL    HW227933   3.339   3.671  16.668  0.5679 -0.1204  1.5417
 5434SOL     OW27934   0.626   3.389   7.740  0.3786  0.9817 -0.6345
 5434SOL    HW127935   0.558   3.452   7.716  0.4591  0.7611 -1.4450
 5434SOL    HW227936   0.635   3.426   7.828  0.6343 -1.7547  0.4762
 5435SOL     OW27937   1.365   4.525   5.651 -0.1857 -0.2746  0.2958
 5435SOL    HW127938   1.313   4.543   5.729  0.1356  2.0647 -0.0036
 5435SOL    HW227939   1.292   4.544   5.592 -0.3985  1.1654  1.0315
 5436SOL     OW27940   3.661   3.598   2.833 -0.0007 -0.3296 -0.1570
 5436SOL    HW127941   3.658   3.674   2.891 -3.1257 -1.7984  1.6086
 5436SOL    HW227942   3.721   3.616   2.760  1.3235  0.7414  1.1953
 5437SOL     OW27943   0.169   3.664   2.436 -0.1181  0.1673  0.2627
 5437SOL    HW127944   0.169   3.692   2.527 -2.2590 -1.6764  0.8187
 5437SOL    HW227945   0.212   3.736   2.389 -0.7552  0.1560 -0.3399
 5438SOL     OW27946   1.786   0.019   9.149 -0.5208 -0.2312 -0.5338
 5438SOL    HW127947   1.787   0.067   9.066 -0.4512 -0.9067 -0.9266
 5438SOL    HW227948   1.869   4.712   9.136 -0.1221  1.0146 -2.4401
 5439SOL     OW27949   4.349   0.980  17.350  0.0881  0.1820 -0.2844
 5439SOL    HW127950   4.267   1.017  17.381 -0.2770 -1.1513  0.3684
 5439SOL    HW227951   4.323   0.949  17.264  1.0299  0.2828 -0.6106
 5440SOL     OW27952   2.324   0.227  17.611 -0.1535 -0.7723  0.0425
 5440SOL    HW127953   2.268   0.213  17.687  0.9462 -3.4185  0.3367
 5440SOL    HW227954   2.344   0.134  17.604 -4.5052 -1.7320 -0.1961
 5441SOL     OW27955   2.458   0.359   7.345 -0.1743  0.5640 -0.0589
 5441SOL    HW127956   2.535   0.361   7.403 -1.0135  0.5218  1.0700
 5441SOL    HW227957   2.413   0.432   7.388  0.0224  1.3701 -1.2351
 5442SOL     OW27958   2.894   3.270  12.359 -0.0851 -0.4050 -0.4202
 5442SOL    HW127959   2.803   3.240  12.364 -0.3652  0.7864  1.6092
 5442SOL    HW227960   2.938   3.189  12.385 -1.8054 -1.7877 -1.7619
 5443SOL     OW27961   1.908   3.334   0.236 -0.2287 -0.0744  0.5236
 5443SOL    HW127962   1.851   3.266   0.272 -0.0325  1.0467  2.9291
 5443SOL    HW227963   1.931   3.298   0.150  1.7307 -0.2898  1.1225
 5444SOL     OW27964   1.505   3.560   5.445  0.1800 -0.1197  0.3447
 5444SOL    HW127965   1.594   3.525   5.451  0.5263  0.9234  1.3370
 5444SOL    HW227966   1.470   3.495   5.384 -0.1790  0.3956  0.0119
 5445SOL     OW27967   2.457   0.111   5.718  0.6486  0.1035  0.2154
 5445SOL    HW127968   2.430   0.100   5.627  1.7477  1.5552 -0.2651
 5445SOL    HW227969   2.505   0.029   5.733 -1.4720 -1.0661  0.6966
 5446SOL     OW27970   4.449   3.192   9.693 -0.9428  0.6899  0.0613
 5446SOL    HW127971   4.395   3.212   9.616 -0.3267  1.6023 -0.1339
 5446SOL    HW227972   4.423   3.254   9.760 -1.9870 -1.2975  1.5025
 5447SOL     OW27973   1.689   1.901   1.622 -0.1399  0.9500  0.5257
 5447SOL    HW127974   1.753   1.867   1.559 -0.6250 -0.1203  0.6114
 5447SOL    HW227975   1.689   1.994   1.603 -0.1371  0.9286  0.4213
 5448SOL     OW27976   0.948   4.548   5.294 -0.7081  1.1719  0.0154
 5448SOL    HW127977   0.854   4.532   5.286 -1.2679  3.9433  0.8322
 5448SOL    HW227978   0.974   4.585   5.209  0.3962  0.0860 -0.1206
 5449SOL     OW27979   1.944   1.447   2.673 -0.4383 -0.1249 -0.1536
 5449SOL    HW127980   1.986   1.447   2.759  0.7968  0.4750 -0.7508
 5449SOL    HW227981   1.955   1.528   2.622 -2.4265  0.6388  0.6399
 5450SOL     OW27982   2.856   3.705   9.666  0.3877  0.0421  0.1220
 5450SOL    HW127983   2.858   3.665   9.753 -1.0191 -1.1024 -0.3691
 5450SOL    HW227984   2.842   3.623   9.618 -2.5269 -0.4201  1.7621
 5451SOL     OW27985   1.860   1.418   4.905 -0.1173 -0.2863  0.0712
 5451SOL    HW127986   1.925   1.444   4.841 -1.1988 -0.0953 -0.9530
 5451SOL    HW227987   1.773   1.432   4.868  0.2909 -2.7184 -1.8290
 5452SOL     OW27988   0.198   0.408   8.013  0.2332  0.1965 -0.3772
 5452SOL    HW127989   0.251   0.451   7.946 -0.3781  0.6077 -0.6001
 5452SOL    HW227990   0.136   0.361   7.957 -0.4743  3.1209 -2.0692
 5453SOL     OW27991   0.133   4.198   6.337 -0.2776  0.5212 -0.5877
 5453SOL    HW127992   0.051   4.215   6.384 -0.0246  0.0372  0.0215
 5453SOL    HW227993   0.155   4.109   6.363 -0.6982  0.5504 -0.1143
 5454SOL     OW27994   4.400   0.258   3.087  0.0878 -0.2714  0.0601
 5454SOL    HW127995   4.434   0.179   3.130  0.1923  0.4290  1.2702
 5454SOL    HW227996   4.383   0.326   3.152  2.3614  1.0649 -0.7485
 5455SOL     OW27997   0.643   1.641   2.528 -0.3701  0.0538 -0.4117
 5455SOL    HW127998   0.692   1.559   2.536  1.0248  1.2533  3.0607
 5455SOL    HW227999   0.660   1.659   2.435  0.9440 -2.3616 -0.6322
 5456SOL     OW28000   0.454   4.250  15.017 -0.2286  0.1438 -0.2991
 5456SOL    HW128001   0.389   4.313  15.047 -1.8883 -1.7978  0.1677
 5456SOL    HW228002   0.457   4.180  15.081 -0.7330 -1.5071 -2.0906
 5457SOL     OW28003   4.684   1.448   5.269  0.4400 -0.2415  0.6577
 5457SOL    HW128004   4.720   1.382   5.210  2.3370  1.6070 -0.2597
 5457SOL    HW228005   4.702   1.399   5.349 -1.4474 -1.2840  0.4207
 5458SOL     OW28006   3.207   4.388   7.852 -0.6835  0.1472  0.7265
 5458SOL    HW128007   3.222   4.423   7.764 -3.0493 -1.3542 -0.2782
 5458SOL    HW228008   3.191   4.297   7.827 -0.8638  0.4644 -0.3418
 5459SOL     OW28009   0.587   2.432   8.096  0.3692  0.2049  0.3173
 5459SOL    HW128010   0.600   2.482   8.016  1.4090  0.7098  0.8024
 5459SOL    HW228011   0.527   2.363   8.067  0.1771  0.9235 -1.0169
 5460SOL     OW28012   3.941   1.025  14.777  0.3102 -0.3811  0.2809
 5460SOL    HW128013   3.888   0.948  14.761 -0.4911 -0.3636  2.9146
 5460SOL    HW228014   3.923   1.037  14.870 -1.1517  2.0233 -0.2955
 5461SOL     OW28015   0.804   1.839   4.394 -0.4505  0.1140  0.4051
 5461SOL    HW128016   0.801   1.854   4.299  1.3360 -0.5116  0.2580
 5461SOL    HW228017   0.739   1.900   4.429 -0.9393  0.1018 -0.4629
 5462SOL     OW28018   1.415   3.986   2.307  0.5320 -0.2251 -0.0101
 5462SOL    HW128019   1.449   3.900   2.332 -0.2230 -0.4603  0.2041
 5462SOL    HW228020   1.340   3.964   2.252 -0.6523  0.8896  1.1389
 5463SOL     OW28021   0.505   1.217   7.885 -0.1464 -0.2211 -0.0649
 5463SOL    HW128022   0.566   1.245   7.817 -0.8831  2.5160  0.3908
 5463SOL    HW228023   0.479   1.134   7.844 -3.6431  0.4892  0.7067
 5464SOL     OW28024   3.974   4.617   2.406  0.1703  0.6687  0.1002
 5464SOL    HW128025   4.050   4.670   2.380  0.1845  0.1235 -0.9757
 5464SOL    HW228026   4.003   4.587   2.492  0.4324  0.6677  0.0131
 5465SOL     OW28027   1.800   1.482   8.138 -0.0201  0.2454 -0.3080
 5465SOL    HW128028   1.726   1.429   8.166  0.2516  0.5790  1.0402
 5465SOL    HW228029   1.868   1.414   8.139  0.8693  1.1351 -0.2747
 5466SOL     OW28030   2.079   3.853   2.080 -0.2939 -0.1876 -0.2062
 5466SOL    HW128031   2.054   3.930   2.131 -0.6545  0.6094 -1.5827
 5466SOL    HW228032   2.121   3.796   2.144 -2.0799 -1.7910 -0.4909
 5467SOL     OW28033   4.015   0.745   5.290 -0.4051  0.1420 -0.1195
 5467SOL    HW128034   4.040   0.662   5.331  3.3690  2.4606  2.2841
 5467SOL    HW228035   4.048   0.811   5.351  0.2162 -0.2465 -0.0317
 5468SOL     OW28036   0.421   4.078  15.279 -0.4274 -0.1893 -0.6181
 5468SOL    HW128037   0.471   4.126  15.345  0.1928 -1.2047 -0.3555
 5468SOL    HW228038   0.349   4.141  15.278  0.4182  0.7728 -0.8615
 5469SOL     OW28039   0.495   2.605  15.175 -0.0888 -0.0017 -0.0983
 5469SOL    HW128040   0.473   2.513  15.163  1.2298 -0.2947 -0.2288
 5469SOL    HW228041   0.495   2.592  15.269 -0.3470 -0.9929 -0.2375
 5470SOL     OW28042   2.342   0.392  16.102 -0.4843 -0.1561  0.0114
 5470SOL    HW128043   2.357   0.404  16.008 -2.6223 -0.9773 -0.4310
 5470SOL    HW228044   2.250   0.416  16.109  0.3291  2.9023  0.1525
 5471SOL     OW28045   1.975   0.147  11.464  0.2600 -0.0642  0.0290
 5471SOL    HW128046   2.045   0.081  11.462 -0.6709 -1.0528  0.5028
 5471SOL    HW228047   1.928   0.126  11.383 -0.3902 -2.0295  0.9195
 5472SOL     OW28048   4.468   4.260  15.227 -0.5299 -0.0102 -0.0243
 5472SOL    HW128049   4.462   4.176  15.183  0.2636  0.1531 -0.4490
 5472SOL    HW228050   4.399   4.300  15.174 -1.2165 -2.5590 -1.0586
 5473SOL     OW28051   1.984   4.148   8.561 -0.4381  0.2664  0.2443
 5473SOL    HW128052   1.972   4.117   8.651 -2.3924  0.1073 -0.0628
 5473SOL    HW228053   1.957   4.240   8.565 -1.6341 -0.0967  0.4922
 5474SOL     OW28054   4.227   2.739   4.854  0.5000 -0.4921 -1.1430
 5474SOL    HW128055   4.275   2.821   4.865 -2.3694  1.2377 -1.4002
 5474SOL    HW228056   4.171   2.746   4.932  2.2270 -1.7301  0.2093
 5475SOL     OW28057   2.360   0.797   0.337  0.6798  0.1535 -0.9240
 5475SOL    HW128058   2.351   0.872   0.279 -2.5350  1.1881  0.8779
 5475SOL    HW228059   2.449   0.812   0.370 -0.2579  2.1880  0.6317
 5476SOL     OW28060   2.115   2.371  13.355  0.5828  0.8638  0.0573
 5476SOL    HW128061   2.173   2.338  13.287  1.9435  1.8631  0.7502
 5476SOL    HW228062   2.032   2.384  13.307  0.6935 -2.2950 -0.9933
 5477SOL     OW28063   0.279   1.836   1.543 -0.7053 -0.6411 -0.3047
 5477SOL    HW128064   0.268   1.751   1.586 -2.2031 -0.8248 -1.0209
 5477SOL    HW228065   0.210   1.886   1.586  0.3587  0.9955 -0.4959
 5478SOL     OW28066   2.738   4.533   0.802 -0.6256 -0.3405  0.4790
 5478SOL    HW128067   2.794   4.538   0.879 -0.7353 -1.7060  0.6475
 5478SOL    HW228068   2.652   4.532   0.843 -0.9230  0.4274 -0.1376
 5479SOL     OW28069   0.095   1.040  15.149 -0.4148  0.6730  0.1679
 5479SOL    HW128070   0.104   0.953  15.187  4.9217  1.5340  0.9430
 5479SOL    HW228071   0.020   1.027  15.091 -1.1915  0.1075  1.3069
 5480SOL     OW28072   4.645   3.813   3.933  0.2595 -0.3778  0.0448
 5480SOL    HW128073   4.703   3.737   3.930  0.3650 -0.2162 -2.1557
 5480SOL    HW228074   4.558   3.775   3.949  0.7894 -1.9227 -0.7480
 5481SOL     OW28075   0.909   4.605   2.119 -0.3036  0.1414 -0.7724
 5481SOL    HW128076   0.867   4.558   2.191  0.2572  1.6073  0.5153
 5481SOL    HW228077   0.968   4.534   2.094  0.1963  0.2645  0.0416
 5482SOL     OW28078   2.135   3.710   3.135 -0.6103  0.0479  0.1631
 5482SOL    HW128079   2.174   3.796   3.146 -0.1512  0.2493 -2.8766
 5482SOL    HW228080   2.067   3.726   3.069  1.2788  1.5589 -1.4134
 5483SOL     OW28081   4.552   4.336   5.815 -0.1867  0.1522 -0.3978
 5483SOL    HW128082   4.480   4.377   5.767  0.7948 -0.3030 -2.2510
 5483SOL    HW228083   4.605   4.318   5.737  1.7537 -2.5018  1.5678
 5484SOL     OW28084   1.879   3.414  11.576 -0.9024  0.2064  0.0543
 5484SOL    HW128085   1.954   3.424  11.636 -0.5863  0.9736 -0.4739
 5484SOL    HW228086   1.854   3.506  11.586 -0.2295  0.4387 -0.4156
 5485SOL     OW28087   1.019   1.516   7.740 -0.2603  0.3566  0.3648
 5485SOL    HW128088   0.986   1.485   7.824  1.7444  0.8214  1.3117
 5485SOL    HW228089   1.019   1.435   7.689  0.9579  0.1010  0.7802
 5486SOL     OW28090   3.492   2.292   7.661 -0.7775 -0.3263  0.0237
 5486SOL    HW128091   3.439   2.339   7.725 -1.1025 -0.5033 -0.1141
 5486SOL    HW228092   3.543   2.240   7.722  0.1603  1.1537  0.5035
 5487SOL     OW28093   0.891   3.943  11.306 -0.2456  0.4876  0.1576
 5487SOL    HW128094   0.907   4.008  11.238  0.9961 -0.0441 -0.0693
 5487SOL    HW228095   0.853   4.000  11.372 -1.8597  0.9793 -1.1865
 5488SOL     OW28096   4.403   3.715   4.322  0.1159 -0.3282 -0.1224
 5488SOL    HW128097   4.355   3.747   4.398  0.5703 -0.2962  0.1488
 5488SOL    HW228098   4.329   3.715   4.261  0.4478 -0.8564 -0.5272
 5489SOL     OW28099   2.686   4.579   4.212  0.2275  0.2638 -1.0227
 5489SOL    HW128100   2.640   4.662   4.225 -1.0901 -0.5719 -0.3169
 5489SOL    HW228101   2.660   4.568   4.120  0.3179 -0.8486 -0.9187
 5490SOL     OW28102   0.361   2.993   6.597 -0.3431 -0.0633  0.0652
 5490SOL    HW128103   0.409   2.913   6.616 -1.8309 -0.2653  2.8733
 5490SOL    HW228104   0.273   2.958   6.584  0.7523 -1.2242 -4.2865
 5491SOL     OW28105   4.438   2.201   2.171  0.0025 -0.1956  0.5751
 5491SOL    HW128106   4.405   2.227   2.085 -0.8934 -0.9437  0.6914
 5491SOL    HW228107   4.533   2.206   2.162 -0.4830  2.3860 -3.1291
 5492SOL     OW28108   1.700   3.801  10.019 -0.7474  0.0524 -0.2788
 5492SOL    HW128109   1.779   3.853  10.005 -1.8690  2.0519  0.7253
 5492SOL    HW228110   1.723   3.713   9.992 -0.2388  0.4743 -1.2100
 5493SOL     OW28111   1.979   0.454   3.441 -0.0870 -0.1860  0.1331
 5493SOL    HW128112   1.916   0.431   3.372  2.4273  0.7770 -2.4762
 5493SOL    HW228113   1.936   0.432   3.523  0.2815 -1.4970 -0.0165
 5494SOL     OW28114   4.560   0.616   4.836 -0.4378  0.4140 -0.6567
 5494SOL    HW128115   4.621   0.656   4.899 -0.1254  0.4476 -0.9855
 5494SOL    HW228116   4.575   0.664   4.755 -0.8662 -0.9100 -1.5178
 5495SOL     OW28117   0.448   0.430  16.307 -0.0907 -0.4107 -0.2245
 5495SOL    HW128118   0.445   0.494  16.236 -1.0292  1.1006  1.1866
 5495SOL    HW228119   0.387   0.457  16.375 -0.1395 -1.5231  0.1768
 5496SOL     OW28120   4.720   4.714   4.312  0.4177 -0.1937 -0.1398
 5496SOL    HW128121   0.045   4.713   4.382  0.1773  1.5540  0.1144
 5496SOL    HW228122   4.647   4.678   4.362 -0.3672  0.7626 -0.5912
 5497SOL     OW28123   0.558   1.097   7.069 -0.2052 -0.0539 -0.2536
 5497SOL    HW128124   0.479   1.113   7.121  0.1054 -0.6274  0.3838
 5497SOL    HW228125   0.540   1.013   7.026  1.3880 -1.1873  1.3266
 5498SOL     OW28126   0.669   3.547   8.684 -0.1371  0.5039 -0.1972
 5498SOL    HW128127   0.613   3.512   8.754 -1.2095  0.7619 -0.9158
 5498SOL    HW228128   0.657   3.473   8.625 -0.9144  0.9279 -0.5849
 5499SOL     OW28129   1.970   3.117  13.858 -0.2326 -0.4262 -0.5409
 5499SOL    HW128130   1.982   3.095  13.950  1.0942  0.5154 -0.4985
 5499SOL    HW228131   1.876   3.108  13.844 -0.4643  0.9672  0.2230
 5500SOL     OW28132   3.863   3.795  14.749 -0.0268  0.1903 -0.1928
 5500SOL    HW128133   3.815   3.842  14.680 -2.4544  0.4738  1.7101
 5500SOL    HW228134   3.878   3.706  14.715  2.1735  0.2192  0.7108
 5501SOL     OW28135   1.755   2.651  15.609  0.2000 -0.4530  0.3321
 5501SOL    HW128136   1.775   2.576  15.665 -1.3198 -2.4296 -1.7595
 5501SOL    HW228137   1.800   2.624  15.529  0.7185 -0.8409  0.7627
 5502SOL     OW28138   3.807   3.953   3.151  0.1324  0.0432 -0.3454
 5502SOL    HW128139   3.832   3.949   3.059 -2.4219 -2.6476 -0.9322
 5502SOL    HW228140   3.806   3.859   3.169  2.5855 -0.4422 -2.7965
 5503SOL     OW28141   2.622   0.454  11.407 -0.4170  0.0338 -0.3203
 5503SOL    HW128142   2.568   0.504  11.469 -1.3529 -0.7629 -0.4803
 5503SOL    HW228143   2.579   0.470  11.323 -2.2588 -1.2446  0.3617
 5504SOL     OW28144   4.550   3.919   2.564  0.1554 -0.0768  0.0744
 5504SOL    HW128145   4.621   3.969   2.605  0.2753  0.0993 -0.3491
 5504SOL    HW228146   4.570   3.944   2.474  0.3426  1.3989  0.5248
 5505SOL     OW28147   2.544   1.423   7.557  0.3063  0.2316 -0.4285
 5505SOL    HW128148   2.477   1.354   7.553  0.5775 -0.0372 -0.3927
 5505SOL    HW228149   2.493   1.489   7.603  0.2577 -1.9365  2.6546
 5506SOL     OW28150   3.227   0.393   5.825  0.2546  0.3389 -0.6224
 5506SOL    HW128151   3.309   0.343   5.830  0.7282  1.3890  2.1642
 5506SOL    HW228152   3.160   0.326   5.811  1.2681 -0.4973 -1.4567
 5507SOL     OW28153   2.075   4.231  14.794 -0.5295  0.4479 -0.4703
 5507SOL    HW128154   2.017   4.165  14.755  0.3296  0.5304 -1.8677
 5507SOL    HW228155   2.039   4.314  14.762  0.5632  1.1855  0.2564
 5508SOL     OW28156   2.807   2.328   3.394 -0.2319  0.4527 -0.3983
 5508SOL    HW128157   2.732   2.374   3.431  0.0622  0.8654 -0.3135
 5508SOL    HW228158   2.859   2.408   3.387  1.3607 -0.6632 -1.6281
 5509SOL     OW28159   3.885   4.560   1.727 -0.1384  0.0313 -0.0114
 5509SOL    HW128160   3.918   4.610   1.801 -2.9644 -1.0055  1.9872
 5509SOL    HW228161   3.836   4.490   1.771 -1.2474  1.2631  0.7153
 5510SOL     OW28162   2.721   3.712  11.378 -0.1649 -0.5340 -0.2004
 5510SOL    HW128163   2.652   3.648  11.397 -1.3990  0.7134 -0.4341
 5510SOL    HW228164   2.765   3.717  11.462  1.4443  0.3536 -1.1037
 5511SOL     OW28165   1.041   0.615   9.228  0.1346  0.0219 -0.2707
 5511SOL    HW128166   1.054   0.525   9.259  2.3773  0.2671 -0.5237
 5511SOL    HW228167   1.002   0.596   9.142  0.1449  1.6719 -0.6290
 5512SOL     OW28168   4.704   0.030  11.824  0.1435 -0.3631  0.1292
 5512SOL    HW128169   0.025   4.697  11.819  1.8482  1.0699 -0.1331
 5512SOL    HW228170   4.696   0.061  11.734 -0.7078 -1.6615 -0.2497
 5513SOL     OW28171   2.318   1.754   2.649 -0.1930 -0.1382  0.0333
 5513SOL    HW128172   2.374   1.688   2.609 -0.4788  0.1931 -0.9223
 5513SOL    HW228173   2.297   1.713   2.733  0.9621  1.1872  0.9633
 5514SOL     OW28174   3.119   2.900   9.628 -0.0604  0.5119  0.4232
 5514SOL    HW128175   3.077   2.938   9.551  0.7038  0.0618 -0.2047
 5514SOL    HW228176   3.065   2.936   9.699 -2.3957  0.1576 -1.1398
 5515SOL     OW28177   2.962   0.263   6.559 -0.6188 -0.0434 -0.5320
 5515SOL    HW128178   3.017   0.200   6.511  2.7442  1.5780  1.1965
 5515SOL    HW228179   2.882   0.265   6.506 -1.6381 -0.5632  0.9934
 5516SOL     OW28180   0.836   3.760  12.029  0.5141 -0.0286  0.5055
 5516SOL    HW128181   0.831   3.745  11.934  0.0127  0.9565  0.3823
 5516SOL    HW228182   0.919   3.805  12.042  0.5265 -0.2306  1.1195
 5517SOL     OW28183   3.549   3.592   2.001 -0.4587  0.1419  0.1548
 5517SOL    HW128184   3.526   3.609   1.910 -0.7475 -1.3054 -0.0358
 5517SOL    HW228185   3.635   3.634   2.001 -0.6376  0.4943 -1.4936
 5518SOL     OW28186   2.897   2.105   0.637  0.2183  0.0471 -0.6329
 5518SOL    HW128187   2.977   2.156   0.623 -0.0767  0.8705  0.7146
 5518SOL    HW228188   2.897   2.059   0.553 -3.1622  0.6873 -0.9684
 5519SOL     OW28189   2.434   2.618   4.476  0.1306  0.1081  0.4433
 5519SOL    HW128190   2.437   2.710   4.500  0.0163 -0.0264  0.9699
 5519SOL    HW228191   2.355   2.588   4.521 -0.2142 -1.4309 -1.1823
 5520SOL     OW28192   0.216   3.142  13.035  0.0836  0.4767  0.2291
 5520SOL    HW128193   0.219   3.235  13.015  0.0583  0.6900  1.2027
 5520SOL    HW228194   0.221   3.111  12.945 -3.4765 -2.5670  1.0896
 5521SOL     OW28195   0.727   4.284   2.504  0.0255  0.0552 -0.2592
 5521SOL    HW128196   0.710   4.363   2.556 -1.7642 -0.6746  0.2305
 5521SOL    HW228197   0.811   4.252   2.536  0.3390  0.7140 -0.4095
 5522SOL     OW28198   0.940   2.902   0.671  0.3826 -0.0417  0.2264
 5522SOL    HW128199   0.934   2.839   0.743 -1.9024 -0.0260  0.0530
 5522SOL    HW228200   0.975   2.849   0.600  0.2339 -0.0465  0.1560
 5523SOL     OW28201   4.020   0.553  14.610 -0.0787 -0.0564 -0.4350
 5523SOL    HW128202   4.083   0.499  14.563  2.6278  2.2825  0.5341
 5523SOL    HW228203   3.941   0.555  14.556 -1.5588 -0.0420  1.7145
 5524SOL     OW28204   1.561   2.279  10.489 -0.0005 -0.2381  0.3265
 5524SOL    HW128205   1.543   2.215  10.421 -0.5188 -0.1349  0.3648
 5524SOL    HW228206   1.509   2.357  10.470  1.9598  0.7980 -0.7799
 5525SOL     OW28207   1.153   3.008   7.084  0.1130 -0.3133  0.2912
 5525SOL    HW128208   1.138   3.001   7.178  0.6652  0.9299  0.4693
 5525SOL    HW228209   1.110   3.091   7.062  0.6222 -0.1825 -0.2137
 5526SOL     OW28210   3.948   1.205   5.130  0.1760  0.2613 -0.1061
 5526SOL    HW128211   3.860   1.168   5.140  0.5915 -1.3534 -2.3544
 5526SOL    HW228212   3.934   1.299   5.140 -2.8260 -0.2148  0.2251
 5527SOL     OW28213   3.234   2.506   5.147 -0.6183 -0.0128  0.7345
 5527SOL    HW128214   3.257   2.456   5.069 -2.3776  0.9336 -0.3919
 5527SOL    HW228215   3.218   2.431   5.204 -1.7112 -1.0143 -0.8821
 5528SOL     OW28216   3.328   3.961  14.748  0.5177  0.3012 -1.0259
 5528SOL    HW128217   3.316   3.873  14.713 -0.3163 -0.7105  1.7389
 5528SOL    HW228218   3.304   4.016  14.674  0.2090  0.0459 -1.1121
 5529SOL     OW28219   0.810   1.788  16.738  0.0028 -0.1554  0.4976
 5529SOL    HW128220   0.856   1.733  16.675  1.2807 -1.2643  2.3774
 5529SOL    HW228221   0.879   1.806  16.802 -0.4531 -0.4323  1.0729
 5530SOL     OW28222   0.275   2.753  15.088 -0.2633  0.4499 -0.6343
 5530SOL    HW128223   0.347   2.694  15.110  0.5671  1.1908 -1.3483
 5530SOL    HW228224   0.270   2.722  14.997 -0.0642 -2.6394  0.4143
 5531SOL     OW28225   3.452   0.430   3.916  0.6290  0.2390 -0.1834
 5531SOL    HW128226   3.425   0.504   3.971  2.4100 -0.4563  1.6193
 5531SOL    HW228227   3.505   0.466   3.846  3.4136 -1.3296  1.1080
 5532SOL     OW28228   2.862   1.324   3.922  0.6323  0.9157  0.2885
 5532SOL    HW128229   2.807   1.276   3.860  3.9115 -1.8161 -0.5274
 5532SOL    HW228230   2.901   1.258   3.979  0.3781 -1.1607 -1.9409
 5533SOL     OW28231   3.164   0.178   9.225  0.4439  0.0546 -0.0435
 5533SOL    HW128232   3.256   0.151   9.225  0.5224  0.3252 -1.1041
 5533SOL    HW228233   3.178   0.260   9.272  0.6237 -0.3612  0.6286
 5534SOL     OW28234   2.404   0.989  15.548 -0.1847 -0.0137  0.0106
 5534SOL    HW128235   2.384   0.929  15.476 -0.1251 -2.9516  2.4819
 5534SOL    HW228236   2.494   0.961  15.566 -0.8207 -1.7413  0.4530
 5535SOL     OW28237   4.500   2.453  14.598  0.3444  0.0096  1.1842
 5535SOL    HW128238   4.427   2.514  14.601  1.0993  0.9151  1.2135
 5535SOL    HW228239   4.569   2.510  14.564 -0.0308 -0.3694 -0.1861
 5536SOL     OW28240   2.841   4.369   9.175  0.2533  0.2248 -0.3852
 5536SOL    HW128241   2.766   4.355   9.117 -0.8598  1.0547  0.8377
 5536SOL    HW228242   2.828   4.281   9.209  1.8579  0.0693 -0.2009
 5537SOL     OW28243   1.727   1.386   5.816  0.0906 -0.0613  0.1120
 5537SOL    HW128244   1.650   1.352   5.861 -0.3908 -0.2850 -0.8819
 5537SOL    HW228245   1.730   1.341   5.732  2.5950 -1.4629  0.9426
 5538SOL     OW28246   0.459   3.702  13.729  0.1222 -0.1135 -0.0021
 5538SOL    HW128247   0.484   3.761  13.657 -1.6192 -0.2460 -0.7009
 5538SOL    HW228248   0.509   3.741  13.800  0.6656 -0.5454 -0.1489
 5539SOL     OW28249   2.275   0.102   9.361 -0.2394  0.6461  0.1558
 5539SOL    HW128250   2.323   0.096   9.443 -0.8277  3.5322  0.7205
 5539SOL    HW228251   2.239   0.015   9.343  0.0042  0.8261 -1.1979
 5540SOL     OW28252   3.263   2.289   8.381 -0.5641  0.1041  0.0262
 5540SOL    HW128253   3.327   2.357   8.398 -0.7137  0.6891 -1.7162
 5540SOL    HW228254   3.199   2.310   8.449 -1.2652 -0.2299 -0.5231
 5541SOL     OW28255   0.901   2.890   1.821 -0.1918  0.5860 -0.1204
 5541SOL    HW128256   0.973   2.917   1.764 -0.4131 -0.9563 -1.1060
 5541SOL    HW228257   0.828   2.890   1.758  1.0694  0.2066 -1.5805
 5542SOL     OW28258   1.111   2.156  10.493 -0.1732 -0.8391  0.6665
 5542SOL    HW128259   1.114   2.066  10.458 -0.6051 -0.2736 -0.8420
 5542SOL    HW228260   1.156   2.147  10.577 -0.1843  2.8890  1.0788
 5543SOL     OW28261   4.171   1.246   0.111 -0.0107 -0.2851  1.2377
 5543SOL    HW128262   4.153   1.258   0.204  0.7065 -1.9346  1.5728
 5543SOL    HW228263   4.187   1.338   0.089  0.3060 -0.3005  1.4034
 5544SOL     OW28264   2.882   1.461   2.980  0.0793  0.2163  0.1401
 5544SOL    HW128265   2.925   1.442   2.897 -0.3907 -0.2381  0.0025
 5544SOL    HW228266   2.951   1.513   3.022 -2.4214  3.5339  0.1816
 5545SOL     OW28267   1.899   0.034   0.044  0.0707 -0.7626 -0.9016
 5545SOL    HW128268   1.821   0.055   0.094 -0.4118 -1.3173 -1.4332
 5545SOL    HW228269   1.928   4.690   0.078 -0.0361 -0.5765 -0.3548
 5546SOL     OW28270   1.492   3.538   9.168  0.3011  0.5835  0.9102
 5546SOL    HW128271   1.412   3.573   9.207 -0.4272  1.2354 -1.1781
 5546SOL    HW228272   1.510   3.607   9.105 -1.6480 -0.3035 -0.5907
 5547SOL     OW28273   2.656   2.117   7.447 -0.6938  0.3351  0.3691
 5547SOL    HW128274   2.732   2.113   7.506  1.4030 -0.3663 -2.3547
 5547SOL    HW228275   2.590   2.140   7.513 -1.6614  0.8832 -0.8026
 5548SOL     OW28276   1.412   0.520  15.513 -0.4988 -0.3804 -0.2201
 5548SOL    HW128277   1.389   0.548  15.424  0.4334  0.2532 -0.2627
 5548SOL    HW228278   1.363   0.582  15.567  1.5235  2.4033 -1.5944
 5549SOL     OW28279   2.287   1.984  10.415  0.3689  0.5063 -0.7656
 5549SOL    HW128280   2.208   2.016  10.458 -0.1350  1.4916 -2.4246
 5549SOL    HW228281   2.344   2.061  10.413 -1.6831  1.9841 -2.0601
 5550SOL     OW28282   3.964   3.203   7.649 -0.6783  0.4692  0.2527
 5550SOL    HW128283   4.014   3.265   7.701 -1.6326  2.0392 -0.6961
 5550SOL    HW228284   3.988   3.217   7.557 -0.2750  1.9465  0.5946
 5551SOL     OW28285   3.277   2.617   2.208 -0.1981 -0.4073  0.3110
 5551SOL    HW128286   3.270   2.546   2.271 -2.6859 -0.5607 -0.1034
 5551SOL    HW228287   3.327   2.575   2.138 -0.6726 -0.5254  0.0361
 5552SOL     OW28288   3.691   0.512   8.053 -0.6855 -0.5927 -0.0764
 5552SOL    HW128289   3.683   0.449   8.124 -1.9653 -1.2542 -0.7987
 5552SOL    HW228290   3.774   0.560   8.057 -0.1602 -1.4475 -0.8306
 5553SOL     OW28291   4.546   4.547   1.955  0.3185  0.1170 -0.1592
 5553SOL    HW128292   4.622   4.589   1.995 -0.8323  3.5931 -1.6154
 5553SOL    HW228293   4.575   4.472   1.904  2.6484  0.7666  0.2475
 5554SOL     OW28294   3.758   1.289   9.110  0.4218  0.0682  0.1827
 5554SOL    HW128295   3.674   1.260   9.074  1.0465 -1.6080  0.0740
 5554SOL    HW228296   3.814   1.211   9.112 -2.3177 -1.9558 -1.7608
 5555SOL     OW28297   1.505   1.290   9.468  0.0519  0.2660 -0.2234
 5555SOL    HW128298   1.582   1.251   9.426 -1.3582 -0.4163 -2.1884
 5555SOL    HW228299   1.435   1.230   9.441  1.7886 -1.7899 -0.1408
 5556SOL     OW28300   3.092   0.748  16.609  0.2504  0.0876 -0.6260
 5556SOL    HW128301   3.088   0.668  16.556 -0.1537 -0.2663 -0.0610
 5556SOL    HW228302   3.013   0.793  16.580  0.2322  1.1369  1.0386
 5557SOL     OW28303   1.245   3.833   2.995 -0.1613  0.7457 -0.0841
 5557SOL    HW128304   1.261   3.755   3.047  0.6406  1.6622  1.0347
 5557SOL    HW228305   1.306   3.825   2.921 -1.1908 -0.0650 -0.8588
 5558SOL     OW28306   3.139   0.334   2.928 -0.2744  0.6350 -0.4951
 5558SOL    HW128307   3.154   0.298   2.841 -1.0681  0.7620 -0.6839
 5558SOL    HW228308   3.050   0.302   2.943  0.1791 -0.8508 -0.9255
 5559SOL     OW28309   1.774   2.298   7.351 -0.0361  0.3229 -0.2830
 5559SOL    HW128310   1.717   2.361   7.396 -1.4899 -1.1286 -0.0908
 5559SOL    HW228311   1.707   2.240   7.315 -0.8857  0.6637  0.7335
 5560SOL     OW28312   3.382   0.594   7.310  0.2160  0.2570 -0.3080
 5560SOL    HW128313   3.417   0.509   7.336 -0.9625  0.2504  1.3082
 5560SOL    HW228314   3.294   0.569   7.282  1.4350 -4.6238  0.3105
 5561SOL     OW28315   0.307   4.504   7.376 -0.8732 -0.2715 -0.1052
 5561SOL    HW128316   0.316   4.593   7.341 -1.4244  0.1801  0.9074
 5561SOL    HW228317   0.264   4.515   7.461 -3.2669 -5.0761 -0.6641
 5562SOL     OW28318   3.541   1.871   8.194  0.1430 -0.5495  0.0117
 5562SOL    HW128319   3.604   1.941   8.210 -0.9610  0.5807 -0.5685
 5562SOL    HW228320   3.460   1.900   8.235  0.3775 -2.2005  1.6865
 5563SOL     OW28321   2.923   2.450  10.389  0.3472  0.0362  0.5304
 5563SOL    HW128322   2.939   2.403  10.307  1.1770 -1.0563  1.3209
 5563SOL    HW228323   2.843   2.404  10.415  0.1792 -0.4558 -0.8508
 5564SOL     OW28324   0.527   1.290   2.262  0.1973  0.2090 -0.3660
 5564SOL    HW128325   0.452   1.344   2.234 -0.4959  0.2573  1.5891
 5564SOL    HW228326   0.579   1.274   2.183  2.8560 -0.0628  1.4479
 5565SOL     OW28327   1.711   0.432   7.110  0.4449 -0.0038 -0.0176
 5565SOL    HW128328   1.732   0.438   7.017  0.0358  2.9981  0.0649
 5565SOL    HW228329   1.626   0.474   7.099  1.7951  2.9249  0.7203
 5566SOL     OW28330   3.859   3.139   8.967  0.4688 -0.8225 -0.4014
 5566SOL    HW128331   3.906   3.175   9.043 -0.0767 -0.9724  0.0031
 5566SOL    HW228332   3.850   3.221   8.917  0.9182 -0.7402 -0.3478
 5567SOL     OW28333   4.244   0.100   2.145 -0.3761  0.0169  0.2408
 5567SOL    HW128334   4.178   0.166   2.126  0.0750  0.3909 -0.0355
 5567SOL    HW228335   4.319   0.156   2.123  0.7624 -1.5364  0.1617
 5568SOL     OW28336   2.333   0.080  17.182  0.1287  0.5850  0.2178
 5568SOL    HW128337   2.255   0.063  17.130 -1.3463  1.9273  2.0019
 5568SOL    HW228338   2.362   0.153  17.127 -0.0891 -0.7394 -1.6310
 5569SOL     OW28339   3.240   4.309   5.405 -0.0266 -0.3375  0.2044
 5569SOL    HW128340   3.240   4.271   5.492 -0.7532  1.3424  0.9309
 5569SOL    HW228341   3.299   4.246   5.363  0.5387  0.2511  0.1098
 5570SOL     OW28342   2.980   2.870  11.986  0.3656 -0.1497  0.1031
 5570SOL    HW128343   3.045   2.869  11.915  0.7419  0.3406  0.4400
 5570SOL    HW228344   2.977   2.961  12.015 -0.2996  0.2064 -1.0629
 5571SOL     OW28345   2.597   2.952   0.531  0.1914  0.7369 -0.0461
 5571SOL    HW128346   2.527   3.018   0.530 -0.1525  0.3704 -0.9760
 5571SOL    HW228347   2.629   2.969   0.442  0.2261 -0.7849 -0.3222
 5572SOL     OW28348   3.377   3.015   7.656 -0.7236  0.0190 -0.1328
 5572SOL    HW128349   3.348   3.092   7.606 -0.4510 -1.1679 -2.1225
 5572SOL    HW228350   3.303   3.016   7.717 -1.5217 -1.9376 -1.0699
 5573SOL     OW28351   4.406   0.310   0.063  0.0700 -0.1106 -0.0030
 5573SOL    HW128352   4.496   0.342   0.061 -0.1349  0.4429 -0.5325
 5573SOL    HW228353   4.407   0.249   0.137 -0.0649 -1.4085 -1.0735
 5574SOL     OW28354   3.289   1.628  10.299 -0.0035  0.1084  0.0357
 5574SOL    HW128355   3.211   1.613  10.354  0.8101  0.3908  1.2653
 5574SOL    HW228356   3.247   1.643  10.214 -0.4174  0.6137  0.3209
 5575SOL     OW28357   3.798   0.651  11.850 -0.4046 -0.1008 -0.5262
 5575SOL    HW128358   3.807   0.676  11.758  0.7187 -2.0914 -0.9565
 5575SOL    HW228359   3.793   0.556  11.842  0.1990 -0.3076  1.6575
 5576SOL     OW28360   0.702   0.852   8.465  0.2339  0.2266  0.4426
 5576SOL    HW128361   0.781   0.801   8.446 -0.3592 -1.3834  2.2909
 5576SOL    HW228362   0.711   0.871   8.558  0.0948 -0.1226  0.5288
 5577SOL     OW28363   0.963   0.342   8.729 -0.5781 -0.3817 -0.5916
 5577SOL    HW128364   0.890   0.402   8.748 -0.3438 -0.6633  1.2321
 5577SOL    HW228365   0.909   0.278   8.683 -1.0523 -0.1794 -0.3258
 5578SOL     OW28366   2.795   3.598   4.160  0.2203  0.2377  0.2778
 5578SOL    HW128367   2.811   3.686   4.193  0.2521 -1.1001  3.8384
 5578SOL    HW228368   2.833   3.606   4.072 -2.8266  0.0462 -1.0519
 5579SOL     OW28369   4.377   3.761   2.312 -0.0365 -0.0119 -0.0277
 5579SOL    HW128370   4.322   3.690   2.279 -0.7223 -0.1204  1.3411
 5579SOL    HW228371   4.463   3.721   2.297 -0.8616 -1.6795 -0.2424
 5580SOL     OW28372   1.234   2.621   5.284  0.4051 -0.1450  0.4549
 5580SOL    HW128373   1.256   2.638   5.192  0.3528 -0.0431  0.4615
 5580SOL    HW228374   1.286   2.541   5.289  0.6182 -0.0698 -0.4936
 5581SOL     OW28375   4.325   4.098   0.565  0.2416 -0.4813  0.0480
 5581SOL    HW128376   4.291   4.044   0.494 -0.8748 -0.1925  0.3645
 5581SOL    HW228377   4.289   4.046   0.637 -1.8336 -0.0358 -0.6672
 5582SOL     OW28378   2.869   3.710   9.966  0.1729  0.1924  0.4506
 5582SOL    HW128379   2.777   3.735   9.952  0.2460  0.4034  0.3570
 5582SOL    HW228380   2.865   3.667  10.051 -1.0530 -0.3956  0.1026
 5583SOL     OW28381   1.318   2.130   9.464  0.5514  0.0288 -0.0652
 5583SOL    HW128382   1.371   2.145   9.543  0.0197  3.3478 -0.3629
 5583SOL    HW228383   1.268   2.057   9.500 -2.3853  2.3155  0.4332
 5584SOL     OW28384   1.375   2.368   5.212 -0.1393  0.4027  0.1323
 5584SOL    HW128385   1.285   2.335   5.219 -0.4562  0.9142 -1.4236
 5584SOL    HW228386   1.387   2.351   5.119 -0.3449  0.7386  0.0436
 5585SOL     OW28387   2.400   3.172  15.874  0.0574 -0.1499 -0.3795
 5585SOL    HW128388   2.465   3.120  15.922 -0.5270 -0.2505  0.2989
 5585SOL    HW228389   2.360   3.201  15.956  0.9382 -1.7641  0.6197
 5586SOL     OW28390   2.989   4.736   5.211  0.6244  0.0960 -0.0070
 5586SOL    HW128391   2.995   4.691   5.126 -1.8123  1.4127 -0.8494
 5586SOL    HW228392   3.038   4.671   5.262 -0.7057 -0.0144  1.1058
 5587SOL     OW28393   0.619   1.934   8.497 -0.1541  0.5413  0.0743
 5587SOL    HW128394   0.547   1.921   8.435  1.1154 -0.3231 -1.2301
 5587SOL    HW228395   0.638   2.027   8.503  1.4616  0.3190 -1.5229
 5588SOL     OW28396   2.041   3.507   2.742 -0.1578  0.0022  0.9209
 5588SOL    HW128397   2.105   3.445   2.777  0.2257 -1.4579 -2.3783
 5588SOL    HW228398   2.071   3.522   2.653 -0.2345 -1.7026  0.5981
 5589SOL     OW28399   4.257   0.497   0.294  0.2999 -0.5571 -0.1311
 5589SOL    HW128400   4.348   0.470   0.305  0.5817  1.0564  1.5094
 5589SOL    HW228401   4.263   0.591   0.313 -2.8204 -0.1602 -1.0865
 5590SOL     OW28402   1.090   3.566   7.137 -0.2716 -0.2945 -0.2323
 5590SOL    HW128403   1.055   3.597   7.221 -1.2080  0.2922 -0.8405
 5590SOL    HW228404   1.055   3.630   7.076 -0.0589 -0.8865 -0.9805
 5591SOL     OW28405   0.906   4.421  10.741  0.4842  0.2798 -0.1795
 5591SOL    HW128406   0.992   4.385  10.721 -0.8329 -2.8172 -0.1516
 5591SOL    HW228407   0.885   4.384  10.826 -1.4757  0.9783 -0.3676
 5592SOL     OW28408   1.059   2.272   2.203 -0.1910 -0.8337 -0.4564
 5592SOL    HW128409   1.127   2.204   2.197  1.2932  0.3258  2.9470
 5592SOL    HW228410   0.990   2.221   2.244 -1.1675  1.4091  0.6739
 5593SOL     OW28411   1.842   2.420   5.138  0.4975 -0.5891 -0.2493
 5593SOL    HW128412   1.875   2.375   5.060 -0.8758 -1.4803 -0.3263
 5593SOL    HW228413   1.835   2.511   5.111 -0.1020 -0.6271 -0.2330
 5594SOL     OW28414   3.074   4.494  12.700 -0.7118  0.3701  0.2147
 5594SOL    HW128415   3.083   4.586  12.724  0.3629  0.5342 -0.7957
 5594SOL    HW228416   3.084   4.451  12.785  0.0383 -0.2167 -0.1655
 5595SOL     OW28417   3.523   3.991   6.350  0.6274 -0.4018 -0.0558
 5595SOL    HW128418   3.521   4.041   6.269  0.3069  0.0522  0.2339
 5595SOL    HW228419   3.540   3.903   6.316  1.6176  0.1361 -0.9403
 5596SOL     OW28420   2.765   2.079   5.375  0.1716  0.1970 -0.1863
 5596SOL    HW128421   2.827   2.033   5.431 -0.7006 -1.1425 -0.3335
 5596SOL    HW228422   2.802   2.044   5.294 -0.5393 -1.0061  0.0158
 5597SOL     OW28423   0.585   2.368  11.267  0.0839  0.8161 -0.1178
 5597SOL    HW128424   0.605   2.330  11.353  1.3037  0.1257 -0.7137
 5597SOL    HW228425   0.511   2.424  11.290 -2.2673 -1.9211 -1.0893
 5598SOL     OW28426   1.011   3.231  15.176  0.2398 -0.0429 -0.1533
 5598SOL    HW128427   1.071   3.180  15.231  0.5445  0.3716 -0.1041
 5598SOL    HW228428   0.935   3.218  15.232 -0.3770 -2.2494 -1.5019
 5599SOL     OW28429   0.819   1.047   6.382  0.0764  0.2121 -0.3299
 5599SOL    HW128430   0.893   1.078   6.434  0.9887  2.0168 -2.7014
 5599SOL    HW228431   0.823   0.953   6.395 -0.4773  0.3579  0.9073
 5600SOL     OW28432   4.705   0.489  12.464  0.0858 -0.1110 -0.6586
 5600SOL    HW128433   4.648   0.554  12.424  1.1550  0.4106 -1.3258
 5600SOL    HW228434   0.032   0.541  12.509 -0.2202  1.6758 -2.3142
 5601SOL     OW28435   2.076   0.773   8.445  0.5209 -0.1163 -0.4356
 5601SOL    HW128436   2.142   0.841   8.436  0.3320  0.1337  0.0585
 5601SOL    HW228437   2.018   0.797   8.373  2.3927  2.4499 -1.0662
 5602SOL     OW28438   1.868   1.272   7.309  0.2995  0.1084  0.4686
 5602SOL    HW128439   1.885   1.186   7.347  1.1732  0.2430  0.3895
 5602SOL    HW228440   1.918   1.326   7.371 -0.2328 -1.7255  2.4662
 5603SOL     OW28441   0.600   2.649   6.426  0.9034  0.4570 -0.0368
 5603SOL    HW128442   0.531   2.585   6.442 -0.0626  1.3839 -0.4578
 5603SOL    HW228443   0.601   2.704   6.505  1.1731 -1.4960  1.3344
 5604SOL     OW28444   2.016   4.104   3.352 -0.0658  0.4582  0.5042
 5604SOL    HW128445   2.108   4.102   3.378 -0.6535 -0.7089  2.4949
 5604SOL    HW228446   1.989   4.195   3.355  1.7820  0.9802  1.2005
 5605SOL     OW28447   0.277   2.653   2.863  0.1532  0.0948  0.4838
 5605SOL    HW128448   0.334   2.653   2.940 -1.8064 -2.1538  1.9543
 5605SOL    HW228449   0.338   2.660   2.791  1.2112 -2.2734  1.1476
 5606SOL     OW28450   0.742   2.863  16.959 -0.6326  0.1109 -0.1179
 5606SOL    HW128451   0.710   2.948  16.928  0.3250 -0.0786 -1.6603
 5606SOL    HW228452   0.712   2.854  17.049 -0.8458  1.6327 -0.0357
 5607SOL     OW28453   1.536   0.708  11.842  0.1111 -0.7589  0.3279
 5607SOL    HW128454   1.466   0.702  11.777 -0.1229 -0.4600  0.5502
 5607SOL    HW228455   1.615   0.715  11.789  0.1209  0.6676  0.5095
 5608SOL     OW28456   3.738   0.052   1.601 -0.2553  0.0685 -0.1444
 5608SOL    HW128457   3.695   0.048   1.687 -0.4348 -2.1364 -0.3418
 5608SOL    HW228458   3.787   4.710   1.605 -3.1774 -1.7030 -0.3817
 5609SOL     OW28459   3.101   0.556   8.919 -0.0337  0.2808  0.9841
 5609SOL    HW128460   3.068   0.577   9.006 -1.2850  1.0199  0.3316
 5609SOL    HW228461   3.121   0.465   8.939 -0.9095 -0.7150 -2.6001
 5610SOL     OW28462   0.855   1.178  15.989  0.4625  0.4882 -0.2442
 5610SOL    HW128463   0.809   1.212  15.912 -1.0669  0.4713  0.6675
 5610SOL    HW228464   0.890   1.102  15.942 -3.2987 -0.1065 -2.0666
 5611SOL     OW28465   3.504   2.739   1.479 -0.6037  0.4251 -0.1635
 5611SOL    HW128466   3.581   2.784   1.513 -0.9332  0.9462 -0.1117
 5611SOL    HW228467   3.479   2.681   1.551  1.5626 -0.4548 -0.0910
 5612SOL     OW28468   4.707   0.129   0.374  0.3578 -0.1039 -0.3057
 5612SOL    HW128469   4.732   0.038   0.357 -2.6816 -0.9689 -0.1338
 5612SOL    HW228470   0.025   0.133   0.450 -0.2739 -1.9593  0.2479
 5613SOL     OW28471   0.936   3.779   8.664  0.3413  0.3019  0.0690
 5613SOL    HW128472   0.866   3.724   8.629  1.6044 -1.0269 -0.3491
 5613SOL    HW228473   0.942   3.758   8.758  1.4371  0.5132  0.0477
 5614SOL     OW28474   1.676   4.678   9.533 -0.0200  0.0115 -0.4321
 5614SOL    HW128475   1.668   4.640   9.620 -0.9137  0.2371 -0.4227
 5614SOL    HW228476   1.658   0.031   9.547  0.3301  0.0560 -0.2759
 5615SOL     OW28477   4.041   4.719  17.295  0.5158 -0.2377 -0.0201
 5615SOL    HW128478   4.116   4.706  17.237  0.1821 -3.4034  0.2823
 5615SOL    HW228479   4.083   0.054  17.338 -0.5077 -0.0468  0.6277
 5616SOL     OW28480   0.066   1.881   6.999  0.3158 -0.1093 -0.5449
 5616SOL    HW128481   0.047   1.788   6.984  0.5706  0.1018 -2.1780
 5616SOL    HW228482   0.115   1.876   7.081  1.4934 -0.5842 -1.2749
 5617SOL     OW28483   1.283   3.827   7.072 -0.2197  0.3249 -0.4412
 5617SOL    HW128484   1.366   3.856   7.035  1.2721 -0.1609  2.5540
 5617SOL    HW228485   1.246   3.776   6.999 -1.0326 -0.8097  0.7496
 5618SOL     OW28486   3.701   0.933   5.663 -0.1525 -0.7366  0.1335
 5618SOL    HW128487   3.661   1.019   5.675 -1.3823 -1.0540 -1.7410
 5618SOL    HW228488   3.743   0.958   5.580 -0.5887 -0.1344  0.0885
 5619SOL     OW28489   0.027   3.140   7.886  0.1305  0.1026  0.1024
 5619SOL    HW128490   0.087   3.194   7.938  2.3666 -4.5730  2.3215
 5619SOL    HW228491   0.001   3.204   7.820  0.6623  0.2368  0.0200
 5620SOL     OW28492   0.588   0.222   6.445 -0.2082 -0.3254 -0.2121
 5620SOL    HW128493   0.664   0.183   6.488  1.4406  0.6464 -2.2839
 5620SOL    HW228494   0.579   0.301   6.498  0.3608 -0.7095  0.4480
 5621SOL     OW28495   1.909   2.812   6.411  0.0997  0.2592  0.0974
 5621SOL    HW128496   1.898   2.896   6.455 -1.9121  1.2707 -2.3464
 5621SOL    HW228497   1.966   2.774   6.478  0.9712  1.6940  0.1823
 5622SOL     OW28498   0.950   4.303   5.562 -0.8076  0.5338  0.3187
 5622SOL    HW128499   0.881   4.240   5.542 -1.1436  0.8877  0.3558
 5622SOL    HW228500   0.999   4.299   5.479  0.9790 -0.9092  1.4299
 5623SOL     OW28501   4.632   4.526   8.324 -0.2676 -0.4441  0.2270
 5623SOL    HW128502   4.658   4.541   8.233  0.7765 -0.0689  0.5869
 5623SOL    HW228503   4.637   4.615   8.360  0.4590 -0.6951  0.7415
 5624SOL     OW28504   4.286   1.399   5.771 -0.0054 -0.0041  0.2800
 5624SOL    HW128505   4.321   1.359   5.851 -4.1216 -3.7483  0.2705
 5624SOL    HW228506   4.364   1.419   5.721  0.8305  0.3205  1.7113
 5625SOL     OW28507   4.323   0.528   2.899 -0.0983  0.5262 -0.4173
 5625SOL    HW128508   4.384   0.589   2.939 -0.1624  1.1354 -1.2220
 5625SOL    HW228509   4.247   0.523   2.958 -0.0964  1.0202 -0.3692
 5626SOL     OW28510   1.340   1.886   8.959 -0.0496 -0.2279  0.0079
 5626SOL    HW128511   1.412   1.826   8.981 -0.1548  0.6766  2.8875
 5626SOL    HW228512   1.264   1.828   8.968 -1.3505  0.9014 -3.7050
 5627SOL     OW28513   1.207   3.489   8.044 -0.3236  0.3883 -0.1752
 5627SOL    HW128514   1.195   3.395   8.030  0.1691  0.1840  0.7867
 5627SOL    HW228515   1.132   3.521   7.994 -2.1659 -0.3811  2.0877
 5628SOL     OW28516   2.931   1.570   4.004  0.1296  0.1504 -0.9014
 5628SOL    HW128517   2.929   1.484   3.961 -1.0837 -0.0745 -0.4184
 5628SOL    HW228518   2.974   1.614   3.930  1.2097 -0.2675 -0.5111
 5629SOL     OW28519   1.775   4.256   5.285  0.9167  0.1953 -0.1286
 5629SOL    HW128520   1.780   4.264   5.381 -0.9728  1.3948 -0.1251
 5629SOL    HW228521   1.865   4.255   5.255  1.0508 -0.4131  0.2879
 5630SOL     OW28522   1.864   2.662   6.915 -0.2174 -0.1050  0.5784
 5630SOL    HW128523   1.894   2.593   6.857  0.3624 -1.0020  1.9617
 5630SOL    HW228524   1.944   2.682   6.964 -0.0441 -0.4736  0.4452
 5631SOL     OW28525   2.336   0.501  14.262 -0.2284 -0.4904  0.6932
 5631SOL    HW128526   2.357   0.510  14.355  0.0167  2.6912  0.3222
 5631SOL    HW228527   2.411   0.530  14.211 -1.8272  0.5580 -1.0508
 5632SOL     OW28528   3.491   1.337  13.968  0.0235 -0.7322  0.1612
 5632SOL    HW128529   3.437   1.303  14.040 -1.8342  3.5288  0.7297
 5632SOL    HW228530   3.560   1.271  13.976 -1.2324 -1.9910  0.6762
 5633SOL     OW28531   0.480   2.613  13.786  0.4740  0.4265 -0.2745
 5633SOL    HW128532   0.507   2.571  13.705 -1.6675 -0.0744 -0.7173
 5633SOL    HW228533   0.515   2.702  13.777  1.3484  0.3219  2.0173
 5634SOL     OW28534   4.513   2.631  15.698  0.6268 -0.1629 -0.3465
 5634SOL    HW128535   4.558   2.654  15.779  0.0585  0.3788 -0.1813
 5634SOL    HW228536   4.473   2.715  15.675  0.5703 -0.4817 -1.4156
 5635SOL     OW28537   2.201   3.611  15.432 -0.1184 -0.5747 -0.2768
 5635SOL    HW128538   2.200   3.682  15.368 -2.0119 -0.3290  0.0444
 5635SOL    HW228539   2.282   3.565  15.410 -0.9520 -1.7610 -0.8435
 5636SOL     OW28540   4.168   4.127  12.181  0.1520 -0.0904 -0.0909
 5636SOL    HW128541   4.186   4.108  12.089  0.7269  1.0543 -0.2167
 5636SOL    HW228542   4.204   4.215  12.192 -1.7304  0.6074  0.4522
 5637SOL     OW28543   3.667   0.851  12.634 -0.4859 -0.2504 -0.1269
 5637SOL    HW128544   3.698   0.833  12.546 -1.2158 -3.0318  0.1820
 5637SOL    HW228545   3.725   0.802  12.693  0.6889 -0.4750 -1.4678
 5638SOL     OW28546   1.026   0.140   7.921  0.1814  0.5427  0.1953
 5638SOL    HW128547   1.117   0.110   7.913  0.8777  2.5353  0.5922
 5638SOL    HW228548   1.033   0.226   7.878  0.7809  0.2208 -0.3527
 5639SOL     OW28549   0.383   3.652   2.678 -0.0545 -0.1743  0.9358
 5639SOL    HW128550   0.333   3.607   2.610 -0.3999 -0.3420  1.3016
 5639SOL    HW228551   0.469   3.611   2.667 -1.2641 -2.7601  1.0249
 5640SOL     OW28552   0.432   0.604   5.067 -0.0042  0.3886  0.4198
 5640SOL    HW128553   0.406   0.682   5.019 -2.3325 -0.0388  0.9857
 5640SOL    HW228554   0.522   0.627   5.090  0.7181 -2.6432  0.6764
 5641SOL     OW28555   2.452   0.425   8.166 -0.4702  0.1993 -0.0597
 5641SOL    HW128556   2.545   0.432   8.187 -1.1039  1.0307  2.4441
 5641SOL    HW228557   2.424   0.511   8.197 -1.4674 -0.0173 -0.3496
 5642SOL     OW28558   3.163   2.580   7.627 -0.0324  0.0602 -0.7966
 5642SOL    HW128559   3.081   2.590   7.578 -1.7043 -2.9886  1.3354
 5642SOL    HW228560   3.205   2.658   7.592  0.7156 -0.9173 -2.0362
 5643SOL     OW28561   3.265   4.726   6.782 -0.1447  0.7540 -0.4798
 5643SOL    HW128562   3.344   0.000   6.731 -1.8260  2.8242 -2.4938
 5643SOL    HW228563   3.234   4.648   6.737 -1.4190  0.0745  1.5639
 5644SOL     OW28564   0.122   4.457   5.464 -0.3832  0.0095 -0.1224
 5644SOL    HW128565   0.135   4.464   5.369 -1.4018 -1.3954 -0.3687
 5644SOL    HW228566   0.071   4.537   5.477  0.8358  0.7712 -0.0885
 5645SOL     OW28567   1.528   2.100   6.974  0.1655 -0.4781 -0.1422
 5645SOL    HW128568   1.510   2.029   6.912 -2.6855 -0.5017  0.7244
 5645SOL    HW228569   1.527   2.171   6.910  0.8202 -0.2837  0.0725
 5646SOL     OW28570   3.559   3.291   1.863 -0.0006 -0.2741  0.2730
 5646SOL    HW128571   3.636   3.242   1.891 -0.1061  1.4623  3.5228
 5646SOL    HW228572   3.596   3.379   1.863  0.0558 -0.2946  1.3022
 5647SOL     OW28573   2.425   1.641   6.759 -0.5626 -0.2250 -1.1353
 5647SOL    HW128574   2.388   1.557   6.785  2.1564 -1.7566 -2.3101
 5647SOL    HW228575   2.355   1.705   6.774  0.3487  0.3743  0.6038
 5648SOL     OW28576   2.065   1.238   7.660 -0.3169 -0.0028  0.1802
 5648SOL    HW128577   2.101   1.271   7.742 -0.1403  0.1186  0.0536
 5648SOL    HW228578   2.011   1.165   7.692 -2.0603  0.4177 -1.7593
 5649SOL     OW28579   2.898   2.961   2.056 -0.6146 -0.5992 -0.0252
 5649SOL    HW128580   2.895   2.886   2.115  1.9693 -0.6109  0.0834
 5649SOL    HW228581   2.885   2.921   1.970  0.4931  1.4190 -1.1275
 5650SOL     OW28582   0.757   2.409   5.026  0.4615  0.6068  0.0383
 5650SOL    HW128583   0.696   2.417   5.100  1.3942  0.1983  0.8408
 5650SOL    HW228584   0.734   2.325   4.987  0.3457  0.1088  1.1752
 5651SOL     OW28585   4.446   3.315   5.385 -0.0593 -0.8501 -0.0700
 5651SOL    HW128586   4.525   3.274   5.348 -0.6614 -3.1620  1.1626
 5651SOL    HW228587   4.459   3.407   5.364 -0.4960 -1.1317 -1.5331
 5652SOL     OW28588   4.097   0.062   6.197  0.2770 -0.0686 -0.3571
 5652SOL    HW128589   4.064   0.108   6.274 -0.1554 -1.3867  0.2548
 5652SOL    HW228590   4.191   0.063   6.215  0.0348  1.7369  0.7706
 5653SOL     OW28591   3.660   0.158  15.716  0.1175  0.5828 -0.1452
 5653SOL    HW128592   3.694   0.195  15.798  1.0487 -1.8585  0.5592
 5653SOL    HW228593   3.744   0.147  15.672 -0.8374 -1.2609 -1.4912
 5654SOL     OW28594   2.035   4.475   5.645  0.0219  0.4147  0.0014
 5654SOL    HW128595   2.073   4.554   5.683  2.2893 -0.0871 -1.2427
 5654SOL    HW228596   2.091   4.465   5.568  0.0688 -0.1976  0.1093
 5655SOL     OW28597   0.490   1.950   4.706 -0.3200  0.4584  0.0080
 5655SOL    HW128598   0.423   1.890   4.737  0.4767 -0.4888 -0.0997
 5655SOL    HW228599   0.572   1.903   4.723 -0.3250 -0.3603 -2.2763
 5656SOL     OW28600   2.747   2.187  15.705  0.2296 -0.1723 -0.1545
 5656SOL    HW128601   2.760   2.281  15.697  1.9792 -0.1608  2.9675
 5656SOL    HW228602   2.689   2.178  15.781 -0.6359  3.8741 -0.3593
 5657SOL     OW28603   1.604   2.691   3.482 -0.0298 -0.0860 -0.1810
 5657SOL    HW128604   1.692   2.712   3.514  0.5989 -1.3272 -1.1144
 5657SOL    HW228605   1.586   2.626   3.550  1.4125  0.8586  1.1102
 5658SOL     OW28606   0.054   2.315   5.620  0.4486 -0.1614  0.4738
 5658SOL    HW128607   0.050   2.245   5.685  1.8693 -0.9288 -0.2730
 5658SOL    HW228608   0.008   2.379   5.675  2.1646  1.1392  0.4010
 5659SOL     OW28609   2.999   3.847   0.542  0.1705  0.2285  0.0057
 5659SOL    HW128610   3.000   3.939   0.568  1.4350  0.4862 -0.9819
 5659SOL    HW228611   3.046   3.848   0.459 -3.1145 -0.6215 -1.8820
 5660SOL     OW28612   4.065   1.406   8.810  0.4200 -0.0127  0.2488
 5660SOL    HW128613   4.130   1.454   8.860  0.2012 -1.8887  2.3094
 5660SOL    HW228614   4.092   1.427   8.720  0.4395 -0.8124  0.0726
 5661SOL     OW28615   0.928   3.509  12.995 -0.0274 -0.1067 -0.5537
 5661SOL    HW128616   0.892   3.420  12.990  0.5486 -0.2743 -1.6374
 5661SOL    HW228617   0.856   3.565  12.967  2.5961  3.3552 -0.3099
 5662SOL     OW28618   3.463   2.537   4.880  0.6369 -0.7814  0.1470
 5662SOL    HW128619   3.508   2.564   4.961  2.8315  0.9207 -1.6369
 5662SOL    HW228620   3.529   2.485   4.833  0.3204 -0.7547 -0.3261
 5663SOL     OW28621   0.624   3.722   6.222  0.2341  0.2151 -0.4830
 5663SOL    HW128622   0.696   3.734   6.285 -0.0721 -2.4228  0.3615
 5663SOL    HW228623   0.559   3.715   6.292  0.3575  0.1035 -0.3782
 5664SOL     OW28624   0.964   2.423   2.931 -0.5353  0.1813  0.2813
 5664SOL    HW128625   0.945   2.362   3.003  0.4587  0.0438  0.4276
 5664SOL    HW228626   1.023   2.477   2.983  0.8755 -0.1759 -0.9425
 5665SOL     OW28627   3.471   4.273   8.546 -0.9263 -0.2035  0.6305
 5665SOL    HW128628   3.426   4.189   8.537 -0.7764 -0.4036  1.7826
 5665SOL    HW228629   3.477   4.303   8.456  4.5393  0.9194  1.4107
 5666SOL     OW28630   3.262   4.645  17.343  1.0599 -0.7838 -0.7787
 5666SOL    HW128631   3.357   4.658  17.331  0.9068 -0.9481 -2.2219
 5666SOL    HW228632   3.239   4.577  17.280 -0.3219  0.0132 -1.1394
 5667SOL     OW28633   1.076   0.530   6.119  0.6671  0.9970  0.2720
 5667SOL    HW128634   1.088   0.597   6.051 -0.5994 -0.5611 -1.4715
 5667SOL    HW228635   0.982   0.516   6.113  1.4597 -3.1378 -2.5194
 5668SOL     OW28636   3.952   3.802   5.994  0.1277 -0.2501  0.3037
 5668SOL    HW128637   4.005   3.794   6.074 -0.2469  1.8999  0.7817
 5668SOL    HW228638   3.981   3.885   5.956  1.3826 -0.5791  0.5478
 5669SOL     OW28639   3.550   4.442   1.166  0.9945  0.1875  0.3200
 5669SOL    HW128640   3.553   4.460   1.072 -1.9709 -0.2164  0.1447
 5669SOL    HW228641   3.561   4.347   1.165  1.0975  0.1741  2.9660
 5670SOL     OW28642   3.587   1.446   5.141  0.3154  0.4142 -0.6909
 5670SOL    HW128643   3.535   1.444   5.060  0.2050 -1.5902 -0.5863
 5670SOL    HW228644   3.594   1.358   5.179 -2.0543  1.2436  1.7332
 5671SOL     OW28645   4.512   1.771   4.583 -0.0233  0.3014 -0.1441
 5671SOL    HW128646   4.456   1.848   4.592 -0.9718 -0.4282  0.1032
 5671SOL    HW228647   4.593   1.813   4.613 -0.7307  1.3599  0.2998
 5672SOL     OW28648   1.261   2.328   5.914  0.2997 -0.1023 -0.1128
 5672SOL    HW128649   1.319   2.253   5.906 -0.5344 -0.8595  0.9623
 5672SOL    HW228650   1.323   2.400   5.906 -0.7823  1.0270  1.4506
 5673SOL     OW28651   1.303   2.430   6.497  0.5555 -0.2386  0.3971
 5673SOL    HW128652   1.363   2.405   6.426  0.4275 -0.7273  0.4627
 5673SOL    HW228653   1.228   2.431   6.437  0.5787 -0.9164  0.3525
 5674SOL     OW28654   4.049   3.892  10.986  0.8940  0.3076  0.8091
 5674SOL    HW128655   3.958   3.922  10.988  0.4219 -1.1090  0.2100
 5674SOL    HW228656   4.076   3.883  10.895 -0.4591 -0.2419  0.4748
 5675SOL     OW28657   4.181   3.713   6.881  0.3860 -0.1698 -0.1459
 5675SOL    HW128658   4.225   3.629   6.871  0.1863 -0.3718  0.6820
 5675SOL    HW228659   4.094   3.684   6.909 -0.0347  1.3808  0.1810
 5676SOL     OW28660   0.822   0.462   7.912  0.3940 -0.3835  0.5183
 5676SOL    HW128661   0.851   0.436   8.000 -2.2296  0.2601  1.5627
 5676SOL    HW228662   0.910   0.465   7.876  0.1694 -0.4937 -0.0389
 5677SOL     OW28663   1.791   0.826   7.739  0.1394 -0.6501 -0.1851
 5677SOL    HW128664   1.840   0.745   7.723  0.2055 -0.5986 -0.2462
 5677SOL    HW228665   1.862   0.890   7.734  0.4299 -0.9269  0.3590
 5678SOL     OW28666   0.898   1.619   3.444  0.3151 -0.0760 -0.2561
 5678SOL    HW128667   0.963   1.655   3.384  1.4048 -2.4308 -0.4823
 5678SOL    HW228668   0.839   1.694   3.450  0.1158 -0.0949 -2.0344
 5679SOL     OW28669   3.421   1.428   1.590 -0.3129 -0.7095 -0.3393
 5679SOL    HW128670   3.514   1.404   1.593 -0.2597 -0.5063 -0.3770
 5679SOL    HW228671   3.377   1.377   1.522  0.1034 -1.2665 -0.1900
 5680SOL     OW28672   3.895   2.752   8.616  0.2815  0.0579  0.0712
 5680SOL    HW128673   3.988   2.764   8.598 -0.0172  0.8024 -1.0197
 5680SOL    HW228674   3.875   2.842   8.639  0.7828  0.0324  0.5845
 5681SOL     OW28675   2.611   2.714   1.933 -0.1962  0.6679  0.4761
 5681SOL    HW128676   2.619   2.808   1.916 -1.9427  0.7141 -0.0416
 5681SOL    HW228677   2.582   2.673   1.852  2.1666  0.6504 -0.3775
 5682SOL     OW28678   0.514   4.022   8.027  0.4045 -0.3416  0.0929
 5682SOL    HW128679   0.436   4.077   8.036  0.0394 -0.9552  0.6335
 5682SOL    HW228680   0.556   4.038   8.111 -1.4287  0.4753  0.8515
 5683SOL     OW28681   3.644   0.703   4.194  0.1358 -0.4248  0.3794
 5683SOL    HW128682   3.623   0.610   4.205  0.9558 -0.4725  1.4823
 5683SOL    HW228683   3.613   0.713   4.104  3.1457  4.7101 -0.0725
 5684SOL     OW28684   4.236   1.678  12.685  0.0101 -0.4238  0.6848
 5684SOL    HW128685   4.266   1.741  12.620  1.8100  0.4613  2.3847
 5684SOL    HW228686   4.159   1.634  12.647  1.4370 -0.9093 -1.6286
 5685SOL     OW28687   4.530   2.224  14.739 -0.0753  0.1785 -0.0183
 5685SOL    HW128688   4.591   2.181  14.680  0.0158 -0.2234  0.3726
 5685SOL    HW228689   4.513   2.309  14.699  1.2542  0.4223 -0.0389
 5686SOL     OW28690   3.779   2.495   6.228 -0.3406  0.2605 -0.3779
 5686SOL    HW128691   3.728   2.556   6.175 -1.1446  0.2878  0.4261
 5686SOL    HW228692   3.836   2.464   6.158  0.2864 -0.8996  0.6397
 5687SOL     OW28693   2.056   2.229   5.457 -0.7673 -0.1279 -0.1056
 5687SOL    HW128694   2.035   2.224   5.550  0.3459  1.0960  0.2228
 5687SOL    HW228695   2.044   2.139   5.428 -0.4213  0.0571 -0.8290
 5688SOL     OW28696   4.207   2.391   3.171 -0.6594 -0.6161  0.0536
 5688SOL    HW128697   4.174   2.396   3.081  0.8169 -2.9398 -0.6064
 5688SOL    HW228698   4.257   2.472   3.180 -1.1482 -0.1591 -1.4178
 5689SOL     OW28699   0.018   0.233   5.654 -0.1344 -0.6795  0.5335
 5689SOL    HW128700   0.105   0.223   5.615  0.3296 -1.5004  1.7563
 5689SOL    HW228701   0.001   0.143   5.682  1.1259 -0.4597  2.0321
 5690SOL     OW28702   1.140   0.889  10.713 -0.2805 -0.3340  0.3693
 5690SOL    HW128703   1.234   0.904  10.698 -0.5101 -0.0428 -0.7288
 5690SOL    HW228704   1.117   0.853  10.628 -0.0362  1.4087 -0.4127
 5691SOL     OW28705   0.612   3.329   4.802 -0.3665  0.3536  0.5327
 5691SOL    HW128706   0.592   3.354   4.712 -1.0034 -0.8349  0.3309
 5691SOL    HW228707   0.577   3.240   4.790 -0.8575  0.3386  2.0551
 5692SOL     OW28708   1.871   3.755   1.027 -0.0655  0.3881 -0.2123
 5692SOL    HW128709   1.834   3.706   1.100  2.3186 -2.1329 -0.6983
 5692SOL    HW228710   1.794   3.794   0.986 -0.4928 -0.0169  0.1992
 5693SOL     OW28711   2.247   3.227   8.477  0.1629 -0.2748 -0.3060
 5693SOL    HW128712   2.268   3.317   8.451  0.4120 -0.4751 -0.7878
 5693SOL    HW228713   2.152   3.239   8.486  0.0335  0.1628 -2.1093
 5694SOL     OW28714   1.258   0.332   8.092 -1.1618  0.0006 -0.6047
 5694SOL    HW128715   1.206   0.252   8.085 -0.2049 -0.5315 -1.5249
 5694SOL    HW228716   1.309   0.348   8.013  1.5996 -0.1647  1.1362
 5695SOL     OW28717   3.794   4.621   2.196  0.3369  0.3929 -0.5371
 5695SOL    HW128718   3.848   4.639   2.274  0.8596 -2.2252 -0.3033
 5695SOL    HW228719   3.822   4.698   2.146  0.6041  1.9404  1.9743
 5696SOL     OW28720   1.097   2.598  17.480  0.1927 -0.0961  0.3690
 5696SOL    HW128721   1.074   2.675  17.532 -1.6813 -0.1368 -0.4199
 5696SOL    HW228722   1.168   2.564  17.535  0.1840 -1.5080 -0.4836
 5697SOL     OW28723   2.714   4.326   5.157 -0.4376  0.0831 -0.1188
 5697SOL    HW128724   2.627   4.367   5.146 -1.2926 -1.9700 -0.9176
 5697SOL    HW228725   2.696   4.233   5.149  1.1159 -0.1015 -1.3223
 5698SOL     OW28726   3.493   2.045  16.760 -0.4849 -0.6473 -0.5769
 5698SOL    HW128727   3.540   2.105  16.818 -1.4936  0.2657 -0.6912
 5698SOL    HW228728   3.425   2.107  16.734 -1.9454 -2.1181 -0.2625
 5699SOL     OW28729   2.417   1.138  14.795 -0.2891  0.5329 -0.2498
 5699SOL    HW128730   2.406   1.046  14.772 -0.8298  0.0382  2.0658
 5699SOL    HW228731   2.445   1.174  14.710 -1.0453 -0.2532 -0.8349
 5700SOL     OW28732   0.208   2.535   5.515  0.0053 -0.2742  0.2907
 5700SOL    HW128733   0.191   2.459   5.571  0.4290 -0.8555 -0.3597
 5700SOL    HW228734   0.304   2.528   5.511 -0.0354 -0.8987  0.3832
 5701SOL     OW28735   2.965   1.899   5.252 -0.5509 -0.3753  0.1399
 5701SOL    HW128736   3.054   1.927   5.228  0.5767 -2.3770  1.9054
 5701SOL    HW228737   2.933   1.864   5.169 -1.4181  2.3363 -0.6454
 5702SOL     OW28738   3.226   0.869  12.786  0.1798  0.4467 -0.3856
 5702SOL    HW128739   3.202   0.778  12.765 -0.1010  0.7499 -1.3545
 5702SOL    HW228740   3.321   0.874  12.793  0.2893 -1.1762 -0.6483
 5703SOL     OW28741   2.302   0.689  14.482  0.3773 -0.3864 -1.1402
 5703SOL    HW128742   2.396   0.698  14.500 -0.0937  1.8036  0.3267
 5703SOL    HW228743   2.304   0.739  14.401  2.1163 -1.0402 -1.5107
 5704SOL     OW28744   3.474   0.439   2.106  0.2663 -0.4173  0.2876
 5704SOL    HW128745   3.528   0.516   2.094  2.2666 -1.7220  0.8976
 5704SOL    HW228746   3.521   0.391   2.174 -1.1344 -2.1098  0.0645
 5705SOL     OW28747   3.431   3.310   3.308 -0.5926 -0.0465 -0.3115
 5705SOL    HW128748   3.522   3.284   3.290 -1.1872 -0.4447 -2.7904
 5705SOL    HW228749   3.403   3.323   3.217 -0.3040 -0.3939 -0.4503
 5706SOL     OW28750   3.158   4.409  14.538 -0.0468  0.2023 -0.6441
 5706SOL    HW128751   3.184   4.346  14.471  2.5716 -0.7250  1.2344
 5706SOL    HW228752   3.109   4.354  14.599  0.6242 -0.0781 -0.3554
 5707SOL     OW28753   3.331   2.233   9.919 -0.1610 -0.2474 -0.3232
 5707SOL    HW128754   3.363   2.199  10.002  1.6288 -0.0021 -0.9162
 5707SOL    HW228755   3.250   2.277   9.947 -0.5986 -2.5024  1.9672
 5708SOL     OW28756   1.599   2.578  15.879  0.4885 -0.2172  0.8366
 5708SOL    HW128757   1.659   2.644  15.913  2.8911 -1.0215 -1.8098
 5708SOL    HW228758   1.653   2.528  15.818 -0.2518 -0.0971  0.0808
 5709SOL     OW28759   3.231   2.408   4.871  0.6115  0.0438  0.2767
 5709SOL    HW128760   3.307   2.465   4.861 -0.1882  1.2462  1.0881
 5709SOL    HW228761   3.248   2.348   4.798  2.4009  1.6594 -0.6304
 5710SOL     OW28762   3.267   0.734   2.173 -0.2891 -0.3048  0.2783
 5710SOL    HW128763   3.231   0.729   2.261  0.1183  0.6935  0.5058
 5710SOL    HW228764   3.253   0.643   2.147 -2.5064  0.4067 -1.0237
 5711SOL     OW28765   2.128   1.868   9.282  0.2422  0.4879 -0.2324
 5711SOL    HW128766   2.136   1.938   9.347 -1.2134  1.0287 -0.6491
 5711SOL    HW228767   2.152   1.922   9.206  0.3935 -0.2487 -0.7059
 5712SOL     OW28768   4.447   1.635   5.179 -0.0324 -0.0186  0.1959
 5712SOL    HW128769   4.531   1.589   5.173  0.8590  1.8589 -1.5239
 5712SOL    HW228770   4.405   1.604   5.098  0.6613 -1.8368  0.5289
 5713SOL     OW28771   3.434   0.222   4.682 -0.1453 -0.3687 -0.4671
 5713SOL    HW128772   3.406   0.298   4.630 -0.9991 -0.5964 -0.3324
 5713SOL    HW228773   3.445   0.154   4.616  0.6843  0.5542 -1.2977
 5714SOL     OW28774   2.917   3.015   3.909 -0.3121 -0.7878  0.0407
 5714SOL    HW128775   2.974   3.093   3.910 -0.3388 -0.7529 -1.3196
 5714SOL    HW228776   2.839   3.037   3.959 -0.1327  0.0986 -0.0697
 5715SOL     OW28777   3.080   1.127   6.700  0.5441 -0.0711  0.4456
 5715SOL    HW128778   3.145   1.107   6.767 -0.7029  1.4922  2.0941
 5715SOL    HW228779   3.130   1.095   6.625  1.0413 -1.2926  1.2898
 5716SOL     OW28780   2.475   2.052   8.523  0.2285  0.2138  0.7634
 5716SOL    HW128781   2.540   2.071   8.455 -2.3013 -1.8275 -2.2078
 5716SOL    HW228782   2.472   1.957   8.532  1.5099  0.4170  3.3787
 5717SOL     OW28783   2.131   2.668   7.449 -0.2570  0.4951 -0.2748
 5717SOL    HW128784   2.195   2.636   7.512 -0.3218  0.1212 -0.4012
 5717SOL    HW228785   2.082   2.587   7.435  1.4407 -0.4281 -0.9133
 5718SOL     OW28786   4.204   4.019   1.374 -0.4666  0.1255 -0.3553
 5718SOL    HW128787   4.202   3.976   1.459  1.3353  0.6466 -0.0561
 5718SOL    HW228788   4.292   4.000   1.341 -0.0022  1.3281  0.2037
 5719SOL     OW28789   4.193   1.693   6.132 -0.1534  0.3281 -0.3523
 5719SOL    HW128790   4.155   1.734   6.209  0.8645 -0.7011  0.7036
 5719SOL    HW228791   4.200   1.600   6.151  4.4634  0.8749  0.7722
 5720SOL     OW28792   2.832   1.646   6.223  0.4142  0.0795  0.2300
 5720SOL    HW128793   2.852   1.565   6.176  0.9496 -0.0684  0.7212
 5720SOL    HW228794   2.776   1.616   6.294  2.5477  1.0450  2.3226
 5721SOL     OW28795   3.879   4.533  13.241  0.1515  0.2497  0.2511
 5721SOL    HW128796   3.881   4.621  13.280 -2.2123  0.7259 -0.7160
 5721SOL    HW228797   3.921   4.555  13.158 -2.6041  2.1807 -0.6315
 5722SOL     OW28798   0.148   1.627  10.053  0.0386 -0.0684  0.4806
 5722SOL    HW128799   0.157   1.722  10.057  0.0147  0.0669 -2.7830
 5722SOL    HW228800   0.215   1.598  10.115  2.5753  0.6084 -1.9866
 5723SOL     OW28801   1.138   0.638  13.592 -0.0057  0.3665  0.3642
 5723SOL    HW128802   1.117   0.576  13.523  1.7666  0.0934  0.0697
 5723SOL    HW228803   1.218   0.685  13.569  0.8055 -1.5716 -0.7587
 5724SOL     OW28804   1.401   0.387   4.890 -0.5865  0.3726 -0.5767
 5724SOL    HW128805   1.395   0.362   4.982  2.7873  1.0118 -0.1775
 5724SOL    HW228806   1.370   0.477   4.890  0.4155  0.7375 -2.5554
 5725SOL     OW28807   1.112   4.479   7.968  0.0782 -0.4204  0.0059
 5725SOL    HW128808   1.139   4.419   8.036 -0.7708  0.0186  0.7415
 5725SOL    HW228809   1.184   4.541   7.981  0.6443 -0.9003 -0.8969
 5726SOL     OW28810   2.479   2.271   2.199  0.3532 -0.0190 -0.6750
 5726SOL    HW128811   2.522   2.316   2.127 -0.0054 -0.3173 -1.0782
 5726SOL    HW228812   2.424   2.339   2.238 -0.2549 -0.9744  0.1291
 5727SOL     OW28813   3.034   0.243   6.826 -0.2421  0.5235  0.5078
 5727SOL    HW128814   2.939   0.256   6.823 -0.2420  0.7709  1.7206
 5727SOL    HW228815   3.063   0.229   6.736  0.7984  1.5699  0.6856
 5728SOL     OW28816   1.714   0.832  11.411  0.7021  0.2930 -0.1212
 5728SOL    HW128817   1.624   0.810  11.435  0.7194  0.2361 -0.1076
 5728SOL    HW228818   1.708   0.824  11.316  0.0631 -0.3525 -0.0321
 5729SOL     OW28819   0.519   3.116   5.044 -0.0789  0.5148 -0.3154
 5729SOL    HW128820   0.506   3.034   5.092 -2.2120  0.7675 -0.4488
 5729SOL    HW228821   0.614   3.121   5.042  0.1225 -2.1011  2.8993
 5730SOL     OW28822   3.193   1.152  12.720  0.4205 -0.1682 -0.1492
 5730SOL    HW128823   3.195   1.058  12.739 -0.3245 -0.1693 -0.0794
 5730SOL    HW228824   3.278   1.155  12.676  0.8681  1.5156  0.8234
 5731SOL     OW28825   3.319   3.118   5.251  0.2325 -0.3416  0.4456
 5731SOL    HW128826   3.280   3.203   5.230  1.5016  0.1457  0.1045
 5731SOL    HW228827   3.330   3.132   5.346  0.4249 -2.3825  0.7066
 5732SOL     OW28828   2.383   3.580  11.850  0.4053 -0.3466 -0.3484
 5732SOL    HW128829   2.458   3.632  11.879 -1.7354  2.1153  0.7984
 5732SOL    HW228830   2.333   3.646  11.801  1.3656  0.8380  0.2680
 5733SOL     OW28831   0.456   3.304   9.286  0.1518  0.2690 -0.3210
 5733SOL    HW128832   0.492   3.369   9.226 -1.4030  0.7212 -0.7625
 5733SOL    HW228833   0.363   3.319   9.268  0.3405 -0.2925 -1.7669
 5734SOL     OW28834   1.525   2.649  12.299  0.6400 -0.2390  0.3396
 5734SOL    HW128835   1.508   2.740  12.322  0.0336 -0.5953  1.2964
 5734SOL    HW228836   1.505   2.645  12.205 -1.0082 -1.4277  0.7253
 5735SOL     OW28837   4.326   1.214   5.287 -0.7074 -0.3567 -0.5558
 5735SOL    HW128838   4.312   1.303   5.318  2.3953 -0.9585  2.5959
 5735SOL    HW228839   4.271   1.210   5.209 -0.1465 -0.0278 -0.9725
 5736SOL     OW28840   3.319   3.084  10.988  0.3621  0.0209  0.2182
 5736SOL    HW128841   3.400   3.111  11.032  0.3039 -0.2767  0.5124
 5736SOL    HW228842   3.352   3.064  10.901 -0.0174 -2.6599  0.6942
 5737SOL     OW28843   4.168   0.170  16.142 -0.0012  0.4929 -0.1233
 5737SOL    HW128844   4.128   0.083  16.152  1.2823 -0.1047 -0.1964
 5737SOL    HW228845   4.209   0.184  16.227  1.0876 -0.1326 -0.5398
 5738SOL     OW28846   4.301   2.891   3.038  0.3069 -0.0197 -1.7143
 5738SOL    HW128847   4.218   2.913   2.995  0.7145  0.3608 -2.3193
 5738SOL    HW228848   4.337   2.979   3.051 -0.8282  0.0922  0.5406
 5739SOL     OW28849   3.502   2.415   2.647  0.0693 -0.1095 -0.0100
 5739SOL    HW128850   3.410   2.389   2.648 -0.0812  0.4376  0.4657
 5739SOL    HW228851   3.524   2.410   2.740  0.9074 -0.3348 -0.2204
 5740SOL     OW28852   0.112   2.249  14.806 -0.0235  0.2237  1.5711
 5740SOL    HW128853   0.149   2.290  14.728 -1.0214  0.7530  1.3850
 5740SOL    HW228854   0.041   2.310  14.824 -0.7789  0.0877 -0.9334
 5741SOL     OW28855   4.674   2.368   6.505 -0.2020 -0.6165 -0.0072
 5741SOL    HW128856   4.695   2.320   6.425 -1.0584 -4.1276  1.8798
 5741SOL    HW228857   4.609   2.313   6.549  0.6474 -0.5928  1.2481
 5742SOL     OW28858   2.509   3.275   3.816  0.1713 -0.0473  0.2149
 5742SOL    HW128859   2.544   3.349   3.767 -1.4131 -0.0558 -0.9288
 5742SOL    HW228860   2.530   3.291   3.908 -0.9942 -1.8889  0.8081
 5743SOL     OW28861   0.855   2.074  10.210  0.1194  0.5672 -0.3307
 5743SOL    HW128862   0.810   1.991  10.194 -3.4175  2.3665  0.2784
 5743SOL    HW228863   0.946   2.053  10.191 -0.1609  0.1295 -1.1997
 5744SOL     OW28864   1.131   0.993   8.489 -0.0283 -0.1674  0.2908
 5744SOL    HW128865   1.084   0.920   8.530  2.3908 -0.5221  2.4400
 5744SOL    HW228866   1.081   1.072   8.511 -1.9266 -1.1143 -0.5884
 5745SOL     OW28867   2.547   3.924  11.231  0.0499 -0.8207  0.2873
 5745SOL    HW128868   2.608   3.993  11.259  0.5304 -0.5948 -1.3001
 5745SOL    HW228869   2.574   3.847  11.281 -0.5120 -0.7818  0.6455
 5746SOL     OW28870   3.781   3.457   1.844  0.2790 -0.4542 -0.1247
 5746SOL    HW128871   3.804   3.538   1.888 -1.4301  1.4611 -2.7217
 5746SOL    HW228872   3.854   3.396   1.851  0.5482 -0.4155 -2.5768
 5747SOL     OW28873   2.549   0.920  17.751  0.1530  0.2558  0.3901
 5747SOL    HW128874   2.513   0.978  17.683  2.6126  0.1852 -0.9757
 5747SOL    HW228875   2.495   0.951   0.067 -1.1610  0.6228 -0.7230
 5748SOL     OW28876   3.804   0.771   7.105 -0.0770 -0.2065  0.0694
 5748SOL    HW128877   3.726   0.719   7.127 -1.7599  1.5560 -1.7246
 5748SOL    HW228878   3.765   0.858   7.100 -1.9242 -1.0859 -0.6877
 5749SOL     OW28879   1.140   2.796   2.642 -0.2248 -0.0553  0.2438
 5749SOL    HW128880   1.094   2.739   2.580  0.1575  0.6095 -0.6439
 5749SOL    HW228881   1.193   2.728   2.683 -0.9590  0.3379  1.8662
 5750SOL     OW28882   0.024   4.663   2.829  0.2233 -0.3345  0.1182
 5750SOL    HW128883   0.008   4.572   2.804 -1.8403 -0.5211  2.0369
 5750SOL    HW228884   4.684   4.684   2.878  0.0085  1.4947 -1.0469
 5751SOL     OW28885   0.540   2.360  10.007  0.2327 -0.3201  0.0801
 5751SOL    HW128886   0.576   2.439   9.967 -2.7750  0.4791 -1.0192
 5751SOL    HW228887   0.520   2.396  10.093 -2.8735 -1.5913 -0.1118
 5752SOL     OW28888   1.927   0.760   3.923 -1.0888  0.3929  0.4280
 5752SOL    HW128889   1.833   0.762   3.940 -1.4175  0.5312 -1.4914
 5752SOL    HW228890   1.965   0.753   4.011 -1.6104 -1.7001  0.4930
 5753SOL     OW28891   3.180   4.634   0.558  0.1607 -0.2858 -0.1000
 5753SOL    HW128892   3.166   4.717   0.513  1.3745 -0.4826 -0.8499
 5753SOL    HW228893   3.089   4.606   0.561  0.1585 -0.6044 -2.9224
 5754SOL     OW28894   3.131   1.744   0.225 -0.1230 -0.0764  0.0036
 5754SOL    HW128895   3.152   1.792   0.305  0.3694  0.8787 -0.7041
 5754SOL    HW228896   3.040   1.719   0.240 -0.8289  2.7113  0.4094
 5755SOL     OW28897   0.785   3.980   9.376 -0.0231 -0.6941 -0.0449
 5755SOL    HW128898   0.718   4.046   9.393 -0.3352 -0.4423 -2.2597
 5755SOL    HW228899   0.724   3.923   9.328  0.6676 -0.2040 -1.5282
 5756SOL     OW28900   1.991   1.438  15.893 -0.1326  0.1950 -0.2491
 5756SOL    HW128901   2.026   1.507  15.836 -0.8462 -0.0493 -0.9849
 5756SOL    HW228902   2.062   1.374  15.889  0.7863  1.2615 -0.8553
 5757SOL     OW28903   2.609   3.908   7.029 -0.1455 -0.1482  0.0053
 5757SOL    HW128904   2.671   3.845   7.065 -1.6450 -1.6276  0.0199
 5757SOL    HW228905   2.647   3.989   7.063 -0.1300 -0.6223  1.1380
 5758SOL     OW28906   2.561   3.224   7.823  0.1921  0.2413 -0.3071
 5758SOL    HW128907   2.577   3.242   7.730  0.2523  0.7122 -0.2080
 5758SOL    HW228908   2.556   3.317   7.847 -0.2932  0.1002  0.1203
 5759SOL     OW28909   1.818   0.699   6.924 -0.0476 -0.1078  0.1044
 5759SOL    HW128910   1.748   0.708   6.989  1.5523  2.8168  1.4272
 5759SOL    HW228911   1.877   0.771   6.947  1.1913 -1.7649  2.0928
 5760SOL     OW28912   1.517   1.561  12.783  0.2962  0.0813 -0.1838
 5760SOL    HW128913   1.423   1.545  12.782 -0.0201  1.9585 -0.0323
 5760SOL    HW228914   1.539   1.516  12.865 -0.2404 -0.2659 -0.2294
 5761SOL     OW28915   1.561   3.688   5.140  0.4584  0.1664 -0.1392
 5761SOL    HW128916   1.588   3.603   5.176  0.1455 -1.0811 -2.8033
 5761SOL    HW228917   1.465   3.687   5.135  0.5127  1.0661 -1.5698
 5762SOL     OW28918   0.941   1.149   7.366  0.0547 -0.4489  0.4889
 5762SOL    HW128919   0.857   1.110   7.390 -0.2050 -1.0359 -1.4310
 5762SOL    HW228920   0.921   1.217   7.303 -0.2197 -0.9948 -0.0115
 5763SOL     OW28921   4.382   3.969   6.091 -0.5066 -0.2673  0.0196
 5763SOL    HW128922   4.303   3.919   6.114 -0.6227 -0.1389 -0.0961
 5763SOL    HW228923   4.349   4.007   6.009  0.6346  1.8156  0.5155
 5764SOL     OW28924   4.362   2.165  17.009 -0.1169 -0.2766  0.2655
 5764SOL    HW128925   4.380   2.191  17.100 -1.9539  2.8049 -0.2593
 5764SOL    HW228926   4.323   2.079  17.025 -0.7382  0.1451  1.0415
 5765SOL     OW28927   2.409   1.549   6.476 -0.2281  0.0602  0.2913
 5765SOL    HW128928   2.324   1.591   6.489  0.5408  1.6639  0.1038
 5765SOL    HW228929   2.455   1.564   6.558  0.3378  0.0684 -0.0342
 5766SOL     OW28930   3.399   4.605  17.679 -0.0422 -0.2445  0.6081
 5766SOL    HW128931   3.482   4.606  17.728 -0.7383  0.6849  1.7540
 5766SOL    HW228932   3.338   4.655  17.732  1.6305  1.3710  1.0003
 5767SOL     OW28933   3.204   0.211   1.423  0.6332  0.5508  0.4180
 5767SOL    HW128934   3.122   0.254   1.447  0.5783  1.2616 -1.0242
 5767SOL    HW228935   3.270   0.247   1.482 -0.9805  1.6975  1.4952
 5768SOL     OW28936   1.580   3.187   9.351  0.0214 -0.0870  0.0821
 5768SOL    HW128937   1.652   3.242   9.382  1.1317 -1.4422 -0.1226
 5768SOL    HW228938   1.505   3.243   9.373  0.2082  0.0021  0.4896
 5769SOL     OW28939   3.165   2.860   5.273  0.1297 -0.5259  0.3318
 5769SOL    HW128940   3.166   2.910   5.355  0.7906 -2.4768  1.4999
 5769SOL    HW228941   3.175   2.933   5.212  2.4926 -1.3499 -0.2486
 5770SOL     OW28942   3.701   0.140   6.343  0.0526 -0.7150 -0.0481
 5770SOL    HW128943   3.671   0.226   6.313 -0.0662 -1.0318 -0.8136
 5770SOL    HW228944   3.752   0.188   6.408 -2.5020 -1.6509  2.6584
 5771SOL     OW28945   2.710   2.005  16.154 -0.3056 -0.2472  0.1883
 5771SOL    HW128946   2.693   2.032  16.244 -0.6117 -0.0861  0.0861
 5771SOL    HW228947   2.792   1.958  16.166  0.5233  0.9060 -0.9689
 5772SOL     OW28948   4.469   2.943   5.559 -0.0070 -0.1950  0.7257
 5772SOL    HW128949   4.389   2.954   5.507  0.1078  1.3525  0.8739
 5772SOL    HW228950   4.519   2.869   5.526  2.1724  2.0374 -1.0152
 5773SOL     OW28951   0.576   1.568   7.611 -0.0644 -0.0709  0.6383
 5773SOL    HW128952   0.524   1.578   7.690 -1.9215 -0.5113 -0.5345
 5773SOL    HW228953   0.622   1.485   7.624 -1.8050 -1.2150 -0.4956
 5774SOL     OW28954   3.736   2.820   9.572  0.7038 -0.3681  0.1248
 5774SOL    HW128955   3.816   2.867   9.596  0.9135  0.0071 -1.3453
 5774SOL    HW228956   3.775   2.733   9.573 -0.4565 -0.9073 -1.9689
 5775SOL     OW28957   4.721   2.656  11.192  0.0728  0.5612 -0.0572
 5775SOL    HW128958   0.058   2.636  11.245 -0.1835 -1.8655 -0.6010
 5775SOL    HW228959   0.022   2.674  11.107 -0.6858  2.0260 -0.1037
 5776SOL     OW28960   3.619   4.718   8.925  0.0916 -0.0438  0.2452
 5776SOL    HW128961   3.653   0.024   8.848 -2.1459 -1.4954 -1.6003
 5776SOL    HW228962   3.575   4.648   8.876  0.7451 -0.6610  0.5424
 5777SOL     OW28963   0.786   1.026   5.777  0.2605  0.6629 -0.0175
 5777SOL    HW128964   0.698   1.059   5.759  1.0194  1.2314 -2.7050
 5777SOL    HW228965   0.811   1.056   5.865 -0.8830  0.9871  0.1990
 5778SOL     OW28966   2.940   1.303   8.246 -0.3991 -0.2513  0.2487
 5778SOL    HW128967   3.012   1.334   8.302 -0.1187  0.7159 -0.6446
 5778SOL    HW228968   2.918   1.389   8.210  3.0073  1.4059  2.0521
 5779SOL     OW28969   0.163   2.251   0.228 -0.4054 -0.0197 -0.0977
 5779SOL    HW128970   0.190   2.170   0.271  0.1908  1.7475  2.8338
 5779SOL    HW228971   0.069   2.261   0.244  0.0352  2.2808  1.0056
 5780SOL     OW28972   0.436   1.326   6.427  1.0438  0.2682  0.2619
 5780SOL    HW128973   0.517   1.377   6.424  2.5221 -1.9914  2.2580
 5780SOL    HW228974   0.445   1.275   6.347  2.7090  0.5722  0.2669
 5781SOL     OW28975   3.367   4.520   4.863 -0.0270  0.1614  0.6577
 5781SOL    HW128976   3.403   4.544   4.949 -0.8545  0.9901  0.7705
 5781SOL    HW228977   3.345   4.427   4.871  0.9147 -0.0180  1.2227
 5782SOL     OW28978   3.688   4.048   0.858 -0.5199  0.3278 -0.1380
 5782SOL    HW128979   3.658   4.115   0.797  0.4231  1.7894  1.0195
 5782SOL    HW228980   3.620   3.981   0.848  0.4265 -0.8021  0.9506
 5783SOL     OW28981   0.020   1.793   8.499 -0.3413  0.2052  0.1181
 5783SOL    HW128982   4.676   1.833   8.477 -0.2328 -0.2113 -1.0663
 5783SOL    HW228983   0.037   1.811   8.591 -2.8973 -0.2200  0.6583
 5784SOL     OW28984   4.576   2.489   8.227  0.3423  0.0486  0.3996
 5784SOL    HW128985   4.533   2.479   8.312  0.4102  1.0550  0.5500
 5784SOL    HW228986   4.544   2.413   8.179 -1.4669  0.6991  0.5761
 5785SOL     OW28987   2.005   0.133  17.565  0.7227  0.0789 -0.1601
 5785SOL    HW128988   1.971   0.089  17.643 -0.2252 -0.9870 -1.1833
 5785SOL    HW228989   1.983   0.223  17.588 -2.6905 -0.4877 -1.3378
 5786SOL     OW28990   0.502   1.001   2.034 -0.3733 -0.5498 -0.3896
 5786SOL    HW128991   0.536   0.964   2.116  0.5283  0.5333 -0.2700
 5786SOL    HW228992   0.528   0.929   1.977 -0.5193 -0.4234 -0.6116
 5787SOL     OW28993   0.930   1.133   0.458 -0.1074  0.0216  0.2170
 5787SOL    HW128994   0.877   1.132   0.538 -1.4449  0.8696 -0.6664
 5787SOL    HW228995   0.888   1.197   0.401 -0.9254  0.5467  1.4121
 5788SOL     OW28996   3.317   4.314   8.789  0.5463  0.0488  0.5424
 5788SOL    HW128997   3.376   4.295   8.716 -0.7172  1.3215 -0.8084
 5788SOL    HW228998   3.262   4.235   8.794  0.9590 -0.1736  1.6401
 5789SOL     OW28999   0.642   3.341   8.507 -0.3285 -0.0265 -0.1589
 5789SOL    HW129000   0.715   3.298   8.464 -1.2826 -0.2348 -1.5881
 5789SOL    HW229001   0.566   3.330   8.450 -0.8695  2.3245  0.0952
 5790SOL     OW29002   1.223   1.643   7.039 -0.7572 -0.0206  0.1832
 5790SOL    HW129003   1.136   1.649   7.078 -0.5294  0.9956  0.5288
 5790SOL    HW229004   1.200   1.662   6.948 -2.6105 -0.3123  0.6052
 5791SOL     OW29005   1.346   0.629   4.945  0.5307  0.1028 -0.3110
 5791SOL    HW129006   1.261   0.657   4.911  0.1953 -1.7714 -0.9808
 5791SOL    HW229007   1.361   0.674   5.028 -2.5882  2.0440 -0.7873
 5792SOL     OW29008   1.637   2.758   2.313  0.0706  0.1676 -0.3468
 5792SOL    HW129009   1.643   2.762   2.217  1.9243 -3.3207 -0.3797
 5792SOL    HW229010   1.729   2.756   2.339  0.0154  0.2782 -0.1383
 5793SOL     OW29011   1.803   0.520   1.992  0.2201  0.2671  0.5640
 5793SOL    HW129012   1.779   0.563   2.074 -0.5684  0.1034  0.4268
 5793SOL    HW229013   1.806   0.431   2.028 -2.3740  1.1138  2.8690
 5794SOL     OW29014   2.895   0.255   5.577 -0.0574  0.2291 -1.0972
 5794SOL    HW129015   2.831   0.219   5.515 -0.4199 -1.6930  0.4193
 5794SOL    HW229016   2.877   0.349   5.584  1.6305  0.4640 -0.0230
 5795SOL     OW29017   3.992   2.559   0.712 -0.6471  0.1521  0.1523
 5795SOL    HW129018   3.944   2.481   0.740 -2.3620  0.4660 -1.8836
 5795SOL    HW229019   4.043   2.573   0.791 -2.6784 -0.5152  1.5754
 5796SOL     OW29020   4.573   3.766   9.486  0.4442  0.5609  0.9988
 5796SOL    HW129021   4.585   3.714   9.565 -0.9752 -1.9853 -0.4732
 5796SOL    HW229022   4.646   3.735   9.431  1.7260  0.5625  2.7127
 5797SOL     OW29023   2.356   0.248   3.243  0.1862  0.2884  0.1446
 5797SOL    HW129024   2.407   0.316   3.289 -0.2421  0.2558  0.6685
 5797SOL    HW229025   2.424   0.194   3.201 -0.3197  0.2828 -0.6621
 5798SOL     OW29026   1.687   0.497   9.369  1.2127  0.3768  0.1127
 5798SOL    HW129027   1.660   0.499   9.461  0.2520 -1.2909 -0.1275
 5798SOL    HW229028   1.781   0.487   9.379  0.7753 -1.2800  2.5061
 5799SOL     OW29029   0.634   1.736  13.050 -0.3332  0.3216 -0.5704
 5799SOL    HW129030   0.570   1.795  13.011 -0.9624 -0.7183 -1.1258
 5799SOL    HW229031   0.712   1.785  13.024 -0.0112  0.6476  0.9627
 5800SOL     OW29032   1.144   2.501   3.880  0.2926 -0.1975  0.6796
 5800SOL    HW129033   1.058   2.460   3.890 -1.1457  2.2343 -1.6659
 5800SOL    HW229034   1.151   2.531   3.971  0.0532 -2.6003  1.4822
 5801SOL     OW29035   2.050   4.122  12.831 -0.2372  0.1880 -0.0421
 5801SOL    HW129036   2.128   4.177  12.831 -0.1947  0.1077  2.2070
 5801SOL    HW229037   2.006   4.148  12.749  0.0385 -0.2871 -0.3399
 5802SOL     OW29038   0.770   1.035  11.238 -0.5623  0.1079  0.3971
 5802SOL    HW129039   0.679   1.019  11.262 -0.4035  1.2893  1.7718
 5802SOL    HW229040   0.823   1.053  11.315  2.1569  0.5497 -1.5721
 5803SOL     OW29041   4.435   1.013  16.889  0.0774 -0.5632 -0.0972
 5803SOL    HW129042   4.377   1.018  16.813 -1.5401 -0.3771  1.1464
 5803SOL    HW229043   4.499   0.952  16.852  0.0322 -1.3068  1.0324
 5804SOL     OW29044   3.133   2.252  15.881  0.1265  0.2555  0.2302
 5804SOL    HW129045   3.198   2.305  15.925  1.2683  0.7517 -2.0449
 5804SOL    HW229046   3.051   2.284  15.919  0.2418 -0.1319  0.7982
 5805SOL     OW29047   1.913   3.761   2.410  0.5920 -0.1217  0.0878
 5805SOL    HW129048   1.871   3.794   2.490  0.3603  0.0027 -0.0864
 5805SOL    HW229049   1.921   3.840   2.357  1.6540  0.1704  0.6811
 5806SOL     OW29050   3.695   2.836  17.590 -0.5700  0.0891  0.2454
 5806SOL    HW129051   3.702   2.741  17.578  2.2454  0.0325  2.3353
 5806SOL    HW229052   3.706   2.846  17.684  0.3601  1.1994  0.0151
 5807SOL     OW29053   3.794   3.553   7.576  0.5462  0.4631 -0.1092
 5807SOL    HW129054   3.813   3.642   7.547  0.4872  0.3301 -0.5661
 5807SOL    HW229055   3.722   3.573   7.635  1.6048 -0.5261  1.5137
 5808SOL     OW29056   1.475   1.467   6.754 -0.5086 -0.0742 -0.1472
 5808SOL    HW129057   1.549   1.523   6.730 -2.2541  2.4993  0.4990
 5808SOL    HW229058   1.432   1.520   6.821 -1.3078 -1.7821  0.6745
 5809SOL     OW29059   0.936   3.082   6.255  0.2909 -0.0007 -0.1912
 5809SOL    HW129060   0.993   3.035   6.315  2.3152  0.3650 -1.8200
 5809SOL    HW229061   0.859   3.074   6.311  0.7265 -1.1211  0.2366
 5810SOL     OW29062   1.353   0.598   2.232 -0.4649 -0.2893 -0.4100
 5810SOL    HW129063   1.266   0.631   2.209  0.3602  0.9454 -1.7381
 5810SOL    HW229064   1.333   0.507   2.208 -0.9475 -0.7906  1.8565
 5811SOL     OW29065   3.134   3.878  10.330  0.0588  0.0239  0.9025
 5811SOL    HW129066   3.217   3.869  10.377 -0.0119 -1.9781  0.6656
 5811SOL    HW229067   3.077   3.818  10.379 -1.0469  0.5649  0.2849
 5812SOL     OW29068   2.039   4.145   7.145  0.3439  0.0785 -0.6585
 5812SOL    HW129069   2.081   4.121   7.228 -1.7565 -1.0682  0.0850
 5812SOL    HW229070   2.023   4.237   7.164 -0.3588 -0.0098 -0.8441
 5813SOL     OW29071   0.998   3.700   8.929 -0.4899  0.1441 -0.1841
 5813SOL    HW129072   1.022   3.793   8.924  3.7946 -0.9855 -0.4193
 5813SOL    HW229073   0.975   3.676   9.019 -0.7094  2.5366  0.4151
 5814SOL     OW29074   4.304   4.061   0.951  0.7219 -0.6347  0.7998
 5814SOL    HW129075   4.300   3.968   0.974 -1.1870 -0.1794  2.2916
 5814SOL    HW229076   4.295   4.059   0.856  1.4353 -0.1382  0.7282
 5815SOL     OW29077   0.083   4.052   4.163 -0.3546 -0.0108 -0.7308
 5815SOL    HW129078   0.054   3.973   4.208  1.1257  1.0270  2.0728
 5815SOL    HW229079   0.016   4.072   4.099 -0.6268  2.4791  0.3268
 5816SOL     OW29080   4.690   0.654   5.699  0.4659  0.2734 -0.1803
 5816SOL    HW129081   4.637   0.732   5.685 -1.6295 -1.0153  0.5255
 5816SOL    HW229082   4.624   0.585   5.692  2.5679 -1.9282  1.4584
 5817SOL     OW29083   1.281   1.000   9.838 -0.7270  0.5009  1.1648
 5817SOL    HW129084   1.242   1.083   9.811 -1.9866 -0.7827 -0.9141
 5817SOL    HW229085   1.341   0.981   9.766  0.6835  1.2325  2.1288
 5818SOL     OW29086   2.514   0.926   3.593 -0.2647 -0.3799  0.5517
 5818SOL    HW129087   2.503   1.003   3.536 -1.2625  0.8419  2.4101
 5818SOL    HW229088   2.454   0.950   3.663 -1.6710  0.9408 -1.0952
 5819SOL     OW29089   1.600   0.184   3.463  0.2132  0.0698  0.2555
 5819SOL    HW129090   1.657   0.127   3.514  1.0863 -0.1286 -0.9303
 5819SOL    HW229091   1.515   0.180   3.506 -1.1339 -0.4928 -2.4554
 5820SOL     OW29092   1.318   2.058  12.206  0.4805  0.5236 -0.5350
 5820SOL    HW129093   1.408   2.033  12.189  0.1438 -0.2027 -1.2352
 5820SOL    HW229094   1.327   2.095  12.294  0.1496  2.9453 -1.5066
 5821SOL     OW29095   4.006   0.034   8.573  0.2036  0.2577  0.0245
 5821SOL    HW129096   3.937   0.039   8.639  1.4808 -2.3043  1.5497
 5821SOL    HW229097   4.076   4.735   8.626  0.7422  0.3217 -0.6433
 5822SOL     OW29098   1.068   0.018   3.952  0.1735  0.1921  0.1517
 5822SOL    HW129099   0.984   4.714   3.966  1.3624 -2.0094  0.4207
 5822SOL    HW229100   1.047   0.098   3.903 -0.7130  1.3542  2.4553
 5823SOL     OW29101   1.264   3.081  12.045 -0.0879 -0.5214 -0.1236
 5823SOL    HW129102   1.335   3.144  12.056 -1.9487  1.2108  1.8309
 5823SOL    HW229103   1.198   3.137  12.005  0.4402 -1.0712 -1.7776
 5824SOL     OW29104   1.136   2.678  10.186 -0.0707 -0.0003  0.1509
 5824SOL    HW129105   1.145   2.762  10.232 -3.2089  0.4722 -0.0594
 5824SOL    HW229106   1.213   2.627  10.212  0.3853  0.6609  0.0932
 5825SOL     OW29107   0.729   4.127   4.724 -0.6226 -0.3136 -0.7908
 5825SOL    HW129108   0.745   4.046   4.676 -1.2544 -0.0188 -1.4983
 5825SOL    HW229109   0.817   4.148   4.754 -1.5955  0.6593  1.3550
 5826SOL     OW29110   3.372   3.483   4.952 -0.3216  0.2682  0.0348
 5826SOL    HW129111   3.324   3.432   4.887 -0.9772  1.9491 -0.8082
 5826SOL    HW229112   3.458   3.499   4.913 -0.4500 -2.2273 -1.2618
 5827SOL     OW29113   4.075   2.971   2.897 -0.0869 -0.0552 -0.5677
 5827SOL    HW129114   4.043   3.034   2.962  0.4074 -1.4499  1.0420
 5827SOL    HW229115   3.990   2.934   2.873 -0.7310  0.4448  0.9438
 5828SOL     OW29116   1.877   1.715   8.630  0.3542 -0.0430 -0.0392
 5828SOL    HW129117   1.842   1.775   8.565  0.2680  0.3637  0.3838
 5828SOL    HW229118   1.921   1.770   8.696  1.1074  0.1309 -0.6822
 5829SOL     OW29119   4.263   2.440   5.044 -0.8005 -0.4974 -0.2408
 5829SOL    HW129120   4.182   2.449   4.994 -1.3101 -1.2495  0.4528
 5829SOL    HW229121   4.322   2.404   4.977  0.9158 -0.3284  1.1825
 5830SOL     OW29122   4.002   4.272   4.378 -0.7490 -0.0760 -0.2058
 5830SOL    HW129123   3.977   4.223   4.300  1.8262  0.5927 -1.4535
 5830SOL    HW229124   4.082   4.317   4.352 -0.7008  1.8232  3.1662
 5831SOL     OW29125   0.250   1.266  11.491  0.4212  0.2171  0.3260
 5831SOL    HW129126   0.315   1.318  11.444  1.6844 -1.1162  0.6145
 5831SOL    HW229127   0.177   1.306  11.442 -1.0068  1.2863  3.3571
 5832SOL     OW29128   3.501   3.128  15.703  0.0054  0.1514  0.0948
 5832SOL    HW129129   3.503   3.059  15.769 -0.4470  1.0239  1.0333
 5832SOL    HW229130   3.544   3.087  15.628  0.3117  2.1984 -0.8539
 5833SOL     OW29131   1.327   4.725  12.973 -0.1030 -0.0711 -0.3238
 5833SOL    HW129132   1.308   4.657  12.909 -0.5949  1.0612 -1.3758
 5833SOL    HW229133   1.410   0.023  12.944 -0.5088  0.0223 -1.3366
 5834SOL     OW29134   0.695   3.998   6.480  0.7388 -0.4170  0.0397
 5834SOL    HW129135   0.634   4.031   6.414 -1.8150  0.6245  2.9184
 5834SOL    HW229136   0.677   4.060   6.551 -4.0048 -1.5599 -0.1962
 5835SOL     OW29137   0.551   2.529   2.047 -0.4601 -0.1346 -0.1080
 5835SOL    HW129138   0.477   2.569   2.093 -0.5313 -2.1175  1.4823
 5835SOL    HW229139   0.605   2.493   2.117  0.3011 -1.5133 -1.4104
 5836SOL     OW29140   3.352   2.758   7.519  0.4119 -0.0401  0.2198
 5836SOL    HW129141   3.370   2.842   7.562  0.8000 -0.6594  1.2816
 5836SOL    HW229142   3.391   2.700   7.584 -0.1800 -3.2702 -2.3412
 5837SOL     OW29143   1.677   4.010   3.708 -0.1936 -0.3791 -0.2842
 5837SOL    HW129144   1.687   3.917   3.689 -1.7448 -1.0210  2.0156
 5837SOL    HW229145   1.603   4.001   3.768 -0.9914 -0.1459 -1.2460
 5838SOL     OW29146   1.579   0.995   2.197  0.2874  0.4489  0.6277
 5838SOL    HW129147   1.594   0.943   2.119  2.8103  0.3338  1.1703
 5838SOL    HW229148   1.598   1.079   2.156  0.8831 -1.3870 -2.8241
 5839SOL     OW29149   4.555   3.368   3.272  0.1291  0.7048  0.4975
 5839SOL    HW129150   4.538   3.428   3.200  0.0018  2.6008  2.1081
 5839SOL    HW229151   4.650   3.355   3.265 -0.4707 -2.9225 -0.8236
 5840SOL     OW29152   4.182   2.092   7.039 -0.6402  0.5185  0.2170
 5840SOL    HW129153   4.163   2.183   7.059 -0.0676  0.2581  1.9669
 5840SOL    HW229154   4.169   2.047   7.122 -0.7571 -1.9043 -1.0971
 5841SOL     OW29155   0.971   0.910   2.298 -0.2969  0.0968  0.4632
 5841SOL    HW129156   1.029   0.875   2.365 -1.9492 -1.7993  0.9006
 5841SOL    HW229157   0.888   0.903   2.345  0.3300 -1.0182  1.3963
 5842SOL     OW29158   2.984   0.257   4.084 -0.6000 -0.0623 -0.1944
 5842SOL    HW129159   3.077   0.278   4.089 -1.4252  3.6769 -0.4043
 5842SOL    HW229160   2.988   0.163   4.066  0.8160 -0.0794  0.2409
 5843SOL     OW29161   3.785   1.287  16.654  0.2727 -0.4995 -0.0506
 5843SOL    HW129162   3.816   1.257  16.739  0.8810 -0.9116 -0.4196
 5843SOL    HW229163   3.847   1.357  16.637  0.3953 -0.6214 -0.1045
 5844SOL     OW29164   2.777   0.822   8.304  0.6292  0.2435 -0.7431
 5844SOL    HW129165   2.757   0.841   8.212 -0.3475 -1.7671 -0.9364
 5844SOL    HW229166   2.793   0.912   8.334 -0.2158  1.0715 -2.7189
 5845SOL     OW29167   3.556   1.900   2.199  0.5652  0.3736  0.1870
 5845SOL    HW129168   3.523   1.948   2.123  0.5833  0.0431 -0.0316
 5845SOL    HW229169   3.650   1.920   2.190  0.5149 -0.2908 -1.7732
 5846SOL     OW29170   3.822   3.537  12.311 -0.0488 -0.5956  0.0604
 5846SOL    HW129171   3.775   3.470  12.360 -0.8028  0.2454  0.4773
 5846SOL    HW229172   3.887   3.562  12.377 -1.1388  0.4633  0.7233
 5847SOL     OW29173   1.009   1.406   0.727 -0.5271  0.3624 -0.1833
 5847SOL    HW129174   1.034   1.385   0.817 -3.1844  1.2427  0.7410
 5847SOL    HW229175   1.051   1.491   0.715  3.2767 -1.1921  2.0229
 5848SOL     OW29176   1.042   1.528   8.763  0.4069  0.1089 -0.4254
 5848SOL    HW129177   1.054   1.448   8.815 -0.8065 -0.8566 -1.6215
 5848SOL    HW229178   1.116   1.519   8.703  0.7805  0.2350  0.0146
 5849SOL     OW29179   0.185   2.545  11.342  1.0259 -0.2709  0.4875
 5849SOL    HW129180   0.274   2.570  11.317  1.1169  0.6443  1.7486
 5849SOL    HW229181   0.202   2.491  11.419  1.7628 -2.1142 -0.9929
 5850SOL     OW29182   1.799   3.021   4.349  0.1083  0.2245  0.1707
 5850SOL    HW129183   1.835   3.078   4.416 -0.6362  2.8789 -1.6409
 5850SOL    HW229184   1.830   3.068   4.271  0.0934  0.8457  0.5379
 5851SOL     OW29185   4.657   3.568   0.666  0.9744  0.3791 -0.0342
 5851SOL    HW129186   4.569   3.599   0.645  0.6376 -0.2078  0.5034
 5851SOL    HW229187   4.657   3.492   0.607 -0.1837  0.6359 -0.3685
 5852SOL     OW29188   0.417   4.683  15.514 -0.1734 -0.3966 -0.3128
 5852SOL    HW129189   0.380   0.029  15.495  0.6569 -0.7572 -3.6688
 5852SOL    HW229190   0.460   4.693  15.598 -1.3333  2.1255 -0.0221
 5853SOL     OW29191   3.649   4.003   1.567  0.0103 -0.2758  0.3766
 5853SOL    HW129192   3.646   4.096   1.588 -1.9391 -0.1028 -0.7096
 5853SOL    HW229193   3.652   4.004   1.471  1.0814 -0.5446  0.4031
 5854SOL     OW29194   0.313   2.137   1.359  0.1311  0.5361  0.4905
 5854SOL    HW129195   0.267   2.140   1.275 -2.4581  2.6792  1.9587
 5854SOL    HW229196   0.323   2.230   1.379 -3.0160  0.6143  1.7898
 5855SOL     OW29197   3.567   2.755   0.609 -0.1715 -0.3686 -0.3306
 5855SOL    HW129198   3.491   2.811   0.595 -0.0714  0.0756  0.8595
 5855SOL    HW229199   3.518   2.676   0.587 -0.8350 -0.0446  0.0051
 5856SOL     OW29200   3.412   1.845   2.622  0.0286 -0.2326 -0.1271
 5856SOL    HW129201   3.379   1.822   2.536 -1.1808 -0.0434  0.2888
 5856SOL    HW229202   3.399   1.940   2.629 -1.0003 -0.4387  0.7080
 5857SOL     OW29203   2.794   1.949  15.374  0.1247  0.3230  0.5100
 5857SOL    HW129204   2.784   1.854  15.377  0.3135  0.2874 -0.1539
 5857SOL    HW229205   2.736   1.973  15.303  0.1958  2.2544  1.0837
 5858SOL     OW29206   3.315   0.004   2.429  0.2502  0.2463 -0.4680
 5858SOL    HW129207   3.321   4.650   2.415  1.4346  0.4938 -1.5920
 5858SOL    HW229208   3.291   0.001   2.522  0.3778  0.7561 -0.4193
 5859SOL     OW29209   4.415   2.955   8.422 -0.4567  0.3178  0.0923
 5859SOL    HW129210   4.406   2.873   8.374  1.9975 -0.6369  1.2757
 5859SOL    HW229211   4.350   2.943   8.492  0.4934  0.9378  1.0799
 5860SOL     OW29212   2.193   2.855   2.885  0.3806 -0.3160 -0.0669
 5860SOL    HW129213   2.179   2.806   2.967  2.9929  0.5097  0.8527
 5860SOL    HW229214   2.248   2.791   2.840 -0.4325 -0.5377 -0.7571
 5861SOL     OW29215   0.976   4.024  12.011  0.2285  0.1128  0.5682
 5861SOL    HW129216   1.024   4.095  11.968 -0.8199  0.6231  0.2587
 5861SOL    HW229217   0.904   4.074  12.049 -0.3448 -0.5503  0.3458
 5862SOL     OW29218   4.719   4.654   7.019 -0.3308  0.2092 -0.2810
 5862SOL    HW129219   0.005   4.643   7.111  0.9601 -0.2484 -0.6923
 5862SOL    HW229220   0.069   4.639   6.988 -0.1132 -0.6442  0.7093
 5863SOL     OW29221   4.508   1.680   7.210 -0.1197 -0.7300 -0.1991
 5863SOL    HW129222   4.490   1.676   7.117  2.2722  0.7016 -0.7210
 5863SOL    HW229223   4.463   1.599   7.236 -0.0841 -0.3526  1.0236
 5864SOL     OW29224   0.005   2.195   4.641  0.5643 -0.3975 -0.0655
 5864SOL    HW129225   0.017   2.133   4.570  2.4218  0.8711 -0.8571
 5864SOL    HW229226   0.096   2.218   4.658  0.0686  0.9405  0.7890
 5865SOL     OW29227   1.219   1.779   7.501 -0.1731 -0.8870 -0.3197
 5865SOL    HW129228   1.280   1.822   7.441 -0.0144 -0.1358  0.3790
 5865SOL    HW229229   1.144   1.835   7.480 -2.3944 -3.8831 -0.4170
 5866SOL     OW29230   4.611   2.191   1.326  0.5474 -0.0789 -0.0592
 5866SOL    HW129231   4.591   2.160   1.414 -1.4505 -0.0806 -0.5197
 5866SOL    HW229232   4.678   2.126   1.306  0.6774  0.2704 -0.7717
 5867SOL     OW29233   0.724   1.650   9.140  0.0232  0.4738 -0.4555
 5867SOL    HW129234   0.720   1.600   9.222  1.4072  0.0102 -0.6659
 5867SOL    HW229235   0.758   1.730   9.182  0.6916 -0.5447  0.9611
 5868SOL     OW29236   0.448   3.135   4.787 -0.2335  0.1188  0.1708
 5868SOL    HW129237   0.459   3.143   4.881 -0.5311  2.8465 -0.0154
 5868SOL    HW229238   0.384   3.064   4.788  1.8380 -1.7794 -0.7470
 5869SOL     OW29239   3.543   3.779  15.840 -0.0657 -0.6165 -0.3518
 5869SOL    HW129240   3.548   3.742  15.752  0.0088  3.3662 -2.0222
 5869SOL    HW229241   3.635   3.789  15.866  0.1157  0.0732 -1.2866
 5870SOL     OW29242   3.423   3.540   8.256 -0.2953  0.0706  0.2093
 5870SOL    HW129243   3.512   3.506   8.247 -0.1101  0.5139  0.3615
 5870SOL    HW229244   3.388   3.474   8.316 -0.6728 -0.6724 -0.8257
 5871SOL     OW29245   2.751   3.025   2.429 -0.4387 -0.1885  0.2509
 5871SOL    HW129246   2.770   2.977   2.510 -0.5978  1.9281  1.5310
 5871SOL    HW229247   2.834   3.020   2.381 -0.5272 -0.3084  0.1100
 5872SOL     OW29248   3.969   3.317   8.287  0.7931  0.0646 -0.2204
 5872SOL    HW129249   3.979   3.300   8.193 -0.4750  0.6867 -0.4683
 5872SOL    HW229250   4.060   3.339   8.304  0.7056  0.0661  0.2472
 5873SOL     OW29251   3.597   3.039   4.765  0.2259  0.1267 -0.3884
 5873SOL    HW129252   3.529   3.052   4.831 -0.3499 -1.4370 -0.6832
 5873SOL    HW229253   3.641   3.121   4.787 -0.2624 -0.3645  2.4261
 5874SOL     OW29254   2.511   1.834   6.499 -0.0650 -0.0727  0.3675
 5874SOL    HW129255   2.452   1.778   6.449 -0.5431  0.0739  0.7655
 5874SOL    HW229256   2.529   1.770   6.568  0.0461 -0.7797 -0.3262
 5875SOL     OW29257   2.026   0.306  10.165 -0.3037 -0.7944  0.6328
 5875SOL    HW129258   1.955   0.351  10.120 -0.8059 -1.7980  0.4125
 5875SOL    HW229259   1.979   0.295  10.248  2.7541  1.1206  2.6151
 5876SOL     OW29260   1.515   3.250   6.080 -0.2644  0.8489 -0.4988
 5876SOL    HW129261   1.561   3.311   6.137  0.0082 -0.3501  0.5785
 5876SOL    HW229262   1.432   3.291   6.058  0.1120  0.0372 -3.4703
 5877SOL     OW29263   4.727   0.249   2.095  0.2894  0.0441  0.2293
 5877SOL    HW129264   0.038   0.303   2.155  1.0335 -0.3303 -0.0744
 5877SOL    HW229265   4.701   0.176   2.151 -0.8597  0.5864  0.4212
 5878SOL     OW29266   1.479   4.537   9.002  0.0433 -0.8608 -0.4213
 5878SOL    HW129267   1.529   4.559   9.080 -1.5059 -3.9257  1.4216
 5878SOL    HW229268   1.390   4.564   9.026  0.8588  0.9278  0.5515
 5879SOL     OW29269   3.651   0.111  15.128  0.0152  0.1983  0.1221
 5879SOL    HW129270   3.710   0.053  15.175 -1.3345 -0.8073  0.5667
 5879SOL    HW229271   3.613   0.056  15.060 -0.9299  1.2983 -0.2558
 5880SOL     OW29272   2.712   2.836   2.661 -0.4893  0.1078  0.1803
 5880SOL    HW129273   2.712   2.897   2.735  0.2887  0.8683 -0.4568
 5880SOL    HW229274   2.664   2.763   2.701 -2.2562  0.9900 -0.3331
 5881SOL     OW29275   2.083   0.724  15.378  0.4194  0.0060 -0.6879
 5881SOL    HW129276   2.057   0.797  15.321 -2.7397 -0.8028 -0.2498
 5881SOL    HW229277   2.079   0.653  15.314 -4.0018  0.5834 -1.0670
 5882SOL     OW29278   2.052   1.308   7.100  0.0382 -0.1760  0.0404
 5882SOL    HW129279   1.986   1.300   7.169  0.6031  2.7890  0.9343
 5882SOL    HW229280   2.056   1.403   7.091 -0.4293  0.0161  1.7250
 5883SOL     OW29281   3.108   2.740  17.067  0.6937  0.4765 -0.9678
 5883SOL    HW129282   3.014   2.736  17.083  0.7607 -1.5283 -0.9853
 5883SOL    HW229283   3.142   2.748  17.156  1.5593 -1.2470 -1.1483
 5884SOL     OW29284   3.006   3.539   2.035 -0.0370  0.0979 -0.3024
 5884SOL    HW129285   2.961   3.485   1.970 -0.4755  1.8343 -1.4600
 5884SOL    HW229286   3.082   3.485   2.054  0.2291  0.3398 -0.6673
 5885SOL     OW29287   3.367   1.662   6.770  0.0243 -0.2055 -0.0096
 5885SOL    HW129288   3.298   1.600   6.747 -0.2366 -0.3570  1.2250
 5885SOL    HW229289   3.441   1.622   6.724 -0.2552  1.3974 -1.8666
 5886SOL     OW29290   3.677   3.333   5.374  0.5304 -0.0714 -0.6501
 5886SOL    HW129291   3.653   3.266   5.438  1.3728  0.2737  0.0382
 5886SOL    HW229292   3.762   3.353   5.415 -0.4165  1.2629  0.7109
 5887SOL     OW29293   3.319   4.469   2.395 -0.2975  0.0753 -0.0123
 5887SOL    HW129294   3.258   4.451   2.467 -1.0344 -0.1249 -0.6924
 5887SOL    HW229295   3.366   4.386   2.392 -1.3549 -0.6136  2.2933
 5888SOL     OW29296   2.180   0.815   2.414  0.0633  0.1041 -0.3609
 5888SOL    HW129297   2.267   0.815   2.375  0.2515  0.0186  0.0503
 5888SOL    HW229298   2.140   0.733   2.385  2.6245 -1.5206  0.6596
 5889SOL     OW29299   0.635   3.828   0.969 -0.8400 -0.3263 -0.1270
 5889SOL    HW129300   0.588   3.845   1.051 -2.0608  1.0046 -1.1224
 5889SOL    HW229301   0.595   3.744   0.945  0.8757 -0.8062 -1.3450
 5890SOL     OW29302   4.614   1.587   4.093 -0.2648 -0.3155 -0.0516
 5890SOL    HW129303   4.699   1.572   4.134 -0.3509  0.7150  0.5161
 5890SOL    HW229304   4.564   1.567   4.173  1.4031 -3.3444  0.1959
 5891SOL     OW29305   0.917   3.070   8.199  0.5461 -0.0062 -0.1513
 5891SOL    HW129306   0.915   2.976   8.181  0.5928 -0.2459  1.1110
 5891SOL    HW229307   0.824   3.085   8.183  0.3132 -1.2638 -0.0128
 5892SOL     OW29308   1.619   0.336   2.410 -0.1185  0.2989 -0.4816
 5892SOL    HW129309   1.596   0.372   2.496  1.9358  1.0147 -0.2315
 5892SOL    HW229310   1.672   0.264   2.444  1.0627 -0.0211 -2.9956
 5893SOL     OW29311   3.976   3.158   4.033  0.2803  0.8708 -0.0492
 5893SOL    HW129312   3.931   3.238   4.006 -1.5413 -0.3516 -0.6243
 5893SOL    HW229313   3.903   3.100   4.055  0.1981  0.2784 -1.9013
 5894SOL     OW29314   2.897   0.535   7.525  0.4054 -0.1248 -0.5868
 5894SOL    HW129315   2.918   0.598   7.457 -1.2360  1.6093  0.5046
 5894SOL    HW229316   2.975   0.546   7.578  0.2424 -0.4702 -0.2748
 5895SOL     OW29317   1.002   1.864   6.934 -0.4902 -0.0850  0.1989
 5895SOL    HW129318   0.961   1.804   6.997 -0.3863  0.8823  1.1767
 5895SOL    HW229319   0.985   1.946   6.980  0.3828  0.6559 -0.8038
 5896SOL     OW29320   4.713   4.482  14.337 -0.5942 -0.2901  0.0227
 5896SOL    HW129321   4.644   4.496  14.401 -0.2708  1.1241  0.0513
 5896SOL    HW229322   0.045   4.523  14.385  0.2799  1.2376 -2.5494
 5897SOL     OW29323   4.213   0.136   3.636  0.9022  0.1014 -0.5251
 5897SOL    HW129324   4.210   0.208   3.699  0.5181 -0.6471  0.3133
 5897SOL    HW229325   4.252   0.178   3.559 -0.2268  0.7958 -0.7062
 5898SOL     OW29326   2.534   0.209   3.611  0.0318  0.1359 -0.3715
 5898SOL    HW129327   2.458   0.216   3.669  0.0683 -2.0219 -0.0499
 5898SOL    HW229328   2.505   0.273   3.547  1.5027  0.3408 -0.8172
 5899SOL     OW29329   3.541   4.025   7.984  0.1239  0.6529 -0.1304
 5899SOL    HW129330   3.636   4.022   7.977  0.1264 -0.6753  0.3162
 5899SOL    HW229331   3.526   4.089   7.915 -1.1948  0.5863  0.0947
 5900SOL     OW29332   2.007   1.453   3.570 -0.2446 -0.0280  0.2431
 5900SOL    HW129333   2.069   1.389   3.535 -0.5243 -0.3023  0.2540
 5900SOL    HW229334   2.018   1.441   3.664 -1.0659 -2.9175 -0.0236
 5901SOL     OW29335   3.353   1.992   1.301  0.0945  0.0396 -0.0347
 5901SOL    HW129336   3.354   2.050   1.377 -0.8329  1.0648 -0.7997
 5901SOL    HW229337   3.417   2.034   1.242 -0.5486  0.8027 -0.1871
 5902SOL     OW29338   0.217   0.016   4.818  0.6626 -0.3616 -0.0164
 5902SOL    HW129339   0.164   0.090   4.848  1.6431  0.6988 -0.9639
 5902SOL    HW229340   0.311   0.026   4.830  0.5240  0.4169  0.4197
 5903SOL     OW29341   0.322   3.053   0.854 -0.0812  0.5294  0.4890
 5903SOL    HW129342   0.296   3.027   0.942 -0.9164 -0.3633 -0.0171
 5903SOL    HW229343   0.234   3.058   0.816  0.8024  1.0475 -1.5161
 5904SOL     OW29344   0.666   3.660   6.976 -0.1143 -0.0831 -0.1260
 5904SOL    HW129345   0.594   3.703   6.929  1.4206  1.7131 -0.8346
 5904SOL    HW229346   0.637   3.667   7.067  4.2004 -1.0068  1.3318
 5905SOL     OW29347   0.316   2.953   2.686 -0.5376  0.4024  0.6483
 5905SOL    HW129348   0.231   2.928   2.722 -1.6681 -0.5651 -2.6617
 5905SOL    HW229349   0.297   3.023   2.624 -0.2640 -1.1680 -1.2160
 5906SOL     OW29350   2.673   1.577   5.557 -0.3844 -0.2597 -0.3379
 5906SOL    HW129351   2.647   1.666   5.535 -2.6428 -0.7982  0.0682
 5906SOL    HW229352   2.591   1.534   5.531 -1.4189  0.9961  0.8614
 5907SOL     OW29353   1.423   2.037   8.387  0.1951 -0.3830  0.0499
 5907SOL    HW129354   1.506   2.069   8.423  0.5350 -0.2549 -0.8558
 5907SOL    HW229355   1.446   2.053   8.296  1.1723  1.0428  0.5424
 5908SOL     OW29356   0.491   3.314   8.184  0.2364 -0.7250 -0.2017
 5908SOL    HW129357   0.429   3.385   8.165 -0.4379 -1.4396 -0.6574
 5908SOL    HW229358   0.464   3.287   8.272 -1.0790 -1.7452 -0.9251
 5909SOL     OW29359   0.458   2.720   2.641 -0.7041 -0.7877 -0.4872
 5909SOL    HW129360   0.547   2.748   2.618  0.0546 -2.2445  0.7159
 5909SOL    HW229361   0.412   2.800   2.665 -0.4405 -0.2679 -1.6779
 5910SOL     OW29362   2.249   4.305   4.104  0.3665 -0.3669 -0.2087
 5910SOL    HW129363   2.260   4.288   4.010 -1.3808 -0.5783 -0.3737
 5910SOL    HW229364   2.155   4.291   4.100  0.2019  0.9354 -0.9931
 5911SOL     OW29365   4.287   2.969   8.137 -0.0170 -0.0685  0.2463
 5911SOL    HW129366   4.246   3.011   8.213 -0.6323 -0.3360  0.0647
 5911SOL    HW229367   4.306   2.881   8.171  0.3160 -0.0068  0.2170
 5912SOL     OW29368   2.784   2.472   4.421 -0.2789 -0.1263 -0.2912
 5912SOL    HW129369   2.832   2.482   4.504 -0.4959 -1.7821  0.0306
 5912SOL    HW229370   2.857   2.463   4.359 -1.5451 -0.6237 -1.6915
 5913SOL     OW29371   1.727   4.232   4.628 -0.0867  0.7595  0.9297
 5913SOL    HW129372   1.704   4.274   4.711  2.8377 -0.1528  2.1663
 5913SOL    HW229373   1.642   4.207   4.591  0.1774 -0.9768  1.4989
 5914SOL     OW29374   2.271   3.940   3.158  0.3993 -0.4154  0.2100
 5914SOL    HW129375   2.201   4.005   3.157 -0.9374 -1.8436 -0.2091
 5914SOL    HW229376   2.333   3.995   3.110 -0.3051  0.5636  0.4363
 5915SOL     OW29377   1.445   3.306  12.112 -0.2261 -0.4784 -0.0999
 5915SOL    HW129378   1.379   3.301  12.181  1.3589 -0.7394  1.4192
 5915SOL    HW229379   1.428   3.385  12.062  1.7832 -0.9915 -1.5881
 5916SOL     OW29380   4.154   2.388   7.112  0.7940 -0.2648 -0.4142
 5916SOL    HW129381   4.231   2.427   7.071  1.5680 -0.6296  0.6960
 5916SOL    HW229382   4.084   2.450   7.091  0.6185 -1.0598 -2.1741
 5917SOL     OW29383   4.528   0.849   9.548 -0.1284  0.1856  0.3558
 5917SOL    HW129384   4.609   0.817   9.507 -1.3173  0.0215 -1.8587
 5917SOL    HW229385   4.574   0.922   9.590  0.7411  0.8054 -1.6530
 5918SOL     OW29386   2.220   4.174  14.497 -0.4555 -0.4220  0.2247
 5918SOL    HW129387   2.140   4.121  14.504 -1.3431  0.9400  0.4794
 5918SOL    HW229388   2.241   4.147  14.408 -1.1617 -0.9820  0.2248
 5919SOL     OW29389   3.365   2.805   5.008  0.2939 -0.3579 -0.6359
 5919SOL    HW129390   3.421   2.776   5.080  0.4992 -1.2305 -1.1511
 5919SOL    HW229391   3.287   2.749   5.012 -0.2277  0.5275  1.3241
 5920SOL     OW29392   1.486   2.135  17.623  0.1026  0.6264  0.3196
 5920SOL    HW129393   1.420   2.066  17.623 -0.2417  0.9773 -2.5985
 5920SOL    HW229394   1.454   2.209  17.572 -0.4709  0.3655  0.3049
 5921SOL     OW29395   4.503   2.662   2.879 -0.0130  0.0596  0.4061
 5921SOL    HW129396   4.433   2.646   2.942 -1.3395 -0.6621 -1.2203
 5921SOL    HW229397   4.463   2.722   2.817  0.1635  0.4449  0.6699
 5922SOL     OW29398   4.625   2.253   7.785  0.0279  0.0546  0.6881
 5922SOL    HW129399   4.568   2.260   7.708  0.2591  1.9926  0.6966
 5922SOL    HW229400   4.674   2.174   7.762  1.5441  1.5463 -1.0895
 5923SOL     OW29401   0.632   2.179  17.548 -0.1236 -0.3066  0.1471
 5923SOL    HW129402   0.626   2.270  17.518  1.6780 -0.2356 -0.0160
 5923SOL    HW229403   0.725   2.170  17.569 -0.0582  1.3876  0.5746
 5924SOL     OW29404   3.610   3.063   7.806  0.1120  0.4153 -0.8136
 5924SOL    HW129405   3.551   3.068   7.881  0.0291  0.5340 -0.8880
 5924SOL    HW229406   3.539   3.028   7.753  0.2678  0.7216 -1.2237
 5925SOL     OW29407   3.969   1.084   2.643  0.6542 -0.2354 -0.1586
 5925SOL    HW129408   3.978   0.994   2.613  0.2529 -0.9363  1.8434
 5925SOL    HW229409   4.009   1.134   2.571 -1.6273 -0.3615 -1.5350
 5926SOL     OW29410   4.046   4.550   0.329  0.2057  0.1194 -0.1350
 5926SOL    HW129411   4.075   4.634   0.364 -0.5974  0.5064 -0.3989
 5926SOL    HW229412   4.084   4.491   0.393  0.4835  0.9195  0.4403
 5927SOL     OW29413   3.915   4.554   7.412  0.0177 -0.2063  0.0185
 5927SOL    HW129414   3.901   4.626   7.474 -0.7483 -1.3002  1.1258
 5927SOL    HW229415   3.992   4.513   7.452 -0.0423 -0.6328 -0.3014
 5928SOL     OW29416   2.074   2.537   5.783 -0.5426 -0.5543 -0.0377
 5928SOL    HW129417   2.165   2.532   5.814 -0.6095 -0.5061  0.1634
 5928SOL    HW229418   2.067   2.461   5.726  0.4061 -1.4995  1.0905
 5929SOL     OW29419   3.713   2.562   4.754  0.4392  0.1673 -0.2665
 5929SOL    HW129420   3.749   2.485   4.798  1.2218  2.1171  2.4934
 5929SOL    HW229421   3.740   2.549   4.662  0.6496 -0.7876 -0.0784
 5930SOL     OW29422   3.958   0.429  12.798 -0.4509  0.4972  0.0266
 5930SOL    HW129423   3.882   0.375  12.821  0.8953 -0.4178  2.2167
 5930SOL    HW229424   3.976   0.399  12.709  1.4521  0.1635  0.5453
 5931SOL     OW29425   0.991   2.080   8.669  0.0454 -0.0342  0.3668
 5931SOL    HW129426   1.050   2.069   8.744  0.1759 -1.2922  0.0767
 5931SOL    HW229427   0.995   1.985   8.653 -1.6003 -0.1162  0.4221
 5932SOL     OW29428   1.859   1.878   3.340  0.5251 -1.0388  0.6049
 5932SOL    HW129429   1.872   1.804   3.399  2.5644 -1.0665  0.1060
 5932SOL    HW229430   1.813   1.941   3.396 -1.7955 -1.3828 -0.9008
 5933SOL     OW29431   3.654   2.636   8.612 -0.1579 -0.2627 -0.0917
 5933SOL    HW129432   3.741   2.677   8.614 -0.8421  1.3572 -3.3655
 5933SOL    HW229433   3.609   2.711   8.651 -1.8338 -1.5232  0.3671
 5934SOL     OW29434   1.826   4.511  11.897  0.5004  0.5397  0.2851
 5934SOL    HW129435   1.833   4.464  11.980 -0.6725  1.1242  0.7096
 5934SOL    HW229436   1.752   4.466  11.857 -0.4075  0.7294  1.7630
 5935SOL     OW29437   1.874   0.585   6.426 -0.1716 -0.2698  0.0646
 5935SOL    HW129438   1.912   0.504   6.460 -0.2198 -0.7867 -1.1137
 5935SOL    HW229439   1.817   0.607   6.500  0.8840  1.1663  0.4597
 5936SOL     OW29440   2.053   2.395   8.045 -0.2521  0.0115 -0.1690
 5936SOL    HW129441   2.000   2.474   8.037  2.6295  2.1367  1.8741
 5936SOL    HW229442   2.045   2.372   7.953  1.0822  2.4142 -0.8801
 5937SOL     OW29443   0.048   4.444   0.048  0.2458  0.6231  0.2191
 5937SOL    HW129444   0.012   4.371   0.098 -0.5114 -1.7861 -3.8213
 5937SOL    HW229445   0.083   4.499   0.117  3.2310 -3.2769  1.8181
 5938SOL     OW29446   0.466   4.497   8.298  0.0257  0.3953  0.3129
 5938SOL    HW129447   0.490   4.478   8.389  0.4486 -1.3061 -0.1609
 5938SOL    HW229448   0.534   4.447   8.254  0.9276  1.8275  0.0793
 5939SOL     OW29449   4.347   2.540   4.472 -0.1012  0.1935  0.3035
 5939SOL    HW129450   4.387   2.471   4.524 -1.4330  0.9480  2.3120
 5939SOL    HW229451   4.432   2.584   4.469  0.3897 -0.8145 -0.8667
 5940SOL     OW29452   1.847   1.419   3.174  0.4385 -0.1576 -0.4058
 5940SOL    HW129453   1.803   1.391   3.093  2.6638 -0.5671 -1.4787
 5940SOL    HW229454   1.770   1.417   3.231  2.2383 -0.1700  2.0124
 5941SOL     OW29455   3.423   2.537   8.441 -0.1638 -0.1681 -0.2291
 5941SOL    HW129456   3.491   2.546   8.508 -1.4741  0.1343  1.0661
 5941SOL    HW229457   3.394   2.627   8.424  1.8673  0.8791  1.8161
 5942SOL     OW29458   2.580   2.574   3.936 -0.9672 -0.7905 -0.1585
 5942SOL    HW129459   2.676   2.573   3.929 -1.0230 -0.4247 -0.9753
 5942SOL    HW229460   2.574   2.615   4.023  0.3626  0.6366 -0.7285
 5943SOL     OW29461   2.488   3.599  11.490 -0.2009  0.3565 -0.3325
 5943SOL    HW129462   2.410   3.651  11.509 -0.5881 -0.0719 -0.7484
 5943SOL    HW229463   2.445   3.521  11.455  0.3700 -0.6411  1.2021
 5944SOL     OW29464   2.929   3.487   9.500 -0.0489  0.4647 -0.0472
 5944SOL    HW129465   2.902   3.522   9.415  0.5100  0.5461 -0.1960
 5944SOL    HW229466   2.877   3.406   9.496  0.9085 -0.1344 -0.4577
 5945SOL     OW29467   0.751   2.231   7.540  0.6460  0.2689  0.0246
 5945SOL    HW129468   0.818   2.196   7.598  1.0721 -0.4633 -0.9152
 5945SOL    HW229469   0.665   2.224   7.581  1.0560  0.2934  0.8925
 5946SOL     OW29470   0.182   0.633   2.035 -0.1298 -0.1556  0.5843
 5946SOL    HW129471   0.124   0.598   1.968  0.8911 -1.9510  0.6544
 5946SOL    HW229472   0.156   0.725   2.024  0.8860  0.3402  2.4176
 5947SOL     OW29473   4.713   1.850   8.778 -0.6717  0.2171 -0.1031
 5947SOL    HW129474   4.716   1.879   8.869  1.3421 -1.7465  0.4564
 5947SOL    HW229475   4.646   1.783   8.784  0.6497 -1.1308 -0.3581
 5948SOL     OW29476   0.593   0.947   9.376  0.4935 -0.2920 -0.7095
 5948SOL    HW129477   0.608   0.900   9.457 -2.1172  1.1458  0.6190
 5948SOL    HW229478   0.671   0.929   9.323  0.7657 -0.3959 -0.2737
 5949SOL     OW29479   4.604   3.072   3.206 -0.8493 -0.0888  0.4885
 5949SOL    HW129480   4.666   3.012   3.164  1.3717  2.6436 -0.1641
 5949SOL    HW229481   4.571   3.135   3.142  1.8816  1.1885  0.3435
 5950SOL     OW29482   0.122   0.753   3.799 -0.0732 -0.0467 -0.2383
 5950SOL    HW129483   0.063   0.819   3.837 -1.3559 -0.8324 -0.8807
 5950SOL    HW229484   0.067   0.676   3.814  0.9171 -0.7270 -0.1018
 5951SOL     OW29485   4.013   3.655   8.003  0.3639 -0.0534 -0.0036
 5951SOL    HW129486   3.923   3.621   8.006  0.6433 -0.6206  1.9317
 5951SOL    HW229487   4.069   3.577   7.997  1.6118  0.8070  0.4866
 5952SOL     OW29488   1.622   0.251  10.557  0.4411  0.9187  0.0131
 5952SOL    HW129489   1.645   0.328  10.505  1.1865 -0.5847 -1.8970
 5952SOL    HW229490   1.559   0.286  10.620 -0.3131 -0.6702  0.1527
 5953SOL     OW29491   1.502   0.348   9.260 -0.3169 -0.5758  0.2773
 5953SOL    HW129492   1.562   0.279   9.292  0.9748  0.5080  0.2069
 5953SOL    HW229493   1.561   0.422   9.276  0.9488 -1.5904  0.3288
 5954SOL     OW29494   2.417   0.130   8.862 -0.1478 -0.6644 -0.2503
 5954SOL    HW129495   2.443   0.222   8.872 -2.0643 -0.3030  1.2918
 5954SOL    HW229496   2.477   0.087   8.923 -1.3901  0.3640  1.6668
 5955SOL     OW29497   2.042   3.531   6.231  0.1086 -0.5090 -0.3135
 5955SOL    HW129498   2.038   3.507   6.324  1.3287  1.0347  0.1313
 5955SOL    HW229499   1.990   3.611   6.225  1.4276  0.2007 -2.0467
 5956SOL     OW29500   3.151   0.654   6.917 -0.1831 -0.5934  0.0035
 5956SOL    HW129501   3.096   0.616   6.849  2.0497 -1.8521 -1.1271
 5956SOL    HW229502   3.171   0.738   6.876 -1.8722  1.4128  3.2835
 5957SOL     OW29503   3.235   2.952   3.304 -0.1898  0.4942  0.0984
 5957SOL    HW129504   3.234   3.041   3.338 -1.2998  0.4714  0.1464
 5957SOL    HW229505   3.145   2.922   3.317  0.2591 -0.5377  0.7662
 5958SOL     OW29506   0.722   1.622  17.083  0.3439  0.0711 -0.7870
 5958SOL    HW129507   0.662   1.605  17.010  0.3669  1.9917 -1.2340
 5958SOL    HW229508   0.744   1.711  17.059  0.8314  0.0780 -0.3058
 5959SOL     OW29509   1.193   3.549   8.663 -0.4632  0.0318  0.0527
 5959SOL    HW129510   1.218   3.457   8.671  0.0390  0.4244  2.8560
 5959SOL    HW229511   1.099   3.541   8.676 -0.4181 -0.2807  0.1889
 5960SOL     OW29512   3.396   0.807   5.489  0.2525  0.6642  0.2446
 5960SOL    HW129513   3.451   0.750   5.544  0.1140 -0.0154 -0.3139
 5960SOL    HW229514   3.309   0.772   5.508  0.8950 -1.5237 -0.8317
 5961SOL     OW29515   3.836   2.764  16.583 -0.1352  0.2196 -0.3115
 5961SOL    HW129516   3.811   2.771  16.491 -3.8508  2.5642  0.8761
 5961SOL    HW229517   3.780   2.833  16.617  1.0864 -0.3323  2.7656
 5962SOL     OW29518   2.404   4.010   0.851  0.7657 -0.0564 -0.0602
 5962SOL    HW129519   2.374   3.988   0.763 -0.5567  0.5573  0.2424
 5962SOL    HW229520   2.451   4.093   0.836 -1.8889  1.7612  1.6059
 5963SOL     OW29521   2.120   0.391   8.723  0.0188 -0.2517  0.1406
 5963SOL    HW129522   2.164   0.467   8.761  0.9246  0.4043 -2.2062
 5963SOL    HW229523   2.097   0.425   8.636  0.7893 -0.7889 -0.2790
 5964SOL     OW29524   0.817   2.798   5.758  1.1059  0.1592 -0.2448
 5964SOL    HW129525   0.764   2.866   5.718  1.1938  0.9766  1.0269
 5964SOL    HW229526   0.812   2.820   5.851 -1.1501 -0.9153 -0.1098
 5965SOL     OW29527   0.559   0.873   2.278 -0.0921  0.3626  0.2218
 5965SOL    HW129528   0.482   0.922   2.305 -1.8616 -2.5211  0.4914
 5965SOL    HW229529   0.612   0.879   2.357 -0.5073 -0.0352  0.5333
 5966SOL     OW29530   4.095   4.594   8.760 -0.3775 -0.0824 -0.2933
 5966SOL    HW129531   4.083   4.502   8.786  1.7353 -0.2744 -0.0327
 5966SOL    HW229532   4.080   4.642   8.842  0.1398 -2.2490  1.0641
 5967SOL     OW29533   2.208   2.841  17.724  0.2320  0.3226  0.1986
 5967SOL    HW129534   2.143   2.789   0.013  0.9347 -0.5710  0.1785
 5967SOL    HW229535   2.154   2.897  17.668 -0.2138 -2.5405 -2.2418
 5968SOL     OW29536   0.500   0.450   8.880  0.4598 -0.1421 -0.6893
 5968SOL    HW129537   0.416   0.407   8.893 -2.2006  4.8238 -1.3652
 5968SOL    HW229538   0.469   0.523   8.826 -0.0799 -0.8370 -1.3274
 5969SOL     OW29539   4.620   3.510   7.546 -0.4239  0.0855 -0.5314
 5969SOL    HW129540   4.661   3.570   7.608  1.5542  1.7534 -3.4392
 5969SOL    HW229541   4.612   3.569   7.471 -1.8657  0.6422  0.0593
 5970SOL     OW29542   2.310   2.162   4.924 -0.0390  0.1333 -0.3906
 5970SOL    HW129543   2.400   2.128   4.921  0.1036  0.6117 -1.5281
 5970SOL    HW229544   2.298   2.199   5.011 -1.7715  1.9866 -1.4116
 5971SOL     OW29545   0.511   3.617   5.527 -0.2190 -0.0762  0.0304
 5971SOL    HW129546   0.602   3.624   5.498  0.4449 -1.1270  1.8240
 5971SOL    HW229547   0.522   3.601   5.621 -0.2576  0.8309  0.1867
 5972SOL     OW29548   3.299   0.533   5.489  0.0027  0.1819  0.3068
 5972SOL    HW129549   3.247   0.456   5.466 -1.9402  1.7995 -0.6855
 5972SOL    HW229550   3.236   0.585   5.540 -0.2075  0.9955 -0.7990
 5973SOL     OW29551   0.919   2.191  17.617  0.2989 -1.3602 -0.2452
 5973SOL    HW129552   0.996   2.241  17.591 -1.3852  0.2087 -2.2460
 5973SOL    HW229553   0.963   2.120  17.663 -0.4045 -0.8390  1.2488
 5974SOL     OW29554   0.260   3.079   3.434 -0.3241 -0.0289  0.2222
 5974SOL    HW129555   0.238   3.090   3.341  1.7538 -0.5729 -0.3215
 5974SOL    HW229556   0.354   3.091   3.426 -0.4405  1.3828  0.9374
 5975SOL     OW29557   3.337   4.060   7.395  0.1173  0.1156  0.3962
 5975SOL    HW129558   3.396   3.986   7.386 -0.4150 -0.0255 -1.8353
 5975SOL    HW229559   3.395   4.126   7.357 -2.5001  2.0905 -0.1848
 5976SOL     OW29560   2.932   4.424   4.388 -0.0924  0.0453 -0.0332
 5976SOL    HW129561   2.929   4.490   4.457 -0.7939  0.3343 -0.3392
 5976SOL    HW229562   3.026   4.417   4.376 -0.1433  0.7447 -0.8723
 5977SOL     OW29563   3.258   3.281   2.552 -0.5698  0.1461  0.8657
 5977SOL    HW129564   3.210   3.329   2.620 -0.7094  1.8788 -0.4636
 5977SOL    HW229565   3.222   3.321   2.473 -0.1199 -0.6412  0.2649
 5978SOL     OW29566   0.241   1.376   9.531  0.0510  0.3302  0.2962
 5978SOL    HW129567   0.292   1.454   9.509  1.4498 -1.0061 -1.2397
 5978SOL    HW229568   0.206   1.410   9.612  1.1857 -0.1078  0.9784
 5979SOL     OW29569   3.283   2.320   1.012  0.4910  0.1028  0.3131
 5979SOL    HW129570   3.292   2.395   1.071 -1.0500 -1.9325  3.0933
 5979SOL    HW229571   3.325   2.249   1.059 -0.6837 -0.7658  0.0433
 5980SOL     OW29572   3.801   2.734   7.895 -0.4815 -0.3863 -0.1224
 5980SOL    HW129573   3.787   2.775   7.981  2.1984 -1.3837  0.7881
 5980SOL    HW229574   3.827   2.809   7.842  0.4509  1.2260  2.6308
 5981SOL     OW29575   0.337   2.535   6.483  0.4991  0.4703  0.3109
 5981SOL    HW129576   0.249   2.531   6.445  0.0018 -1.4533  1.6807
 5981SOL    HW229577   0.317   2.547   6.575 -1.4832 -0.7792  0.0333
 5982SOL     OW29578   4.705   3.096   9.510 -0.5183 -0.3713 -0.2135
 5982SOL    HW129579   0.045   3.043   9.507  0.1767  0.8934 -4.4294
 5982SOL    HW229580   4.671   3.082   9.422 -1.9595  0.0826  0.2786
 5983SOL     OW29581   3.889   0.432   5.276  0.1055 -0.1776 -0.4612
 5983SOL    HW129582   3.847   0.426   5.362  0.1294  0.1589 -0.4257
 5983SOL    HW229583   3.974   0.441   5.318  0.1153  0.0701 -0.5388
 5984SOL     OW29584   1.346   1.922  17.436  0.2830 -0.0106 -0.5397
 5984SOL    HW129585   1.288   1.846  17.430  0.4786 -0.3266  1.6285
 5984SOL    HW229586   1.417   1.887  17.381  0.0325  1.1174 -1.5905
 5985SOL     OW29587   2.222   0.088  10.290  0.2064  0.3142 -0.7488
 5985SOL    HW129588   2.239   0.101  10.383  3.2417 -2.0861 -0.9493
 5985SOL    HW229589   2.166   0.164  10.276 -0.0831  0.5526  1.7778
 5986SOL     OW29590   4.716   3.290   2.005  0.0116 -0.2931 -0.1808
 5986SOL    HW129591   4.737   3.266   2.096  2.1180 -1.3665 -0.9734
 5986SOL    HW229592   4.624   3.264   1.996 -0.0752 -0.6587  1.6816
 5987SOL     OW29593   4.187   2.824  14.080 -0.6374 -0.7146 -0.5072
 5987SOL    HW129594   4.110   2.850  14.129 -0.5239 -2.3104  0.5192
 5987SOL    HW229595   4.193   2.908  14.036 -2.2895  0.7710  2.1263
 5988SOL     OW29596   0.855   0.712  14.436 -0.4066 -0.8858 -0.3411
 5988SOL    HW129597   0.922   0.646  14.454 -0.4110 -0.1954  2.0598
 5988SOL    HW229598   0.799   0.708  14.513 -0.8319  2.0174 -0.5287
 5989SOL     OW29599   0.008   4.536   9.017 -0.0878 -0.1785 -0.1354
 5989SOL    HW129600   0.096   4.542   8.980  0.7902  1.3808  2.1727
 5989SOL    HW229601   4.733   4.441   9.017  0.3492 -0.2426  0.5295
 5990SOL     OW29602   3.899   3.531   9.494  0.3128  0.2740 -0.2325
 5990SOL    HW129603   3.901   3.464   9.562  1.0573  0.6442  0.1099
 5990SOL    HW229604   3.990   3.562   9.491  0.1324  0.7471 -0.8400
 5991SOL     OW29605   2.121   2.436   2.662 -0.0937 -0.3869  0.1946
 5991SOL    HW129606   2.115   2.360   2.721  0.7217  0.4918  1.3949
 5991SOL    HW229607   2.027   2.456   2.660 -0.2161 -0.9391  0.5936
 5992SOL     OW29608   4.445   3.247   8.446  0.5908 -0.0367 -0.0660
 5992SOL    HW129609   4.453   3.220   8.537 -0.4304  3.0575  0.9423
 5992SOL    HW229610   4.412   3.169   8.401  0.2293 -0.2074  0.4920
 5993SOL     OW29611   2.324   4.665   7.670  0.0922  0.0654  0.4761
 5993SOL    HW129612   2.384   4.594   7.693 -1.7418 -2.5622 -2.8506
 5993SOL    HW229613   2.353   4.739   7.724 -1.9558  1.0340  0.2454
 5994SOL     OW29614   3.704   2.997   8.374  0.2394 -0.4839 -0.1140
 5994SOL    HW129615   3.622   3.040   8.351  0.2606  0.6315  1.8360
 5994SOL    HW229616   3.743   3.066   8.428  0.6950 -0.6386 -0.2476
 5995SOL     OW29617   0.331   0.492   3.707 -0.4552 -0.1253  0.8382
 5995SOL    HW129618   0.408   0.549   3.702  0.9405 -1.9463  1.3547
 5995SOL    HW229619   0.360   0.429   3.773  2.1183 -0.5783 -0.6997
 5996SOL     OW29620   0.022   4.651  17.116  0.3765 -0.5593  0.0503
 5996SOL    HW129621   0.083   4.707  17.165  0.8393 -1.7802  0.8492
 5996SOL    HW229622   0.061   4.661  17.028  1.8159 -1.0051  0.6362
 5997SOL     OW29623   3.665   3.890   6.866  0.3544 -0.1982  0.2304
 5997SOL    HW129624   3.745   3.937   6.892 -0.4440  1.0446  0.4277
 5997SOL    HW229625   3.667   3.899   6.771  0.0003 -2.5971 -0.0084
 5998SOL     OW29626   2.967   4.561   2.695 -0.5391 -0.6664 -0.3151
 5998SOL    HW129627   3.024   4.518   2.758 -0.5972 -0.5767 -0.2012
 5998SOL    HW229628   2.899   4.605   2.746 -0.0118 -1.5765  1.1455
 5999SOL     OW29629   2.646   4.087   5.101  0.8005 -0.1397  0.5928
 5999SOL    HW129630   2.630   4.029   5.027 -0.1977  0.4477  0.3468
 5999SOL    HW229631   2.708   4.034   5.151  0.7341 -0.4144  0.3814
 6000SOL     OW29632   0.634   0.200   3.910  0.1637 -0.1142  0.1071
 6000SOL    HW129633   0.548   0.243   3.906  0.3312  0.3442  1.4465
 6000SOL    HW229634   0.671   0.238   3.990 -0.2657 -0.8548  0.6528
 6001SOL     OW29635   2.523   1.583  11.788  0.0046  0.4991 -0.0384
 6001SOL    HW129636   2.558   1.661  11.744 -2.5928  2.0587  0.6858
 6001SOL    HW229637   2.480   1.527  11.724  1.2330 -1.3132  0.7144
 6002SOL     OW29638   0.626   4.063   7.779  0.0584 -0.2016 -0.2603
 6002SOL    HW129639   0.717   4.038   7.797 -0.2093  0.1037  1.5060
 6002SOL    HW229640   0.581   4.041   7.860 -1.9744 -0.9573 -1.5903
 6003SOL     OW29641   0.385   0.700  16.502 -0.2691 -0.4336  0.0613
 6003SOL    HW129642   0.378   0.765  16.572  0.6599 -0.2875  0.0208
 6003SOL    HW229643   0.321   0.632  16.522 -1.0104  0.3529  0.3338
 6004SOL     OW29644   0.585   4.357   0.480 -0.5477  0.2755  0.2680
 6004SOL    HW129645   0.516   4.291   0.493 -0.2330  0.1754  1.3814
 6004SOL    HW229646   0.644   4.330   0.550 -0.8788  1.4115  0.9778
 6005SOL     OW29647   1.135   3.222   4.075 -0.2687  0.0719  0.3910
 6005SOL    HW129648   1.169   3.250   4.160  0.2122 -1.4044  0.6901
 6005SOL    HW229649   1.045   3.195   4.092 -0.1076 -0.0478  1.0512
 6006SOL     OW29650   2.976   4.546   4.691  0.1083 -0.2397  0.0092
 6006SOL    HW129651   2.901   4.506   4.735 -1.2436  2.7708  0.4449
 6006SOL    HW229652   3.013   4.595   4.765  2.6478 -0.1334 -1.3393
 6007SOL     OW29653   0.130   1.172  12.715  0.0795  0.3358 -0.3712
 6007SOL    HW129654   0.150   1.149  12.806  4.1123 -1.1924 -1.6703
 6007SOL    HW229655   0.043   1.134  12.706  0.0741 -0.2663  2.3330
 6008SOL     OW29656   3.733   3.732   6.545 -0.4210  0.4482 -0.2149
 6008SOL    HW129657   3.692   3.653   6.581  1.1490  0.3389  1.3470
 6008SOL    HW229658   3.669   3.795   6.579  0.7371  1.3909  0.2121
 6009SOL     OW29659   3.436   4.561  17.027 -0.7182 -0.3468  0.6175
 6009SOL    HW129660   3.528   4.539  17.041 -0.2633  0.4431 -1.2000
 6009SOL    HW229661   3.424   4.654  17.045 -0.6532  0.0992 -1.7063
 6010SOL     OW29662   2.988   2.983   9.394 -0.3648  0.1683  0.8219
 6010SOL    HW129663   2.898   2.997   9.364 -0.5416 -1.3353  0.6291
 6010SOL    HW229664   3.020   3.071   9.377 -1.1809  0.3839  0.3683
 6011SOL     OW29665   4.000   4.684   4.399  0.6700  0.1735  0.3464
 6011SOL    HW129666   4.035   4.605   4.441 -0.9726 -0.0725  1.2837
 6011SOL    HW229667   4.016   0.019   4.456  0.3930 -0.8507  1.7701
 6012SOL     OW29668   2.087   4.528   8.411  0.5594  0.1274  0.5092
 6012SOL    HW129669   2.093   4.609   8.461 -2.3711 -0.3815  1.6913
 6012SOL    HW229670   2.180   4.506   8.415  0.8678  1.2611 -0.5096
 6013SOL     OW29671   2.319   3.203   9.739 -0.1813 -0.5074  0.2476
 6013SOL    HW129672   2.342   3.140   9.670  0.3622 -1.1516  1.0272
 6013SOL    HW229673   2.239   3.157   9.763  0.5302 -0.8850  1.8619
 6014SOL     OW29674   3.895   0.173  14.863  0.0764  0.0743 -0.2380
 6014SOL    HW129675   3.957   0.237  14.899 -2.3515  2.2313  0.0420
 6014SOL    HW229676   3.877   0.114  14.937 -0.2017 -1.2158 -1.3416
 6015SOL     OW29677   1.663   1.621   5.341 -0.0736 -0.3250  0.0433
 6015SOL    HW129678   1.752   1.611   5.308  0.0517  0.4583  0.1433
 6015SOL    HW229679   1.612   1.574   5.274  0.2305  1.4264 -1.4087
 6016SOL     OW29680   2.881   1.971   8.549 -0.3002 -0.6799 -0.1367
 6016SOL    HW129681   2.842   1.885   8.565 -5.7650  1.6247 -1.1106
 6016SOL    HW229682   2.971   1.955   8.579 -0.1679  3.4351  1.6592
 6017SOL     OW29683   0.091   2.434   4.351 -0.1316 -0.0883 -0.1752
 6017SOL    HW129684   0.131   2.351   4.325 -2.0542 -0.4979 -1.8261
 6017SOL    HW229685   0.159   2.491   4.316  0.0520 -0.7628 -0.9162
 6018SOL     OW29686   1.236   3.670  17.535  0.6508  0.0680  0.0066
 6018SOL    HW129687   1.260   3.698  17.447  0.1478  0.0501 -0.1364
 6018SOL    HW229688   1.314   3.622  17.562  1.1553  0.7715 -0.2096
 6019SOL     OW29689   0.278   1.150   3.103 -0.4165  0.0527 -0.1001
 6019SOL    HW129690   0.370   1.177   3.100  0.2245 -1.8984  1.9528
 6019SOL    HW229691   0.283   1.115   3.192 -0.2284  0.3019 -0.0143
 6020SOL     OW29692   3.624   2.290   7.973  0.1507 -0.1769 -0.3072
 6020SOL    HW129693   3.562   2.353   8.010  1.9405  1.2613  0.2346
 6020SOL    HW229694   3.680   2.353   7.930  2.0020 -2.1708 -0.8237
 6021SOL     OW29695   3.349   4.500   4.152 -0.3659 -0.5906 -0.0948
 6021SOL    HW129696   3.307   4.584   4.131  1.4741  0.2060 -0.6055
 6021SOL    HW229697   3.388   4.477   4.067 -0.0352 -0.5949  0.0595
 6022SOL     OW29698   1.105   2.658   9.894  0.0183  0.3985  0.4048
 6022SOL    HW129699   1.167   2.643   9.966  1.6515 -1.7010 -1.4454
 6022SOL    HW229700   1.159   2.639   9.818 -0.4985 -3.5022  1.0050
 6023SOL     OW29701   1.240   1.432   2.269 -0.1589  0.0127 -0.3261
 6023SOL    HW129702   1.335   1.428   2.274 -0.1480 -2.1780 -2.1366
 6023SOL    HW229703   1.220   1.355   2.323 -0.6202 -0.2619 -0.8862
 6024SOL     OW29704   1.856   4.648  11.665 -0.0992 -0.0578  0.3695
 6024SOL    HW129705   1.943   4.612  11.646 -0.5973 -2.2965  2.2890
 6024SOL    HW229706   1.844   4.622  11.756  1.5411  1.0859  0.9267
 6025SOL     OW29707   1.183   1.178  14.178  0.1190  0.2725  0.0448
 6025SOL    HW129708   1.191   1.242  14.108  0.8902 -0.5668 -0.6369
 6025SOL    HW229709   1.189   1.244  14.248 -0.9793  0.3093  0.1130
 6026SOL     OW29710   2.453   0.726   4.891  0.1936  0.4276  0.8303
 6026SOL    HW129711   2.497   0.808   4.867  1.2357 -0.1048  0.9526
 6026SOL    HW229712   2.370   0.746   4.848 -0.1199 -0.7439  0.8929
 6027SOL     OW29713   0.138   2.874  13.183  0.3207  0.1371 -0.6216
 6027SOL    HW129714   0.132   2.967  13.160  0.1477  0.3575  0.2992
 6027SOL    HW229715   0.075   2.860  13.254 -1.1064 -0.5444 -2.0533
 6028SOL     OW29716   1.209   4.032   6.091  0.0315  0.4055 -0.2539
 6028SOL    HW129717   1.215   4.034   6.187 -2.4496  1.0496 -0.1072
 6028SOL    HW229718   1.255   3.950   6.072  1.2609  0.6883  1.5616
 6029SOL     OW29719   3.245   1.413   8.171 -0.1449 -0.1037  0.0447
 6029SOL    HW129720   3.244   1.484   8.235  0.1432 -0.1602  0.1138
 6029SOL    HW229721   3.173   1.436   8.113 -0.5406 -0.0822  0.5461
 6030SOL     OW29722   4.162   2.524   8.559  0.1760  0.2154 -0.8535
 6030SOL    HW129723   4.158   2.526   8.654  2.8449  0.2143 -0.7350
 6030SOL    HW229724   4.088   2.472   8.527 -0.3385  0.0374  0.6630
 6031SOL     OW29725   1.006   1.337   5.634 -0.0724 -0.1809 -0.5791
 6031SOL    HW129726   0.961   1.356   5.717 -0.0430  1.2306 -0.8741
 6031SOL    HW229727   1.076   1.402   5.638  1.8960 -2.4867  2.7243
 6032SOL     OW29728   3.408   4.095   9.086 -0.0465 -0.2493 -0.2760
 6032SOL    HW129729   3.418   4.019   9.030 -1.7959 -0.7924  0.1537
 6032SOL    HW229730   3.440   4.172   9.038 -0.2907 -1.2862 -2.0923
 6033SOL     OW29731   1.183   3.672   4.713 -0.0088  0.6050  0.9891
 6033SOL    HW129732   1.215   3.705   4.797  2.2921 -0.5290  0.5390
 6033SOL    HW229733   1.109   3.728   4.689  0.5861  1.4056  1.0511
 6034SOL     OW29734   2.806   1.844   5.852 -0.1271 -0.1820  0.2029
 6034SOL    HW129735   2.844   1.773   5.800 -1.0477  0.3401 -1.1760
 6034SOL    HW229736   2.749   1.876   5.782 -0.8162 -1.6392  0.0893
 6035SOL     OW29737   0.427   1.529   7.844 -0.3711 -0.3465 -0.0212
 6035SOL    HW129738   0.352   1.471   7.832 -0.5555  0.1240 -1.1165
 6035SOL    HW229739   0.462   1.492   7.925 -0.4522 -0.1291  0.1148
 6036SOL     OW29740   2.569   3.944   4.853 -0.0311  0.5062 -0.2468
 6036SOL    HW129741   2.603   3.957   4.764 -0.5540  2.4908 -0.1488
 6036SOL    HW229742   2.480   3.917   4.832 -0.7511  1.8928  1.0540
 6037SOL     OW29743   3.292   1.702   3.644 -0.3138 -0.1008 -0.0238
 6037SOL    HW129744   3.311   1.721   3.552 -0.4898  0.9615  0.1587
 6037SOL    HW229745   3.247   1.619   3.628  0.0697 -0.6272  1.6311
 6038SOL     OW29746   3.404   0.453   7.683 -0.7214 -0.1206  0.1937
 6038SOL    HW129747   3.396   0.358   7.676 -0.0347  0.0352 -2.9297
 6038SOL    HW229748   3.465   0.473   7.612  1.9525  0.6567  2.7188
 6039SOL     OW29749   1.058   2.480   0.690  0.6513 -0.0539 -0.1244
 6039SOL    HW129750   0.976   2.475   0.642  0.9345  0.7744 -0.6888
 6039SOL    HW229751   1.050   2.557   0.746 -0.8997  0.4665 -1.0707
 6040SOL     OW29752   2.058   2.620  12.934  0.2422 -0.1679  0.0370
 6040SOL    HW129753   2.024   2.654  12.851  0.0886  1.5150  0.8090
 6040SOL    HW229754   2.088   2.699  12.978  2.6385  0.1756 -2.1518
 6041SOL     OW29755   4.491   4.345  14.093  0.1578  0.3199  0.1522
 6041SOL    HW129756   4.526   4.417  14.040 -1.7974  0.3356 -1.0930
 6041SOL    HW229757   4.562   4.280  14.094 -1.7170 -1.7023  0.3955
 6042SOL     OW29758   2.121   0.503   8.481  0.2721 -0.2788 -0.0200
 6042SOL    HW129759   2.217   0.501   8.478  0.3460  2.6662  0.9549
 6042SOL    HW229760   2.114   0.598   8.481  0.8751 -0.2369  1.1390
 6043SOL     OW29761   4.528   2.325   7.143 -0.0833  0.3727  0.3121
 6043SOL    HW129762   4.559   2.240   7.110  1.8274  0.9389  0.6481
 6043SOL    HW229763   4.522   2.310   7.238  0.9893  0.1851  0.3446
 6044SOL     OW29764   3.682   2.961   6.435  0.2061  0.2404  0.3826
 6044SOL    HW129765   3.762   2.918   6.463 -1.1273 -2.1728  0.4593
 6044SOL    HW229766   3.641   2.971   6.521  1.8778  2.4890  0.9085
 6045SOL     OW29767   0.648   2.026   7.079  0.2646 -0.2779 -0.0620
 6045SOL    HW129768   0.637   2.089   7.150  0.6596 -1.0513  0.6828
 6045SOL    HW229769   0.728   2.052   7.034 -0.1418  0.1230 -0.5673
 6046SOL     OW29770   0.530   3.985   1.431  0.4573 -0.2179  0.4210
 6046SOL    HW129771   0.564   4.044   1.364 -1.2097  2.1141  1.6277
 6046SOL    HW229772   0.453   4.035   1.458  1.0383  1.1434 -0.4704
 6047SOL     OW29773   0.435   0.495  14.289  0.0059 -0.2803  0.0093
 6047SOL    HW129774   0.477   0.415  14.321  1.6025  0.2510 -0.7409
 6047SOL    HW229775   0.509   0.555  14.285  0.9623 -1.4239  0.5234
 6048SOL     OW29776   1.632   3.741   6.818 -0.2322 -0.2919  0.4251
 6048SOL    HW129777   1.552   3.716   6.863  0.4957 -1.1760  1.2122
 6048SOL    HW229778   1.602   3.745   6.727  1.6658 -2.2372 -0.2911
 6049SOL     OW29779   2.622   0.281   7.775 -0.1095  0.1012 -0.5709
 6049SOL    HW129780   2.557   0.294   7.844  0.2498  0.6473 -0.3335
 6049SOL    HW229781   2.693   0.257   7.835  0.2032 -0.6452 -1.2513
 6050SOL     OW29782   0.067   0.613  14.528 -0.1509  0.0056 -0.0827
 6050SOL    HW129783   0.008   0.675  14.484 -2.7495 -0.4076  2.8545
 6050SOL    HW229784   0.067   0.549  14.457  0.7031  1.6459 -1.5750
 6051SOL     OW29785   0.767   2.973  17.476  0.7827  0.5775 -0.1897
 6051SOL    HW129786   0.695   2.911  17.480  1.7579 -0.5764 -0.7338
 6051SOL    HW229787   0.716   3.034  17.422  0.9015  1.0283  0.2117
 6052SOL     OW29788   2.269   0.635   8.828  0.0384 -0.7301 -0.4182
 6052SOL    HW129789   2.359   0.666   8.842 -0.9056  1.0022  1.6079
 6052SOL    HW229790   2.218   0.712   8.802  2.0042  0.9116  0.5827
 6053SOL     OW29791   4.418   3.337   7.653  0.6506 -0.2559  0.0663
 6053SOL    HW129792   4.473   3.390   7.596  0.7634 -0.6165 -0.1632
 6053SOL    HW229793   4.414   3.251   7.611 -0.7952  0.7805 -1.9462
 6054SOL     OW29794   2.990   3.354   5.179  0.0293 -0.2790 -0.0915
 6054SOL    HW129795   3.083   3.340   5.197  0.0008 -1.0316 -0.5312
 6054SOL    HW229796   2.998   3.352   5.084 -2.1876 -0.4472 -0.2854
 6055SOL     OW29797   2.116   2.154   9.076  0.2071 -0.1840 -0.0925
 6055SOL    HW129798   2.035   2.149   9.126 -0.6126  2.2261 -1.1789
 6055SOL    HW229799   2.086   2.161   8.985  3.1385  1.3772 -0.9404
 6056SOL     OW29800   2.451   2.458  14.939  0.6041  0.4515 -0.2112
 6056SOL    HW129801   2.488   2.516  14.872 -0.2934  1.9425  0.5818
 6056SOL    HW229802   2.507   2.385  14.912  0.0543 -0.3244  0.7503
 6057SOL     OW29803   1.530   0.313   4.223  0.5978 -0.6343 -0.0561
 6057SOL    HW129804   1.452   0.360   4.253 -0.0743 -1.3693 -0.6513
 6057SOL    HW229805   1.517   0.226   4.262 -1.0158 -0.1606  0.4804
 6058SOL     OW29806   2.053   2.213  13.058 -0.5848 -0.1185 -0.4141
 6058SOL    HW129807   2.000   2.134  13.060  0.3367 -0.6257  3.0646
 6058SOL    HW229808   2.024   2.267  13.131  0.9931 -1.3277  1.1037
 6059SOL     OW29809   3.153   0.536  13.359 -0.0024  0.1658  0.4084
 6059SOL    HW129810   3.073   0.527  13.308 -0.1146  1.5140  0.3374
 6059SOL    HW229811   3.124   0.470  13.422  0.0923 -0.6857 -0.4443
 6060SOL     OW29812   1.551   1.490   7.476  0.3832  0.5335 -0.0659
 6060SOL    HW129813   1.457   1.509   7.483  0.0995  0.3354 -3.3866
 6060SOL    HW229814   1.572   1.508   7.384 -2.9170  0.7031 -0.7766
 6061SOL     OW29815   1.435   3.197  16.384 -0.0119 -0.2457  0.0646
 6061SOL    HW129816   1.501   3.152  16.331  0.1103  1.6242 -1.3827
 6061SOL    HW229817   1.477   3.208  16.469  2.0764  0.9757 -1.1322
 6062SOL     OW29818   4.456   3.796  10.782  0.1895  0.1320 -0.0719
 6062SOL    HW129819   4.476   3.832  10.868 -0.8225  1.4295 -0.3836
 6062SOL    HW229820   4.522   3.845  10.731 -0.8611  0.0168 -1.5496
 6063SOL     OW29821   4.255   1.896  17.508  0.2494 -0.2595  0.6632
 6063SOL    HW129822   4.265   1.989  17.527 -0.4850 -0.2787  1.1412
 6063SOL    HW229823   4.207   1.898  17.426 -0.1717  2.9193  0.9640
 6064SOL     OW29824   3.910   4.191  12.234  0.6636 -0.3315  0.0093
 6064SOL    HW129825   4.003   4.189  12.257  0.5273 -3.5045  0.2342
 6064SOL    HW229826   3.922   4.168  12.142 -1.1431  0.9071 -0.5332
 6065SOL     OW29827   0.128   3.766   5.403  0.3002 -0.3005  0.3197
 6065SOL    HW129828   0.149   3.677   5.433  0.5313  0.0524  1.2045
 6065SOL    HW229829   0.067   3.749   5.332  0.5929 -1.2624  0.2919
 6066SOL     OW29830   3.108   1.325   8.554 -0.8344  0.0151 -0.6712
 6066SOL    HW129831   3.153   1.253   8.509 -2.9418 -2.5968  1.3967
 6066SOL    HW229832   3.166   1.342   8.628 -0.7373  0.8410 -0.9403
 6067SOL     OW29833   1.218   4.243   2.709 -0.1979  0.0895 -0.0933
 6067SOL    HW129834   1.266   4.312   2.663  2.0040 -0.5449  1.2686
 6067SOL    HW229835   1.245   4.244   2.801  0.7150 -0.2296 -0.3568
 6068SOL     OW29836   3.486   2.265   4.291  0.4000  0.2107  0.1800
 6068SOL    HW129837   3.422   2.315   4.241 -0.4298 -0.7558  0.2764
 6068SOL    HW229838   3.565   2.302   4.251 -0.1880  0.7720 -0.4424
 6069SOL     OW29839   4.649   2.747   8.165 -0.5118  0.1354  0.3911
 6069SOL    HW129840   4.641   2.651   8.164 -2.2379  0.2943 -0.0256
 6069SOL    HW229841   4.701   2.743   8.085  0.7312  0.7606  1.1728
 6070SOL     OW29842   0.740   1.824  10.182  0.2098 -0.0235 -0.4339
 6070SOL    HW129843   0.755   1.771  10.260  1.1387 -2.9688 -2.6363
 6070SOL    HW229844   0.809   1.798  10.121 -0.6083 -1.0753 -0.9165
 6071SOL     OW29845   1.149   0.960   2.521 -0.0510  0.1513  0.0585
 6071SOL    HW129846   1.175   1.026   2.457 -0.6156  0.3786  0.0671
 6071SOL    HW229847   1.229   0.908   2.517  1.2769  2.1210  0.7729
 6072SOL     OW29848   3.804   0.562  16.348 -0.1329  0.2947 -0.2784
 6072SOL    HW129849   3.815   0.564  16.253 -0.0384  3.2193 -0.2133
 6072SOL    HW229850   3.881   0.515  16.379  1.1051  1.1930 -2.0017
 6073SOL     OW29851   1.798   0.180   2.547 -0.8111  0.3188  0.0446
 6073SOL    HW129852   1.886   0.215   2.555 -0.6038 -0.3637  0.8884
 6073SOL    HW229853   1.747   0.216   2.620 -1.9267 -0.8489 -0.1421
 6074SOL     OW29854   2.715   0.203   6.795  0.3505 -0.0181  0.7628
 6074SOL    HW129855   2.641   0.143   6.803  2.3029 -2.3049  1.7003
 6074SOL    HW229856   2.682   0.263   6.728  0.8606 -2.6425 -1.8398
 6075SOL     OW29857   2.578   3.890   5.903  0.5754  0.5738  0.1351
 6075SOL    HW129858   2.512   3.859   5.966 -0.4658 -0.5994 -1.5235
 6075SOL    HW229859   2.528   3.924   5.828  0.6566 -0.8775 -0.5794
 6076SOL     OW29860   1.907   0.440   9.869 -0.4302  0.0943 -0.1052
 6076SOL    HW129861   1.840   0.507   9.884 -0.3183  0.7493 -2.4350
 6076SOL    HW229862   1.946   0.478   9.790 -1.4208  0.2990 -0.5084
 6077SOL     OW29863   3.822   3.627  13.316  0.0917  0.7166 -0.0520
 6077SOL    HW129864   3.838   3.668  13.231 -3.0578  1.2948 -0.3705
 6077SOL    HW229865   3.903   3.576  13.327  0.9320  1.7863 -1.3425
 6078SOL     OW29866   2.056   1.629   8.421 -0.1670 -0.3769 -0.1659
 6078SOL    HW129867   2.092   1.544   8.448 -1.5205 -0.8849  0.0456
 6078SOL    HW229868   1.982   1.643   8.480  0.1082 -0.5450  0.2192
 6079SOL     OW29869   3.077   2.738   6.172 -0.3197 -0.2356  0.5955
 6079SOL    HW129870   3.108   2.797   6.240 -2.4264  0.9655  0.5213
 6079SOL    HW229871   3.120   2.660   6.206 -0.0906 -0.0711  0.6787
 6080SOL     OW29872   2.304   1.819   8.109 -0.6071 -0.3163 -0.0231
 6080SOL    HW129873   2.230   1.879   8.110 -1.0671 -0.9145  1.5961
 6080SOL    HW229874   2.272   1.748   8.053 -0.8873 -0.3894  0.2288
 6081SOL     OW29875   0.383   1.278   0.174 -0.3670  0.0251  0.1336
 6081SOL    HW129876   0.348   1.253   0.259 -1.2407  3.8780  0.9046
 6081SOL    HW229877   0.387   1.199   0.121  0.8033 -0.7075  1.3274
 6082SOL     OW29878   2.093   4.414   0.775  0.1717  0.1851  0.1462
 6082SOL    HW129879   2.029   4.432   0.706  0.3595 -0.7397 -0.2725
 6082SOL    HW229880   2.168   4.394   0.718 -0.3582  0.0676 -0.5095
 6083SOL     OW29881   3.686   0.419   0.482  0.0693 -0.1806 -0.0524
 6083SOL    HW129882   3.747   0.415   0.556 -0.0563 -0.5988  0.0297
 6083SOL    HW229883   3.752   0.391   0.418 -0.1643 -1.5729  0.3056
 6084SOL     OW29884   2.702   4.580   1.678 -0.1035  0.4279  0.4700
 6084SOL    HW129885   2.750   4.627   1.746  0.0196 -1.4467  1.6750
 6084SOL    HW229886   2.611   4.605   1.693 -0.1599 -0.1485  1.0624
 6085SOL     OW29887   1.024   1.341   3.517  0.4713 -0.4205 -0.1624
 6085SOL    HW129888   1.030   1.330   3.611  1.0865  3.0540  0.2081
 6085SOL    HW229889   0.987   1.428   3.500 -1.1126 -0.8345  1.3036
 6086SOL     OW29890   3.152   4.345   7.454  0.1301 -0.4684  0.0214
 6086SOL    HW129891   3.098   4.422   7.466  1.5845  0.6559 -0.6245
 6086SOL    HW229892   3.233   4.367   7.499  0.7923 -1.1018 -0.8452
 6087SOL     OW29893   0.558   0.398  14.979 -0.3116 -0.1108  0.6291
 6087SOL    HW129894   0.546   0.485  15.017 -0.6295  0.2338 -0.2575
 6087SOL    HW229895   0.614   0.425  14.906 -0.1747 -0.4888  0.5943
 6088SOL     OW29896   4.066   4.591   6.012 -0.4351 -0.0197 -0.1797
 6088SOL    HW129897   4.089   4.660   6.075  1.0589  0.4368 -1.2219
 6088SOL    HW229898   4.143   4.581   5.956 -0.8379  2.0050 -1.1086
 6089SOL     OW29899   4.739   0.706   5.296 -0.4193 -0.4590  0.2949
 6089SOL    HW129900   4.672   0.638   5.290 -0.7613 -0.0162 -1.1182
 6089SOL    HW229901   4.718   0.762   5.370  0.9413  0.6120 -0.1309
 6090SOL     OW29902   3.116   0.366   5.392 -0.0849  0.4302  0.3738
 6090SOL    HW129903   3.056   0.420   5.340 -0.5068  1.9612  2.4135
 6090SOL    HW229904   3.059   0.354   5.468 -0.3006  1.7515  0.4353
 6091SOL     OW29905   3.834   4.321  12.452  0.8666 -0.0313  0.5222
 6091SOL    HW129906   3.800   4.405  12.421 -0.7101 -1.0215 -0.4342
 6091SOL    HW229907   3.859   4.277  12.371 -2.8199  1.7208 -1.5848
 6092SOL     OW29908   1.322   0.179   1.271 -0.6628  0.0290 -0.4201
 6092SOL    HW129909   1.259   0.111   1.297  0.7739 -1.4817 -0.9299
 6092SOL    HW229910   1.359   0.136   1.193 -1.6010 -0.1627 -0.7652
 6093SOL     OW29911   0.202   4.268   9.504  0.0122  0.2709 -0.1142
 6093SOL    HW129912   0.109   4.288   9.508  0.1354  0.3660  2.3034
 6093SOL    HW229913   0.241   4.352   9.481  0.1627  0.2571  0.0850
 6094SOL     OW29914   2.510   4.256   4.244  0.2256 -0.1070  0.2383
 6094SOL    HW129915   2.429   4.277   4.199  0.1429 -1.0261 -0.0486
 6094SOL    HW229916   2.499   4.171   4.286 -2.5660  0.5842  0.8540
 6095SOL     OW29917   3.534   3.809   2.586 -0.5737 -0.6920 -0.1050
 6095SOL    HW129918   3.568   3.898   2.590 -0.6394 -0.6475 -0.6113
 6095SOL    HW229919   3.610   3.759   2.617  0.2606 -0.6457 -2.0613
 6096SOL     OW29920   0.321   1.566  17.029  0.9267  0.4566 -0.3540
 6096SOL    HW129921   0.262   1.498  17.064  1.2690  1.0468  1.3892
 6096SOL    HW229922   0.293   1.565  16.938 -2.9324  1.1573  0.8159
 6097SOL     OW29923   1.712   1.667   2.101  0.0344  0.4283 -0.3166
 6097SOL    HW129924   1.783   1.721   2.134  1.3122 -0.8218 -1.0015
 6097SOL    HW229925   1.756   1.589   2.067 -0.9376  0.2204 -1.1268
 6098SOL     OW29926   2.201   0.972   6.196 -0.1783 -0.1962 -0.5550
 6098SOL    HW129927   2.213   1.045   6.257 -2.3854  0.6359 -1.1294
 6098SOL    HW229928   2.154   0.907   6.248 -0.3697  0.7706  0.4783
 6099SOL     OW29929   1.600   0.806  14.707  0.1586 -0.1098  0.2260
 6099SOL    HW129930   1.653   0.792  14.786 -0.3959 -1.9913  0.2693
 6099SOL    HW229931   1.632   0.892  14.680 -0.1127 -0.8619 -2.4719
 6100SOL     OW29932   3.372   0.571   6.769  0.1768  0.3421  0.2994
 6100SOL    HW129933   3.302   0.595   6.831 -0.2285  0.3592 -0.1602
 6100SOL    HW229934   3.365   0.632   6.695  0.8660 -0.6389 -0.5606
 6101SOL     OW29935   2.205   2.525   6.409  0.3651 -0.9074  0.6535
 6101SOL    HW129936   2.144   2.577   6.356  1.2323 -0.8756 -0.3211
 6101SOL    HW229937   2.171   2.550   6.494 -1.2614  1.5018 -0.7031
 6102SOL     OW29938   3.285   1.342   5.362 -0.1282 -0.2798 -0.6456
 6102SOL    HW129939   3.252   1.378   5.445  1.5919  1.1243 -0.5670
 6102SOL    HW229940   3.275   1.248   5.381 -0.1030  0.2005  1.7565
 6103SOL     OW29941   3.187   2.187  16.206 -0.2231 -0.2131  0.3444
 6103SOL    HW129942   3.155   2.199  16.117  0.5749  1.0449  0.2243
 6103SOL    HW229943   3.250   2.260  16.212 -1.6863  1.1388 -0.6870
 6104SOL     OW29944   2.037   1.453   8.759  0.4133 -0.3506 -0.4848
 6104SOL    HW129945   1.943   1.458   8.746  0.5136  3.0940  0.0972
 6104SOL    HW229946   2.044   1.420   8.849 -1.2223  2.1553  0.5428
 6105SOL     OW29947   1.170   4.382   6.479 -0.6592 -0.1569  0.0821
 6105SOL    HW129948   1.245   4.426   6.441 -0.4668 -1.9408 -1.5957
 6105SOL    HW229949   1.103   4.450   6.475 -0.3647  0.1453  0.2928
 6106SOL     OW29950   1.301   2.182  17.410  0.1108 -0.0972  0.3902
 6106SOL    HW129951   1.296   2.177  17.314  0.9099  0.3539  0.3209
 6106SOL    HW229952   1.326   2.090  17.418  0.5219  0.1780  2.2696
 6107SOL     OW29953   2.626   4.308   0.512 -0.0307  0.2287  0.2196
 6107SOL    HW129954   2.705   4.352   0.482 -0.1867  0.4298  0.1086
 6107SOL    HW229955   2.566   4.331   0.441 -0.5318  0.1532  0.6170
 6108SOL     OW29956   2.054   0.037   2.377  0.4029 -0.3864  0.6760
 6108SOL    HW129957   2.060   0.126   2.411 -0.0520 -0.1661  0.1817
 6108SOL    HW229958   2.100   0.036   2.294 -2.9414  2.8494 -1.2027
 6109SOL     OW29959   4.342   4.597   5.924  0.2059  0.3066 -0.4095
 6109SOL    HW129960   4.320   4.538   5.851 -2.0966 -0.1995  0.6997
 6109SOL    HW229961   4.372   4.540   5.995 -0.0081  1.2218  0.4057
 6110SOL     OW29962   3.643   0.097   3.511  0.3677 -0.0000  0.5122
 6110SOL    HW129963   3.636   0.006   3.482  0.7220 -0.0188  0.4916
 6110SOL    HW229964   3.600   0.085   3.596 -2.0089  0.7015 -0.5952
 6111SOL     OW29965   3.791   3.462   1.225  0.2804 -0.2051 -0.0174
 6111SOL    HW129966   3.868   3.459   1.282  0.2077  1.4314  0.1670
 6111SOL    HW229967   3.802   3.392   1.161 -1.9558 -0.9712  0.4388
 6112SOL     OW29968   3.108   4.494   8.732  0.3070  0.3180 -0.6517
 6112SOL    HW129969   3.195   4.455   8.726 -0.0612 -0.4998 -0.6372
 6112SOL    HW229970   3.121   4.557   8.803  1.2113 -2.8675  1.9799
 6113SOL     OW29971   3.618   1.531  12.274 -0.5490 -0.2769  0.1353
 6113SOL    HW129972   3.669   1.563  12.349  1.3910 -1.3141 -0.7234
 6113SOL    HW229973   3.647   1.587  12.201 -1.9635 -0.1160 -0.2983
 6114SOL     OW29974   3.731   1.461   7.138  0.1075 -0.0679  0.0068
 6114SOL    HW129975   3.784   1.397   7.091 -1.1299 -1.6172  0.7456
 6114SOL    HW229976   3.727   1.532   7.074 -1.3614 -1.0107 -0.9571
 6115SOL     OW29977   1.406   4.586   6.743  0.3785  0.1219  0.7604
 6115SOL    HW129978   1.499   4.591   6.721  0.5301 -1.0038  1.1151
 6115SOL    HW229979   1.413   4.509   6.799 -1.5846  0.5866  1.6487
 6116SOL     OW29980   2.075   2.155   3.037 -0.0803 -0.2004 -0.0827
 6116SOL    HW129981   2.111   2.076   2.997  1.2380 -0.5336  1.7389
 6116SOL    HW229982   2.085   2.209   2.959 -0.0998 -0.5346 -0.3134
 6117SOL     OW29983   3.534   2.318   8.670 -0.0420 -0.6043 -0.3029
 6117SOL    HW129984   3.620   2.323   8.712 -0.3253 -0.2006  0.2214
 6117SOL    HW229985   3.486   2.363   8.739  0.5714 -0.4053 -0.0029
 6118SOL     OW29986   2.875   3.355   5.584  0.1116  0.5648  0.2016
 6118SOL    HW129987   2.874   3.288   5.515  0.6477 -0.1882  0.9231
 6118SOL    HW229988   2.907   3.304   5.658 -3.3948 -0.2205  1.2089
 6119SOL     OW29989   3.907   4.247  10.842 -0.2572  0.2227 -0.4457
 6119SOL    HW129990   3.811   4.252  10.847 -0.3571 -0.8998 -1.2586
 6119SOL    HW229991   3.910   4.177  10.777  0.1640  0.4668 -0.6840
 6120SOL     OW29992   3.544   4.234   3.505 -0.3458 -0.0582  0.3602
 6120SOL    HW129993   3.624   4.251   3.554 -0.4879  2.3882 -0.2274
 6120SOL    HW229994   3.562   4.152   3.460 -1.8164  0.2972 -0.8582
 6121SOL     OW29995   1.472   2.637   6.218  0.4079 -0.5229  0.4063
 6121SOL    HW129996   1.544   2.694   6.245 -0.5764  0.4066  1.1074
 6121SOL    HW229997   1.414   2.707   6.186  1.1337 -0.2918 -0.4127
 6122SOL     OW29998   2.371   4.142   5.122 -0.4467 -0.2146  0.0023
 6122SOL    HW129999   2.457   4.104   5.142 -0.0505 -0.2357 -1.7015
 6122SOL    HW230000   2.385   4.201   5.048  1.7907 -2.6502 -1.5111
 6123SOL     OW30001   2.285   4.680   4.953  0.3737 -0.1704  0.5234
 6123SOL    HW130002   2.275   0.035   4.946 -0.5862 -0.4098 -1.3939
 6123SOL    HW230003   2.343   4.659   4.880 -1.0972 -0.8154 -0.4677
 6124SOL     OW30004   3.518   2.233   5.197  0.2158 -0.0480 -0.2891
 6124SOL    HW130005   3.450   2.184   5.151 -0.1666  2.1229 -2.0571
 6124SOL    HW230006   3.592   2.209   5.141  0.3851  1.6906 -0.8109
 6125SOL     OW30007   2.580   3.925   9.165  0.0526 -0.0449 -0.3032
 6125SOL    HW130008   2.529   3.931   9.084  0.9840  2.3516 -0.6952
 6125SOL    HW230009   2.507   3.887   9.214 -2.6609  2.4574 -2.4047
 6126SOL     OW30010   4.146   0.859  14.140  0.3056  0.2095  0.5677
 6126SOL    HW130011   4.082   0.802  14.183 -0.6321  0.9710  0.1683
 6126SOL    HW230012   4.113   0.848  14.051  0.7837 -1.9695  0.6493
 6127SOL     OW30013   1.938   4.683   4.922 -0.1168 -0.0670  0.6558
 6127SOL    HW130014   1.962   4.611   4.980  0.1713  0.5158  1.2514
 6127SOL    HW230015   1.989   4.666   4.843 -2.1271 -2.5537 -0.1030
 6128SOL     OW30016   2.403   0.555  16.631 -0.6130  0.1973  0.7105
 6128SOL    HW130017   2.369   0.514  16.711  0.1531 -0.0793  0.8902
 6128SOL    HW230018   2.482   0.502  16.619  1.2709  3.1839 -0.0899
 6129SOL     OW30019   4.652   3.832   7.906 -0.0126 -0.2735 -0.3095
 6129SOL    HW130020   4.733   3.858   7.951 -0.6396  0.2785  0.4966
 6129SOL    HW230021   4.595   3.801   7.976  0.9980  1.1595  1.1649
 6130SOL     OW30022   3.311   2.647   9.617  0.2949  0.2638  0.7814
 6130SOL    HW130023   3.256   2.715   9.656 -2.8840 -1.3972 -0.8154
 6130SOL    HW230024   3.394   2.684   9.648  0.1998  2.4222 -1.4999
 6131SOL     OW30025   3.794   2.569  15.117  0.4831 -0.6412  0.1138
 6131SOL    HW130026   3.819   2.630  15.186 -0.3253 -1.0251  0.7571
 6131SOL    HW230027   3.880   2.555  15.078  0.7023  1.4995 -0.1632
 6132SOL     OW30028   0.345   1.651   9.830  0.0570  0.0727 -0.2885
 6132SOL    HW130029   0.309   1.630   9.916  2.3894 -1.4526  0.3112
 6132SOL    HW230030   0.262   1.677   9.790  0.9893  2.9068 -0.3743
 6133SOL     OW30031   0.913   1.646   6.568 -0.1639 -0.5598 -0.3777
 6133SOL    HW130032   0.926   1.649   6.663  0.4449  1.9310 -0.5453
 6133SOL    HW230033   0.984   1.587   6.544 -0.0143 -0.1432 -0.9587
 6134SOL     OW30034   0.811   3.249  13.430 -0.2555 -0.6860 -0.4854
 6134SOL    HW130035   0.811   3.341  13.455 -0.2607 -0.5308 -1.0812
 6134SOL    HW230036   0.883   3.241  13.367 -0.2081  2.1733 -0.7618
 6135SOL     OW30037   0.862   1.937   3.165 -0.1873 -0.5828  0.2454
 6135SOL    HW130038   0.860   2.027   3.133 -0.8971 -0.5417  0.3907
 6135SOL    HW230039   0.805   1.903   3.096 -0.7225 -2.7854  1.7504
 6136SOL     OW30040   1.673   3.267  16.915 -0.3511  0.1931 -0.3276
 6136SOL    HW130041   1.751   3.245  16.966  0.0544 -0.0194 -1.0280
 6136SOL    HW230042   1.600   3.215  16.949  1.8168 -1.2577  2.1248
 6137SOL     OW30043   4.176   0.118   2.455  0.2736  0.6472  0.2147
 6137SOL    HW130044   4.189   0.135   2.362 -0.6514 -0.0761 -0.0361
 6137SOL    HW230045   4.181   0.203   2.500 -0.2001  0.4236  0.6923
 6138SOL     OW30046   3.805   1.983   6.217 -0.4541 -0.0700 -0.0194
 6138SOL    HW130047   3.802   2.071   6.256 -1.8265 -0.8822  1.7313
 6138SOL    HW230048   3.712   1.975   6.194 -0.5589  0.8125  0.1022
 6139SOL     OW30049   1.869   2.425   5.391  0.1119  0.3691 -0.3909
 6139SOL    HW130050   1.950   2.375   5.390  1.1791  2.1231 -1.2688
 6139SOL    HW230051   1.859   2.446   5.298 -1.9045 -1.0739 -0.5215
 6140SOL     OW30052   2.235   0.149  10.548 -0.8619 -0.1353  0.0801
 6140SOL    HW130053   2.162   0.202  10.581 -0.3202 -0.9453  2.6048
 6140SOL    HW230054   2.313   0.199  10.571 -0.9153  0.1830 -0.4434
 6141SOL     OW30055   3.541   4.516   8.398 -0.0928  0.2228  0.1285
 6141SOL    HW130056   3.526   4.511   8.304 -0.6039 -0.9228  0.2694
 6141SOL    HW230057   3.636   4.520   8.397 -0.2000  2.9325 -0.3257
 6142SOL     OW30058   4.034   2.272   8.805  0.5357  0.0081 -0.0135
 6142SOL    HW130059   4.118   2.314   8.822 -0.0252  1.1115  0.0116
 6142SOL    HW230060   3.975   2.347   8.808  1.5289  0.7831  0.1888
 6143SOL     OW30061   2.297   3.160  15.217  0.2313 -0.3352  0.0399
 6143SOL    HW130062   2.317   3.099  15.146 -0.2117  1.5694 -1.7089
 6143SOL    HW230063   2.204   3.145  15.235  0.6276  0.0954  2.4434
 6144SOL     OW30064   3.855   0.109  17.606  0.1467  0.2618 -0.2235
 6144SOL    HW130065   3.793   0.131  17.674 -1.9792  3.4825 -3.2193
 6144SOL    HW230066   3.871   0.199  17.577  1.3517  1.1805  3.3143
 6145SOL     OW30067   3.464   1.890   2.951 -0.2431 -0.2582  0.2287
 6145SOL    HW130068   3.449   1.826   2.881  0.9393 -1.0643  0.7100
 6145SOL    HW230069   3.391   1.886   3.012 -0.2435 -1.0936  0.1686
 6146SOL     OW30070   3.380   2.827   6.989  0.3261  0.1274  0.1725
 6146SOL    HW130071   3.292   2.842   7.022 -0.2060  0.2206 -1.2874
 6146SOL    HW230072   3.370   2.770   6.913  0.0679  1.1163 -0.5459
 6147SOL     OW30073   3.870   2.269   5.758  0.3103 -0.1992 -0.7862
 6147SOL    HW130074   3.897   2.204   5.694 -0.9657 -0.2009 -1.3220
 6147SOL    HW230075   3.873   2.216   5.838 -0.1084 -2.1124 -2.0484
 6148SOL     OW30076   0.555   3.446   4.529  0.2355  0.1593  0.2508
 6148SOL    HW130077   0.643   3.475   4.549  0.3355 -0.1366  0.2329
 6148SOL    HW230078   0.539   3.496   4.449  1.1309  0.1031  0.0489
 6149SOL     OW30079   4.436   1.603   4.860  0.2534  0.0067  0.7230
 6149SOL    HW130080   4.392   1.548   4.796  1.9778  1.2673 -1.5110
 6149SOL    HW230081   4.525   1.601   4.827 -0.7265  0.6080 -1.9389
 6150SOL     OW30082   1.820   4.503  12.509 -0.0514  0.4391 -0.2386
 6150SOL    HW130083   1.843   4.494  12.602  0.1698 -0.4878 -0.3882
 6150SOL    HW230084   1.903   4.480  12.467  0.0848  0.8582 -0.1992
 6151SOL     OW30085   2.702   1.354   3.122 -0.1310  0.1196  0.2351
 6151SOL    HW130086   2.748   1.271   3.119  1.1543  0.9371 -2.6176
 6151SOL    HW230087   2.763   1.408   3.072  2.5404 -1.3278  1.9502
 6152SOL     OW30088   1.353   0.968   8.300 -0.1642  0.1919  0.1496
 6152SOL    HW130089   1.268   0.968   8.346  1.3212  1.5379  2.8990
 6152SOL    HW230090   1.385   1.058   8.302 -0.6462  0.3679 -0.0782
 6153SOL     OW30091   2.020   3.264   9.780 -0.3654 -0.3443  0.1197
 6153SOL    HW130092   2.020   3.354   9.749  0.8475 -0.4009 -0.0450
 6153SOL    HW230093   2.047   3.267   9.872  1.4133 -2.6900 -0.3214
 6154SOL     OW30094   4.501   3.180   8.721  0.1642 -0.6034 -0.7447
 6154SOL    HW130095   4.522   3.106   8.778  0.4205 -0.7447 -1.0205
 6154SOL    HW230096   4.499   3.254   8.781 -3.0389 -0.7671 -0.6353
 6155SOL     OW30097   3.685   0.927  12.936  0.0244  0.2243  0.2617
 6155SOL    HW130098   3.615   0.974  12.890  1.0116 -0.0112 -1.4711
 6155SOL    HW230099   3.702   0.850  12.882  1.9674  1.0373 -0.2904
 6156SOL     OW30100   2.795   0.974   3.615 -0.0437 -0.3703  0.3952
 6156SOL    HW130101   2.703   0.951   3.626 -0.2111 -1.2227 -2.8879
 6156SOL    HW230102   2.827   0.898   3.565  1.3423 -0.1574  0.9487
 6157SOL     OW30103   2.009   0.614   5.963  0.3922 -0.1266  0.1851
 6157SOL    HW130104   1.999   0.595   6.056 -0.3865 -1.0172 -0.0813
 6157SOL    HW230105   1.933   0.670   5.950 -0.3227 -0.5269  2.7725
 6158SOL     OW30106   3.154   1.574   8.381  0.2070 -0.2613 -0.3656
 6158SOL    HW130107   3.124   1.513   8.448  0.9425 -1.0090 -0.7132
 6158SOL    HW230108   3.243   1.593   8.411  0.3633 -1.7423  0.1263
 6159SOL     OW30109   4.693   3.588   8.497 -0.0951  0.4467 -0.0370
 6159SOL    HW130110   0.020   3.521   8.508  0.5558  1.0264 -0.4825
 6159SOL    HW230111   0.010   3.663   8.514 -0.7090  1.0947 -0.8499
 6160SOL     OW30112   0.732   2.691   2.979  0.1975  0.2240  0.8670
 6160SOL    HW130113   0.737   2.783   2.954 -2.3413  0.4748  1.3279
 6160SOL    HW230114   0.775   2.685   3.064 -0.1768  1.1507  1.1193
 6161SOL     OW30115   1.938   3.724   2.947  0.1019  0.2900 -0.3235
 6161SOL    HW130116   1.899   3.637   2.935 -0.7613  0.4958  0.9278
 6161SOL    HW230117   1.862   3.771   2.981  1.3943  1.4397  0.9562
 6162SOL     OW30118   1.533   1.302   6.017  0.0583  0.5167  0.2899
 6162SOL    HW130119   1.554   1.209   6.031  2.1293  0.7645 -1.1869
 6162SOL    HW230120   1.454   1.304   6.070 -0.7565 -0.1325 -0.9074
 6163SOL     OW30121   3.843   3.464   3.311 -0.3512  0.3483 -0.0823
 6163SOL    HW130122   3.778   3.394   3.300 -0.4587  0.3220  0.7539
 6163SOL    HW230123   3.823   3.479   3.403 -0.3684 -1.7463  0.2532
 6164SOL     OW30124   0.109   1.870   3.317  0.5900 -0.4143 -0.0635
 6164SOL    HW130125   0.067   1.832   3.394 -0.4068 -0.5205 -0.6483
 6164SOL    HW230126   0.193   1.825   3.325  1.6997  1.7965  0.5552
 6165SOL     OW30127   2.066   3.077   7.944  0.0117 -0.1339 -0.0334
 6165SOL    HW130128   2.095   3.091   8.034  1.3635  1.2604 -0.6616
 6165SOL    HW230129   1.976   3.104   7.963  0.6088  1.9500 -0.1047
 6166SOL     OW30130   1.377   0.648  10.946  0.4734  0.1055 -0.3912
 6166SOL    HW130131   1.283   0.632  10.934 -0.0947  0.9271  2.8449
 6166SOL    HW230132   1.392   0.607  11.032  1.3182 -1.6552 -1.3786
 6167SOL     OW30133   4.099   0.361   7.706  0.2898  0.3479 -0.2600
 6167SOL    HW130134   4.016   0.409   7.715  0.2708 -0.0310  1.4932
 6167SOL    HW230135   4.149   0.388   7.783 -1.0995  1.7627  0.1511
 6168SOL     OW30136   2.365   3.719   4.500 -0.0263  0.1206  0.7678
 6168SOL    HW130137   2.461   3.725   4.503  0.0825 -0.5168 -1.5479
 6168SOL    HW230138   2.336   3.808   4.519 -1.8383 -0.9556  3.0600
 6169SOL     OW30139   1.419   0.363  10.778 -0.0661 -0.0208  0.1115
 6169SOL    HW130140   1.383   0.431  10.835  0.5510  1.6140 -1.4888
 6169SOL    HW230141   1.429   0.288  10.837  1.5686  1.5280  1.7913
 6170SOL     OW30142   0.565   0.286  17.164  0.8227 -0.5267 -0.0549
 6170SOL    HW130143   0.589   0.376  17.141 -1.3548  0.3691  1.2367
 6170SOL    HW230144   0.629   0.235  17.114 -1.1593 -1.7830 -1.3034
 6171SOL     OW30145   0.855   1.923  13.042 -0.2351  0.5149 -0.2543
 6171SOL    HW130146   0.882   1.899  13.131  0.6374  2.0781 -0.1128
 6171SOL    HW230147   0.894   2.010  13.052 -1.4675  1.1585 -1.1327
 6172SOL     OW30148   2.254   2.423  10.305 -0.8445 -0.2982  0.1411
 6172SOL    HW130149   2.332   2.389  10.350 -1.4738 -0.1708  1.3155
 6172SOL    HW230150   2.175   2.415  10.357  1.1215 -0.1751  3.1445
 6173SOL     OW30151   4.619   1.113  12.651 -0.6972 -0.5757  0.2669
 6173SOL    HW130152   4.541   1.084  12.698 -0.6175 -1.4037 -0.1129
 6173SOL    HW230153   4.575   1.182  12.600 -1.2306 -3.6079 -3.3568
 6174SOL     OW30154   2.139   2.664   4.831  0.1488 -0.4458 -0.4665
 6174SOL    HW130155   2.166   2.753   4.808 -1.3919  0.0930 -0.1310
 6174SOL    HW230156   2.169   2.664   4.922  3.5933  2.3320 -1.6013
 6175SOL     OW30157   0.256   1.308   7.568  0.6640  0.1722 -0.2765
 6175SOL    HW130158   0.243   1.217   7.541  1.9181  0.1822 -0.9302
 6175SOL    HW230159   0.239   1.299   7.662  0.1727  0.8264 -0.3012
 6176SOL     OW30160   0.763   0.176  16.226 -0.3693  0.0299 -0.3327
 6176SOL    HW130161   0.827   0.144  16.290 -1.1386  0.9865  0.9081
 6176SOL    HW230162   0.824   0.195  16.154  0.4264  1.6304  0.7508
 6177SOL     OW30163   4.520   2.982  14.159 -0.2953 -0.0121 -0.0570
 6177SOL    HW130164   4.558   3.053  14.211 -0.9036 -0.0463  0.4431
 6177SOL    HW230165   4.430   2.980  14.192 -0.5777  2.3422 -0.6987
 6178SOL     OW30166   1.868   1.241   0.720 -0.1597 -0.4994  0.0345
 6178SOL    HW130167   1.866   1.332   0.747  1.1528 -0.6806  0.7251
 6178SOL    HW230168   1.812   1.248   0.642 -1.0434 -1.7909  0.5490
 6179SOL     OW30169   1.718   1.315   2.950 -0.1058  0.2114 -0.0909
 6179SOL    HW130170   1.626   1.316   2.923 -0.3196  1.0780  0.6745
 6179SOL    HW230171   1.751   1.240   2.900 -0.4396  0.5015 -0.7546
 6180SOL     OW30172   0.507   4.476  13.389  0.2664 -0.1179  0.2860
 6180SOL    HW130173   0.415   4.471  13.361  0.3254 -0.1823  0.0984
 6180SOL    HW230174   0.501   4.484  13.484  1.2728  0.2240  0.3219
 6181SOL     OW30175   0.577   1.762   2.274 -0.4798 -0.1182 -0.3258
 6181SOL    HW130176   0.644   1.784   2.210  0.0029  1.9057  0.8565
 6181SOL    HW230177   0.602   1.670   2.271  4.3476  1.1144  2.1408
 6182SOL     OW30178   1.795   3.476   2.515  0.1872 -0.0225  0.2675
 6182SOL    HW130179   1.792   3.490   2.420 -1.9625 -1.2442  0.1693
 6182SOL    HW230180   1.891   3.485   2.516  0.1832  0.2294 -1.9908
 6183SOL     OW30181   2.239   3.952   8.169  0.5346 -0.6868 -0.2743
 6183SOL    HW130182   2.173   4.021   8.170 -0.3531 -1.4794 -3.5485
 6183SOL    HW230183   2.314   4.007   8.148  0.4422  0.3007  1.9733
 6184SOL     OW30184   4.369   2.854   9.421  0.3287 -0.1549  0.2683
 6184SOL    HW130185   4.366   2.939   9.376 -1.7204 -0.5216 -0.3006
 6184SOL    HW230186   4.367   2.885   9.511  2.8837  1.1861 -0.1323
 6185SOL     OW30187   2.575   0.372   3.950 -0.0442  0.0975  0.3648
 6185SOL    HW130188   2.571   0.457   3.994  0.8708  1.3946 -2.0757
 6185SOL    HW230189   2.523   0.383   3.871 -1.2613 -0.2285  1.1233
 6186SOL     OW30190   4.005   3.477   4.460 -0.5588 -0.3791 -0.1151
 6186SOL    HW130191   4.036   3.453   4.373 -0.2838  0.7803 -0.3377
 6186SOL    HW230192   4.026   3.399   4.512 -0.0654 -0.2334 -0.0992
 6187SOL     OW30193   4.406   2.828   2.698 -0.2561 -0.1486  0.7083
 6187SOL    HW130194   4.379   2.742   2.664  0.6330 -1.0455  2.2625
 6187SOL    HW230195   4.416   2.876   2.615  0.0868 -1.3446  0.0523
 6188SOL     OW30196   4.265   4.533  12.512  0.5866 -0.1307  0.4291
 6188SOL    HW130197   4.201   4.469  12.544 -0.5048  0.7467  0.0268
 6188SOL    HW230198   4.230   4.617  12.540 -3.3593 -0.8973 -2.1555
 6189SOL     OW30199   3.981   2.270   9.679  0.2632 -0.1911  0.0061
 6189SOL    HW130200   3.898   2.302   9.714  1.3499  0.0386  2.3610
 6189SOL    HW230201   3.950   2.187   9.641  0.4408 -0.4200  0.3658
 6190SOL     OW30202   4.218   1.935   5.785 -0.7643  0.6628  0.0006
 6190SOL    HW130203   4.192   2.008   5.841 -1.9821  0.7707 -0.6980
 6190SOL    HW230204   4.148   1.946   5.721 -0.4951 -0.3205 -0.4567
 6191SOL     OW30205   0.502   3.219   6.723  0.4847  0.0921  0.6774
 6191SOL    HW130206   0.446   3.146   6.695 -0.1739  0.9458 -0.2616
 6191SOL    HW230207   0.569   3.170   6.770 -0.0287  0.5843  1.9168
 6192SOL     OW30208   2.761   0.191   4.430 -0.3388  0.1162 -0.1848
 6192SOL    HW130209   2.820   0.133   4.381  1.4735  2.4035 -0.7132
 6192SOL    HW230210   2.810   0.189   4.512  0.6548 -2.1239 -0.8391
 6193SOL     OW30211   4.539   4.446   1.087  0.0922 -0.0262  0.3312
 6193SOL    HW130212   4.487   4.398   1.151 -1.8461 -0.6013 -1.6857
 6193SOL    HW230213   4.626   4.419   1.118  0.7855  2.5008  0.5586
 6194SOL     OW30214   0.424   1.548   0.172 -0.0396  0.2194 -0.0839
 6194SOL    HW130215   0.368   1.581   0.102 -0.8601  1.2885  1.0766
 6194SOL    HW230216   0.425   1.455   0.149 -0.3486 -0.1035  1.1916
 6195SOL     OW30217   0.964   3.606   3.541 -0.4517 -0.4175 -0.1921
 6195SOL    HW130218   0.889   3.643   3.494  0.0135  1.4186  0.4798
 6195SOL    HW230219   0.930   3.632   3.627  0.1433 -0.3673  0.0283
 6196SOL     OW30220   2.771   0.043   5.889  0.2425 -0.3028 -0.4838
 6196SOL    HW130221   2.718   0.123   5.892  0.3672 -0.2767  0.9905
 6196SOL    HW230222   2.803   0.040   5.980  0.7279 -2.2303 -0.7283
 6197SOL     OW30223   2.087   1.843   7.770  0.3342  0.0337 -0.3336
 6197SOL    HW130224   2.176   1.871   7.745 -0.6786  4.3091  0.8731
 6197SOL    HW230225   2.101   1.782   7.842 -0.5043 -1.0550 -1.0941
 6198SOL     OW30226   0.042   3.250  10.871  0.0444  0.2856  0.2282
 6198SOL    HW130227   4.729   3.171  10.883  2.2278 -1.1106  0.8151
 6198SOL    HW230228   0.015   3.277  10.784 -0.3071 -0.2865  0.1577
 6199SOL     OW30229   2.593   2.615   1.687  0.4527  0.3277  0.0019
 6199SOL    HW130230   2.557   2.527   1.671 -1.1076  1.0865 -0.7296
 6199SOL    HW230231   2.554   2.666   1.616  3.1294  1.9562 -0.2854
 6200SOL     OW30232   1.786   2.721   4.087  0.2563  0.4140 -0.2310
 6200SOL    HW130233   1.866   2.744   4.135 -1.3071  0.9870  2.1198
 6200SOL    HW230234   1.770   2.794   4.027  5.4144  2.4401  0.8864
 6201SOL     OW30235   2.899   0.799   4.512  0.3488  0.2813  0.0280
 6201SOL    HW130236   2.850   0.833   4.437 -0.4320  0.9692  0.8430
 6201SOL    HW230237   2.912   0.707   4.491  2.0357 -0.0712  2.6721
 6202SOL     OW30238   3.927   1.301  13.117 -0.2263  0.0837 -0.4838
 6202SOL    HW130239   4.005   1.319  13.170  0.6229 -2.3026 -0.9087
 6202SOL    HW230240   3.886   1.227  13.162  0.9077 -0.5839 -0.5581
 6203SOL     OW30241   2.965   2.731   2.214 -0.2968 -0.0348  0.1348
 6203SOL    HW130242   2.977   2.719   2.308  1.9491  0.6261 -0.0731
 6203SOL    HW230243   3.038   2.683   2.176 -1.0139 -0.2668 -0.9470
 6204SOL     OW30244   0.473   3.898   9.730  0.4155 -0.1048 -0.3851
 6204SOL    HW130245   0.435   3.812   9.748 -0.4366  0.3027 -0.2374
 6204SOL    HW230246   0.523   3.922   9.809 -0.5728  0.1437  0.1630
 6205SOL     OW30247   3.685   3.988   9.132 -0.0728  0.5494 -0.0565
 6205SOL    HW130248   3.637   3.941   9.201  0.4385 -0.9382 -0.7159
 6205SOL    HW230249   3.752   4.031   9.186 -0.8619  0.5837  0.8992
 6206SOL     OW30250   3.773   3.611   8.839 -0.5493 -0.3816 -0.1441
 6206SOL    HW130251   3.702   3.617   8.902  0.5115 -3.4013  1.3620
 6206SOL    HW230252   3.850   3.639   8.889 -0.1787 -1.9358  0.1608
 6207SOL     OW30253   2.241   1.199  15.502  0.3721  0.2195 -0.2621
 6207SOL    HW130254   2.232   1.139  15.428 -1.1698 -3.0622  2.6211
 6207SOL    HW230255   2.305   1.136  15.535 -0.0593  1.2755  2.5065
 6208SOL     OW30256   1.656   1.713   2.490 -0.1823 -0.3285  0.3137
 6208SOL    HW130257   1.664   1.646   2.558  1.2822  0.0475  0.5245
 6208SOL    HW230258   1.746   1.746   2.500 -0.4414  0.7721 -0.9258
 6209SOL     OW30259   0.938   0.901   7.702 -0.2390 -0.0700  0.6633
 6209SOL    HW130260   0.876   0.888   7.774  1.0833  0.5756  1.9193
 6209SOL    HW230261   0.992   0.975   7.728  2.4752 -1.9535  0.4070
 6210SOL     OW30262   3.921   0.515   4.110 -0.0204  0.2242  0.1012
 6210SOL    HW130263   3.922   0.531   4.015 -1.2471 -2.0198 -0.2706
 6210SOL    HW230264   4.012   0.485   4.117 -1.4342 -3.6686  1.4414
 6211SOL     OW30265   1.172   0.074   3.479 -0.3958 -0.0209 -1.1259
 6211SOL    HW130266   1.239   0.140   3.498 -0.6331 -0.1583  0.1923
 6211SOL    HW230267   1.148   0.101   3.390 -1.7020  1.4561 -0.3286
 6212SOL     OW30268   0.041   4.640  16.567 -0.4264 -0.2147  0.0472
 6212SOL    HW130269   0.014   4.615  16.479  3.3815  0.9013 -1.4412
 6212SOL    HW230270   0.135   4.623  16.558 -0.6837 -1.8962  0.6269
 6213SOL     OW30271   0.604   0.539  10.709  0.8993  0.4912  0.2033
 6213SOL    HW130272   0.646   0.615  10.750  0.1164 -0.4708  2.8377
 6213SOL    HW230273   0.532   0.525  10.770 -0.8403 -1.7193 -2.3937
 6214SOL     OW30274   4.316   1.053   7.065 -0.2552  0.1758 -0.1184
 6214SOL    HW130275   4.228   1.017   7.056 -0.9077  1.5866  0.5289
 6214SOL    HW230276   4.337   1.057   6.972  0.0114 -1.8577 -0.1389
 6215SOL     OW30277   2.602   4.270   1.223 -0.1436 -0.0635 -0.5454
 6215SOL    HW130278   2.693   4.298   1.210  0.3764 -1.2988  0.5164
 6215SOL    HW230279   2.559   4.356   1.233 -1.1038 -0.6228  0.1567
 6216SOL     OW30280   3.748   3.653  16.666  0.1962  0.0565  0.1728
 6216SOL    HW130281   3.692   3.730  16.659 -0.2375 -0.4062 -1.4488
 6216SOL    HW230282   3.833   3.693  16.684  0.3445  0.4447 -1.4111
 6217SOL     OW30283   3.479   2.222   5.611 -0.2252 -0.2394  0.5970
 6217SOL    HW130284   3.434   2.180   5.538 -2.0929  1.6523  0.6361
 6217SOL    HW230285   3.546   2.273   5.565 -0.1719 -0.5234  0.3616
 6218SOL     OW30286   0.242   2.296   7.485  0.3022 -0.1081  0.1330
 6218SOL    HW130287   0.230   2.343   7.568 -1.1439  1.3924 -0.9364
 6218SOL    HW230288   0.180   2.346   7.431 -1.0023 -0.7239  1.0485
 6219SOL     OW30289   3.495   4.593   2.040  0.2579  0.0115  0.1062
 6219SOL    HW130290   3.465   4.660   2.102  2.7099  1.8061 -0.6300
 6219SOL    HW230291   3.537   4.530   2.098  1.2808  0.2907 -0.3343
 6220SOL     OW30292   1.325   2.007  10.104  0.2492 -0.4382  0.2932
 6220SOL    HW130293   1.311   2.081  10.045  2.3965 -1.1167 -1.0996
 6220SOL    HW230294   1.348   1.938  10.041  0.6816  0.3184 -0.3818
 6221SOL     OW30295   2.492   4.601  14.613  0.3939 -0.0226 -0.5940
 6221SOL    HW130296   2.432   4.674  14.627  0.4961 -0.2738  1.1427
 6221SOL    HW230297   2.440   4.526  14.644 -0.3002  0.8954  0.5133
 6222SOL     OW30298   4.015   2.920   5.793 -0.8369 -0.5745 -0.2083
 6222SOL    HW130299   4.106   2.899   5.813 -0.4924  0.0386 -1.1208
 6222SOL    HW230300   4.022   2.903   5.699  2.7144 -2.4098  0.4125
 6223SOL     OW30301   2.958   2.463   8.935  0.1166  0.0672 -0.0111
 6223SOL    HW130302   2.890   2.514   8.978  0.8862  0.2939  0.9402
 6223SOL    HW230303   2.929   2.372   8.943 -0.8543  0.1970 -2.0661
 6224SOL     OW30304   0.591   0.600  12.776 -0.4460 -0.6681  0.0440
 6224SOL    HW130305   0.505   0.582  12.738  0.4613 -0.7760 -1.9636
 6224SOL    HW230306   0.653   0.591  12.704 -1.6446  0.3363 -1.1139
 6225SOL     OW30307   0.787   4.325   4.125 -0.0088 -0.7127 -0.5127
 6225SOL    HW130308   0.799   4.312   4.031 -1.0679  0.8898 -0.8787
 6225SOL    HW230309   0.749   4.245   4.160  1.8839 -1.1101  0.5916
 6226SOL     OW30310   0.125   0.225  12.563 -0.8280  0.0199 -0.8042
 6226SOL    HW130311   0.083   0.231  12.649 -1.1701 -1.4720 -0.8597
 6226SOL    HW230312   0.081   0.302  12.526 -1.7637 -0.0957  0.0663
 6227SOL     OW30313   0.188   4.286   6.662 -0.3429  0.1171 -0.7143
 6227SOL    HW130314   0.185   4.309   6.569 -0.9726  1.5107 -0.3387
 6227SOL    HW230315   0.232   4.364   6.693 -1.1880  1.3279 -2.5609
 6228SOL     OW30316   1.955   1.208  13.264  0.1985  0.2152  0.1495
 6228SOL    HW130317   2.035   1.244  13.226  0.8010 -0.7934  0.4586
 6228SOL    HW230318   1.971   1.114  13.256 -2.0174 -0.1282 -0.2307
 6229SOL     OW30319   3.045   3.491  15.364  0.5246  0.3042 -0.4166
 6229SOL    HW130320   3.115   3.428  15.347 -0.2489 -0.6717  0.0335
 6229SOL    HW230321   3.086   3.575  15.342  2.5484 -0.8259 -0.9060
 6230SOL     OW30322   4.375   3.123   9.267 -0.2874 -0.2259 -0.0947
 6230SOL    HW130323   4.337   3.160   9.187 -0.9619 -0.4185  0.1354
 6230SOL    HW230324   4.343   3.185   9.332  3.2592  0.8821  0.5860
 6231SOL     OW30325   0.883   2.015   5.056 -0.3927 -0.5996 -0.1609
 6231SOL    HW130326   0.955   1.976   5.006  0.1777 -1.7657  1.5942
 6231SOL    HW230327   0.831   2.066   4.994 -1.5637 -0.2811  1.0874
 6232SOL     OW30328   0.305   0.334   6.383  0.0711 -0.4052  0.3414
 6232SOL    HW130329   0.396   0.309   6.371  0.3303  0.7138  0.0410
 6232SOL    HW230330   0.268   0.290   6.306  0.0657 -1.5585  0.9983
 6233SOL     OW30331   4.488   0.745  13.075  0.2276 -0.0123 -0.3268
 6233SOL    HW130332   4.583   0.737  13.080  0.2681  1.6000  1.2877
 6233SOL    HW230333   4.480   0.840  13.075  1.2694  0.0776 -1.1248
 6234SOL     OW30334   3.460   2.091   3.368 -0.1419  0.0006  0.3255
 6234SOL    HW130335   3.462   2.164   3.307  1.8855  0.7613  1.2908
 6234SOL    HW230336   3.526   2.030   3.333 -0.2987 -0.5682  1.0067
 6235SOL     OW30337   3.194   1.231   5.683 -0.1739  0.0906 -0.5816
 6235SOL    HW130338   3.152   1.225   5.769 -1.3922  4.0012 -0.8947
 6235SOL    HW230339   3.142   1.166   5.636  1.5106 -0.7273 -1.3092
 6236SOL     OW30340   0.045   4.513  12.003 -0.0505 -0.0612 -0.3579
 6236SOL    HW130341   4.704   4.563  12.016  0.1385 -0.7544  3.3664
 6236SOL    HW230342   0.074   4.493  12.091  1.8989  0.9987 -0.7596
 6237SOL     OW30343   1.165   1.845   3.975  0.1675  0.1057 -0.0734
 6237SOL    HW130344   1.154   1.864   4.068 -1.2879  1.6421 -0.5559
 6237SOL    HW230345   1.087   1.889   3.941 -0.6699  1.0039  2.9834
 6238SOL     OW30346   1.541   1.180   0.233 -0.0296 -0.1990  0.0873
 6238SOL    HW130347   1.456   1.177   0.278  1.3093  0.7111  2.6785
 6238SOL    HW230348   1.515   1.131   0.155  0.1846  2.2763 -1.5288
 6239SOL     OW30349   2.587   3.172   8.920 -0.1479  0.0587 -0.5091
 6239SOL    HW130350   2.589   3.077   8.932  2.4543  0.2308  0.3530
 6239SOL    HW230351   2.611   3.183   8.828 -0.4680  3.0994 -0.2508
 6240SOL     OW30352   0.567   0.073   9.330 -0.1141 -0.0033 -0.1040
 6240SOL    HW130353   0.490   0.051   9.278 -0.3035  2.3493 -0.8328
 6240SOL    HW230354   0.619   4.733   9.330  0.7569  0.5632  0.0674
 6241SOL     OW30355   4.082   4.599  16.729  0.3910 -0.4349  0.0797
 6241SOL    HW130356   4.142   4.602  16.655  1.4181  1.6146  1.0054
 6241SOL    HW230357   4.097   4.505  16.741 -0.2599 -0.5599 -0.0868
 6242SOL     OW30358   4.726   0.066   4.995 -0.4434  0.1580 -0.1806
 6242SOL    HW130359   0.016   4.719   4.970  0.6885  0.2617  0.7890
 6242SOL    HW230360   4.642   0.085   4.954 -0.8588 -0.7089  0.2923
 6243SOL     OW30361   1.550   4.515   7.280 -0.1708 -0.0935 -0.1722
 6243SOL    HW130362   1.509   4.561   7.207 -0.2308 -1.5535 -1.0550
 6243SOL    HW230363   1.500   4.434   7.275  1.2482 -0.8186 -2.8304
 6244SOL     OW30364   2.870   1.746   3.291  0.1268  0.9581  0.3381
 6244SOL    HW130365   2.807   1.693   3.340  0.2631 -1.0241 -1.6488
 6244SOL    HW230366   2.810   1.819   3.277 -0.7913  0.2451  0.5798
 6245SOL     OW30367   1.054   3.282   7.391  0.1146  0.2763  0.1078
 6245SOL    HW130368   0.970   3.279   7.435 -0.1432  1.0398 -0.3356
 6245SOL    HW230369   1.090   3.361   7.431  0.3872  0.7330 -1.0124
 6246SOL     OW30370   1.382   1.989  13.566  0.2268 -0.1948 -0.2251
 6246SOL    HW130371   1.416   2.078  13.570 -1.0773  0.2659  0.8413
 6246SOL    HW230372   1.461   1.938  13.582 -0.2193 -0.1996  1.9085
 6247SOL     OW30373   3.323   1.968  16.062 -0.1975 -0.6317 -0.2720
 6247SOL    HW130374   3.329   2.031  16.134  1.7831 -1.0015 -0.1151
 6247SOL    HW230375   3.259   1.904  16.092  0.3247 -1.1152 -0.1701
 6248SOL     OW30376   1.004   1.097   6.660  0.5134 -0.1064  1.0504
 6248SOL    HW130377   1.029   1.168   6.718  0.2266  0.3283  0.6409
 6248SOL    HW230378   0.918   1.078   6.698  0.0722 -1.7052 -0.7069
 6249SOL     OW30379   1.610   4.421   3.174  0.2892 -0.2381 -0.2740
 6249SOL    HW130380   1.592   4.494   3.115 -2.7847  0.1555  1.1633
 6249SOL    HW230381   1.605   4.342   3.119  2.5400  1.2341 -2.5848
 6250SOL     OW30382   4.084   1.761   8.905  0.4594  0.1368 -0.6079
 6250SOL    HW130383   4.112   1.792   8.991  2.2200 -1.8203 -0.4551
 6250SOL    HW230384   4.055   1.843   8.866 -1.2875 -0.4636 -0.5781
 6251SOL     OW30385   4.598   3.769   1.144 -0.6354  0.1818 -0.1768
 6251SOL    HW130386   4.671   3.763   1.083 -0.7989  3.2831 -0.6709
 6251SOL    HW230387   4.649   3.756   1.224  1.6035 -0.6556 -1.7531
 6252SOL     OW30388   3.036   0.783   5.270  0.3306 -0.2081  0.1603
 6252SOL    HW130389   3.036   0.691   5.243 -1.0300  0.4697 -2.1514
 6252SOL    HW230390   3.033   0.774   5.366  0.9469 -1.2976  0.0703
 6253SOL     OW30391   2.614   0.003   2.192  0.3224  0.0448  0.4841
 6253SOL    HW130392   2.566   4.739   2.275  0.4475 -0.8571  0.5051
 6253SOL    HW230393   2.702   4.726   2.226  1.5680  3.4156 -1.0689
 6254SOL     OW30394   2.210   0.861   6.935  0.4835 -0.5078 -0.3698
 6254SOL    HW130395   2.247   0.778   6.967  0.8145  0.3800  1.5375
 6254SOL    HW230396   2.128   0.882   6.978  1.2110  2.7416 -0.5741
 6255SOL     OW30397   4.284   4.438  11.569 -0.1837 -0.3358  0.0190
 6255SOL    HW130398   4.256   4.451  11.660  1.3323 -0.9867  0.5668
 6255SOL    HW230399   4.231   4.504  11.523  0.5001 -0.7806 -1.4099
 6256SOL     OW30400   4.389   2.341   4.833  0.4823 -0.0542  0.1313
 6256SOL    HW130401   4.316   2.306   4.781  0.1057 -1.7101  1.7663
 6256SOL    HW230402   4.450   2.267   4.835 -1.3575 -1.6301 -1.2256
 6257SOL     OW30403   4.327   3.743   8.894  0.2925 -0.5068 -0.0534
 6257SOL    HW130404   4.282   3.797   8.830 -0.4473 -0.2121  0.7095
 6257SOL    HW230405   4.361   3.672   8.840  4.1165  1.7060 -0.5542
 6258SOL     OW30406   3.876   3.921  14.991  0.4827 -0.1631 -0.1172
 6258SOL    HW130407   3.788   3.960  14.986 -0.1562 -1.6505 -0.4988
 6258SOL    HW230408   3.881   3.878  14.906  2.1325 -0.0060 -0.0977
 6259SOL     OW30409   4.319   3.856   3.687 -0.1816  0.9818  0.5076
 6259SOL    HW130410   4.303   3.951   3.692  0.2959  1.0545  0.6010
 6259SOL    HW230411   4.230   3.821   3.689 -0.0743  0.7045  0.3062
 6260SOL     OW30412   2.166   0.715   1.909 -0.5476 -0.3479  0.4773
 6260SOL    HW130413   2.240   0.703   1.850 -0.9990 -2.6525  0.3767
 6260SOL    HW230414   2.106   0.643   1.888 -0.4534 -0.3701  0.2817
 6261SOL     OW30415   1.525   2.555   3.721 -0.5781  0.2312 -0.1435
 6261SOL    HW130416   1.591   2.587   3.782  1.1693  0.6776 -2.2798
 6261SOL    HW230417   1.536   2.460   3.725  0.1340  0.3521  0.6883
 6262SOL     OW30418   2.370   2.546  16.580  0.0014 -0.3002 -0.3183
 6262SOL    HW130419   2.402   2.621  16.531 -1.1070  0.3056 -0.1160
 6262SOL    HW230420   2.304   2.592  16.632  0.8875 -0.6941  1.1601
 6263SOL     OW30421   2.079   2.785   6.628  0.0156  0.2725  0.4955
 6263SOL    HW130422   2.038   2.797   6.714  0.0642  2.2290  0.2438
 6263SOL    HW230423   2.157   2.737   6.653  0.7373  1.7243  1.0037
 6264SOL     OW30424   4.393   3.663  16.597 -0.1790  0.2536  0.3240
 6264SOL    HW130425   4.345   3.639  16.518  1.7577  2.3090 -1.4798
 6264SOL    HW230426   4.373   3.757  16.601  1.9109  0.7289 -0.3904
 6265SOL     OW30427   0.583   2.859  17.205 -0.1318  0.2657 -0.2021
 6265SOL    HW130428   0.490   2.876  17.188 -0.4246 -0.9617  0.2000
 6265SOL    HW230429   0.576   2.810  17.287  2.3685 -0.3149 -0.3509
 6266SOL     OW30430   2.287   1.315  11.397  0.2170  0.0671  0.3597
 6266SOL    HW130431   2.275   1.341  11.306  0.6063  1.4917  0.7262
 6266SOL    HW230432   2.195   1.292  11.413  0.4759 -0.6893  0.7963
 6267SOL     OW30433   3.470   1.967   6.817  0.1410  0.7173 -0.5744
 6267SOL    HW130434   3.409   2.016   6.761 -1.8569 -0.3670  0.6699
 6267SOL    HW230435   3.437   1.877   6.819  0.9170  0.4741  1.1568
 6268SOL     OW30436   2.765   2.000   6.685  0.3898 -0.4635  0.9083
 6268SOL    HW130437   2.764   1.928   6.748 -2.3317 -0.2067  1.1924
 6268SOL    HW230438   2.772   2.066   6.754 -0.9246  1.0275 -0.3850
 6269SOL     OW30439   0.513   0.262  12.895  0.2971 -0.1640  0.6500
 6269SOL    HW130440   0.426   0.290  12.868  0.2343 -0.7587  0.2341
 6269SOL    HW230441   0.504   0.216  12.979 -2.5415 -1.1377 -0.1843
 6270SOL     OW30442   3.893   4.374  17.729  0.5739  0.2187 -0.2240
 6270SOL    HW130443   3.916   4.428  17.654 -2.0868 -0.0104 -1.2118
 6270SOL    HW230444   3.799   4.388  17.744  0.2785 -2.2461  0.1570
 6271SOL     OW30445   0.249   0.732   9.089  0.0094  0.4473 -0.6302
 6271SOL    HW130446   0.193   0.677   9.144  3.3464  0.4104  2.7165
 6271SOL    HW230447   0.276   0.790   9.161 -1.3568  0.0077  0.2288
 6272SOL     OW30448   0.314   3.696   3.659  0.3524 -0.0518  0.0484
 6272SOL    HW130449   0.351   3.630   3.601 -0.5409  0.3596 -0.9858
 6272SOL    HW230450   0.254   3.740   3.598 -1.1412 -0.0351  1.5239
 6273SOL     OW30451   2.254   0.951  13.429 -0.0593  0.6551  0.4550
 6273SOL    HW130452   2.303   0.896  13.491 -0.2441  0.1288  0.1242
 6273SOL    HW230453   2.325   0.972  13.368  1.0832  1.4030  2.0043
 6274SOL     OW30454   0.797   2.885   7.647  0.2129  0.4284 -0.0738
 6274SOL    HW130455   0.799   2.814   7.711  0.1913 -1.7445 -2.5044
 6274SOL    HW230456   0.847   2.834   7.583 -0.5588 -1.2326  0.6497
 6275SOL     OW30457   3.546   0.479   5.623  0.4409  0.1349  0.7337
 6275SOL    HW130458   3.550   0.566   5.662  0.6027  0.7657 -0.6628
 6275SOL    HW230459   3.469   0.490   5.568  1.3356 -0.5819 -0.6705
 6276SOL     OW30460   1.919   4.160  11.937  0.1894 -0.5707 -0.0853
 6276SOL    HW130461   1.996   4.210  11.908 -0.9346  1.7009  0.7898
 6276SOL    HW230462   1.953   4.071  11.930 -1.5521 -1.2385 -0.2273
 6277SOL     OW30463   4.719   1.916   9.055  0.2743  0.5241 -0.0774
 6277SOL    HW130464   4.658   1.987   9.075 -0.3873 -0.0512 -0.0425
 6277SOL    HW230465   4.702   1.851   9.123 -0.7281  1.7357  0.8315
 6278SOL     OW30466   4.716   3.064   1.177  0.0631  0.6766  0.5981
 6278SOL    HW130467   4.657   2.988   1.184  0.3624  0.4305  0.4853
 6278SOL    HW230468   0.047   3.011   1.140 -1.6593 -0.6402 -0.8088
 6279SOL     OW30469   3.990   1.677   8.380  0.5093 -0.6603 -0.1907
 6279SOL    HW130470   3.954   1.739   8.317 -0.0206  0.8139  1.5383
 6279SOL    HW230471   4.047   1.727   8.439 -1.4927  1.8713 -0.4158
 6280SOL     OW30472   3.117   3.147   6.774  0.0083 -0.0639 -0.2389
 6280SOL    HW130473   3.192   3.184   6.821 -0.8416 -0.3211  1.3388
 6280SOL    HW230474   3.163   3.083   6.721 -1.5247  0.7600 -2.5838
 6281SOL     OW30475   0.563   3.581   3.265 -0.2109 -0.2779 -0.0345
 6281SOL    HW130476   0.571   3.614   3.175  0.3367  2.2111  0.9407
 6281SOL    HW230477   0.641   3.626   3.298 -0.9926  0.3924  0.8761
 6282SOL     OW30478   0.290   1.806  12.281  0.4844 -0.4605  0.0498
 6282SOL    HW130479   0.301   1.731  12.339  0.4383 -0.5901 -0.1119
 6282SOL    HW230480   0.202   1.838  12.299  0.1622 -1.0775 -0.4464
 6283SOL     OW30481   3.176   4.152  14.901  0.3659 -0.9542 -0.0301
 6283SOL    HW130482   3.128   4.172  14.821  0.0256  0.7807  0.6107
 6283SOL    HW230483   3.247   4.099  14.865  1.4173  0.0689  0.5662
 6284SOL     OW30484   1.967   3.924  10.007  0.5622 -0.6233  0.1437
 6284SOL    HW130485   2.014   3.897   9.927  1.9120  0.2695  0.6334
 6284SOL    HW230486   2.036   3.937  10.072  2.1688  0.9142 -1.8764
 6285SOL     OW30487   1.926   2.186   8.851 -0.1064  0.1343  0.2828
 6285SOL    HW130488   1.935   2.278   8.826 -1.7887 -0.0572 -0.9536
 6285SOL    HW230489   1.850   2.160   8.799  0.5744  0.8925 -1.1005
 6286SOL     OW30490   1.585   3.407   9.771 -0.3318 -0.1625  0.1653
 6286SOL    HW130491   1.497   3.445   9.768 -0.8507 -1.3597  0.3481
 6286SOL    HW230492   1.582   3.341   9.841 -3.5686  0.6235  0.7761
 6287SOL     OW30493   1.542   3.669   8.427  0.0688  0.3984  0.3517
 6287SOL    HW130494   1.618   3.669   8.486  1.0735 -1.3579 -0.9167
 6287SOL    HW230495   1.536   3.574   8.434 -0.5309  0.5501  1.9374
 6288SOL     OW30496   3.679   0.592  11.482  0.5026 -0.7382 -0.0701
 6288SOL    HW130497   3.770   0.572  11.502 -0.0830  0.0521  3.4836
 6288SOL    HW230498   3.690   0.687  11.487 -1.1511 -0.6538  2.4012
 6289SOL     OW30499   0.257   3.420  10.621  0.3546 -0.3806  0.2126
 6289SOL    HW130500   0.291   3.408  10.709 -0.2582  1.3869  0.6947
 6289SOL    HW230501   0.337   3.420  10.568  1.0027  0.2588  1.1967
 6290SOL     OW30502   4.197   1.188   3.229  0.0813 -0.0778  0.4489
 6290SOL    HW130503   4.164   1.276   3.245 -1.5342 -0.7530  0.8446
 6290SOL    HW230504   4.132   1.140   3.280 -1.7645  1.2462 -0.6546
 6291SOL     OW30505   0.556   0.852   6.277  0.1470  0.2581  0.3000
 6291SOL    HW130506   0.462   0.834   6.270  0.3658 -0.1900 -1.5281
 6291SOL    HW230507   0.557   0.876   6.184 -1.6160  0.9540  0.4615
 6292SOL     OW30508   2.760   2.280  14.226 -0.5453  0.2422 -0.1693
 6292SOL    HW130509   2.777   2.346  14.294 -3.0110  2.9450 -2.1310
 6292SOL    HW230510   2.680   2.237  14.257 -1.7602  1.7327 -1.2249
 6293SOL     OW30511   2.130   0.802   7.248  0.1502  0.8914  0.7098
 6293SOL    HW130512   2.209   0.856   7.250  0.5393  0.3784 -1.3495
 6293SOL    HW230513   2.162   0.712   7.242  1.1749  1.2848  0.3152
 6294SOL     OW30514   4.090   0.321   8.454 -0.9351  0.4783  0.6120
 6294SOL    HW130515   4.075   0.227   8.443 -2.4609  0.5899  1.8110
 6294SOL    HW230516   4.083   0.333   8.549 -1.2583 -0.9087  0.7622
 6295SOL     OW30517   2.769   3.253   3.539 -0.1403  0.1759 -0.1312
 6295SOL    HW130518   2.698   3.191   3.522  1.4128 -1.7961  0.5862
 6295SOL    HW230519   2.725   3.328   3.579  0.6504 -1.4245  3.7213
 6296SOL     OW30520   0.098   2.799   6.295  0.4289 -0.0707  1.0505
 6296SOL    HW130521   0.078   2.720   6.345  1.5270 -1.4396 -0.6646
 6296SOL    HW230522   0.014   2.812   6.253  0.6155  1.4006  1.1248
 6297SOL     OW30523   4.015   0.106   3.449  0.1165 -0.4311 -0.1874
 6297SOL    HW130524   4.087   0.102   3.512 -0.9939  1.3750  1.2213
 6297SOL    HW230525   3.946   0.138   3.508  2.8503  2.5373  1.3812
 6298SOL     OW30526   1.218   3.785   5.448 -0.4719  0.4097  0.3641
 6298SOL    HW130527   1.290   3.794   5.511  0.7840  1.5498 -1.2339
 6298SOL    HW230528   1.157   3.857   5.465  0.7559  1.5385 -0.0261
 6299SOL     OW30529   4.045   0.400   5.816 -0.0992  0.1154  0.2349
 6299SOL    HW130530   3.988   0.327   5.840  0.8222 -0.8633 -0.5595
 6299SOL    HW230531   3.986   0.468   5.783  1.0143  0.5084 -0.9301
 6300SOL     OW30532   2.144   3.129  10.111  0.2344  0.1941 -0.1305
 6300SOL    HW130533   2.159   3.080  10.030  1.3845 -0.9185  0.7522
 6300SOL    HW230534   2.172   3.068  10.179  1.6972  0.7358 -0.2350
 6301SOL     OW30535   4.122   4.502   4.561 -0.1239  0.1593  0.1448
 6301SOL    HW130536   4.116   4.420   4.610  0.2955  0.8699  1.3765
 6301SOL    HW230537   4.170   4.473   4.484  0.1760  0.4218  0.2314
 6302SOL     OW30538   2.952   2.347  16.300  0.4561 -0.1426 -0.0158
 6302SOL    HW130539   2.925   2.393  16.221  0.7083 -0.1406 -0.0999
 6302SOL    HW230540   3.004   2.274  16.268 -1.1518 -1.0170 -0.6262
 6303SOL     OW30541   4.229   2.317   5.580  0.2076 -0.0959 -0.1624
 6303SOL    HW130542   4.318   2.283   5.587  0.6924  1.1402 -0.2113
 6303SOL    HW230543   4.250   2.411   5.576  1.6278 -0.3428  1.3888
 6304SOL     OW30544   3.516   2.165   6.978  0.1598  0.2226  0.4561
 6304SOL    HW130545   3.420   2.166   6.984  0.1645  0.4319  0.4747
 6304SOL    HW230546   3.523   2.097   6.911  0.2378 -1.7376  2.4238
 6305SOL     OW30547   1.826   1.276   5.563  0.1334 -0.1355 -0.4169
 6305SOL    HW130548   1.913   1.312   5.579  0.3653 -0.3153 -1.2356
 6305SOL    HW230549   1.839   1.235   5.477 -0.1111  0.2503 -0.6387
 6306SOL     OW30550   2.978   0.246   5.821  0.2148  0.5881 -0.0828
 6306SOL    HW130551   2.954   0.155   5.838 -1.7384  0.7477 -2.0639
 6306SOL    HW230552   2.950   0.247   5.729 -0.9403  0.0693  0.2681
 6307SOL     OW30553   2.571   3.615   6.254 -0.0718 -0.0231 -0.2752
 6307SOL    HW130554   2.602   3.562   6.327  0.2177  1.4529  0.6586
 6307SOL    HW230555   2.480   3.587   6.247  0.3181 -1.1735 -0.8154
 6308SOL     OW30556   4.724   0.456   8.809  0.3586 -0.2424 -0.5259
 6308SOL    HW130557   4.661   0.396   8.848  1.1101 -0.4450  0.3675
 6308SOL    HW230558   4.683   0.543   8.815  3.7284  1.4419 -1.9269
 6309SOL     OW30559   1.907   2.465   6.422 -0.1889  0.6844  0.0493
 6309SOL    HW130560   1.905   2.483   6.328  1.4149  1.3337  0.1300
 6309SOL    HW230561   1.886   2.372   6.429  0.3931  0.4251 -1.7377
 6310SOL     OW30562   4.002   0.906   5.064  0.3276  0.2561  0.6422
 6310SOL    HW130563   3.986   0.852   5.141 -1.8123 -1.0355 -0.7239
 6310SOL    HW230564   3.988   0.991   5.104 -1.2511  0.0209  0.5846
 6311SOL     OW30565   3.285   2.534   1.201  0.6229  0.1530 -0.1856
 6311SOL    HW130566   3.226   2.607   1.182 -0.0986 -0.3588  0.0798
 6311SOL    HW230567   3.370   2.573   1.180  0.5006 -0.0725 -1.0974
 6312SOL     OW30568   3.918   2.185   7.624 -0.1389 -0.0930 -0.0556
 6312SOL    HW130569   4.011   2.178   7.600  0.0702  1.6828  0.2011
 6312SOL    HW230570   3.869   2.158   7.546  0.7885  2.3897 -1.5160
 6313SOL     OW30571   1.068   3.860   8.341  0.0299  0.6604  0.2966
 6313SOL    HW130572   1.127   3.789   8.365 -0.5948 -0.0710 -0.3246
 6313SOL    HW230573   1.066   3.914   8.420  0.1726 -0.3336  0.9779
 6314SOL     OW30574   3.185   4.230   5.705  0.3319  0.3794  0.6748
 6314SOL    HW130575   3.215   4.321   5.706  1.9890 -0.1751  1.8299
 6314SOL    HW230576   3.091   4.239   5.718  0.2090 -0.8798  0.5827
 6315SOL     OW30577   1.037   2.872   3.251  0.7494 -0.2567  0.0394
 6315SOL    HW130578   0.966   2.917   3.205  0.9472  0.9632  0.9228
 6315SOL    HW230579   1.113   2.894   3.197  0.8720  1.1820  0.7781
 6316SOL     OW30580   2.087   2.313   3.451 -0.9714 -1.0499 -0.5612
 6316SOL    HW130581   2.165   2.279   3.495 -0.9647 -0.3060  0.0113
 6316SOL    HW230582   2.058   2.236   3.403 -0.2327 -2.6019  1.4956
 6317SOL     OW30583   2.456   4.123   8.224  0.4484 -0.0112  0.1779
 6317SOL    HW130584   2.511   4.196   8.195  0.7104 -0.8346 -1.4092
 6317SOL    HW230585   2.525   4.078   8.273 -1.4783 -1.4021  1.6202
 6318SOL     OW30586   0.110   2.169   3.886  0.4866 -0.0761 -0.2356
 6318SOL    HW130587   0.203   2.156   3.904  0.4829 -0.6208 -0.5680
 6318SOL    HW230588   0.098   2.127   3.800  0.3950 -2.3204  0.8738
 6319SOL     OW30589   3.968   2.576  17.410  0.1206 -0.3819  0.1081
 6319SOL    HW130590   3.944   2.667  17.431  2.0543 -0.1033  1.1704
 6319SOL    HW230591   3.961   2.538  17.498  0.3422  1.1005  0.7660
 6320SOL     OW30592   4.402   3.781   5.713 -0.2186 -0.2510  0.3359
 6320SOL    HW130593   4.382   3.866   5.752  2.5448  0.2383  0.6531
 6320SOL    HW230594   4.492   3.795   5.683  0.7333 -1.8734  2.4250
 6321SOL     OW30595   2.354   1.330  16.038 -0.3151 -0.5632 -0.8895
 6321SOL    HW130596   2.285   1.277  15.997  0.0007 -0.7004 -1.2497
 6321SOL    HW230597   2.303   1.409  16.053 -1.3320 -0.6564 -3.7927
 6322SOL     OW30598   3.429   1.713   1.723 -0.2049  0.9849 -0.7367
 6322SOL    HW130599   3.358   1.775   1.707 -1.9766 -0.8503  0.0640
 6322SOL    HW230600   3.394   1.633   1.685  0.5148 -0.4942  1.7299
 6323SOL     OW30601   1.369   0.717   5.460  0.1700 -0.3973 -0.3794
 6323SOL    HW130602   1.439   0.687   5.403 -0.3292 -0.7468 -0.8039
 6323SOL    HW230603   1.345   0.801   5.421  1.1838  0.6145  1.1268
 6324SOL     OW30604   3.394   2.962  10.758  0.4489  0.2092  0.1830
 6324SOL    HW130605   3.386   2.971  10.663 -2.7651  2.1789  0.6420
 6324SOL    HW230606   3.446   2.884  10.777 -0.0745 -0.3307 -0.5898
 6325SOL     OW30607   1.756   3.520   7.513 -0.1280 -0.3663  0.1066
 6325SOL    HW130608   1.707   3.450   7.470 -0.2383 -0.3500  0.2070
 6325SOL    HW230609   1.842   3.508   7.473  0.3028  2.7027  0.0505
 6326SOL     OW30610   3.851   2.266   2.874  0.8145 -0.5324  0.6457
 6326SOL    HW130611   3.852   2.178   2.837  2.2043  0.0729 -0.7640
 6326SOL    HW230612   3.806   2.255   2.958 -1.2843  1.7922 -0.1541
 6327SOL     OW30613   1.354   2.860  11.917 -0.2923 -0.3882 -0.3017
 6327SOL    HW130614   1.348   2.937  11.974  0.6269  1.9443 -3.3231
 6327SOL    HW230615   1.368   2.801  11.991  0.3372 -0.3588 -0.3994
 6328SOL     OW30616   3.597   3.520   6.684 -0.6608 -0.5224 -0.3804
 6328SOL    HW130617   3.502   3.507   6.686 -0.6346 -0.5922  0.2412
 6328SOL    HW230618   3.603   3.501   6.777  1.5364  1.8509 -0.0407
 6329SOL     OW30619   3.913   2.828  17.436  0.1885 -0.2800  0.0807
 6329SOL    HW130620   3.833   2.842  17.487 -0.0376  1.8798 -0.8831
 6329SOL    HW230621   3.933   2.916  17.405  1.3639  0.5891  3.3491
 6330SOL     OW30622   0.318   3.424   2.350  0.3941  0.4934  0.9623
 6330SOL    HW130623   0.409   3.454   2.354  1.0897 -1.1791 -2.2774
 6330SOL    HW230624   0.270   3.506   2.359 -0.8546 -0.4207  2.6048
 6331SOL     OW30625   4.227   3.113   7.179 -0.2460 -0.3807 -0.1481
 6331SOL    HW130626   4.304   3.065   7.149  0.2727  0.3369  0.0196
 6331SOL    HW230627   4.267   3.189   7.223  1.3757 -0.8912 -0.7539
 6332SOL     OW30628   3.350   0.153   7.643  0.1981  0.2807  0.4795
 6332SOL    HW130629   3.283   0.121   7.703 -0.4367  2.8647  1.1812
 6332SOL    HW230630   3.302   0.181   7.565 -0.4213 -0.2952  0.6607
 6333SOL     OW30631   3.247   3.418   4.685  0.1791 -0.5231  0.1840
 6333SOL    HW130632   3.160   3.455   4.703  0.1110 -0.1782 -0.8613
 6333SOL    HW230633   3.298   3.488   4.644  0.9308  0.0127  2.0318
 6334SOL     OW30634   0.322   3.120  15.776  0.6982 -0.0281  0.9570
 6334SOL    HW130635   0.329   3.053  15.707  0.8736 -0.0920  1.0378
 6334SOL    HW230636   0.260   3.181  15.736  0.1180 -1.3735 -0.2201
 6335SOL     OW30637   2.361   3.277   5.848  0.0040  0.0794  0.0766
 6335SOL    HW130638   2.424   3.339   5.810 -0.1902  0.2495  0.0329
 6335SOL    HW230639   2.405   3.275   5.933  1.5066  1.3397 -0.6728
 6336SOL     OW30640   2.905   0.304   2.339 -0.3177 -0.5150 -0.3563
 6336SOL    HW130641   2.910   0.227   2.396 -1.2365  1.3405  2.2228
 6336SOL    HW230642   2.998   0.324   2.328 -0.6441  1.3076  0.1298
 6337SOL     OW30643   3.836   4.145   6.224 -0.0055 -0.3044 -0.0673
 6337SOL    HW130644   3.907   4.136   6.161 -0.7877  3.0033 -1.4224
 6337SOL    HW230645   3.846   4.058   6.263  1.5246  0.6344  1.6331
 6338SOL     OW30646   1.422   4.265   1.044  0.4644  0.1482  0.3026
 6338SOL    HW130647   1.498   4.246   0.989  0.4768 -0.9459  0.7015
 6338SOL    HW230648   1.441   4.202   1.113  0.4233 -1.2363 -0.9449
 6339SOL     OW30649   4.017   3.022   6.813  0.2696 -0.0403 -0.1731
 6339SOL    HW130650   3.926   3.035   6.839  0.5891  1.5603  0.1499
 6339SOL    HW230651   4.011   2.927   6.826  0.5860  0.2396  2.1451
 6340SOL     OW30652   2.881   3.068   0.760  0.0973 -0.3485 -0.5015
 6340SOL    HW130653   2.883   3.155   0.799 -1.5634 -1.7740  2.7844
 6340SOL    HW230654   2.794   3.043   0.791  1.0074 -1.7032  0.9701
 6341SOL     OW30655   3.075   4.386   0.913 -0.2737  0.1968  0.4832
 6341SOL    HW130656   3.139   4.338   0.861  0.6336  0.7591  1.1020
 6341SOL    HW230657   3.103   4.351   0.997 -0.5545 -0.4141  0.3277
 6342SOL     OW30658   3.107   3.749  15.324  0.5798 -0.0736  0.2734
 6342SOL    HW130659   3.192   3.771  15.363 -0.4830  0.4067  2.3139
 6342SOL    HW230660   3.122   3.791  15.240 -1.2157 -0.0466 -0.0309
 6343SOL     OW30661   1.270   2.266   8.482  0.6957 -0.6177  0.1174
 6343SOL    HW130662   1.314   2.203   8.425 -2.1125 -1.7733 -0.7863
 6343SOL    HW230663   1.330   2.286   8.553  1.5713  1.0721 -1.1015
 6344SOL     OW30664   0.723   2.164   2.764  0.3716 -0.1128  0.5197
 6344SOL    HW130665   0.792   2.209   2.716  0.5384  0.4708  1.2918
 6344SOL    HW230666   0.666   2.133   2.694  2.4377  1.2506 -1.7658
 6345SOL     OW30667   4.504   4.701   6.647  0.2852  0.4175 -0.4093
 6345SOL    HW130668   4.575   4.638   6.638 -0.8449 -0.8039 -0.8198
 6345SOL    HW230669   4.512   4.737   6.735  1.0535  2.3971 -1.2740
 6346SOL     OW30670   4.331   3.564   4.861  0.4590  0.0581  0.5709
 6346SOL    HW130671   4.410   3.569   4.807 -0.1152 -1.1729 -0.3592
 6346SOL    HW230672   4.328   3.469   4.870  0.7032 -0.0328 -0.3033
 6347SOL     OW30673   4.539   2.045  11.011 -0.2634 -0.7759  0.0737
 6347SOL    HW130674   4.545   2.132  11.050  0.4838  0.0006 -1.7798
 6347SOL    HW230675   4.629   2.016  11.026  0.5939  0.8744 -1.8038
 6348SOL     OW30676   1.967   0.186   6.316 -0.3269  0.6321 -0.0642
 6348SOL    HW130677   2.038   0.135   6.277 -0.1527  0.0249  1.0567
 6348SOL    HW230678   2.003   0.192   6.405  1.3588  0.3890 -0.7133
 6349SOL     OW30679   1.203   1.817   5.645 -0.5511  0.2420  0.0176
 6349SOL    HW130680   1.165   1.888   5.698  1.7565  0.8487  0.8597
 6349SOL    HW230681   1.287   1.861   5.630 -0.0256 -0.3958  1.0852
 6350SOL     OW30682   3.414   3.615   4.572  0.2098 -0.2680  0.3545
 6350SOL    HW130683   3.468   3.626   4.494  0.4528 -2.9776  0.1199
 6350SOL    HW230684   3.422   3.708   4.594 -2.5562  0.4137 -1.5427
 6351SOL     OW30685   2.413   1.686   5.758 -0.5804  0.3467 -0.1483
 6351SOL    HW130686   2.471   1.627   5.805 -0.6194  0.1829 -0.3078
 6351SOL    HW230687   2.392   1.630   5.684 -0.9655 -1.1933  1.1290
 6352SOL     OW30688   2.299   1.317   3.648 -0.2930 -0.0990 -0.0554
 6352SOL    HW130689   2.354   1.243   3.674  0.4068  0.4398 -0.0254
 6352SOL    HW230690   2.230   1.306   3.713  0.5988  1.6788  1.1897
 6353SOL     OW30691   1.452   2.348  12.291 -0.2255  0.9247 -0.1546
 6353SOL    HW130692   1.505   2.427  12.288 -1.2042  1.6907  2.6910
 6353SOL    HW230693   1.464   2.320  12.201  0.5775  0.9529 -0.0517
 6354SOL     OW30694   3.467   2.257   6.381  0.0497  0.1380  0.4625
 6354SOL    HW130695   3.485   2.303   6.463  1.5072  0.5757 -0.0942
 6354SOL    HW230696   3.430   2.327   6.327  0.1495 -0.2063 -0.0537
 6355SOL     OW30697   4.101   4.208   9.063  0.3797  0.3382  0.1125
 6355SOL    HW130698   4.138   4.224   8.976 -0.8528 -0.2377 -0.5303
 6355SOL    HW230699   4.014   4.247   9.054  0.2508  0.2234  0.8462
 6356SOL     OW30700   0.195   4.449   4.723 -0.8155  0.2437 -0.4226
 6356SOL    HW130701   0.245   4.417   4.799 -1.3408  3.5928  1.3515
 6356SOL    HW230702   0.221   4.542   4.722 -2.1222  0.5986 -0.6550
 6357SOL     OW30703   1.686   0.736   4.574  1.0019  0.2286 -0.1130
 6357SOL    HW130704   1.670   0.649   4.609  0.2370  0.6710  0.6399
 6357SOL    HW230705   1.737   0.711   4.497 -0.0363 -0.5126 -0.5561
 6358SOL     OW30706   1.463   3.839   8.220  0.0647  0.0142 -0.7010
 6358SOL    HW130707   1.446   3.923   8.262  0.3420 -0.2987  0.0463
 6358SOL    HW230708   1.495   3.785   8.292 -1.8197  1.4022  1.1801
 6359SOL     OW30709   0.160   3.077   6.361 -0.1289  0.2686  0.2449
 6359SOL    HW130710   0.080   3.090   6.412  0.9834 -1.0883  2.3253
 6359SOL    HW230711   0.161   2.982   6.349 -1.3774  0.6600 -2.9804
 6360SOL     OW30712   1.777   3.103   2.782 -0.3813 -0.3149 -0.3521
 6360SOL    HW130713   1.701   3.069   2.830 -0.8379  0.6997 -0.3340
 6360SOL    HW230714   1.750   3.195   2.783 -0.8567 -0.4222 -2.8394
 6361SOL     OW30715   4.649   0.968  14.157 -0.2002  0.4012  0.2571
 6361SOL    HW130716   4.714   0.944  14.092 -0.5991  2.1088 -0.7683
 6361SOL    HW230717   4.691   1.034  14.212  0.6533  2.3250 -2.7483
 6362SOL     OW30718   2.214   3.886  13.860  0.7267 -0.1852 -0.3100
 6362SOL    HW130719   2.250   3.870  13.772  1.5116 -0.1418  0.0054
 6362SOL    HW230720   2.260   3.839  13.930 -1.4018  0.5975  1.6050
 6363SOL     OW30721   0.787   1.508   8.236  0.0149  0.3921  0.1996
 6363SOL    HW130722   0.775   1.601   8.219  0.7858  0.6484  1.0273
 6363SOL    HW230723   0.833   1.510   8.320  0.7439  1.6589 -0.2411
 6364SOL     OW30724   0.696   4.507   2.733 -0.2981 -0.0135  0.1373
 6364SOL    HW130725   0.655   4.445   2.794 -0.6171 -0.9822 -1.0437
 6364SOL    HW230726   0.628   4.574   2.742  1.2719  1.8781 -2.0216
 6365SOL     OW30727   0.455   0.630   9.805  0.3576 -0.4818  0.6513
 6365SOL    HW130728   0.442   0.578   9.725 -1.0443  0.8852 -0.0162
 6365SOL    HW230729   0.394   0.596   9.870 -0.3092 -0.9621 -0.2149
 6366SOL     OW30730   3.264   2.212   4.148 -0.0415  0.2679  0.1376
 6366SOL    HW130731   3.221   2.228   4.232  1.2395  0.7868  0.6945
 6366SOL    HW230732   3.308   2.129   4.163  1.2715  1.5804  3.6750
 6367SOL     OW30733   2.720   4.334  17.736 -0.8635  0.3277  0.2346
 6367SOL    HW130734   2.800   4.346  17.684  0.2380 -1.2399  1.5455
 6367SOL    HW230735   2.710   4.422   0.016  1.2306  0.3709  0.7445
 6368SOL     OW30736   4.261   3.660  12.381  0.2464 -0.1766  0.1549
 6368SOL    HW130737   4.293   3.612  12.305 -0.2882  0.2308 -0.3242
 6368SOL    HW230738   4.302   3.745  12.366 -0.2286  0.1558  0.7098
 6369SOL     OW30739   2.213   3.013  14.962  0.5212 -0.0928  0.0116
 6369SOL    HW130740   2.176   3.023  14.874  0.3328  0.5150  0.1623
 6369SOL    HW230741   2.285   2.952  14.944 -1.5589 -3.1592  2.0291
 6370SOL     OW30742   0.581   3.060   7.313 -0.2273  0.0213  0.7688
 6370SOL    HW130743   0.541   3.115   7.245 -0.3346  0.1807  0.9635
 6370SOL    HW230744   0.610   3.133   7.367  3.0369 -0.6381 -0.0625
 6371SOL     OW30745   1.041   4.410   6.749  0.0201 -0.6809  0.3206
 6371SOL    HW130746   1.125   4.377   6.716  0.6973 -0.2238  1.6161
 6371SOL    HW230747   1.070   4.452   6.830  0.7530  0.3650 -0.4684
 6372SOL     OW30748   0.765   4.538   6.121 -0.2199 -0.1447  0.3744
 6372SOL    HW130749   0.847   4.582   6.097 -0.1295  0.4913  1.8553
 6372SOL    HW230750   0.765   4.561   6.214  1.1623  1.1439  0.0647
 6373SOL     OW30751   1.149   1.706   9.920 -0.1168  0.4396  0.6896
 6373SOL    HW130752   1.113   1.686   9.834  0.2799  1.3834  0.2957
 6373SOL    HW230753   1.089   1.776   9.946 -1.2795  0.9774 -3.3351
 6374SOL     OW30754   0.539   0.055   8.851  0.5101 -0.3015  0.1660
 6374SOL    HW130755   0.584   0.114   8.911 -0.2193  1.1812 -0.7364
 6374SOL    HW230756   0.494   0.110   8.787  1.9523  1.3574  0.5999
 6375SOL     OW30757   3.596   0.857  11.782  0.3615 -0.1208 -0.1662
 6375SOL    HW130758   3.620   0.851  11.690  1.4158  3.9725 -0.1495
 6375SOL    HW230759   3.501   0.852  11.769  0.3919 -1.1022 -0.0231
 6376SOL     OW30760   1.404   1.110   2.983  0.8416 -0.1453 -0.4683
 6376SOL    HW130761   1.310   1.089   2.978  0.5364  1.2243 -0.3605
 6376SOL    HW230762   1.438   1.035   3.032  0.0928 -0.0889  0.1447
 6377SOL     OW30763   3.356   3.838   0.198  0.0797 -0.1368 -0.2591
 6377SOL    HW130764   3.275   3.808   0.241  1.6112 -0.7457  2.1570
 6377SOL    HW230765   3.415   3.764   0.209  0.9179  0.6051  0.1892
 6378SOL     OW30766   3.727   3.797   4.039 -0.2424  0.6377 -0.7954
 6378SOL    HW130767   3.763   3.829   4.121  2.1768  0.4257 -1.7691
 6378SOL    HW230768   3.665   3.869   4.022 -1.1787 -0.0839 -0.4055
 6379SOL     OW30769   1.707   3.099   8.814  0.3560  0.1721  0.0329
 6379SOL    HW130770   1.704   3.093   8.910  0.8274  0.1327  0.0454
 6379SOL    HW230771   1.753   3.016   8.800  2.3534  1.3294 -0.3960
 6380SOL     OW30772   1.945   0.873  11.050  0.0610 -0.2594  0.3447
 6380SOL    HW130773   1.938   0.963  11.016  0.2544  0.1322  1.3361
 6380SOL    HW230774   2.005   0.881  11.123 -1.1183 -0.9141  1.3813
 6381SOL     OW30775   1.610   4.116   3.469  0.6234  0.1562 -0.5797
 6381SOL    HW130776   1.628   4.068   3.550 -2.5371  1.1274  0.6855
 6381SOL    HW230777   1.573   4.197   3.504 -2.0988 -1.1524 -0.4655
 6382SOL     OW30778   1.206   4.393   8.600 -0.6190 -0.1831 -0.4591
 6382SOL    HW130779   1.235   4.352   8.519  0.1206 -0.1804 -0.2026
 6382SOL    HW230780   1.296   4.400   8.634 -1.0422 -0.8617  0.8084
 6383SOL     OW30781   1.886   2.088   4.157 -0.3983 -0.0509 -0.1487
 6383SOL    HW130782   1.857   2.008   4.112  0.2197  0.8015 -2.0763
 6383SOL    HW230783   1.804   2.136   4.142  0.3719  1.3512  0.1486
 6384SOL     OW30784   1.484   4.097   5.443  0.0958 -0.2972 -0.1215
 6384SOL    HW130785   1.469   4.006   5.469  0.6017 -0.9936 -2.2928
 6384SOL    HW230786   1.519   4.130   5.526  2.3602 -2.1586 -0.3403
 6385SOL     OW30787   2.383   0.845  13.640  0.3650 -0.0328 -0.5967
 6385SOL    HW130788   2.386   0.753  13.667  1.3527  0.3488  0.6111
 6385SOL    HW230789   2.326   0.887  13.704  0.4776 -2.9528  1.4016
 6386SOL     OW30790   3.584   0.756   3.610 -0.4768 -0.2682  0.0900
 6386SOL    HW130791   3.547   0.810   3.541 -0.4242 -0.1310  0.1701
 6386SOL    HW230792   3.562   0.669   3.576 -0.1315  0.3344 -1.6351
 6387SOL     OW30793   4.532   1.611   4.353  0.6265 -0.1015 -0.0258
 6387SOL    HW130794   4.481   1.647   4.425  0.2700 -0.1478 -0.2531
 6387SOL    HW230795   4.619   1.612   4.392  1.1099  0.7608 -1.1389
 6388SOL     OW30796   3.622   0.039   1.887 -0.0338 -0.3510  0.1699
 6388SOL    HW130797   3.588   4.697   1.923 -1.9629 -0.0612 -0.9802
 6388SOL    HW230798   3.652   0.079   1.968 -1.2105 -2.9494  1.9131
 6389SOL     OW30799   4.097   0.471   3.075 -0.0106 -0.1861  0.9160
 6389SOL    HW130800   4.005   0.465   3.101 -0.2739 -0.2580 -0.0342
 6389SOL    HW230801   4.107   0.389   3.025  0.9413 -0.5353  1.6702
 6390SOL     OW30802   2.676   0.612  17.055 -0.9121  0.1753  0.0899
 6390SOL    HW130803   2.605   0.566  17.099 -1.3372 -0.1917 -0.9841
 6390SOL    HW230804   2.628   0.673  16.998 -2.2545  0.1033  1.1654
 6391SOL     OW30805   4.679   4.686  14.081  0.3679 -0.5179  0.1250
 6391SOL    HW130806   4.652   4.601  14.045 -2.6094 -0.0076  1.1681
 6391SOL    HW230807   0.029   4.681  14.047  0.3601  1.3244 -0.1303
 6392SOL     OW30808   2.003   2.235   0.855 -0.0932 -0.2544 -0.0554
 6392SOL    HW130809   1.952   2.245   0.775 -0.8514 -0.4658  0.3975
 6392SOL    HW230810   1.951   2.177   0.911 -0.7096 -2.0358 -2.4860
 6393SOL     OW30811   4.286   4.684   4.269 -0.2429 -0.3826  0.8775
 6393SOL    HW130812   4.338   4.618   4.223 -1.6298 -0.4749 -0.5973
 6393SOL    HW230813   4.354   4.707   4.332 -0.6956 -0.6642  1.4708
 6394SOL     OW30814   4.403   0.759   0.591 -0.2122  0.1908  0.1849
 6394SOL    HW130815   4.446   0.682   0.554  0.3523  1.0501 -0.9403
 6394SOL    HW230816   4.329   0.783   0.535 -0.1015  0.8001  0.3058
 6395SOL     OW30817   2.320   0.289  14.788  0.3604  0.4001  0.2330
 6395SOL    HW130818   2.274   0.369  14.763  1.1799  0.2012 -1.8601
 6395SOL    HW230819   2.362   0.326  14.866  0.4252  1.1405 -0.1558
 6396SOL     OW30820   4.212   1.981  17.263  0.3926  0.3838  0.0964
 6396SOL    HW130821   4.260   2.063  17.251  0.5033  0.6227  2.3262
 6396SOL    HW230822   4.221   1.935  17.179 -4.3972  1.6134 -1.0861
 6397SOL     OW30823   2.753   0.086   7.443  0.2842  0.3043 -0.0722
 6397SOL    HW130824   2.730   0.179   7.445  1.0910  0.4693  1.4292
 6397SOL    HW230825   2.784   0.072   7.532 -3.4509 -3.8544  0.5708
 6398SOL     OW30826   2.699   3.707   5.741  0.4771  0.0109  0.2988
 6398SOL    HW130827   2.659   3.756   5.813  0.3516 -1.1876  1.0459
 6398SOL    HW230828   2.724   3.624   5.782 -0.8477 -1.9519 -2.9273
 6399SOL     OW30829   3.532   0.729   0.685  0.1218 -0.1105  0.3371
 6399SOL    HW130830   3.478   0.775   0.749 -0.0713  0.2621 -0.0875
 6399SOL    HW230831   3.565   0.660   0.741 -1.1493 -3.0565 -2.5698
 6400SOL     OW30832   0.052   2.232   6.303  0.1221 -0.1889 -0.5317
 6400SOL    HW130833   0.059   2.170   6.376  0.6609 -0.6192 -0.9413
 6400SOL    HW230834   0.141   2.231   6.267  0.5669 -0.4573  0.5701
 6401SOL     OW30835   1.733   1.408   0.187 -0.2422  0.0950 -0.3018
 6401SOL    HW130836   1.698   1.320   0.204 -1.2656  0.5454 -0.1068
 6401SOL    HW230837   1.696   1.435   0.103 -2.8710 -2.0785  0.1546
 6402SOL     OW30838   1.775   2.407   5.640 -0.4475  0.3153  0.3487
 6402SOL    HW130839   1.747   2.498   5.638 -0.4596  0.2909 -0.7081
 6402SOL    HW230840   1.814   2.400   5.553 -2.5011  0.7448 -0.5953
 6403SOL     OW30841   2.883   0.347   2.997 -0.2678  0.9376  0.3579
 6403SOL    HW130842   2.849   0.417   2.942  0.4552 -2.1371 -4.0692
 6403SOL    HW230843   2.861   0.390   3.079 -1.0476 -1.7778  1.5781
 6404SOL     OW30844   4.166   1.545   0.123 -0.6968  0.0002  0.0176
 6404SOL    HW130845   4.180   1.601   0.047  2.3968 -0.0679  0.5499
 6404SOL    HW230846   4.248   1.559   0.171 -0.7730 -0.5406  0.3067
 6405SOL     OW30847   4.501   4.535  10.480 -0.1550  0.3945 -0.4592
 6405SOL    HW130848   4.536   4.496  10.400  0.3824 -0.9116  0.4059
 6405SOL    HW230849   4.543   4.482  10.548 -0.0294  1.3252  0.1976
 6406SOL     OW30850   0.993   4.442   3.125  0.0372 -0.2478 -0.0378
 6406SOL    HW130851   1.086   4.447   3.146  0.4659  1.4998 -2.3665
 6406SOL    HW230852   0.962   4.514   3.179 -0.5583  0.7473 -1.7133
 6407SOL     OW30853   4.591   1.867   6.272 -0.1445 -0.3825 -0.2952
 6407SOL    HW130854   4.507   1.869   6.227  0.1942  1.6996 -0.8044
 6407SOL    HW230855   4.587   1.943   6.330  0.9262 -0.5950  0.0533
 6408SOL     OW30856   2.729   1.509   2.595 -0.0985 -0.1269 -0.1557
 6408SOL    HW130857   2.716   1.574   2.664 -2.0583 -0.3024 -0.3667
 6408SOL    HW230858   2.823   1.517   2.580 -0.2461  2.0791  0.1368
 6409SOL     OW30859   4.479   0.985   7.290  0.0278 -0.2755 -0.0029
 6409SOL    HW130860   4.419   0.915   7.317  2.3719 -1.9635  0.7821
 6409SOL    HW230861   4.446   1.012   7.204 -0.7161  4.4023  1.7107
 6410SOL     OW30862   2.955   2.452   2.493  0.4926  0.2736 -0.4241
 6410SOL    HW130863   3.004   2.534   2.501  1.0937 -0.1691  0.4795
 6410SOL    HW230864   2.869   2.486   2.516 -0.1636 -2.1957  0.7574
 6411SOL     OW30865   4.429   2.253   7.579 -0.1017  0.1487 -0.6038
 6411SOL    HW130866   4.394   2.323   7.524  1.5439  2.5090  1.3329
 6411SOL    HW230867   4.485   2.205   7.519  1.0817 -0.9930  1.4132
 6412SOL     OW30868   4.141   0.808   2.783  0.5380 -0.1767  0.0642
 6412SOL    HW130869   4.053   0.771   2.785  0.7889 -0.9071 -2.9993
 6412SOL    HW230870   4.116   0.881   2.840  0.8425 -1.9876  2.5405
 6413SOL     OW30871   3.372   0.104   5.818  0.1569  0.6289 -0.6575
 6413SOL    HW130872   3.314   0.067   5.884 -1.4029  3.6736 -0.2864
 6413SOL    HW230873   3.386   0.021   5.773  1.1459  1.8152 -2.5358
 6414SOL     OW30874   4.225   3.848   3.244 -0.3459  0.9042 -0.1766
 6414SOL    HW130875   4.224   3.802   3.328  2.2723 -1.0686 -1.1979
 6414SOL    HW230876   4.173   3.790   3.188 -1.6072  1.6651  0.2106
 6415SOL     OW30877   2.118   0.256  13.578  0.3521  0.3676  0.1299
 6415SOL    HW130878   2.118   0.319  13.506 -3.7587  0.2678  0.0387
 6415SOL    HW230879   2.188   0.298  13.628  0.9224 -1.6130  1.0249
 6416SOL     OW30880   2.708   4.479  11.080  0.5042 -0.4334  0.6317
 6416SOL    HW130881   2.763   4.537  11.132 -1.3776  1.4250  0.5321
 6416SOL    HW230882   2.733   4.493  10.988 -0.4140 -2.2430  0.1048
 6417SOL     OW30883   4.028   3.114   7.353  0.0395  0.4961 -0.4040
 6417SOL    HW130884   4.008   3.037   7.406  1.0005  0.5807  0.0805
 6417SOL    HW230885   4.094   3.082   7.291  0.2487 -0.1856  0.1693
 6418SOL     OW30886   0.171   3.589   9.087  0.1842  0.2869  0.0466
 6418SOL    HW130887   0.263   3.599   9.062 -0.2240 -0.7317 -1.8459
 6418SOL    HW230888   0.171   3.496   9.110 -1.2150  0.3306  0.2359
 6419SOL     OW30889   1.716   4.308   6.909  0.2959 -0.1494  0.1862
 6419SOL    HW130890   1.762   4.391   6.898 -1.1518  0.8221  1.4865
 6419SOL    HW230891   1.654   4.305   6.837  2.4990 -3.2787 -1.5754
 6420SOL     OW30892   3.180   2.208  10.866 -0.1427  0.0667  0.6024
 6420SOL    HW130893   3.129   2.126  10.872 -2.1601  1.2262 -0.6855
 6420SOL    HW230894   3.147   2.259  10.940  1.9020  2.6127 -0.2707
 6421SOL     OW30895   1.994   1.878   2.766  0.1166  0.1916  0.4030
 6421SOL    HW130896   1.899   1.887   2.762  0.2907  1.1444 -1.9221
 6421SOL    HW230897   2.001   1.876   2.861  0.2258  1.6783  0.4257
 6422SOL     OW30898   4.482   4.626  17.065 -0.0928  0.4526  0.0510
 6422SOL    HW130899   4.499   4.570  16.989 -1.3271  1.1514 -0.7344
 6422SOL    HW230900   4.571   4.637  17.098  0.4357 -2.2742 -0.4948
 6423SOL     OW30901   4.531   0.496   5.298 -0.1190 -0.5171  0.3592
 6423SOL    HW130902   4.506   0.422   5.243 -1.4081 -1.1380  1.7670
 6423SOL    HW230903   4.460   0.559   5.286 -1.1020 -1.8963 -1.0228
 6424SOL     OW30904   0.483   2.672   4.457  0.0508 -0.2397  0.1965
 6424SOL    HW130905   0.536   2.684   4.378  1.7163  1.3936  1.5809
 6424SOL    HW230906   0.425   2.747   4.442  1.1025  0.5054 -0.1217
 6425SOL     OW30907   4.378   1.267   7.363  0.1492 -0.0619 -0.0377
 6425SOL    HW130908   4.411   1.296   7.449  2.8787 -1.8103 -0.4860
 6425SOL    HW230909   4.370   1.172   7.372 -2.5311  0.3324  1.7108
 6426SOL     OW30910   2.531   0.085   4.545 -0.8337 -0.5470 -0.9708
 6426SOL    HW130911   2.507   0.003   4.502  1.3212 -0.3807 -2.4947
 6426SOL    HW230912   2.596   0.134   4.494 -0.0774  0.1594  0.6762
 6427SOL     OW30913   0.354   4.136   2.251 -0.5384 -0.2464  0.0768
 6427SOL    HW130914   0.420   4.102   2.310 -0.4393 -0.8779 -0.3955
 6427SOL    HW230915   0.373   4.076   2.179 -2.0744 -0.8352  0.1469
 6428SOL     OW30916   3.600   3.370   2.706 -0.7141 -0.2835 -0.1159
 6428SOL    HW130917   3.592   3.399   2.616 -0.3725  1.6235  0.4820
 6428SOL    HW230918   3.602   3.454   2.752  1.6202 -0.0631 -0.6453
 6429SOL     OW30919   3.919   2.325   5.257 -0.2663 -0.0347 -0.0600
 6429SOL    HW130920   3.985   2.288   5.316 -0.0613  2.7700  1.4720
 6429SOL    HW230921   3.904   2.398   5.318  2.1887 -1.2739  2.0364
 6430SOL     OW30922   0.770   0.082   6.574 -0.4374  0.2161  0.2082
 6430SOL    HW130923   0.854   0.110   6.610  0.8588 -0.0748 -2.5658
 6430SOL    HW230924   0.746   0.012   6.634  0.3152 -1.4651 -1.4644
 6431SOL     OW30925   4.564   0.351   4.861 -0.3317  0.1148  0.3724
 6431SOL    HW130926   4.573   0.445   4.844  0.0297 -0.1478 -0.8841
 6431SOL    HW230927   4.535   0.310   4.779  1.8937 -1.8176  0.5655
 6432SOL     OW30928   4.388   3.110   7.500  0.4793 -0.3049  0.1931
 6432SOL    HW130929   4.307   3.084   7.544 -0.4689 -0.3468 -1.5752
 6432SOL    HW230930   4.430   3.026   7.481 -1.7157 -1.3530  0.0292
 6433SOL     OW30931   3.768   1.141   8.095 -0.9097  0.0220 -0.6719
 6433SOL    HW130932   3.796   1.214   8.041 -1.0680 -0.9672 -2.0870
 6433SOL    HW230933   3.696   1.108   8.041 -2.5110  0.7190  1.0383
 6434SOL     OW30934   4.253   2.538   1.611 -0.3985 -0.3587 -0.1782
 6434SOL    HW130935   4.179   2.477   1.610  1.2218 -2.3239 -1.6355
 6434SOL    HW230936   4.249   2.576   1.699 -0.3759 -0.8525  0.0367
 6435SOL     OW30937   0.182   0.194   1.589 -0.1106  0.2702 -0.1747
 6435SOL    HW130938   0.161   0.236   1.672 -0.2453  4.6228 -2.4113
 6435SOL    HW230939   0.100   0.153   1.561 -0.7082  0.4973  1.2507
 6436SOL     OW30940   4.220   3.784  10.109  0.0693  0.4369  0.2822
 6436SOL    HW130941   4.276   3.707  10.095 -1.7720 -0.0510 -4.5158
 6436SOL    HW230942   4.232   3.807  10.201  0.9373 -0.7661  0.4674
 6437SOL     OW30943   2.633   2.874   3.054 -0.2040 -0.5112 -0.0625
 6437SOL    HW130944   2.649   2.924   2.974  0.4108  0.8909  0.9255
 6437SOL    HW230945   2.720   2.874   3.094  0.0096 -1.9145 -0.5277
 6438SOL     OW30946   3.087   3.129   4.215 -0.8349  0.0659 -0.3936
 6438SOL    HW130947   3.039   3.053   4.247 -0.8496  0.0490 -0.4554
 6438SOL    HW230948   3.176   3.100   4.234 -0.4938  0.4196 -1.4441
 6439SOL     OW30949   2.595   1.777  14.177 -0.4925  0.2332  0.5964
 6439SOL    HW130950   2.557   1.697  14.214 -0.3535  0.2089  0.6882
 6439SOL    HW230951   2.638   1.744  14.099 -2.1290 -0.3530 -0.0641
 6440SOL     OW30952   4.290   2.155  17.531 -0.0958 -0.0336 -0.0173
 6440SOL    HW130953   4.197   2.174  17.541 -1.0041 -4.6158  0.3217
 6440SOL    HW230954   4.320   2.192  17.614 -1.5126  0.5528  0.2268
 6441SOL     OW30955   0.036   0.832  16.777  0.3849  0.8806 -0.0979
 6441SOL    HW130956   0.031   0.859  16.869 -0.1032  0.5967 -0.0398
 6441SOL    HW230957   4.686   0.836  16.745 -0.2589 -1.7479  1.3406
 6442SOL     OW30958   2.545   2.381   3.467  0.2640 -0.4212  0.2105
 6442SOL    HW130959   2.511   2.292   3.461 -0.1411 -0.3915  2.2186
 6442SOL    HW230960   2.592   2.400   3.548  0.3184  0.0337  0.0741
 6443SOL     OW30961   0.898   4.259   7.754 -0.1573  0.4829  0.6285
 6443SOL    HW130962   0.904   4.239   7.847 -2.0033  0.7114  0.7855
 6443SOL    HW230963   0.805   4.280   7.751 -0.0997  0.8303  1.3008
 6444SOL     OW30964   3.313   0.843   5.864 -0.2339 -0.1811 -0.2515
 6444SOL    HW130965   3.282   0.775   5.922 -0.7949 -0.6971 -1.1555
 6444SOL    HW230966   3.312   0.928   5.908  1.2228  0.4194 -1.3630
 6445SOL     OW30967   1.532   3.028   4.225  0.3467  0.2390  0.2002
 6445SOL    HW130968   1.570   3.098   4.171 -0.3154  0.3712 -0.0897
 6445SOL    HW230969   1.605   2.966   4.230  0.7442  0.4686 -2.6828
 6446SOL     OW30970   0.087   1.430  10.984  0.6370  0.1259  0.0266
 6446SOL    HW130971   0.016   1.453  11.044  1.5483  2.2742  0.2985
 6446SOL    HW230972   0.135   1.363  11.034 -0.1826 -1.8609 -1.8555
 6447SOL     OW30973   4.724   0.929   8.874 -0.1511  0.3340  0.1112
 6447SOL    HW130974   4.660   0.980   8.824  0.1904  1.5904  0.9317
 6447SOL    HW230975   0.034   1.000   8.915  0.7096 -0.3003  0.1549
 6448SOL     OW30976   4.288   2.041  15.780 -0.3752 -0.2207 -0.1109
 6448SOL    HW130977   4.241   1.958  15.772  0.2391 -0.3857 -1.8781
 6448SOL    HW230978   4.230   2.086  15.841  1.8463  1.5399  0.7294
 6449SOL     OW30979   2.141   3.037   9.362 -0.4101  0.0475 -0.0102
 6449SOL    HW130980   2.134   2.955   9.411  1.5726  0.1538  0.4711
 6449SOL    HW230981   2.218   3.022   9.307  1.5868  2.0986  2.1940
 6450SOL     OW30982   1.694   0.907   2.733  0.2827  0.1045  0.2565
 6450SOL    HW130983   1.782   0.871   2.733 -0.5978 -2.0211 -1.4513
 6450SOL    HW230984   1.697   0.991   2.687 -0.4413  0.9749  1.7917
 6451SOL     OW30985   3.852   0.337   3.037 -0.4360 -0.0418 -0.6047
 6451SOL    HW130986   3.888   0.262   3.084  0.6356  0.8613 -0.0050
 6451SOL    HW230987   3.856   0.303   2.947 -1.3994 -2.8425  0.3960
 6452SOL     OW30988   0.074   4.720   9.207  0.1709  0.9451 -0.5957
 6452SOL    HW130989   0.045   4.646   9.154  1.7269 -1.0191  1.2518
 6452SOL    HW230990   0.105   0.040   9.139  1.4502  0.5427 -0.3781
 6453SOL     OW30991   2.075   3.718  15.197 -0.0560 -0.3878  0.3894
 6453SOL    HW130992   2.110   3.762  15.119 -0.2407 -0.1444  0.4419
 6453SOL    HW230993   2.059   3.632  15.157 -0.3947 -0.2185  0.1571
 6454SOL     OW30994   2.989   4.674  12.484  0.1363  0.4312 -0.2580
 6454SOL    HW130995   2.896   4.653  12.477  0.9608 -2.8020 -1.6266
 6454SOL    HW230996   3.021   4.584  12.474  1.2407  0.5906  1.6613
 6455SOL     OW30997   2.648   4.298  12.779  0.2808 -0.0118  0.0749
 6455SOL    HW130998   2.598   4.345  12.712  1.1769 -0.0503 -0.6282
 6455SOL    HW230999   2.735   4.305  12.741  0.7161  0.5882  1.1920
 6456SOL     OW31000   2.443   2.158   8.801 -0.7545 -0.0856  0.1490
 6456SOL    HW131001   2.428   2.230   8.740 -1.3692 -1.1560 -0.9788
 6456SOL    HW231002   2.403   2.087   8.751  0.3807  0.7390 -1.9135
 6457SOL     OW31003   4.481   0.744  14.137  0.1711 -0.5374 -0.2243
 6457SOL    HW131004   4.575   0.724  14.129  0.5195 -0.0553  2.6249
 6457SOL    HW231005   4.488   0.839  14.154 -1.3186 -0.7924  1.8462
 6458SOL     OW31006   4.415   4.027   3.315  0.4243  0.3099 -0.0481
 6458SOL    HW131007   4.365   4.094   3.270  1.5202  0.1905 -1.4367
 6458SOL    HW231008   4.372   3.948   3.282 -0.1790 -0.3723  2.3386
 6459SOL     OW31009   3.292   4.140   5.957 -0.2617 -0.2763 -0.5598
 6459SOL    HW131010   3.207   4.106   5.984  0.3821 -0.9696  0.5796
 6459SOL    HW231011   3.279   4.163   5.865 -1.2748  3.0703  0.4251
 6460SOL     OW31012   0.225   1.049   7.524  0.4489 -0.4100  0.2138
 6460SOL    HW131013   0.142   1.067   7.480 -0.3119 -0.0339  1.8026
 6460SOL    HW231014   0.250   0.963   7.492  1.9097 -0.5236  1.6838
 6461SOL     OW31015   0.914   3.516  12.123 -0.1443  0.3488  0.1939
 6461SOL    HW131016   0.890   3.604  12.094  2.4273  1.6770  2.0334
 6461SOL    HW231017   0.961   3.545  12.201  0.2588  1.1316 -0.3363
 6462SOL     OW31018   0.910   2.658   4.273  0.3513  0.0684 -0.0094
 6462SOL    HW131019   0.902   2.605   4.352  2.0487 -0.5882 -0.2838
 6462SOL    HW231020   0.818   2.682   4.257  0.4760  0.5028 -0.0733
 6463SOL     OW31021   0.019   2.806   2.830 -0.1050 -0.0130 -0.3445
 6463SOL    HW131022   0.065   2.724   2.847  0.8849  0.9764  1.7841
 6463SOL    HW231023   4.664   2.800   2.841 -0.4366  0.6487 -2.8745
 6464SOL     OW31024   0.711   4.633   5.531 -0.3371  0.7078  0.6992
 6464SOL    HW131025   0.767   4.586   5.592 -1.9179 -0.3727  1.2998
 6464SOL    HW231026   0.755   4.623   5.446  1.0001  1.3583  1.3086
 6465SOL     OW31027   2.427   1.321  13.475 -0.7142  0.3304 -0.2557
 6465SOL    HW131028   2.376   1.330  13.555  0.4745  3.2734  0.1996
 6465SOL    HW231029   2.512   1.356  13.503 -0.5804  0.6328 -1.0282
 6466SOL     OW31030   1.553   1.238   5.134 -0.2105 -0.6181  0.1545
 6466SOL    HW131031   1.487   1.232   5.066 -1.2470 -1.6487  1.2668
 6466SOL    HW231032   1.628   1.196   5.092  1.0448  0.5301  1.2287
 6467SOL     OW31033   0.697   3.660   4.386 -0.2054 -0.2117  0.1688
 6467SOL    HW131034   0.629   3.720   4.355  0.0262 -0.3912 -0.7014
 6467SOL    HW231035   0.740   3.630   4.306 -0.2958 -2.3395  0.9169
 6468SOL     OW31036   2.711   2.302   2.764  0.9094 -0.1172 -0.0674
 6468SOL    HW131037   2.677   2.356   2.692  0.3302 -1.7382 -1.0230
 6468SOL    HW231038   2.693   2.214   2.730 -2.8235  0.6063 -0.0164
 6469SOL     OW31039   2.372   1.975  14.027  0.1488 -0.5921  0.4370
 6469SOL    HW131040   2.335   1.888  14.045  0.6688 -0.9175 -0.0478
 6469SOL    HW231041   2.352   1.971  13.933  1.1515  0.4689  0.1850
 6470SOL     OW31042   3.208   3.432   6.352 -0.4293  0.3977  0.1383
 6470SOL    HW131043   3.142   3.363   6.361 -0.7840  0.7983  0.6371
 6470SOL    HW231044   3.292   3.388   6.363 -0.4091 -0.0657 -1.8458
 6471SOL     OW31045   1.457   0.420   2.644  0.3570 -0.6120 -0.1272
 6471SOL    HW131046   1.446   0.514   2.629 -1.8426 -0.5415  1.9650
 6471SOL    HW231047   1.394   0.380   2.585  0.6002  0.4104 -1.0861
 6472SOL     OW31048   0.903   4.539   5.700  0.2740 -0.5841 -0.0657
 6472SOL    HW131049   0.934   4.506   5.783  0.1958  0.3827  0.3483
 6472SOL    HW231050   0.948   4.472   5.650 -0.7217  0.0333 -1.8154
 6473SOL     OW31051   3.142   0.328  12.444 -0.0199 -0.7105  0.3781
 6473SOL    HW131052   3.185   0.247  12.471  0.7740 -0.3885  0.0623
 6473SOL    HW231053   3.150   0.327  12.349  2.9999 -0.7220  0.6436
 6474SOL     OW31054   1.610   2.051   4.470  0.0380 -0.0869  0.1078
 6474SOL    HW131055   1.628   2.114   4.400 -1.0613 -0.2619 -0.3409
 6474SOL    HW231056   1.520   2.070   4.496 -0.1213  1.1169 -1.3044
 6475SOL     OW31057   1.052   1.087  15.434 -0.3558  0.1536 -0.0652
 6475SOL    HW131058   1.043   1.139  15.514 -1.0091 -0.0453 -0.0097
 6475SOL    HW231059   1.029   0.998  15.461 -1.7265 -0.1146 -2.1208
 6476SOL     OW31060   4.466   1.622   0.278 -0.5022  0.4489  0.1897
 6476SOL    HW131061   4.468   1.549   0.340 -0.3382 -0.9161 -1.3879
 6476SOL    HW231062   4.524   1.590   0.208 -1.4035 -1.4854  0.3063
 6477SOL     OW31063   0.704   2.700   0.705 -0.3764 -0.0688 -0.4244
 6477SOL    HW131064   0.697   2.699   0.609  3.1192  1.3972 -0.7182
 6477SOL    HW231065   0.676   2.790   0.722 -0.5033  0.0474 -1.2342
 6478SOL     OW31066   1.542   2.293   6.794  0.3591 -0.3950 -0.0955
 6478SOL    HW131067   1.615   2.252   6.750 -0.5750 -0.0770 -1.9286
 6478SOL    HW231068   1.552   2.384   6.766  1.6322 -0.2783  0.7204
 6479SOL     OW31069   1.467   2.785   5.780 -0.7578 -0.3571 -0.4474
 6479SOL    HW131070   1.494   2.734   5.856  0.3543  2.3805  0.9632
 6479SOL    HW231071   1.463   2.876   5.808  1.2571 -0.9651  1.7737
 6480SOL     OW31072   0.152   4.261   2.061  0.4053  0.2698  0.0417
 6480SOL    HW131073   0.092   4.224   2.126  1.2724 -2.2360 -0.5562
 6480SOL    HW231074   0.119   4.349   2.048 -0.7367 -0.5071 -2.4297
 6481SOL     OW31075   3.412   0.575   5.237 -0.9592  0.4740 -0.3740
 6481SOL    HW131076   3.410   0.563   5.332  0.3368  0.8476 -0.2959
 6481SOL    HW231077   3.419   0.671   5.236 -0.7244  0.4341 -3.7720
 6482SOL     OW31078   0.172   3.367  14.030  0.7445 -0.0162  0.0937
 6482SOL    HW131079   0.247   3.374  14.089 -0.0568 -0.3108  1.1523
 6482SOL    HW231080   0.200   3.293  13.976 -0.2723 -1.0806  1.0227
 6483SOL     OW31081   0.909   1.915   3.848 -0.2139 -0.1333  0.2298
 6483SOL    HW131082   0.964   1.964   3.786  0.7274 -1.0741  0.3107
 6483SOL    HW231083   0.872   1.844   3.796  3.7174 -1.8958 -0.1979
 6484SOL     OW31084   1.796   3.413  13.042  0.0484 -0.3134 -0.3030
 6484SOL    HW131085   1.753   3.378  13.120  0.6094 -2.6468 -1.0313
 6484SOL    HW231086   1.868   3.466  13.074 -2.2184  1.7731  1.3682
 6485SOL     OW31087   2.308   1.151  13.670 -0.3722  0.8298  0.3279
 6485SOL    HW131088   2.312   1.115  13.581 -3.5880  0.5001  0.3041
 6485SOL    HW231089   2.348   1.080  13.720  0.4191  0.2255 -1.1646
 6486SOL     OW31090   0.142   0.049   8.062  0.1453 -0.3220  0.4788
 6486SOL    HW131091   0.231   0.016   8.072  1.0834  2.4944  1.3414
 6486SOL    HW231092   0.085   4.712   8.066 -1.0710  0.6908  2.5198
 6487SOL     OW31093   3.476   2.755   4.705  0.2156 -0.3558 -0.0926
 6487SOL    HW131094   3.541   2.805   4.754 -1.3489  0.9208  0.6659
 6487SOL    HW231095   3.468   2.684   4.769 -1.4871  0.5605  0.7085
 6488SOL     OW31096   1.209   3.290  13.603  0.4836  0.3177 -0.1066
 6488SOL    HW131097   1.162   3.248  13.530  2.0273 -2.9452  0.7608
 6488SOL    HW231098   1.296   3.296  13.565  1.4584  2.9433  2.6048
 6489SOL     OW31099   3.795   2.890   2.902  0.1702 -0.5690 -0.3414
 6489SOL    HW131100   3.722   2.938   2.941  1.3545  0.2805  0.8241
 6489SOL    HW231101   3.824   2.839   2.978 -0.4949  0.5083  0.6324
 6490SOL     OW31102   4.571   2.372   4.499  0.0328  0.2130  0.1599
 6490SOL    HW131103   4.645   2.390   4.441 -0.5866  0.7418 -0.4583
 6490SOL    HW231104   4.617   2.353   4.581  0.9854  0.0297 -0.4077
 6491SOL     OW31105   0.695   3.564  16.924 -0.4734  0.2943  0.7098
 6491SOL    HW131106   0.691   3.536  16.833 -2.9022 -1.6840  1.3944
 6491SOL    HW231107   0.604   3.568  16.955 -1.5882 -1.1302 -2.4319
 6492SOL     OW31108   3.900   3.132   5.986 -0.1735  0.6132 -0.0320
 6492SOL    HW131109   3.863   3.083   6.058  1.1202  1.2920  1.0925
 6492SOL    HW231110   3.950   3.061   5.945 -2.4900 -0.0439 -1.6859
 6493SOL     OW31111   3.932   0.204   4.261 -0.4313  0.2469  0.0018
 6493SOL    HW131112   4.005   0.217   4.200 -1.3686 -0.3064 -1.2508
 6493SOL    HW231113   3.987   0.155   4.323 -0.1149  0.8363  0.1944
 6494SOL     OW31114   0.397   1.538   0.822  0.3347  0.5216  0.0809
 6494SOL    HW131115   0.467   1.566   0.762  1.1207 -0.5197  0.5039
 6494SOL    HW231116   0.390   1.613   0.881  1.9075 -0.4064  1.4508
 6495SOL     OW31117   3.984   1.969   5.638  0.7480  0.2399 -0.6115
 6495SOL    HW131118   3.906   1.920   5.663  1.7944 -0.0018  2.1979
 6495SOL    HW231119   3.980   1.979   5.543 -1.6053  1.4338 -0.3934
 6496SOL     OW31120   3.943   4.553   3.604 -0.2598 -0.0902 -0.6473
 6496SOL    HW131121   3.866   4.506   3.574  0.1023  0.1340 -1.9025
 6496SOL    HW231122   3.912   4.636   3.642 -1.2060 -1.2283  1.0914
 6497SOL     OW31123   3.382   1.578   0.189 -0.3659  0.6228 -0.1583
 6497SOL    HW131124   3.293   1.613   0.186  0.1720  2.0435  0.8206
 6497SOL    HW231125   3.421   1.648   0.241  1.4648 -1.1928  0.9149
 6498SOL     OW31126   3.786   0.168   2.095 -0.4215  0.4820  0.4693
 6498SOL    HW131127   3.759   0.247   2.048 -1.6585  1.3013  2.5582
 6498SOL    HW231128   3.805   0.196   2.184 -2.3648  1.4206  0.5977
 6499SOL     OW31129   1.254   1.496   7.476 -0.6369  0.6499 -0.1956
 6499SOL    HW131130   1.235   1.589   7.488  0.8826  1.3281 -2.9988
 6499SOL    HW231131   1.191   1.460   7.414  1.2610  0.0340 -1.7508
 6500SOL     OW31132   0.514   0.057   1.559 -0.6096 -0.3548 -0.1141
 6500SOL    HW131133   0.462   0.011   1.626  0.3500 -0.4629  0.5507
 6500SOL    HW231134   0.476   0.145   1.563 -1.8008 -0.8550 -0.4215
 6501SOL     OW31135   1.979   1.140   8.589 -0.1200  0.0920 -0.1467
 6501SOL    HW131136   1.970   1.182   8.675  0.8635  0.8018 -0.3957
 6501SOL    HW231137   1.938   1.056   8.610 -0.5610  0.8903  2.1576
 6502SOL     OW31138   3.881   3.056  15.184  0.6023 -0.0862  0.4666
 6502SOL    HW131139   3.821   3.048  15.111 -0.6730 -0.4248  1.5466
 6502SOL    HW231140   3.955   3.093  15.137  2.3294 -1.9329  1.7363
 6503SOL     OW31141   2.331   0.721   2.621  0.5775  0.3432 -0.6103
 6503SOL    HW131142   2.358   0.765   2.701  1.6393 -0.8368 -0.3338
 6503SOL    HW231143   2.280   0.792   2.580  0.7150  1.4527  1.1439
 6504SOL     OW31144   3.877   3.551   5.921 -0.3238  0.0224 -0.4832
 6504SOL    HW131145   3.928   3.631   5.931 -0.0227 -0.2851  0.4173
 6504SOL    HW231146   3.923   3.492   5.980 -0.8695  0.2829  0.1937
 6505SOL     OW31147   3.457   0.691   9.088 -0.2156 -0.5886 -0.2948
 6505SOL    HW131148   3.395   0.719   9.021 -1.9413 -0.7738  1.2204
 6505SOL    HW231149   3.528   0.752   9.072 -0.6195 -0.4092 -1.3720
 6506SOL     OW31150   2.129   4.044   9.108  0.0208 -0.8078  0.4670
 6506SOL    HW131151   2.074   3.966   9.110 -2.0337  0.5467 -3.0599
 6506SOL    HW231152   2.080   4.097   9.045  0.1128  0.0947  1.1506
 6507SOL     OW31153   1.199   0.567  16.167 -0.0196 -0.1251  0.3837
 6507SOL    HW131154   1.278   0.554  16.114 -1.1807  0.1874 -1.4133
 6507SOL    HW231155   1.221   0.649  16.211  1.0707 -0.8169  1.1450
 6508SOL     OW31156   3.949   1.392   4.115  0.3637 -0.2767 -0.1520
 6508SOL    HW131157   3.931   1.305   4.078  3.4386 -1.1741  0.4747
 6508SOL    HW231158   3.869   1.386   4.168  0.6716  0.0778  0.3494
 6509SOL     OW31159   3.945   3.427   6.488 -0.2139  0.3047  0.4560
 6509SOL    HW131160   3.979   3.513   6.512  1.0176  0.4877 -1.9671
 6509SOL    HW231161   4.013   3.368   6.521 -1.0071 -1.0086 -0.2252
 6510SOL     OW31162   1.627   2.556   8.350 -0.1297 -0.5288  0.0127
 6510SOL    HW131163   1.559   2.525   8.409  1.4530 -1.0679  1.5786
 6510SOL    HW231164   1.619   2.505   8.270  0.3636  0.2321 -0.5267
 6511SOL     OW31165   0.492   3.274   3.215  0.2331 -0.0771  0.1931
 6511SOL    HW131166   0.471   3.366   3.231 -1.2000 -0.5812  1.2735
 6511SOL    HW231167   0.515   3.280   3.123 -0.2406  2.0949  0.2220
 6512SOL     OW31168   1.249   0.219   4.765 -0.3071 -0.2409 -0.1779
 6512SOL    HW131169   1.245   0.261   4.680 -3.3295  0.0384  0.1157
 6512SOL    HW231170   1.300   0.278   4.821  0.6720 -0.5095 -0.7857
 6513SOL     OW31171   3.114   1.730  10.686  0.4593  0.0331  0.1473
 6513SOL    HW131172   3.197   1.733  10.733 -1.3974 -0.8230  3.4946
 6513SOL    HW231173   3.101   1.637  10.670 -1.1854  0.3260 -0.3045
 6514SOL     OW31174   3.515   4.586   5.793  0.2021 -0.2231  0.0498
 6514SOL    HW131175   3.544   4.531   5.866 -1.3066  0.0407  0.8669
 6514SOL    HW231176   3.442   4.535   5.757  0.4877  0.2407 -1.1589
 6515SOL     OW31177   1.321   3.795   9.874 -0.1640 -0.5765  1.2036
 6515SOL    HW131178   1.310   3.789   9.969 -1.8430 -1.0766  0.9660
 6515SOL    HW231179   1.392   3.860   9.868 -1.9312  1.0199 -2.5848
 6516SOL     OW31180   0.171   4.361   6.132  0.1758  0.3629  0.1686
 6516SOL    HW131181   0.133   4.316   6.056 -1.1887 -2.2209  2.3520
 6516SOL    HW231182   0.128   4.310   6.201  0.3251 -0.2989 -0.2170
 6517SOL     OW31183   0.225   0.153   6.893 -0.2215 -0.1439  0.4657
 6517SOL    HW131184   0.302   0.201   6.863  0.3977 -1.3930  0.0782
 6517SOL    HW231185   0.196   0.212   6.963  2.4849 -0.2221  1.6200
 6518SOL     OW31186   3.695   4.430  11.099  0.4959  0.0560  0.0628
 6518SOL    HW131187   3.736   4.358  11.147  2.7226  0.0278 -1.8694
 6518SOL    HW231188   3.691   4.399  11.009  2.4443  0.3533 -0.1322
 6519SOL     OW31189   1.965   0.499   5.295 -0.2667  0.5322 -0.3962
 6519SOL    HW131190   1.924   0.514   5.381  0.7041  0.7290  0.0293
 6519SOL    HW231191   2.011   0.581   5.279  1.0119  0.1069  1.0953
 6520SOL     OW31192   0.636   3.029   1.667  0.4478 -0.5040 -0.5921
 6520SOL    HW131193   0.723   3.054   1.699  0.0107  0.1226  0.1160
 6520SOL    HW231194   0.605   2.971   1.737 -1.4167 -0.3370 -1.2930
 6521SOL     OW31195   3.343   1.758  10.827 -0.4100  0.4114  0.8568
 6521SOL    HW131196   3.420   1.813  10.839  0.9069 -1.1657 -0.4692
 6521SOL    HW231197   3.367   1.681  10.877 -1.7487 -1.5255 -1.4972
 6522SOL     OW31198   0.653   3.541  11.445  0.3056 -0.1589  0.5546
 6522SOL    HW131199   0.732   3.493  11.422  1.6007  1.0567  2.4759
 6522SOL    HW231200   0.683   3.615  11.392 -3.2613  0.7951 -0.1479
 6523SOL     OW31201   3.727   4.594  12.966  0.4658  0.3109 -0.3287
 6523SOL    HW131202   3.679   4.540  12.902 -1.5568  1.3056  0.3707
 6523SOL    HW231203   3.693   4.553  13.045  2.1775 -0.7266 -0.1335
 6524SOL     OW31204   2.671   2.442   7.446  0.6056  0.1395  0.1059
 6524SOL    HW131205   2.638   2.477   7.528 -1.3963 -0.9647 -0.2322
 6524SOL    HW231206   2.657   2.349   7.463 -0.2864  0.0164 -1.3199
 6525SOL     OW31207   0.670   3.173   2.401 -0.4509 -0.1318 -0.1887
 6525SOL    HW131208   0.723   3.225   2.340 -1.4877 -1.6652 -2.3993
 6525SOL    HW231209   0.610   3.118   2.352  0.6979 -1.6976  0.1768
 6526SOL     OW31210   1.235   4.342   4.315  0.6749  0.2550 -0.1638
 6526SOL    HW131211   1.191   4.262   4.345 -0.4129  1.9645  2.8360
 6526SOL    HW231212   1.269   4.381   4.396  0.5285  1.6945 -0.8127
 6527SOL     OW31213   1.784   4.706  10.778  0.3763  0.4201  0.5281
 6527SOL    HW131214   1.807   4.714  10.686 -1.8218  1.4117  0.0674
 6527SOL    HW231215   1.761   4.614  10.785 -2.5950  1.1126 -0.1883
 6528SOL     OW31216   1.768   3.536   2.267 -0.9531  0.3315 -0.0407
 6528SOL    HW131217   1.801   3.453   2.231 -0.3083  0.4253  0.3343
 6528SOL    HW231218   1.820   3.608   2.232  0.4206  0.7093  2.7427
 6529SOL     OW31219   1.103   4.086  15.865 -0.6421  0.7874  0.5663
 6529SOL    HW131220   1.014   4.102  15.897 -0.8806 -1.3639  0.9513
 6529SOL    HW231221   1.138   4.023  15.928  1.5736 -0.2620 -1.7255
 6530SOL     OW31222   3.871   1.436   8.476 -0.5395  0.1291  0.3241
 6530SOL    HW131223   3.915   1.518   8.456  0.2918 -0.5763 -0.7446
 6530SOL    HW231224   3.794   1.449   8.421 -0.5959  0.0557  0.3851
 6531SOL     OW31225   2.791   2.683   6.607  0.1093 -0.0674  0.1009
 6531SOL    HW131226   2.809   2.766   6.650  1.9412 -0.1617 -0.4651
 6531SOL    HW231227   2.727   2.690   6.537  0.8403 -0.1352 -0.5775
 6532SOL     OW31228   4.003   0.478   6.934  0.1200  0.0296 -0.2865
 6532SOL    HW131229   4.010   0.566   6.969  1.3399 -0.7506  1.4269
 6532SOL    HW231230   4.031   0.429   7.011 -0.5044 -0.9199 -0.6544
 6533SOL     OW31231   0.658   3.756  14.983  0.2132 -0.5747 -0.3560
 6533SOL    HW131232   0.663   3.787  14.893 -1.1505 -2.4082 -1.0761
 6533SOL    HW231233   0.575   3.708  14.976  0.1416 -0.3328 -1.1224
 6534SOL     OW31234   3.447   1.308   6.620  0.5086 -0.5098  0.2195
 6534SOL    HW131235   3.511   1.264   6.676  2.3138  1.3318 -0.4120
 6534SOL    HW231236   3.469   1.400   6.613  0.3520 -0.5638 -1.1875
 6535SOL     OW31237   4.523   0.433  10.604  0.1738  0.0536 -0.2033
 6535SOL    HW131238   4.469   0.455  10.680 -1.7717 -1.0956 -1.2508
 6535SOL    HW231239   4.534   0.525  10.583 -0.3633  0.5000  1.4623
 6536SOL     OW31240   0.232   0.432  14.030 -0.2690 -0.5931 -0.2126
 6536SOL    HW131241   0.245   0.451  13.937  0.9130 -0.1343  0.0531
 6536SOL    HW231242   0.321   0.443  14.063 -0.1237 -0.8530 -0.5129
 6537SOL     OW31243   1.896   0.755   4.754 -0.5399  0.5885  0.0147
 6537SOL    HW131244   1.859   0.705   4.827 -0.6109  2.4481  1.2752
 6537SOL    HW231245   1.825   0.751   4.690  1.3858  0.6175 -2.1126
 6538SOL     OW31246   1.614   4.566  13.274  0.5335 -0.5992 -0.1207
 6538SOL    HW131247   1.645   4.653  13.299  2.5819 -1.1996 -0.5555
 6538SOL    HW231248   1.570   4.526  13.348  0.4534  0.7827  0.5804
 6539SOL     OW31249   2.898   2.998   8.464  0.5613 -0.1726 -0.1516
 6539SOL    HW131250   2.843   2.994   8.543  1.4707 -1.7132  0.4104
 6539SOL    HW231251   2.969   3.058   8.488 -0.9287  1.7594 -0.6004
 6540SOL     OW31252   2.442   0.510   0.454  0.2343 -0.5196 -0.3650
 6540SOL    HW131253   2.390   0.571   0.400 -1.8119 -2.9908 -1.1915
 6540SOL    HW231254   2.535   0.530   0.443  0.9251 -3.4176  0.4461
 6541SOL     OW31255   1.177   4.285  15.681 -0.4270 -0.1737 -0.3991
 6541SOL    HW131256   1.145   4.359  15.733  1.8919  0.5183  0.0587
 6541SOL    HW231257   1.139   4.219  15.739 -1.9113 -1.3569 -2.7183
 6542SOL     OW31258   1.440   3.024   7.809 -0.0899  0.1728  0.4553
 6542SOL    HW131259   1.524   3.070   7.815 -0.0047  0.1052 -0.2360
 6542SOL    HW231260   1.457   2.990   7.721  2.8441  2.9595 -0.0762
 6543SOL     OW31261   3.547   3.748   7.679  0.2857  0.1096  0.1932
 6543SOL    HW131262   3.568   3.839   7.657 -0.3568 -0.1173 -1.2934
 6543SOL    HW231263   3.464   3.744   7.634  1.0426 -2.5676 -0.9313
 6544SOL     OW31264   3.143   0.564   3.123  0.4129  0.0648  0.0109
 6544SOL    HW131265   3.208   0.624   3.086 -1.4400  1.7248 -0.5114
 6544SOL    HW231266   3.132   0.507   3.047 -1.0304  0.1473  0.1676
 6545SOL     OW31267   4.592   0.003   6.386  0.2679 -0.5004 -0.6439
 6545SOL    HW131268   4.543   0.022   6.466 -0.0589 -2.0058 -0.4826
 6545SOL    HW231269   4.668   4.703   6.428  0.8018 -0.9747 -2.0798
 6546SOL     OW31270   3.768   0.061   6.619 -0.1607 -0.0797  0.2798
 6546SOL    HW131271   3.765   4.708   6.594 -0.2510 -0.2758  1.0130
 6546SOL    HW231272   3.863   0.070   6.614 -0.0092 -1.5107  0.4304
 6547SOL     OW31273   2.038   4.715   9.037  0.0520  0.4768 -0.0779
 6547SOL    HW131274   2.074   0.016   8.958 -1.9797 -0.5038 -1.4984
 6547SOL    HW231275   2.103   4.649   9.064 -2.2623 -0.2227  3.8271
 6548SOL     OW31276   1.487   2.252   3.233  0.9542 -0.1452  0.0492
 6548SOL    HW131277   1.464   2.299   3.313  0.0282  1.8349 -1.3811
 6548SOL    HW231278   1.543   2.322   3.199  1.4879 -0.6290 -0.0781
 6549SOL     OW31279   2.840   3.830  15.286 -0.1101 -0.3495 -0.5177
 6549SOL    HW131280   2.929   3.821  15.320 -0.0862 -0.5870 -0.6452
 6549SOL    HW231281   2.849   3.921  15.257 -0.6229 -0.8783 -2.3972
 6550SOL     OW31282   4.192   4.267  15.545  0.5944  0.0828  0.0029
 6550SOL    HW131283   4.159   4.220  15.621 -2.7158  2.8780  0.3021
 6550SOL    HW231284   4.284   4.245  15.558 -0.1299 -1.2437  2.8819
 6551SOL     OW31285   2.065   1.693   1.147  1.1186 -0.0463 -0.3793
 6551SOL    HW131286   2.093   1.750   1.219 -0.1821 -0.7635  0.6974
 6551SOL    HW231287   2.094   1.741   1.069  0.5859  0.4246 -0.2892
 6552SOL     OW31288   2.367   4.410   9.661  0.9013 -0.0922 -1.0787
 6552SOL    HW131289   2.413   4.374   9.737 -2.6717 -0.0816  1.1203
 6552SOL    HW231290   2.335   4.497   9.686 -1.1710 -0.5575 -2.0919
 6553SOL     OW31291   2.525   0.673  11.539  0.0740  0.3524 -0.4042
 6553SOL    HW131292   2.470   0.740  11.498 -0.2825 -1.2034 -2.4663
 6553SOL    HW231293   2.503   0.681  11.632 -1.7573  2.9155 -1.0634
 6554SOL     OW31294   4.564   2.942   8.833  0.2502 -0.2277 -0.7663
 6554SOL    HW131295   4.616   2.883   8.780  3.0186  1.3606  0.1749
 6554SOL    HW231296   4.525   2.881   8.896 -0.9840  0.9600 -0.3698
 6555SOL     OW31297   2.274   2.921   4.796  0.1406 -0.4406 -0.8865
 6555SOL    HW131298   2.256   3.006   4.757 -1.8522 -0.2347  0.4725
 6555SOL    HW231299   2.285   2.950   4.887  0.7592  0.6529 -1.3068
 6556SOL     OW31300   4.262   3.407   1.581  0.7431 -0.5044  0.0664
 6556SOL    HW131301   4.343   3.424   1.534  0.9652  0.6253  0.8644
 6556SOL    HW231302   4.263   3.463   1.659  0.0443  2.5009 -2.0723
 6557SOL     OW31303   4.408   2.344   9.295 -0.1167  0.0443 -0.0639
 6557SOL    HW131304   4.343   2.359   9.227  1.8194 -0.5198 -2.0386
 6557SOL    HW231305   4.385   2.413   9.358 -0.2389 -0.4954  0.4803
 6558SOL     OW31306   0.148   1.277   8.112  0.4684  0.0020  0.0685
 6558SOL    HW131307   0.225   1.282   8.169 -0.5482 -2.8199  1.7235
 6558SOL    HW231308   0.109   1.364   8.124 -3.7173 -1.6462 -1.3288
 6559SOL     OW31309   3.394   0.919   7.042 -0.7824 -0.0465 -0.4189
 6559SOL    HW131310   3.330   0.920   6.971  0.9160  2.8424 -1.9020
 6559SOL    HW231311   3.456   0.978   6.998  0.6398 -0.6355  0.7790
 6560SOL     OW31312   1.825   0.168   4.082 -0.0521 -0.2492  0.2345
 6560SOL    HW131313   1.751   0.111   4.064 -0.2065  1.1194 -3.3965
 6560SOL    HW231314   1.875   0.112   4.141  1.0355  0.6526  0.1653
 6561SOL     OW31315   2.369   4.063  12.727 -0.2039  0.4938 -0.4538
 6561SOL    HW131316   2.384   4.089  12.818 -1.5284 -3.6480  0.9429
 6561SOL    HW231317   2.350   3.970  12.739  1.1630  0.3517  0.5765
 6562SOL     OW31318   1.809   2.197   6.383  0.1864 -0.3738 -0.3264
 6562SOL    HW131319   1.826   2.120   6.328 -1.7963  0.3171 -1.8951
 6562SOL    HW231320   1.717   2.191   6.407  0.3710  1.3673  0.8216
 6563SOL     OW31321   0.947   1.662   4.136  0.1086  0.1402 -0.0064
 6563SOL    HW131322   1.010   1.726   4.169 -0.6855  0.8926  0.0545
 6563SOL    HW231323   0.935   1.609   4.214 -2.2641  0.3675 -0.2186
 6564SOL     OW31324   1.588   2.235   5.277  0.0152 -0.0885  0.2088
 6564SOL    HW131325   1.660   2.286   5.240 -0.6779  0.5558 -0.2494
 6564SOL    HW231326   1.509   2.289   5.268 -0.1506 -0.9277 -3.4064
 6565SOL     OW31327   2.954   3.244   1.941  0.1049 -0.4474 -0.4269
 6565SOL    HW131328   2.928   3.155   1.966  4.0500 -1.9949 -1.7625
 6565SOL    HW231329   3.036   3.228   1.895 -0.5829  1.0252 -2.1511
 6566SOL     OW31330   0.754   1.189   0.687 -0.3142  0.1753  0.0439
 6566SOL    HW131331   0.713   1.258   0.738 -0.9547 -2.6292  3.3075
 6566SOL    HW231332   0.799   1.139   0.755  1.2382 -0.6134 -1.5568
 6567SOL     OW31333   1.725   4.370   9.920 -0.3227  0.3064  0.4273
 6567SOL    HW131334   1.806   4.342   9.877 -1.1577  1.3659 -1.8367
 6567SOL    HW231335   1.680   4.289   9.943  0.6139  0.0644  1.4519
 6568SOL     OW31336   1.044   0.932  10.193  0.2046  0.2136 -0.3624
 6568SOL    HW131337   1.007   0.850  10.161  0.5727  1.0583 -2.8980
 6568SOL    HW231338   0.965   0.966  10.237  0.0133  1.2121 -1.4976
 6569SOL     OW31339   2.560   2.945  10.248  0.0765 -0.3251 -0.0575
 6569SOL    HW131340   2.547   3.007  10.319 -0.0891  0.9475 -1.1937
 6569SOL    HW231341   2.600   3.003  10.183 -1.4461 -2.3064 -2.7830
 6570SOL     OW31342   0.971   0.265   6.133 -0.4519  0.1887 -0.5194
 6570SOL    HW131343   0.894   0.284   6.188 -0.2298 -2.1873  0.6292
 6570SOL    HW231344   1.006   0.353   6.130  0.5146 -0.1622  0.3542
 6571SOL     OW31345   2.713   3.246   0.298  0.1821 -0.3477  0.4843
 6571SOL    HW131346   2.623   3.280   0.303 -0.6816 -2.4382 -0.5420
 6571SOL    HW231347   2.747   3.253   0.387 -0.0771  0.0447  0.5536
 6572SOL     OW31348   3.188   3.500   3.557 -0.0613  0.0291 -0.0888
 6572SOL    HW131349   3.248   3.426   3.567 -0.5629 -0.5852 -1.5609
 6572SOL    HW231350   3.159   3.515   3.646  1.3998  4.4136 -0.3544
 6573SOL     OW31351   0.497   2.987   7.937  0.3593  0.3500 -0.1681
 6573SOL    HW131352   0.531   3.023   7.855  0.6828 -0.7734 -0.5239
 6573SOL    HW231353   0.407   2.963   7.914 -0.2008  0.4061  2.0129
 6574SOL     OW31354   3.080   1.288   4.254 -0.0705 -0.7039 -0.1804
 6574SOL    HW131355   3.100   1.247   4.170  2.4988  0.0770  0.0670
 6574SOL    HW231356   3.149   1.258   4.313  0.3607 -0.0024 -0.3401
 6575SOL     OW31357   1.673   2.888   9.696  0.5074  0.2989 -0.3225
 6575SOL    HW131358   1.639   2.906   9.783 -0.6873  2.4139 -1.2211
 6575SOL    HW231359   1.739   2.955   9.686  0.4722  0.3966  0.1041
 6576SOL     OW31360   3.353   1.206   4.263 -0.2368  0.3328  0.5039
 6576SOL    HW131361   3.398   1.193   4.346 -0.8336 -0.9607  0.6220
 6576SOL    HW231362   3.352   1.115   4.235 -2.3265 -0.0264  1.7272
 6577SOL     OW31363   3.411   3.341   0.946 -0.8950  0.5090 -0.0295
 6577SOL    HW131364   3.335   3.399   0.938 -0.7916  0.7466  0.6649
 6577SOL    HW231365   3.452   3.370   0.864 -0.9698 -0.0792 -0.2714
 6578SOL     OW31366   3.062   4.084   7.434  0.3844  0.1292 -0.2798
 6578SOL    HW131367   3.157   4.068   7.434  0.1333 -1.3147  0.4629
 6578SOL    HW231368   3.062   4.179   7.450  1.9494  0.0790  0.0688
 6579SOL     OW31369   1.617   4.173  14.946 -0.0829 -1.0331 -0.5205
 6579SOL    HW131370   1.611   4.126  15.028 -1.0773 -0.4332 -0.2538
 6579SOL    HW231371   1.640   4.262  14.973  3.1471 -1.6417 -1.2464
 6580SOL     OW31372   3.864   1.828   3.984 -0.2790  0.3052  0.0606
 6580SOL    HW131373   3.869   1.738   3.951 -4.1266 -0.0440  0.4861
 6580SOL    HW231374   3.957   1.849   3.996 -1.1631  4.4556 -0.5521
 6581SOL     OW31375   1.314   0.649   4.254 -0.3675  0.3120 -0.0679
 6581SOL    HW131376   1.284   0.561   4.275 -2.2231  1.0539  0.3485
 6581SOL    HW231377   1.311   0.691   4.340  3.2828 -0.1749  0.3003
 6582SOL     OW31378   4.358   2.793   7.071 -0.3223 -0.3531  0.0148
 6582SOL    HW131379   4.365   2.849   6.994 -0.8538  0.9999  0.9442
 6582SOL    HW231380   4.407   2.715   7.045  0.3931 -0.1673  0.7934
 6583SOL     OW31381   0.943   1.105   5.098  0.1076  0.7035 -0.0483
 6583SOL    HW131382   0.957   1.149   5.182  2.9767  0.0960 -0.1956
 6583SOL    HW231383   1.010   1.157   5.053  1.1190 -1.4020 -1.0139
 6584SOL     OW31384   1.631   0.227   5.624  0.0644  0.2312  0.3665
 6584SOL    HW131385   1.714   0.225   5.577  0.1166 -0.5239  0.4912
 6584SOL    HW231386   1.658   0.201   5.712  0.9752  1.0709  0.3422
 6585SOL     OW31387   0.857   1.621   6.878 -0.1781 -0.9405  0.7027
 6585SOL    HW131388   0.799   1.564   6.927  0.5478 -2.0904  0.2106
 6585SOL    HW231389   0.804   1.700   6.881  0.3038 -0.5354 -0.9669
 6586SOL     OW31390   3.757   4.534   5.291  0.2942  0.6642 -0.1361
 6586SOL    HW131391   3.701   4.602   5.255 -1.0864  0.1956  1.1651
 6586SOL    HW231392   3.710   4.509   5.370 -3.8821 -1.7042 -3.3567
 6587SOL     OW31393   0.236   3.253   8.895 -0.4789  0.2824  0.1000
 6587SOL    HW131394   0.168   3.269   8.961 -0.2121  0.1102  0.4142
 6587SOL    HW231395   0.194   3.180   8.849 -0.4749  1.4330 -1.7435
 6588SOL     OW31396   1.225   0.978   4.755 -0.2126 -0.2038 -0.1820
 6588SOL    HW131397   1.263   0.914   4.694  0.6042  0.1140 -0.0013
 6588SOL    HW231398   1.173   0.915   4.805 -2.3374  0.7588 -1.1924
 6589SOL     OW31399   0.971   1.434   0.104  0.1217  0.2951 -0.0562
 6589SOL    HW131400   0.949   1.442   0.011 -2.8597  1.6922  0.7893
 6589SOL    HW231401   1.066   1.445   0.098  0.1227  0.2903 -0.0495
 6590SOL     OW31402   2.332   2.903  15.354  0.5400  0.0655 -0.9061
 6590SOL    HW131403   2.258   2.957  15.327 -0.2512 -0.0899  0.9948
 6590SOL    HW231404   2.321   2.900  15.449  0.1021  0.0731 -0.9590
 6591SOL     OW31405   3.049   3.614   4.748 -0.2264 -0.7108 -0.0263
 6591SOL    HW131406   2.981   3.653   4.694  0.3774 -1.1835 -1.1391
 6591SOL    HW231407   3.086   3.689   4.795  2.9014 -2.3061  0.0766
 6592SOL     OW31408   0.285   1.486   8.582 -0.2016  0.6148 -0.0401
 6592SOL    HW131409   0.196   1.452   8.589  0.1470 -0.2225  0.2434
 6592SOL    HW231410   0.276   1.539   8.503  0.1048 -1.0099 -1.1781
 6593SOL     OW31411   4.594   3.580  13.217 -0.7404 -0.0670  0.1198
 6593SOL    HW131412   4.612   3.543  13.304 -0.8700  1.2690  0.7168
 6593SOL    HW231413   4.674   3.563  13.167  0.1584  3.9842  0.2195
 6594SOL     OW31414   0.360   1.927   8.840 -0.1511  0.0349  1.0116
 6594SOL    HW131415   0.330   1.843   8.874  0.1675 -0.1907  0.7407
 6594SOL    HW231416   0.454   1.918   8.854 -0.0224 -2.5914 -1.3830
 6595SOL     OW31417   0.753   0.755   6.428  0.2788  0.7384  0.9405
 6595SOL    HW131418   0.692   0.773   6.357  0.7249  1.0756  0.6442
 6595SOL    HW231419   0.690   0.750   6.500 -1.5617  0.0151 -0.7200
 6596SOL     OW31420   3.661   2.213   3.078 -0.0745  0.0032  0.0830
 6596SOL    HW131421   3.587   2.261   3.115 -0.2673 -0.0873 -0.1871
 6596SOL    HW231422   3.723   2.223   3.151  2.0440  0.2823 -1.7740
 6597SOL     OW31423   0.067   0.964   4.068  0.2196 -0.3317 -0.2016
 6597SOL    HW131424   0.115   1.007   3.997  1.0753  0.2588  0.7276
 6597SOL    HW231425   4.720   0.991   4.039  0.2781 -0.9876 -0.9908
 6598SOL     OW31426   4.244   4.625   6.601 -1.2472 -0.6494  0.2389
 6598SOL    HW131427   4.275   4.548   6.648  2.0248 -1.2436 -2.8839
 6598SOL    HW231428   4.326   4.674   6.614 -1.5352 -0.1115  0.0339
 6599SOL     OW31429   2.045   4.522   4.404 -0.4278 -0.0746 -0.3237
 6599SOL    HW131430   1.996   4.454   4.449  1.4804 -0.5829  0.9716
 6599SOL    HW231431   1.991   4.601   4.412 -0.0055  0.2834 -0.9813
 6600SOL     OW31432   0.162   3.859  11.215 -0.0669 -0.4702  0.2265
 6600SOL    HW131433   0.150   3.875  11.309  0.0288  0.1886  0.1250
 6600SOL    HW231434   0.257   3.849  11.217 -0.1129 -0.9177  0.3007
 6601SOL     OW31435   2.665   1.488   8.618 -0.0247 -0.4041  0.3218
 6601SOL    HW131436   2.586   1.434   8.622 -1.1620  1.1278 -1.4476
 6601SOL    HW231437   2.726   1.418   8.597  0.4027 -0.7552  2.6975
 6602SOL     OW31438   2.768   3.768   7.202  0.5701 -0.2274 -0.0879
 6602SOL    HW131439   2.859   3.764   7.234  0.9416 -0.9839 -1.2412
 6602SOL    HW231440   2.724   3.821   7.269  0.0721 -1.9060  0.9052
 6603SOL     OW31441   0.446   1.729   0.407  0.0112  0.5120  0.1253
 6603SOL    HW131442   0.438   1.660   0.340  1.4711 -1.5263  2.0510
 6603SOL    HW231443   0.440   1.803   0.347  0.3955  0.1069 -0.4202
 6604SOL     OW31444   0.714   2.833  15.940  0.3650  0.5667  0.1537
 6604SOL    HW131445   0.774   2.765  15.971 -0.9607 -0.4715  0.4277
 6604SOL    HW231446   0.713   2.890  16.018 -1.9042  0.3923  0.2581
 6605SOL     OW31447   2.168   3.825   9.828 -0.1918  0.3699 -0.3274
 6605SOL    HW131448   2.130   3.746   9.790  1.5144 -0.2108 -0.8529
 6605SOL    HW231449   2.237   3.855   9.768 -0.7688  0.6323 -0.8634
 6606SOL     OW31450   0.711   2.788   2.555  0.5399 -0.7823  0.4309
 6606SOL    HW131451   0.756   2.864   2.590  1.1148 -0.4123 -1.0978
 6606SOL    HW231452   0.771   2.715   2.571  0.4427 -1.0961 -0.6188
 6607SOL     OW31453   4.091   1.056  17.331  0.0344 -0.2001  0.1442
 6607SOL    HW131454   4.029   1.097  17.271 -0.9378 -1.4210  0.3309
 6607SOL    HW231455   4.048   1.066  17.416  1.0097  0.5365  0.5496
 6608SOL     OW31456   0.189   3.966   6.506 -0.0607  1.3677 -0.1703
 6608SOL    HW131457   0.179   3.981   6.600  0.9628  0.5880  0.0634
 6608SOL    HW231458   0.284   3.962   6.495 -0.2831  1.9424 -2.3327
 6609SOL     OW31459   1.428   1.548   5.813 -0.4769 -0.3605 -0.0689
 6609SOL    HW131460   1.462   1.537   5.902  2.1357 -1.0029 -1.1681
 6609SOL    HW231461   1.459   1.638   5.804  0.8259 -0.7248  0.7589
 6610SOL     OW31462   2.811   1.493  11.715 -0.2643  0.1706  0.8364
 6610SOL    HW131463   2.748   1.457  11.653  1.0908 -0.0963 -0.4028
 6610SOL    HW231464   2.881   1.427  11.719  0.5048  0.8649 -1.0220
 6611SOL     OW31465   2.224   3.113   2.978  0.1710  0.0092 -0.2199
 6611SOL    HW131466   2.192   3.026   2.953  1.3968  0.1001 -2.0930
 6611SOL    HW231467   2.301   3.085   3.026  0.6409  2.9889  0.7664
 6612SOL     OW31468   3.850   1.213  15.504  0.4949  0.8408 -0.2619
 6612SOL    HW131469   3.936   1.250  15.484  1.9073 -0.1797  4.0499
 6612SOL    HW231470   3.805   1.246  15.426 -0.1327  2.7374  0.8948
 6613SOL     OW31471   3.981   0.981   8.704  0.0833  0.2193  0.5384
 6613SOL    HW131472   4.029   0.900   8.687 -1.7785 -0.2498 -2.6774
 6613SOL    HW231473   4.020   1.044   8.642 -0.9419 -0.4622 -0.8125
 6614SOL     OW31474   2.857   1.628  14.336  0.2471  0.7826  0.1527
 6614SOL    HW131475   2.935   1.591  14.296  0.3177  1.4262 -0.3071
 6614SOL    HW231476   2.887   1.704  14.386 -1.2763  0.5300  1.4591
 6615SOL     OW31477   2.594   2.628   2.776  0.2689  0.1656 -0.8454
 6615SOL    HW131478   2.607   2.592   2.864 -0.4016  1.2101 -0.3240
 6615SOL    HW231479   2.498   2.631   2.779  0.2827 -0.6614  0.4230
 6616SOL     OW31480   3.750   4.482   4.354  0.6956 -0.0265  0.5588
 6616SOL    HW131481   3.747   4.550   4.421  0.7475  1.2634 -0.7530
 6616SOL    HW231482   3.831   4.439   4.381  0.4493  0.2463  1.7133
 6617SOL     OW31483   0.844   3.371   5.096  0.2416  0.7672 -0.5700
 6617SOL    HW131484   0.848   3.398   5.004  2.6252 -0.1315 -0.7308
 6617SOL    HW231485   0.805   3.283   5.094  0.9894  0.4356 -0.3594
 6618SOL     OW31486   0.109   1.720   5.596 -0.2829  0.5042 -0.0132
 6618SOL    HW131487   0.148   1.767   5.670  1.4176 -0.5626 -0.2215
 6618SOL    HW231488   0.078   1.645   5.647  2.9744 -0.2481  0.8610
 6619SOL     OW31489   3.885   4.703   3.025  0.1002 -0.0735 -0.3057
 6619SOL    HW131490   3.930   4.730   2.946  0.3869 -0.5048 -0.2879
 6619SOL    HW231491   3.945   4.637   3.060 -1.8567 -1.1725  1.0384
 6620SOL     OW31492   2.284   0.475  11.900 -0.4648 -0.4044  0.4126
 6620SOL    HW131493   2.263   0.383  11.919  1.6626 -0.5663  1.9144
 6620SOL    HW231494   2.285   0.473  11.804 -0.5543  2.0855  0.3617
 6621SOL     OW31495   4.240   2.465   8.834 -0.0108  0.2011 -0.1950
 6621SOL    HW131496   4.333   2.482   8.853  0.3941 -0.0758 -1.9004
 6621SOL    HW231497   4.201   2.513   8.907  0.1372  1.1493 -0.7378
 6622SOL     OW31498   3.647   2.764   8.136  0.5363 -0.4372  0.2628
 6622SOL    HW131499   3.599   2.682   8.146  0.0850  0.1661  2.9634
 6622SOL    HW231500   3.584   2.831   8.162  2.2137  1.4217 -0.3531
 6623SOL     OW31501   4.379   2.926   9.691 -0.2561 -0.4597 -0.1823
 6623SOL    HW131502   4.413   3.013   9.672  1.0955 -0.6864  1.1221
 6623SOL    HW231503   4.360   2.937   9.784 -1.4503 -2.1339 -0.2206
 6624SOL     OW31504   2.307   0.869   5.647  0.0215 -0.2967 -0.3909
 6624SOL    HW131505   2.382   0.810   5.646  0.7586  0.6359  1.8123
 6624SOL    HW231506   2.255   0.842   5.723 -2.2988  0.3888 -1.7279
 6625SOL     OW31507   3.313   1.075   6.030  0.2391  0.6582  0.3457
 6625SOL    HW131508   3.234   1.094   5.979  0.9032 -2.2359 -1.7766
 6625SOL    HW231509   3.283   1.092   6.119 -2.0164 -1.5048 -0.0039
 6626SOL     OW31510   0.806   2.858  12.056  0.3852 -0.2493  0.3561
 6626SOL    HW131511   0.896   2.857  12.023 -0.8535 -0.8348 -2.9928
 6626SOL    HW231512   0.789   2.765  12.071 -0.0327 -0.3475 -0.7493
 6627SOL     OW31513   3.975   4.185  16.025 -0.4363  0.1924  0.1882
 6627SOL    HW131514   3.981   4.256  16.089  0.4567 -0.2872  0.6229
 6627SOL    HW231515   3.910   4.133  16.073  1.2531 -1.3473  0.7930
 6628SOL     OW31516   3.955   1.396   5.448  0.0771  0.0457  0.2618
 6628SOL    HW131517   4.033   1.448   5.462  0.6160  0.4091 -4.1026
 6628SOL    HW231518   3.929   1.425   5.360 -0.7989  0.1564  0.5542
 6629SOL     OW31519   1.942   1.599  14.028  0.1032  0.1536 -0.5457
 6629SOL    HW131520   1.956   1.534  13.958 -1.1282 -0.5173 -0.1749
 6629SOL    HW231521   2.024   1.646  14.014 -0.2098  1.3016  1.4470
 6630SOL     OW31522   3.321   3.874   1.100 -0.0494  0.1350 -0.4783
 6630SOL    HW131523   3.259   3.802   1.085 -0.7598  0.3586  1.3255
 6630SOL    HW231524   3.401   3.831   1.071 -0.5245 -0.5298 -0.7980
 6631SOL     OW31525   1.195   0.048  16.402  0.6088 -0.5473 -0.3375
 6631SOL    HW131526   1.232   0.133  16.377 -2.0419  1.0130  1.0170
 6631SOL    HW231527   1.259   0.016  16.466 -2.3295  1.3015  3.4728
 6632SOL     OW31528   3.203   3.452   7.678 -0.4113  0.4519 -0.2589
 6632SOL    HW131529   3.148   3.483   7.750 -1.3232 -1.7396 -0.0195
 6632SOL    HW231530   3.143   3.474   7.606 -2.0760  0.2390  1.0551
 6633SOL     OW31531   1.470   3.052   5.878  0.5980 -0.0662  0.5491
 6633SOL    HW131532   1.435   3.138   5.855  0.2594 -0.2882  0.2523
 6633SOL    HW231533   1.518   3.082   5.956 -0.7664 -2.8822  2.4688
 6634SOL     OW31534   3.333   3.224   5.514  0.0310  0.3728  0.0121
 6634SOL    HW131535   3.426   3.230   5.539  0.6826 -2.3192 -1.7517
 6634SOL    HW231536   3.292   3.304   5.546  0.1913  1.3411 -2.1663
 6635SOL     OW31537   1.548   0.035   8.881 -0.4273  0.2275 -0.0973
 6635SOL    HW131538   1.524   0.039   8.789 -0.0557  1.9470 -0.1208
 6635SOL    HW231539   1.509   4.694   8.913  0.8078  0.2456  1.4719
 6636SOL     OW31540   0.326   1.540   6.556 -0.2510 -0.4006  0.1797
 6636SOL    HW131541   0.353   1.452   6.530 -1.3212 -0.8058  0.4115
 6636SOL    HW231542   0.398   1.551   6.618  0.3417 -0.4863 -0.4978
 6637SOL     OW31543   0.525   3.200   5.468  0.1844 -0.1531 -0.2284
 6637SOL    HW131544   0.481   3.199   5.553 -1.5638 -0.3942 -1.1397
 6637SOL    HW231545   0.503   3.282   5.423 -0.7156  0.1033  0.6788
 6638SOL     OW31546   3.495   3.520   7.453  0.0135 -0.2358 -0.6990
 6638SOL    HW131547   3.557   3.593   7.457  0.2031 -0.5285  1.9617
 6638SOL    HW231548   3.545   3.439   7.446 -1.7480 -1.3864 -0.0358
 6639SOL     OW31549   1.356   2.528  17.608  0.5015  0.0998 -0.5226
 6639SOL    HW131550   1.351   2.607  17.663 -1.4583  0.0283 -0.6069
 6639SOL    HW231551   1.436   2.561  17.567  0.3927 -0.0177 -0.8250
 6640SOL     OW31552   3.522   0.050   3.212  0.1860  0.1568  0.5814
 6640SOL    HW131553   3.456   0.118   3.195  0.6335  0.6370  0.7582
 6640SOL    HW231554   3.473   0.002   3.279 -0.4416 -1.3679 -0.9763
 6641SOL     OW31555   0.512   1.071   8.880  0.1616  0.2761  0.2555
 6641SOL    HW131556   0.470   1.140   8.829  0.2593 -1.2066 -1.8226
 6641SOL    HW231557   0.581   1.115   8.931 -1.1349  1.1139  1.2847
 6642SOL     OW31558   0.724   2.478  10.442 -0.2365 -0.1560  0.2175
 6642SOL    HW131559   0.769   2.450  10.362 -0.3460 -1.9324  0.7779
 6642SOL    HW231560   0.765   2.564  10.447  0.4817 -0.4282 -1.0540
 6643SOL     OW31561   3.285   3.399  17.353  0.2120 -0.2867  0.4125
 6643SOL    HW131562   3.322   3.329  17.299  3.0557  0.0516  1.9433
 6643SOL    HW231563   3.356   3.462  17.361  1.1527 -1.5622  1.9923
 6644SOL     OW31564   2.137   0.701   5.352 -0.5423  0.2344  0.0261
 6644SOL    HW131565   2.156   0.792   5.373 -1.0890  0.1481  0.9015
 6644SOL    HW231566   2.192   0.687   5.274 -0.4620  2.8904 -0.3779
 6645SOL     OW31567   2.885   0.790   5.604  0.4009  0.4716 -0.2014
 6645SOL    HW131568   2.863   0.850   5.675 -0.2363 -1.9540  1.6483
 6645SOL    HW231569   2.876   0.852   5.531 -2.4749 -2.2598 -2.2050
 6646SOL     OW31570   4.413   0.754   5.337 -0.3165  0.3754 -0.0657
 6646SOL    HW131571   4.424   0.789   5.248 -3.4750  0.7680 -0.3287
 6646SOL    HW231572   4.413   0.832   5.391  0.1777  1.0428 -1.0297
 6647SOL     OW31573   0.485   3.186   7.101  0.0404 -0.9665 -0.0281
 6647SOL    HW131574   0.547   3.156   7.034  1.9372 -1.6886  2.0686
 6647SOL    HW231575   0.436   3.241   7.040  2.7297  0.3980 -0.9354
 6648SOL     OW31576   0.785   3.066  11.884 -0.4886  0.3196 -0.2316
 6648SOL    HW131577   0.765   2.992  11.942  1.9429 -0.1248  0.0267
 6648SOL    HW231578   0.714   3.130  11.889 -0.5737  0.2304 -0.2870
 6649SOL     OW31579   1.699   3.111  12.797 -0.2047 -0.0110  0.6151
 6649SOL    HW131580   1.616   3.159  12.802  0.3323  0.8096  1.5563
 6649SOL    HW231581   1.676   3.019  12.808  2.2596 -0.7286 -0.2391
 6650SOL     OW31582   0.176   4.281   2.417 -0.0303 -0.3084  0.1387
 6650SOL    HW131583   0.155   4.365   2.375  0.0181 -0.3298  0.0705
 6650SOL    HW231584   0.236   4.246   2.350 -1.0703  0.1895 -1.0575
 6651SOL     OW31585   4.648   0.819   7.066  0.3031 -0.2591  0.1020
 6651SOL    HW131586   4.623   0.730   7.039 -2.1062  0.8828 -1.3368
 6651SOL    HW231587   4.630   0.830   7.159 -1.3289 -1.6552 -0.0425
 6652SOL     OW31588   2.156   0.333   4.627  0.4267  0.5502  0.0423
 6652SOL    HW131589   2.243   0.369   4.613  0.7997 -0.1056  0.6528
 6652SOL    HW231590   2.167   0.238   4.628  1.6191  0.6588 -2.8642
 6653SOL     OW31591   3.002   0.892   6.902  0.3509  0.0336  0.9337
 6653SOL    HW131592   2.964   0.974   6.933 -1.4280 -0.4619  0.0818
 6653SOL    HW231593   2.958   0.821   6.950 -0.9705  0.4800  0.3966
 6654SOL     OW31594   1.465   2.982   7.550  0.0891  0.0835 -0.2854
 6654SOL    HW131595   1.435   2.935   7.472 -0.3545 -1.2670  0.6807
 6654SOL    HW231596   1.452   3.071   7.517 -1.4747  0.6181  1.7499
 6655SOL     OW31597   3.713   1.363   4.346 -0.3299 -0.5436 -0.5342
 6655SOL    HW131598   3.757   1.421   4.407 -3.4513  3.2757 -1.9023
 6655SOL    HW231599   3.633   1.413   4.329  0.4933  1.3340  1.1121
 6656SOL     OW31600   0.088   2.958   1.987 -0.1686  0.2795 -0.4316
 6656SOL    HW131601   0.059   2.902   2.060  0.1823  2.0072  1.0389
 6656SOL    HW231602   0.041   3.039   2.010  0.7144  1.5252 -3.1400
 6657SOL     OW31603   3.164   4.461   2.894 -1.4967 -0.1033  0.1570
 6657SOL    HW131604   3.164   4.471   2.989 -0.1513  0.7995  0.0715
 6657SOL    HW231605   3.254   4.487   2.874 -0.7926 -1.7358  1.1476
 6658SOL     OW31606   1.000   1.292   2.483  1.2884  0.2132  0.1646
 6658SOL    HW131607   0.968   1.221   2.428 -0.0378  0.0484  1.1620
 6658SOL    HW231608   0.928   1.355   2.486 -0.0233 -1.0846 -4.0064
 6659SOL     OW31609   2.790   3.258   2.158  0.5675  0.2287 -0.4001
 6659SOL    HW131610   2.788   3.163   2.162  1.2737  0.1626 -1.5758
 6659SOL    HW231611   2.874   3.264   2.114  0.9163 -0.8204  0.1222
 6660SOL     OW31612   2.106   0.199  11.190 -0.4318  0.2767  0.1330
 6660SOL    HW131613   2.033   0.214  11.129 -3.3916 -2.0866  3.0463
 6660SOL    HW231614   2.155   0.281  11.187  1.5147 -0.9923 -3.0260
 6661SOL     OW31615   3.389   1.547  10.622  0.0057  0.4100 -0.3764
 6661SOL    HW131616   3.412   1.464  10.580 -0.7826  0.3653 -0.7228
 6661SOL    HW231617   3.416   1.608  10.553  1.5369  0.0548 -0.0856
 6662SOL     OW31618   0.216   3.925   3.494 -0.2763  0.4658 -0.4782
 6662SOL    HW131619   0.128   3.902   3.524  0.3067  1.4148  1.9338
 6662SOL    HW231620   0.211   4.016   3.464 -1.3169  0.3124 -0.7658
 6663SOL     OW31621   0.597   0.764   1.568  0.0882 -0.4530 -0.2970
 6663SOL    HW131622   0.676   0.756   1.515  0.7877 -0.9023  0.8082
 6663SOL    HW231623   0.528   0.736   1.508 -0.9567 -0.6070  0.9780
 6664SOL     OW31624   3.302   1.044   2.612  0.2020  0.1542 -0.3358
 6664SOL    HW131625   3.389   1.030   2.575  0.8893  1.5262  0.7664
 6664SOL    HW231626   3.275   0.960   2.649 -0.3779  1.4370  2.1958
 6665SOL     OW31627   4.117   4.318   4.088  0.3917 -0.3461  0.3612
 6665SOL    HW131628   4.182   4.249   4.097  0.0818 -0.6490  0.2568
 6665SOL    HW231629   4.059   4.296   4.016 -1.0833  1.9767  0.8245
 6666SOL     OW31630   0.178   0.116   3.931  0.2796  0.0496  0.4298
 6666SOL    HW131631   0.246   0.147   3.990  1.3940 -0.2239 -0.7113
 6666SOL    HW231632   0.229   0.113   3.850  1.5682 -2.0796  1.3051
 6667SOL     OW31633   1.388   1.647   2.510  0.7836  0.2158  0.1921
 6667SOL    HW131634   1.354   1.737   2.517  0.6289  0.2925 -1.6091
 6667SOL    HW231635   1.483   1.654   2.512  0.9075 -2.6035  2.5746
 6668SOL     OW31636   2.871   3.901   9.291  0.0124 -0.1163  0.6894
 6668SOL    HW131637   2.835   3.892   9.202 -0.7858  1.6140  0.8174
 6668SOL    HW231638   2.813   3.971   9.322  0.6910  1.2924 -1.1662
 6669SOL     OW31639   1.230   4.570   5.867 -0.0716  0.0023  0.2551
 6669SOL    HW131640   1.268   4.540   5.950 -2.0676  0.7934  1.4374
 6669SOL    HW231641   1.138   4.545   5.874 -0.0783  0.7053  2.8838
 6670SOL     OW31642   0.498   2.416  11.022  0.6462  0.2439 -0.0118
 6670SOL    HW131643   0.447   2.336  11.009  0.2226  0.5101  0.0131
 6670SOL    HW231644   0.545   2.392  11.102 -0.7546 -1.1928  0.3762
 6671SOL     OW31645   4.426   3.269   7.284 -0.3066 -0.0618  0.0327
 6671SOL    HW131646   4.408   3.221   7.365 -2.0737  0.6354  0.0510
 6671SOL    HW231647   4.522   3.260   7.283 -0.3331 -0.7235  2.3390
 6672SOL     OW31648   1.954   2.478   6.709 -0.1811  0.4487 -0.4121
 6672SOL    HW131649   2.027   2.417   6.718  0.1352  1.0839  1.3170
 6672SOL    HW231650   1.956   2.489   6.614  0.3419  2.6924 -0.1525
 6673SOL     OW31651   1.219   2.923   5.301  0.2635 -0.0170 -0.2274
 6673SOL    HW131652   1.183   2.835   5.315 -0.1617  0.0895 -0.6594
 6673SOL    HW231653   1.312   2.908   5.285  1.0923  3.5327  1.4048
 6674SOL     OW31654   4.460   4.341   0.827 -0.3614  0.6928  0.8114
 6674SOL    HW131655   4.491   4.385   0.906 -0.7249  0.8795  0.8502
 6674SOL    HW231656   4.387   4.402   0.816 -0.5613  0.0791 -1.3143
 6675SOL     OW31657   3.062   3.003   1.094  0.5295  0.1860 -0.1063
 6675SOL    HW131658   3.057   3.085   1.143  1.3600  1.3683 -2.0190
 6675SOL    HW231659   3.124   3.030   1.027 -0.7440  1.6866 -0.6890
 6676SOL     OW31660   4.177   3.424  12.487 -0.0892  0.1110 -0.7137
 6676SOL    HW131661   4.267   3.457  12.482  0.2486 -0.5633  1.0735
 6676SOL    HW231662   4.131   3.504  12.462  1.8218  0.7756 -2.0841
 6677SOL     OW31663   2.724   1.591   3.476  0.4947 -0.0937 -0.6702
 6677SOL    HW131664   2.748   1.582   3.568  1.1686  1.7503 -0.6660
 6677SOL    HW231665   2.689   1.507   3.449  0.4760 -0.0590 -0.7541
 6678SOL     OW31666   1.105   3.782  11.428  0.5637 -0.3773  0.0333
 6678SOL    HW131667   1.026   3.821  11.391 -0.3420 -0.6011  1.7109
 6678SOL    HW231668   1.163   3.858  11.434  0.8476 -0.6813  1.1395
 6679SOL     OW31669   3.983   3.837  15.718 -0.1084  0.4286 -0.9518
 6679SOL    HW131670   3.921   3.844  15.646 -1.5984 -0.8605  0.1855
 6679SOL    HW231671   4.062   3.829  15.664 -0.0736  0.8924 -0.9676
 6680SOL     OW31672   2.430   4.623   4.711 -0.7345 -0.2758  0.0005
 6680SOL    HW131673   2.512   4.653   4.672 -1.2244 -0.6909 -1.3464
 6680SOL    HW231674   2.400   4.558   4.647 -1.5191  0.2638 -0.1871
 6681SOL     OW31675   3.923   3.883   8.694 -0.3478 -0.2117  0.4121
 6681SOL    HW131676   3.841   3.886   8.744  0.6028 -1.1321  2.0516
 6681SOL    HW231677   3.913   3.962   8.642 -0.8755 -1.2819 -1.1318
 6682SOL     OW31678   4.392   1.320   2.433 -0.2500 -0.9874 -0.4647
 6682SOL    HW131679   4.346   1.325   2.517  0.9582  2.4969  0.0025
 6682SOL    HW231680   4.330   1.359   2.371  3.3338 -0.1425 -3.5143
 6683SOL     OW31681   1.001   3.454  11.871  0.1926  0.6596  0.1324
 6683SOL    HW131682   0.985   3.476  11.963 -0.5338  0.8269 -0.0337
 6683SOL    HW231683   0.945   3.521  11.833 -2.5695 -2.2491 -0.9742
 6684SOL     OW31684   4.159   1.347   4.391  0.2015  0.0913  0.3085
 6684SOL    HW131685   4.180   1.395   4.310  0.4846  0.5011  0.6229
 6684SOL    HW231686   4.144   1.260   4.355  0.8253  0.8978 -1.8980
 6685SOL     OW31687   2.337   2.563   5.903  0.4751  0.5407 -0.0013
 6685SOL    HW131688   2.338   2.592   5.994 -2.5747 -1.8496  0.8033
 6685SOL    HW231689   2.421   2.517   5.907  1.3858  2.1765 -0.6022
 6686SOL     OW31690   2.546   0.326   2.694  0.1716 -0.0976  0.4163
 6686SOL    HW131691   2.520   0.383   2.622 -1.0795 -1.3984 -0.1437
 6686SOL    HW231692   2.578   0.388   2.760  0.7870  0.1225 -0.0920
 6687SOL     OW31693   3.052   3.269   5.816  0.1053  0.1308 -0.4500
 6687SOL    HW131694   3.047   3.227   5.902  0.1180  0.7321 -0.1551
 6687SOL    HW231695   3.091   3.351   5.846 -1.8962 -0.0327  2.6201
 6688SOL     OW31696   0.290   1.693   4.764 -0.2666  0.4473  0.4495
 6688SOL    HW131697   0.283   1.609   4.718  0.3293  0.2370  0.7472
 6688SOL    HW231698   0.363   1.663   4.819  0.8512  1.5746 -0.4422
 6689SOL     OW31699   4.141   0.944  12.501  0.0838 -0.0701  0.5037
 6689SOL    HW131700   4.126   0.850  12.497 -0.3300  0.0396 -0.4800
 6689SOL    HW231701   4.131   0.966  12.594  0.5483 -4.1236  1.5185
 6690SOL     OW31702   2.565   0.009  16.989  0.0066  0.2551 -0.7020
 6690SOL    HW131703   2.538   0.087  17.037 -0.8756 -2.1069  2.6850
 6690SOL    HW231704   2.625   0.046  16.925  0.6361 -0.7470 -0.7038
 6691SOL     OW31705   4.584   0.265   4.615  0.1282  0.2324 -0.3878
 6691SOL    HW131706   4.616   0.335   4.559  2.4006 -2.5271 -2.5432
 6691SOL    HW231707   4.662   0.246   4.667  0.2838  1.4651 -0.1695
 6692SOL     OW31708   3.790   2.496   3.633 -0.0578  0.6296  0.6065
 6692SOL    HW131709   3.743   2.564   3.585 -0.1655  0.4087  0.3989
 6692SOL    HW231710   3.769   2.415   3.586 -2.1043  1.3368  0.2654
 6693SOL     OW31711   1.960   4.529   3.172 -0.3623  0.5570 -0.1642
 6693SOL    HW131712   2.044   4.507   3.133 -0.8270 -0.4001 -0.6367
 6693SOL    HW231713   1.909   4.450   3.153  0.6158  0.4955 -2.4865
 6694SOL     OW31714   2.045   1.012   9.880 -0.7428  0.5006 -0.4088
 6694SOL    HW131715   2.099   1.090   9.877 -0.7818  0.5079 -0.8633
 6694SOL    HW231716   1.965   1.044   9.838 -0.7838  0.1386 -0.6092
 6695SOL     OW31717   0.504   0.878   3.274 -0.3800  0.4775 -0.5093
 6695SOL    HW131718   0.525   0.870   3.181 -0.6481 -1.8430 -0.3744
 6695SOL    HW231719   0.486   0.971   3.284 -1.9321 -0.1754  2.6831
 6696SOL     OW31720   4.167   3.975   1.964  0.4507 -0.4976 -0.6573
 6696SOL    HW131721   4.132   3.931   1.886 -1.0062  0.1055 -0.3515
 6696SOL    HW231722   4.176   4.066   1.935  1.2217 -1.5663 -3.8200
 6697SOL     OW31723   3.159   0.929  11.476  0.2598 -0.4421  0.0776
 6697SOL    HW131724   3.177   0.973  11.393  1.6651 -0.2173  0.5034
 6697SOL    HW231725   3.064   0.916  11.468  0.4427 -1.8144  0.1166
 6698SOL     OW31726   0.583   2.936   0.823  0.2055  0.4373  0.0241
 6698SOL    HW131727   0.492   2.950   0.848  0.6881 -1.6624  3.0227
 6698SOL    HW231728   0.611   3.021   0.789 -2.6364  1.9705  1.5014
 6699SOL     OW31729   0.753   3.928  15.226  0.3399  0.0525 -0.0797
 6699SOL    HW131730   0.708   3.874  15.292  1.5792 -1.9681 -0.8757
 6699SOL    HW231731   0.735   3.878  15.146 -0.0869  2.0837 -1.2397
 6700SOL     OW31732   3.682   3.909  17.208 -0.4175  0.1877  0.1357
 6700SOL    HW131733   3.626   3.841  17.246 -2.2458  2.4401  1.4179
 6700SOL    HW231734   3.763   3.865  17.236  0.0810  0.4250 -0.9354
 6701SOL     OW31735   2.718   3.311   2.917 -0.2895 -0.3683  0.0581
 6701SOL    HW131736   2.793   3.367   2.936  0.8858 -1.7542 -0.5142
 6701SOL    HW231737   2.679   3.307   3.004 -1.0117 -0.2409 -0.2572
 6702SOL     OW31738   0.479   3.608   7.723  0.4825  1.2153 -0.1833
 6702SOL    HW131739   0.458   3.660   7.800 -0.9582  1.6198 -0.8387
 6702SOL    HW231740   0.390   3.582   7.698  0.0586 -0.6581  3.2034
 6703SOL     OW31741   2.470   0.555   1.565  0.4708 -0.7654  0.3962
 6703SOL    HW131742   2.477   0.459   1.560 -1.3290 -0.9782  2.1955
 6703SOL    HW231743   2.485   0.559   1.659  1.7662  1.9149  0.0656
 6704SOL     OW31744   2.256   4.189   5.516 -0.4083  0.3334 -0.0621
 6704SOL    HW131745   2.209   4.156   5.440  0.4022 -0.9500  0.0040
 6704SOL    HW231746   2.206   4.268   5.537  0.7829  0.9197  0.5714
 6705SOL     OW31747   3.199   4.258   1.135  0.3756  0.2526  0.2324
 6705SOL    HW131748   3.229   4.210   1.213 -0.0447  0.0994  0.2991
 6705SOL    HW231749   3.260   4.225   1.070 -0.7083 -0.7444 -0.2847
 6706SOL     OW31750   3.195   3.551   6.104 -0.2291 -0.4229 -0.0088
 6706SOL    HW131751   3.196   3.509   6.190 -0.8958  2.3170  1.3195
 6706SOL    HW231752   3.275   3.517   6.064 -1.0219  0.4818 -2.3930
 6707SOL     OW31753   1.715   2.868  11.511  0.1229  0.5191 -0.1642
 6707SOL    HW131754   1.782   2.802  11.529  0.5731  1.5670  2.0860
 6707SOL    HW231755   1.767   2.947  11.496  2.0715 -0.4305  1.6210
 6708SOL     OW31756   4.573   4.709  11.141  0.2390 -0.0029 -0.3422
 6708SOL    HW131757   4.552   4.690  11.049  2.0993  1.0005 -0.9599
 6708SOL    HW231758   4.615   0.055  11.144  4.1446 -1.9543  1.2934
 6709SOL     OW31759   3.150   0.706   2.417 -0.1114 -0.2616  0.1362
 6709SOL    HW131760   3.078   0.652   2.386  0.3158 -1.1660  0.7281
 6709SOL    HW231761   3.114   0.745   2.497 -0.7496 -1.1703  0.2933
 6710SOL     OW31762   4.186   4.680  14.047 -0.1331  0.5147  0.1391
 6710SOL    HW131763   4.241   4.683  14.126  0.5720 -0.9616 -0.2878
 6710SOL    HW231764   4.104   4.640  14.073  0.1355 -0.5336 -0.6338
 6711SOL     OW31765   3.911   4.147   8.576 -0.2663 -0.3508  0.2131
 6711SOL    HW131766   3.906   4.176   8.485  1.1011 -2.3188 -0.4845
 6711SOL    HW231767   3.841   4.188   8.627 -1.4663 -0.2166 -1.5580
 6712SOL     OW31768   1.170   2.725   8.780 -0.1939  0.2283 -0.1340
 6712SOL    HW131769   1.226   2.803   8.777 -0.2973  0.3829  1.9601
 6712SOL    HW231770   1.080   2.757   8.774  0.2858  1.6210  0.1780
 6713SOL     OW31771   2.911   4.725   4.280  0.5280  0.0441  0.3862
 6713SOL    HW131772   2.863   4.642   4.278  0.6914 -0.1148  3.1128
 6713SOL    HW231773   2.917   0.006   4.187  0.5546 -0.5158  0.2630
 6714SOL     OW31774   2.597   2.405   2.018 -0.0769 -0.0515  0.1220
 6714SOL    HW131775   2.609   2.493   1.984 -1.3566  0.3905  0.7910
 6714SOL    HW231776   2.662   2.355   1.968 -0.9002  0.6892 -1.6717
 6715SOL     OW31777   0.300   2.173  12.542  0.2369  0.7285  0.7341
 6715SOL    HW131778   0.374   2.147  12.487  0.0944  0.4028  0.6993
 6715SOL    HW231779   0.259   2.246  12.495 -1.4364 -0.6585  0.0556
 6716SOL     OW31780   1.581   1.839   0.674  0.0690 -0.3301  0.0634
 6716SOL    HW131781   1.663   1.843   0.723 -0.0698  0.2956  0.2479
 6716SOL    HW231782   1.522   1.893   0.727 -0.1814  0.7993 -1.3701
 6717SOL     OW31783   4.073   3.116  10.279  0.1401  0.4566 -0.6343
 6717SOL    HW131784   4.160   3.119  10.239  0.9502 -1.6224  0.9650
 6717SOL    HW231785   4.085   3.179  10.350 -1.3342  2.2290 -1.9659
 6718SOL     OW31786   0.992   1.441   5.023  0.3176  0.1311 -0.6857
 6718SOL    HW131787   1.084   1.466   5.010 -0.6730  2.0419 -3.9025
 6718SOL    HW231788   0.981   1.372   4.957 -0.5910  0.6593 -1.0794
 6719SOL     OW31789   0.226   3.508   7.704 -0.8928  0.3364  0.0752
 6719SOL    HW131790   0.173   3.434   7.675 -1.4251 -0.1170  2.1789
 6719SOL    HW231791   0.156   3.569   7.727 -0.5909  1.0509 -0.8800
 6720SOL     OW31792   1.341   0.654  11.654 -0.4662  0.6169 -0.1090
 6720SOL    HW131793   1.277   0.664  11.725 -0.5234 -0.5335 -0.0015
 6720SOL    HW231794   1.346   0.559  11.658  0.0803  0.6043 -1.2018
 6721SOL     OW31795   1.792   3.260   4.843 -0.3592 -0.1683  0.0522
 6721SOL    HW131796   1.731   3.214   4.786  2.9920 -3.9138 -0.4588
 6721SOL    HW231797   1.782   3.349   4.808  3.5808  0.7010  1.0673
 6722SOL     OW31798   0.488   3.678   6.456  0.1132  0.4465 -0.3378
 6722SOL    HW131799   0.483   3.753   6.515 -0.1274 -0.2079  0.4725
 6722SOL    HW231800   0.507   3.613   6.523 -0.6040 -0.6791 -1.2323
 6723SOL     OW31801   2.019   3.263   8.638 -0.1591  0.4311  0.4410
 6723SOL    HW131802   2.005   3.349   8.677  0.5290  0.0213  1.5967
 6723SOL    HW231803   2.075   3.224   8.705  2.0403  1.0761 -1.0066
 6724SOL     OW31804   0.271   1.892  10.861  0.1279  0.5631 -0.2157
 6724SOL    HW131805   0.276   1.805  10.902 -0.1733 -0.0413 -1.4686
 6724SOL    HW231806   0.175   1.898  10.856  0.0973 -2.2776 -3.1904
 6725SOL     OW31807   2.015   4.394   4.893  0.1484  0.0605 -0.3652
 6725SOL    HW131808   2.033   4.466   4.832  1.6873  0.0317  0.0500
 6725SOL    HW231809   2.001   4.317   4.838 -1.3557 -0.2962  0.5300
 6726SOL     OW31810   2.473   2.425   5.567  0.0643  0.8714 -0.0615
 6726SOL    HW131811   2.527   2.472   5.630 -0.7206  0.1191  1.1773
 6726SOL    HW231812   2.534   2.410   5.495 -0.9810 -0.1278 -0.7473
 6727SOL     OW31813   3.723   3.007   4.262  0.0177  0.3223 -0.1832
 6727SOL    HW131814   3.760   3.094   4.279 -0.6038  0.5107  0.1907
 6727SOL    HW231815   3.687   2.984   4.347  1.7779 -0.9000  0.2399
 6728SOL     OW31816   2.243   0.528  11.644 -0.2978 -0.1745 -0.0886
 6728SOL    HW131817   2.270   0.618  11.661  1.0824 -0.2554 -1.7863
 6728SOL    HW231818   2.221   0.531  11.551 -2.7598  0.0675  0.4991
 6729SOL     OW31819   3.835   4.506   5.761  0.0078 -0.5278  0.6541
 6729SOL    HW131820   3.788   4.519   5.843  0.2159  0.6958  0.5843
 6729SOL    HW231821   3.921   4.537   5.791  0.1313 -0.9540  0.7473
 6730SOL     OW31822   1.710   3.909   7.368  0.2195 -0.5867  0.1318
 6730SOL    HW131823   1.698   3.827   7.415 -1.8414 -1.7491 -2.4366
 6730SOL    HW231824   1.803   3.925   7.383  0.6197 -1.5592 -1.3767
 6731SOL     OW31825   2.037   0.447   4.382 -0.6782 -0.4421 -0.0535
 6731SOL    HW131826   2.072   0.396   4.455  1.3436  2.1053  0.7569
 6731SOL    HW231827   2.097   0.520   4.396  0.9402 -1.7844  0.1017
 6732SOL     OW31828   1.153   3.961   0.917  0.1185  0.2364  0.2502
 6732SOL    HW131829   1.057   3.958   0.910  0.2085 -2.0284 -0.0496
 6732SOL    HW231830   1.178   4.053   0.919  1.4305 -0.1765  2.1739
 6733SOL     OW31831   0.987   3.402   6.843 -0.5366  0.2979  0.3082
 6733SOL    HW131832   0.931   3.329   6.816  0.3243 -0.2786  0.1035
 6733SOL    HW231833   1.049   3.366   6.906 -0.3902 -1.5168 -0.8894
 6734SOL     OW31834   0.717   4.278   6.106  0.0973 -0.1839  0.3420
 6734SOL    HW131835   0.732   4.370   6.084 -0.5676 -0.3653 -0.8596
 6734SOL    HW231836   0.646   4.274   6.170  0.1924 -2.1358  0.3432
 6735SOL     OW31837   1.712   1.929   5.166 -0.5015 -0.9177 -0.4411
 6735SOL    HW131838   1.733   1.837   5.181 -0.1704 -0.7255  0.3133
 6735SOL    HW231839   1.672   1.955   5.249 -0.4811 -1.3996 -0.2791
 6736SOL     OW31840   3.446   2.664  10.187  0.0106  0.3348 -0.6671
 6736SOL    HW131841   3.470   2.586  10.237  0.3656 -0.5596 -2.2509
 6736SOL    HW231842   3.425   2.727  10.257  1.7680  2.4004 -2.0102
 6737SOL     OW31843   4.325   4.106   7.769  0.4130  0.2121  0.2270
 6737SOL    HW131844   4.288   4.192   7.786 -0.0924 -0.0584  0.5095
 6737SOL    HW231845   4.263   4.052   7.820  0.6783 -0.4986 -0.2024
 6738SOL     OW31846   3.882   2.133  15.269 -0.5449  0.4044  0.1653
 6738SOL    HW131847   3.803   2.081  15.280 -0.4735  0.9629  3.2550
 6738SOL    HW231848   3.945   2.072  15.307  2.4779  2.8920 -0.8926
 6739SOL     OW31849   3.343   0.147   5.320 -0.0910 -0.0027 -0.3254
 6739SOL    HW131850   3.295   0.215   5.368  1.2846  2.2491 -2.1616
 6739SOL    HW231851   3.318   0.174   5.232 -1.9690 -0.5685  0.0233
 6740SOL     OW31852   2.822   1.353   4.283  0.4166  0.2444 -0.3235
 6740SOL    HW131853   2.914   1.349   4.257  0.4747 -1.4690  0.1459
 6740SOL    HW231854   2.815   1.443   4.313  0.3137 -0.6182  2.2736
 6741SOL     OW31855   4.302   1.563   8.855 -0.0874  0.5910 -0.4606
 6741SOL    HW131856   4.257   1.646   8.868 -0.0214  0.2068  2.1510
 6741SOL    HW231857   4.271   1.540   8.767  0.8890  0.9102 -0.8896
 6742SOL     OW31858   2.934   0.848   6.647  0.1676 -0.4837 -0.3036
 6742SOL    HW131859   2.971   0.928   6.685  0.7246 -1.6272  1.5679
 6742SOL    HW231860   2.943   0.802   6.731  0.2521 -0.2071 -0.1607
 6743SOL     OW31861   4.087   0.821  13.866 -0.0721  0.4722  0.2935
 6743SOL    HW131862   4.149   0.769  13.815 -0.4113 -0.8981  1.2687
 6743SOL    HW231863   4.082   0.896  13.807  1.6851  0.3646  0.0216
 6744SOL     OW31864   3.042   2.538  12.740 -0.0090 -0.7076 -0.1866
 6744SOL    HW131865   2.976   2.548  12.671 -0.9342  0.3494  0.8500
 6744SOL    HW231866   3.120   2.549  12.687  0.1753 -0.3223  0.1676
 6745SOL     OW31867   0.812   4.666   3.941 -0.2720  0.1021  0.3261
 6745SOL    HW131868   0.827   4.585   3.892  3.1199 -0.3991  2.1652
 6745SOL    HW231869   0.751   4.716   3.886 -0.0067 -0.5661 -0.5753
 6746SOL     OW31870   4.529   0.700   2.985 -0.8246  0.2470  0.4326
 6746SOL    HW131871   4.607   0.699   2.931 -0.0182  0.1249  1.5937
 6746SOL    HW231872   4.578   0.675   3.063  0.8664  0.0328 -0.7004
 6747SOL     OW31873   4.711   2.720   6.621 -0.5684  0.1339  0.2613
 6747SOL    HW131874   4.654   2.725   6.545  1.0757  1.6527 -0.8805
 6747SOL    HW231875   0.024   2.800   6.609  0.3445 -0.2646  1.5823
 6748SOL     OW31876   3.803   3.870  15.904 -0.6073 -0.2126  0.4491
 6748SOL    HW131877   3.824   3.950  15.953 -1.2996 -0.5748  1.3317
 6748SOL    HW231878   3.873   3.860  15.839  0.1895  0.8278  1.1316
 6749SOL     OW31879   0.808   0.594   3.858 -0.0142 -0.3117 -0.1038
 6749SOL    HW131880   0.792   0.637   3.943  1.7686  0.3115 -0.0906
 6749SOL    HW231881   0.737   0.642   3.815  1.8318  3.2041  0.7694
 6750SOL     OW31882   0.795   1.052   8.984  0.4903  0.0765 -0.5990
 6750SOL    HW131883   0.836   0.988   9.042  3.0075  0.5058 -1.9239
 6750SOL    HW231884   0.792   1.126   9.045 -4.2693 -0.7000  0.1151
 6751SOL     OW31885   1.072   1.954  12.588 -0.4116 -0.5784  0.0000
 6751SOL    HW131886   1.089   1.955  12.682 -0.4916 -0.8227  0.0173
 6751SOL    HW231887   1.160   1.977  12.560 -1.5725  2.6159 -1.0238
 6752SOL     OW31888   0.981   1.287   2.886 -0.2082  0.2829  0.0004
 6752SOL    HW131889   1.066   1.313   2.921 -1.3843  3.1411  0.7214
 6752SOL    HW231890   0.980   1.355   2.819 -2.6200  0.4599  0.2373
 6753SOL     OW31891   1.587   4.308   5.610  0.3247  0.2975  0.1017
 6753SOL    HW131892   1.682   4.297   5.605  0.2872 -0.4080  0.9900
 6753SOL    HW231893   1.564   4.287   5.701  0.3466 -1.2930 -0.2596
 6754SOL     OW31894   0.390   3.319   0.984  0.6169  0.1698  0.0534
 6754SOL    HW131895   0.309   3.296   0.938  1.5489 -0.1655 -1.4531
 6754SOL    HW231896   0.435   3.235   0.994  0.1146  0.0679  1.4294
 6755SOL     OW31897   4.535   4.393   9.269 -0.0662  0.0221  0.3743
 6755SOL    HW131898   4.451   4.348   9.258  0.8588 -1.6733  0.2165
 6755SOL    HW231899   4.572   4.369   9.184  2.8843 -1.1721  1.9812
 6756SOL     OW31900   1.852   4.420  10.156 -0.4712  0.0550 -0.1657
 6756SOL    HW131901   1.807   4.420  10.072  0.0876 -0.1078 -0.4663
 6756SOL    HW231902   1.908   4.342  10.153  2.1285  1.8723  1.0130
 6757SOL     OW31903   4.632   4.419  15.952 -1.1603 -0.1988 -0.0125
 6757SOL    HW131904   4.687   4.495  15.971  0.4275 -1.2082 -0.5654
 6757SOL    HW231905   4.684   4.351  15.995 -1.0880 -1.0496 -1.4659
 6758SOL     OW31906   0.423   1.650   8.201 -0.1815 -0.3481 -0.5508
 6758SOL    HW131907   0.335   1.644   8.239 -0.4938 -0.1639 -1.2433
 6758SOL    HW231908   0.458   1.561   8.207  2.0787  0.7247  1.8973
 6759SOL     OW31909   3.353   0.095  15.803 -0.5122 -0.4027 -0.1986
 6759SOL    HW131910   3.390   0.161  15.863 -2.7168  1.1780 -0.5519
 6759SOL    HW231911   3.431   0.068  15.755 -0.8907  2.3669 -2.3666
 6760SOL     OW31912   2.476   0.540   6.072 -0.1764  0.0156  0.6597
 6760SOL    HW131913   2.392   0.498   6.055  0.0757  0.4935 -1.7400
 6760SOL    HW231914   2.516   0.473   6.127 -1.3670 -1.5100 -0.3287
 6761SOL     OW31915   2.333   2.398   3.799  0.2992  0.1012 -0.2649
 6761SOL    HW131916   2.381   2.338   3.856  1.0741  1.5666  0.6246
 6761SOL    HW231917   2.319   2.332   3.731 -0.0561 -0.1948  0.0941
 6762SOL     OW31918   2.393   3.808   6.048  0.3996  0.3336 -0.8485
 6762SOL    HW131919   2.394   3.772   6.136  1.6155 -1.7013 -1.7130
 6762SOL    HW231920   2.311   3.775   6.011  0.4960  0.2768 -1.0081
 6763SOL     OW31921   4.580   2.623   6.137 -0.0826  0.5037  0.3429
 6763SOL    HW131922   4.551   2.713   6.154 -4.1624 -0.5098 -1.2820
 6763SOL    HW231923   4.583   2.600   6.230  1.0010  1.6715  0.6064
 6764SOL     OW31924   1.826   1.126   8.819  0.0808  0.2874  0.1700
 6764SOL    HW131925   1.799   1.171   8.898  1.8600 -0.5903  1.2757
 6764SOL    HW231926   1.799   1.036   8.834  0.0215  0.6331  2.1520
 6765SOL     OW31927   0.510   3.534   5.812  0.2960  0.4907  0.7051
 6765SOL    HW131928   0.482   3.452   5.852 -0.3726  0.7023  0.6616
 6765SOL    HW231929   0.581   3.578   5.860  1.0467 -0.0358  0.0805
 6766SOL     OW31930   4.484   3.689   1.522  0.4440 -0.0342  0.5667
 6766SOL    HW131931   4.574   3.720   1.531  0.8471 -0.3285 -2.4106
 6766SOL    HW231932   4.494   3.597   1.500 -1.8621 -0.3383  0.8290
 6767SOL     OW31933   4.709   0.174   1.827  0.3031 -0.5407  0.3231
 6767SOL    HW131934   4.697   0.090   1.871  0.3240 -1.0291 -0.6080
 6767SOL    HW231935   0.019   0.229   1.887 -0.6201  1.1844 -0.4949
 6768SOL     OW31936   3.042   1.435   2.776 -0.1199  0.0613 -0.2416
 6768SOL    HW131937   3.060   1.447   2.683  0.5798  1.5349  0.0815
 6768SOL    HW231938   3.129   1.454   2.812  0.3028  0.8313 -1.6658
 6769SOL     OW31939   2.216   1.238  13.924  0.1902 -0.3747  0.2385
 6769SOL    HW131940   2.222   1.222  13.830  1.3804 -1.5518  0.5194
 6769SOL    HW231941   2.154   1.311  13.915 -1.2402 -1.6248  0.0680
 6770SOL     OW31942   4.127   0.253   1.029 -0.1041 -0.1418  0.2882
 6770SOL    HW131943   4.148   0.336   0.987  1.0551 -1.5484 -1.9463
 6770SOL    HW231944   4.043   0.238   0.985  0.3598 -0.6864 -0.4059
 6771SOL     OW31945   4.153   4.521   2.594  0.2025  0.2479 -0.2859
 6771SOL    HW131946   4.214   4.494   2.525  2.0469 -0.1226  1.4893
 6771SOL    HW231947   4.193   4.483   2.673  1.3515  2.8935  0.4087
 6772SOL     OW31948   3.651   2.952  16.713  0.0161  0.3995 -0.1443
 6772SOL    HW131949   3.697   2.893  16.773 -0.6582 -0.6423 -0.6531
 6772SOL    HW231950   3.575   2.982  16.762  0.8318  0.9719  0.7683
 6773SOL     OW31951   2.866   0.577  12.135 -0.0442 -0.1961  0.4294
 6773SOL    HW131952   2.889   0.670  12.139 -0.4472 -0.0302 -1.6301
 6773SOL    HW231953   2.919   0.549  12.060 -1.1048 -0.8862 -0.0562
 6774SOL     OW31954   0.412   0.357   3.981  0.5683 -0.0916 -0.1804
 6774SOL    HW131955   0.414   0.305   4.061 -1.2062 -0.2249 -0.2345
 6774SOL    HW231956   0.405   0.447   4.013 -1.4112 -0.3026 -0.0151
 6775SOL     OW31957   4.638   3.853   4.272 -0.2502 -0.3251  0.1513
 6775SOL    HW131958   4.554   3.816   4.245 -0.8322  0.7034  0.5572
 6775SOL    HW231959   4.677   3.773   4.307  1.2800  0.6820  0.7232
 6776SOL     OW31960   1.250   0.096  17.472  0.2070  0.3771  0.6837
 6776SOL    HW131961   1.248   0.046  17.554  0.3946  1.2907  1.2447
 6776SOL    HW231962   1.325   0.066  17.421 -0.9732  4.2106 -3.2481
 6777SOL     OW31963   1.776   0.691  12.518  0.5907  0.1254  0.2155
 6777SOL    HW131964   1.795   0.733  12.434  1.8699  1.2180  1.0346
 6777SOL    HW231965   1.700   0.743  12.542 -0.8588 -1.2677 -1.4127
 6778SOL     OW31966   4.538   0.402  15.335 -0.6042 -0.5481 -0.0322
 6778SOL    HW131967   4.552   0.496  15.351 -0.6268 -0.2337 -1.8463
 6778SOL    HW231968   4.624   0.371  15.309 -0.5562  0.5621 -1.2485
 6779SOL     OW31969   2.497   0.598  16.158 -0.0402  0.1412  0.0485
 6779SOL    HW131970   2.448   0.621  16.237  1.8609  1.5042  0.8264
 6779SOL    HW231971   2.433   0.532  16.130 -1.0254 -0.1229  2.9732
 6780SOL     OW31972   1.530   0.086   6.105  0.3881 -0.5235  0.1232
 6780SOL    HW131973   1.586   0.147   6.153 -1.0049  0.6593  0.2423
 6780SOL    HW231974   1.444   0.118   6.130 -0.2908 -1.4391 -1.0131
 6781SOL     OW31975   2.388   0.906   7.590 -0.1116  0.1424 -0.1566
 6781SOL    HW131976   2.401   0.914   7.496 -2.1111  1.6359 -0.3271
 6781SOL    HW231977   2.380   0.999   7.611  0.4119  0.4860 -1.4958
 6782SOL     OW31978   0.897   3.217   8.789 -0.2430  0.0240  0.0655
 6782SOL    HW131979   0.961   3.238   8.856 -0.6734 -1.6959  1.0250
 6782SOL    HW231980   0.914   3.287   8.726  1.1291 -1.1986 -0.9137
 6783SOL     OW31981   2.587   1.853   2.271  0.4732 -0.3909 -0.4550
 6783SOL    HW131982   2.495   1.861   2.296  0.8528 -1.8120  1.4030
 6783SOL    HW231983   2.617   1.774   2.317 -1.4693  0.1898  1.8248
 6784SOL     OW31984   2.300   0.238  12.157 -0.4088  0.4655  0.3464
 6784SOL    HW131985   2.233   0.251  12.090 -0.7887  2.3737  1.1012
 6784SOL    HW231986   2.270   0.308  12.214  1.4081  0.7704  0.8975
 6785SOL     OW31987   3.391   2.118  10.240  0.0032 -0.3251  0.1572
 6785SOL    HW131988   3.474   2.082  10.210  0.0456  0.5584 -0.8090
 6785SOL    HW231989   3.406   2.119  10.334  1.5778  0.4623 -0.0965
 6786SOL     OW31990   0.921   0.927   3.363 -0.3808 -0.0133 -0.1641
 6786SOL    HW131991   0.907   1.022   3.356 -1.1404 -0.1649 -0.7388
 6786SOL    HW231992   0.999   0.925   3.307  1.4869  0.2913  2.4235
 6787SOL     OW31993   2.048   3.333   4.668  0.0005  0.7523 -0.3043
 6787SOL    HW131994   2.055   3.428   4.666 -0.4078  0.8074  0.5888
 6787SOL    HW231995   2.129   3.306   4.710 -0.5635  0.2767  0.5013
 6788SOL     OW31996   1.706   3.488   3.167 -0.0706 -0.5740 -0.5116
 6788SOL    HW131997   1.758   3.471   3.089  3.1769  0.4682  1.3947
 6788SOL    HW231998   1.650   3.411   3.160 -0.3000 -0.3238 -1.4364
 6789SOL     OW31999   2.792   3.915   2.894 -0.3575  0.1531  0.2367
 6789SOL    HW132000   2.748   3.841   2.936  0.1417  1.0277  2.2804
 6789SOL    HW232001   2.757   3.914   2.805 -0.8222 -1.9690  0.4496
 6790SOL     OW32002   4.614   0.205  14.548 -0.2306 -0.6789  0.0715
 6790SOL    HW132003   4.638   0.151  14.473  3.6162  1.5930 -0.3600
 6790SOL    HW232004   4.700   0.246  14.558 -0.0457 -0.4510 -2.4201
 6791SOL     OW32005   0.052   1.636   1.816 -0.1977  0.2683  0.0547
 6791SOL    HW132006   0.052   1.608   1.724 -2.4535  0.2232  0.0806
 6791SOL    HW232007   4.704   1.674   1.818  0.1086  1.0215 -0.5096
 6792SOL     OW32008   4.636   3.585   4.361 -0.2399 -0.0370 -0.0092
 6792SOL    HW132009   4.563   3.645   4.370  0.1793  0.4059  0.4221
 6792SOL    HW232010   4.629   3.527   4.438 -0.2046 -0.9524 -0.6889
 6793SOL     OW32011   3.725   0.360   8.315  0.2039 -0.0553  0.1594
 6793SOL    HW132012   3.743   0.266   8.321 -1.0767 -0.3749 -1.0353
 6793SOL    HW232013   3.682   0.372   8.399  0.9115  2.3152  0.2046
 6794SOL     OW32014   1.557   1.998   1.055  0.1083 -0.4954 -0.0325
 6794SOL    HW132015   1.626   2.046   1.102 -0.5216 -0.8698  1.2709
 6794SOL    HW232016   1.594   1.910   1.058  0.1061 -0.5125 -0.4792
 6795SOL     OW32017   1.201   3.164  10.005 -0.1242 -0.0364  0.1500
 6795SOL    HW132018   1.218   3.158   9.911  0.9145  1.4942  0.2483
 6795SOL    HW232019   1.125   3.105  10.005  0.3999 -0.7071 -1.7950
 6796SOL     OW32020   1.644   1.816  12.822 -0.1825 -0.0260  0.6555
 6796SOL    HW132021   1.589   1.743  12.793 -2.4535  1.8629  0.1432
 6796SOL    HW232022   1.632   1.879  12.750 -0.2103 -1.1625 -0.3285
 6797SOL     OW32023   1.390   2.631  12.064 -0.3958  0.5551  0.5688
 6797SOL    HW132024   1.309   2.587  12.090 -0.1078 -0.9315 -1.0794
 6797SOL    HW232025   1.386   2.577  11.985 -3.0008  0.3352  0.8432
 6798SOL     OW32026   3.619   0.313   2.598  0.4135 -0.3468  0.2019
 6798SOL    HW132027   3.597   0.222   2.617 -0.4886  0.2895  2.2872
 6798SOL    HW232028   3.687   0.327   2.665 -0.5251  2.6877  0.5063
 6799SOL     OW32029   2.873   4.605   9.339  0.2986 -0.2598 -0.2971
 6799SOL    HW132030   2.862   4.525   9.287 -1.0236  1.0497 -2.0345
 6799SOL    HW232031   2.851   4.573   9.426 -1.1622  0.5504 -0.3724
 6800SOL     OW32032   3.432   2.795  16.341 -0.3706  0.0321  0.4611
 6800SOL    HW132033   3.485   2.860  16.387 -0.5559 -1.8732  3.4173
 6800SOL    HW232034   3.384   2.849  16.279 -1.3449 -0.6854  0.5961
 6801SOL     OW32035   2.899   2.146  13.799  0.8691 -0.5321  0.0321
 6801SOL    HW132036   2.814   2.117  13.767  0.5805  0.8345 -0.4727
 6801SOL    HW232037   2.928   2.203  13.728  1.5378 -1.3450 -0.3476
 6802SOL     OW32038   0.523   0.070  12.514 -0.1959 -0.4287 -0.4648
 6802SOL    HW132039   0.547   0.094  12.603 -0.0069  1.2875 -0.9838
 6802SOL    HW232040   0.498   0.160  12.496  1.0205  0.1204  0.6661
 6803SOL     OW32041   2.010   4.308   1.500 -0.1820  0.1797 -0.0553
 6803SOL    HW132042   2.002   4.396   1.536 -1.2928 -0.8738  2.3006
 6803SOL    HW232043   2.081   4.319   1.437  0.5446  0.8271  0.9006
 6804SOL     OW32044   1.219   4.399   5.124  0.1938  0.4305 -0.1949
 6804SOL    HW132045   1.249   4.343   5.195 -0.2533  0.1890 -0.1999
 6804SOL    HW232046   1.125   4.388   5.133  0.5771 -0.9103  2.0387
 6805SOL     OW32047   3.781   0.154   1.238 -0.1221 -0.1944 -0.2818
 6805SOL    HW132048   3.708   0.188   1.289 -1.7947 -2.3487 -1.2005
 6805SOL    HW232049   3.766   0.061   1.254 -0.8857 -0.2592 -1.3605
 6806SOL     OW32050   0.363   0.701   1.397  0.2758  0.0678 -0.2979
 6806SOL    HW132051   0.269   0.691   1.386  0.2425 -1.0584  0.9282
 6806SOL    HW232052   0.391   0.716   1.307  0.3742 -1.1058 -0.4669
 6807SOL     OW32053   1.968   1.547  12.180  0.2389 -0.0631  0.1976
 6807SOL    HW132054   1.986   1.545  12.086 -1.1001 -3.7211  0.0246
 6807SOL    HW232055   2.055   1.529  12.216 -0.0588  2.6807  2.3243
 6808SOL     OW32056   1.285   3.923   9.030 -0.2043 -0.7557 -0.1691
 6808SOL    HW132057   1.375   3.957   9.030 -0.9172  1.1646 -0.5643
 6808SOL    HW232058   1.300   3.857   8.963 -0.1213 -0.9642  0.0557
 6809SOL     OW32059   1.331   2.483   2.247  0.0466 -0.1179  0.0405
 6809SOL    HW132060   1.304   2.413   2.188  1.2859  0.9825 -1.8257
 6809SOL    HW232061   1.293   2.565   2.216  2.0011  0.6855 -0.2366
 6810SOL     OW32062   2.683   3.647   2.854  0.2472 -0.3855  0.2136
 6810SOL    HW132063   2.591   3.627   2.835 -0.1950  1.6561  0.2377
 6810SOL    HW232064   2.736   3.613   2.781  0.2374 -0.4851  0.2529
 6811SOL     OW32065   1.637   3.179   8.572 -0.2273 -0.1447  0.1045
 6811SOL    HW132066   1.677   3.152   8.654  0.2159 -0.6870 -0.2897
 6811SOL    HW232067   1.705   3.234   8.534 -2.0146  0.8678 -1.6416
 6812SOL     OW32068   2.815   1.213   6.439  0.3249 -0.3034 -0.3536
 6812SOL    HW132069   2.874   1.273   6.484  0.0546 -0.0435 -0.3447
 6812SOL    HW232070   2.735   1.265   6.451 -0.4584 -1.1946 -1.7082
 6813SOL     OW32071   2.871   2.091   7.647 -0.4292  0.5277  0.2438
 6813SOL    HW132072   2.958   2.051   7.653 -0.9501 -0.2824  2.4405
 6813SOL    HW232073   2.852   2.136   7.730 -0.1121 -0.1728  0.6906
 6814SOL     OW32074   0.855   3.641   1.113  0.9633 -0.1996 -0.1105
 6814SOL    HW132075   0.934   3.687   1.143 -0.7124  2.4916  0.1761
 6814SOL    HW232076   0.790   3.711   1.123 -1.0813 -2.1697  0.1329
 6815SOL     OW32077   2.296   4.010   8.722 -0.0688  0.2057  0.0465
 6815SOL    HW132078   2.214   4.010   8.770 -0.2987  2.1388 -0.3357
 6815SOL    HW232079   2.275   4.055   8.640 -3.6897 -0.5734  0.5382
 6816SOL     OW32080   3.193   3.488   9.605 -0.1133  0.2321  0.3249
 6816SOL    HW132081   3.194   3.420   9.672  2.6792  1.5311  1.5853
 6816SOL    HW232082   3.104   3.473   9.574 -0.7012 -1.9849  3.1401
 6817SOL     OW32083   2.565   2.376   5.991 -0.1437  0.0649  0.0329
 6817SOL    HW132084   2.526   2.309   5.934 -2.7034 -0.5889  2.5553
 6817SOL    HW232085   2.546   2.348   6.081  0.8713  0.2879  0.3225
 6818SOL     OW32086   1.132   0.584   8.160  0.0500  0.1273 -0.3941
 6818SOL    HW132087   1.164   0.496   8.137  1.2448  0.8567 -1.5059
 6818SOL    HW232088   1.217   0.627   8.159 -0.0516  0.3338  1.0869
 6819SOL     OW32089   2.701   1.549   3.752 -0.7825  0.2230 -0.0544
 6819SOL    HW132090   2.730   1.474   3.804 -1.4683 -0.3450 -0.4838
 6819SOL    HW232091   2.607   1.531   3.763 -0.8319  0.6369  0.2091
 6820SOL     OW32092   3.602   2.251   3.963 -0.2363  0.3058 -0.7090
 6820SOL    HW132093   3.524   2.269   3.909  1.1040  3.7954 -1.4833
 6820SOL    HW232094   3.646   2.186   3.909  0.6482 -0.4864  0.9819
 6821SOL     OW32095   2.673   4.026  17.638  0.4816 -0.3261 -0.4516
 6821SOL    HW132096   2.745   4.072  17.680  1.1961 -1.0623 -0.8617
 6821SOL    HW232097   2.624   4.098  17.599  2.0840  0.5316 -0.8574
 6822SOL     OW32098   4.721   1.847  17.099 -0.6135 -0.1173 -0.1751
 6822SOL    HW132099   4.662   1.898  17.155 -0.2603 -1.0357  1.0154
 6822SOL    HW232100   4.668   1.769  17.085  0.1784 -0.3257 -2.0664
 6823SOL     OW32101   1.345   0.926  12.560  0.2610 -0.2019 -0.6637
 6823SOL    HW132102   1.433   0.896  12.536  0.4156 -2.0948  2.3995
 6823SOL    HW232103   1.350   1.016  12.591 -1.8278 -1.2052  2.5362
 6824SOL     OW32104   2.088   3.717   7.156  0.3140  0.5956  0.7636
 6824SOL    HW132105   2.115   3.791   7.102  2.5964 -0.0185  1.0239
 6824SOL    HW232106   1.998   3.716   7.126 -0.1817 -1.2917  2.3111
 6825SOL     OW32107   0.867   4.492   8.467  0.2965  0.1742  0.6094
 6825SOL    HW132108   0.805   4.563   8.452  0.3071  0.0108 -0.2051
 6825SOL    HW232109   0.870   4.471   8.560 -0.9122 -2.4667  0.0565
 6826SOL     OW32110   4.342   4.382   8.848 -0.1674 -0.4769 -0.0158
 6826SOL    HW132111   4.374   4.292   8.849 -0.8489 -0.7012  0.7413
 6826SOL    HW232112   4.264   4.371   8.794 -0.3593  1.1655 -0.0761
 6827SOL     OW32113   1.547   3.190   5.233 -0.5132 -0.1688 -0.2464
 6827SOL    HW132114   1.583   3.245   5.163 -1.6296 -0.0268 -0.7074
 6827SOL    HW232115   1.481   3.251   5.265  0.9064  0.5153  1.3435
 6828SOL     OW32116   0.857   0.424   2.542 -0.1478 -0.3182  0.3925
 6828SOL    HW132117   0.948   0.434   2.572 -0.4416  1.5568  0.6179
 6828SOL    HW232118   0.857   0.372   2.462  0.9091  0.0519  0.1496
 6829SOL     OW32119   1.829   1.932   8.468 -0.2775 -0.8319  0.3064
 6829SOL    HW132120   1.901   1.980   8.428 -0.9750 -0.5680 -0.6306
 6829SOL    HW232121   1.821   1.977   8.552  0.3968 -1.7063  0.8330
 6830SOL     OW32122   4.625   1.766   2.490  0.7828 -0.0460 -0.4512
 6830SOL    HW132123   4.679   1.840   2.464 -2.1460  2.3557  0.2136
 6830SOL    HW232124   4.543   1.791   2.446  0.0082  1.1639  1.7072
 6831SOL     OW32125   3.002   0.907   7.377 -0.8993 -0.1808 -0.1383
 6831SOL    HW132126   3.097   0.907   7.364 -0.8803 -1.3068 -0.0590
 6831SOL    HW232127   2.986   0.835   7.316 -0.8017 -0.8571  0.6290
 6832SOL     OW32128   1.548   4.121   8.391 -0.1452 -0.3544 -0.3354
 6832SOL    HW132129   1.562   4.194   8.330  0.4601  0.8757  1.2899
 6832SOL    HW232130   1.638   4.094   8.405 -0.0299 -0.2397 -0.8258
 6833SOL     OW32131   0.349   3.801  17.155 -0.4059 -0.3704 -0.2186
 6833SOL    HW132132   0.257   3.822  17.138 -0.2626 -0.6977 -1.3412
 6833SOL    HW232133   0.387   3.888  17.170 -1.0715 -0.6231  2.9230
 6834SOL     OW32134   4.620   0.650  15.208 -0.4336 -0.0213  0.1369
 6834SOL    HW132135   4.700   0.654  15.259 -0.1682  0.9418 -0.3498
 6834SOL    HW232136   4.613   0.742  15.179 -1.6784 -0.0554  0.3325
 6835SOL     OW32137   1.998   1.908   8.798 -0.5642  0.1220  0.2556
 6835SOL    HW132138   1.984   2.000   8.773  1.9568 -0.0677 -1.8391
 6835SOL    HW232139   2.093   1.900   8.811 -0.7531 -1.4841  0.6806
 6836SOL     OW32140   1.246   0.407   3.365 -0.2562  0.0561 -0.6026
 6836SOL    HW132141   1.167   0.354   3.354  1.7084 -2.9417 -0.1711
 6836SOL    HW232142   1.221   0.447   3.449  0.2812 -0.3198 -0.2664
 6837SOL     OW32143   0.081   3.909   7.536 -0.0947 -0.5876 -0.4819
 6837SOL    HW132144   0.174   3.908   7.514 -0.1468  0.8072 -0.7471
 6837SOL    HW232145   0.048   3.929   7.448 -1.0707 -0.1910 -0.0235
 6838SOL     OW32146   3.309   3.110   1.027  0.2022  0.5120 -0.2383
 6838SOL    HW132147   3.331   3.197   0.996  1.7953 -0.1770 -1.0395
 6838SOL    HW232148   3.394   3.065   1.026 -1.7093 -3.1608  1.8300
 6839SOL     OW32149   0.171   0.782   7.226 -0.4557 -0.9137  0.4050
 6839SOL    HW132150   0.160   0.736   7.142 -2.3571  1.0310 -0.4120
 6839SOL    HW232151   0.097   0.842   7.228  0.4484  0.1757  1.1684
 6840SOL     OW32152   3.164   0.917   1.081  0.4953 -0.3980  0.4437
 6840SOL    HW132153   3.073   0.944   1.090  0.6850  0.3618  0.0544
 6840SOL    HW232154   3.151   0.834   1.127  0.3742 -0.8808 -0.4604
 6841SOL     OW32155   1.164   1.687   2.262 -0.5192 -0.6795 -0.5225
 6841SOL    HW132156   1.241   1.697   2.206 -0.6951 -1.1243 -0.8504
 6841SOL    HW232157   1.172   1.592   2.270  1.9332 -0.2436  2.1181
 6842SOL     OW32158   0.672   3.097   8.125 -0.5252  0.3863  0.1363
 6842SOL    HW132159   0.610   3.072   8.056 -0.7499 -0.1720  0.5418
 6842SOL    HW232160   0.620   3.159   8.176 -0.8445  0.5872 -0.4339
 6843SOL     OW32161   3.622   2.302   4.612  0.1432 -0.2035 -0.6490
 6843SOL    HW132162   3.650   2.231   4.554 -0.5416 -0.6965 -0.3788
 6843SOL    HW232163   3.678   2.378   4.596  1.0775 -0.4714  1.3671
 6844SOL     OW32164   4.211   0.142   1.827  0.1022 -0.2472  0.0110
 6844SOL    HW132165   4.212   0.234   1.801  3.2342  0.2397  1.8378
 6844SOL    HW232166   4.306   0.131   1.834 -0.0595 -1.0677  0.8741
 6845SOL     OW32167   1.521   0.599  11.192  0.2489 -0.3956 -0.6121
 6845SOL    HW132168   1.463   0.634  11.258  1.4723  0.4868  0.0022
 6845SOL    HW232169   1.579   0.672  11.167 -0.5675 -0.3258 -2.2988
 6846SOL     OW32170   3.468   2.084  13.050 -0.5578 -0.2935 -0.0957
 6846SOL    HW132171   3.420   2.143  12.992  0.0967 -1.4543 -1.7916
 6846SOL    HW232172   3.411   2.087  13.128  1.0847  1.3016  1.0593
 6847SOL     OW32173   3.466   4.069  17.138  0.1812  0.1573  0.0141
 6847SOL    HW132174   3.548   4.024  17.160 -0.2707 -1.0126 -0.6890
 6847SOL    HW232175   3.454   4.040  17.048 -1.3695  0.4850  0.1120
 6848SOL     OW32176   2.603   3.086   6.533  0.2102 -0.0290 -0.3914
 6848SOL    HW132177   2.666   3.158   6.532  1.7680 -1.3951 -0.6175
 6848SOL    HW232178   2.525   3.120   6.490  0.6002  2.8843  1.2637
 6849SOL     OW32179   4.007   3.852   2.164  0.0368 -0.7172 -0.3494
 6849SOL    HW132180   4.072   3.886   2.103  0.1175  0.5140  0.4161
 6849SOL    HW232181   4.041   3.896   2.242 -0.2471  0.4209 -0.8696
 6850SOL     OW32182   4.233   2.887   2.047 -0.1771  0.2972 -0.1227
 6850SOL    HW132183   4.153   2.847   2.079  0.2720  1.1183  2.0306
 6850SOL    HW232184   4.203   2.976   2.030 -2.2508 -0.7467 -1.8967
 6851SOL     OW32185   4.317   3.058  14.971 -0.1641  0.3054  0.1311
 6851SOL    HW132186   4.410   3.068  14.951  0.3204 -1.0222  1.7495
 6851SOL    HW232187   4.285   3.032  14.885  0.6022  1.4172 -0.4862
 6852SOL     OW32188   1.552   1.046   6.061 -0.0569 -0.0759  0.5211
 6852SOL    HW132189   1.496   0.969   6.065 -0.0047 -0.1402  0.0243
 6852SOL    HW232190   1.620   1.007   6.116  0.5859 -2.0932 -1.7199
 6853SOL     OW32191   4.387   0.253  10.937  0.2448  0.5188  0.2062
 6853SOL    HW132192   4.362   0.275  10.847  1.1844 -0.4701 -0.3016
 6853SOL    HW232193   4.432   0.331  10.969  1.1590  0.4174 -0.8180
 6854SOL     OW32194   3.851   1.364   3.714 -0.1173 -0.4072 -0.2544
 6854SOL    HW132195   3.783   1.432   3.713 -2.5640 -2.8767  0.8322
 6854SOL    HW232196   3.920   1.396   3.655 -0.2650  1.1034  0.3982
 6855SOL     OW32197   4.163   1.835   6.367 -0.1121  0.3780  0.2213
 6855SOL    HW132198   4.227   1.819   6.436 -0.5248  1.1983  0.7948
 6855SOL    HW232199   4.110   1.893   6.422 -3.4424 -3.3779  0.9549
 6856SOL     OW32200   2.122   1.356  17.229  0.2845  0.2502  0.3653
 6856SOL    HW132201   2.122   1.403  17.312  0.3855 -0.7328  0.9265
 6856SOL    HW232202   2.198   1.390  17.183  0.3724 -0.9938 -0.4187
 6857SOL     OW32203   0.589   4.018   5.001  0.2324 -0.3696 -0.3117
 6857SOL    HW132204   0.507   4.000   4.955  1.0389  2.0236 -2.6977
 6857SOL    HW232205   0.657   3.974   4.949  2.2654  2.9410 -0.4602
 6858SOL     OW32206   1.273   4.000  17.257  0.7499 -0.4491  0.0534
 6858SOL    HW132207   1.349   4.056  17.275  0.3370  0.0557  0.2449
 6858SOL    HW232208   1.243   4.052  17.183  0.5062 -3.9402 -2.2656
 6859SOL     OW32209   0.397   4.532   1.025  0.1569  0.5448  0.3158
 6859SOL    HW132210   0.354   4.615   1.007 -1.3224 -0.2896 -0.0066
 6859SOL    HW232211   0.490   4.551   1.010  0.4134 -0.1678  0.9704
 6860SOL     OW32212   2.828   1.144   6.178 -0.4446 -0.3901  0.2069
 6860SOL    HW132213   2.917   1.109   6.188 -0.6346 -0.6565  0.9842
 6860SOL    HW232214   2.819   1.163   6.272  1.4359  0.0569  0.2976
 6861SOL     OW32215   1.183   1.569   8.150  0.3109 -0.1031 -0.7945
 6861SOL    HW132216   1.234   1.504   8.199  1.4359 -0.1576 -2.0155
 6861SOL    HW232217   1.243   1.592   8.079  1.2754  0.9967  0.3597
 6862SOL     OW32218   2.209   0.673   5.070 -0.6206 -0.4410 -0.6035
 6862SOL    HW132219   2.211   0.711   4.982  0.9361  0.3963 -0.2087
 6862SOL    HW232220   2.120   0.703   5.088  0.0668  0.8142  0.7785
 6863SOL     OW32221   1.334   4.068  11.969 -0.1965  0.7512  0.6818
 6863SOL    HW132222   1.286   4.147  11.946 -0.5150  0.2021 -0.5419
 6863SOL    HW232223   1.422   4.098  11.991 -0.3090  0.3775  1.6321
 6864SOL     OW32224   3.077   0.574   2.742 -0.1602 -0.2446 -0.1506
 6864SOL    HW132225   2.988   0.553   2.772  0.0331  1.1724  1.4384
 6864SOL    HW232226   3.102   0.489   2.706  1.1256  1.3025 -2.8503
 6865SOL     OW32227   1.452   0.433   7.347 -0.1104  0.7199 -0.2830
 6865SOL    HW132228   1.404   0.496   7.401 -0.9684 -0.9244  0.8812
 6865SOL    HW232229   1.441   0.471   7.260  2.4767 -1.0099 -1.3472
 6866SOL     OW32230   3.894   0.175   6.972 -0.4687 -0.8918 -0.1147
 6866SOL    HW132231   3.885   0.263   7.010 -0.9063 -0.1062 -2.0289
 6866SOL    HW232232   3.828   0.184   6.903 -0.7774 -0.9923  0.1625
 6867SOL     OW32233   3.829   0.817  13.959 -0.3252  0.0696  0.7245
 6867SOL    HW132234   3.837   0.774  14.045 -0.6239  0.9665  1.2002
 6867SOL    HW232235   3.920   0.827  13.931 -0.2313 -0.5576  0.7986
 6868SOL     OW32236   1.562   0.873   9.113 -0.0949 -0.2340 -0.2275
 6868SOL    HW132237   1.631   0.809   9.131 -1.5423 -1.0732  2.5352
 6868SOL    HW232238   1.508   0.863   9.192 -2.0774 -1.3893 -1.7043
 6869SOL     OW32239   0.841   2.263   5.874 -0.1500 -0.0054 -0.4821
 6869SOL    HW132240   0.794   2.250   5.792  1.5827  2.0611 -1.8378
 6869SOL    HW232241   0.879   2.350   5.860  0.0430 -0.4422 -2.6551
 6870SOL     OW32242   3.828   4.495   8.392  0.4325  0.0709 -0.4465
 6870SOL    HW132243   3.847   4.408   8.356 -1.1667 -1.4844  2.4952
 6870SOL    HW232244   3.894   4.549   8.348  0.4756  1.4405  1.2842
 6871SOL     OW32245   1.327   0.459   5.621 -0.2831  0.1973 -0.5804
 6871SOL    HW132246   1.366   0.530   5.569  1.8593  0.2302  1.0600
 6871SOL    HW232247   1.255   0.510   5.657 -0.0052 -0.7593  1.3289
 6872SOL     OW32248   2.032   2.114   4.829 -0.6551  0.0861  0.2551
 6872SOL    HW132249   1.984   2.155   4.901  0.8277 -0.5716  1.6315
 6872SOL    HW232250   2.121   2.131   4.860 -0.7785  1.1483  0.0348
 6873SOL     OW32251   1.075   2.393   5.653 -0.4037 -0.5248  0.0324
 6873SOL    HW132252   1.010   2.455   5.685  0.5468  0.5203 -0.0704
 6873SOL    HW232253   1.149   2.413   5.711 -2.4112  2.8797  1.4137
 6874SOL     OW32254   4.291   3.237   3.018  0.1175  0.1364  0.8467
 6874SOL    HW132255   4.348   3.300   2.974  0.7177  1.5551  3.6672
 6874SOL    HW232256   4.232   3.297   3.062 -0.3449  0.4165 -0.1430
 6875SOL     OW32257   2.613   2.057  13.959  0.0878 -0.2417  0.3086
 6875SOL    HW132258   2.641   1.966  13.954 -0.3879 -0.2019 -2.8613
 6875SOL    HW232259   2.534   2.050  14.013 -0.6546 -0.4781 -0.8037
 6876SOL     OW32260   1.835   1.838   3.060  0.3443  0.1527 -0.0590
 6876SOL    HW132261   1.843   1.869   3.150  0.3637  1.3764 -0.4844
 6876SOL    HW232262   1.925   1.818   3.035  0.9597  0.9911  1.5223
 6877SOL     OW32263   1.096   4.187   5.850  0.3116 -0.2847 -0.1986
 6877SOL    HW132264   1.106   4.114   5.910 -2.1166 -1.0586 -0.7065
 6877SOL    HW232265   1.137   4.140   5.777  1.1698  0.2372 -0.0531
 6878SOL     OW32266   2.262   3.616   3.927 -0.2128  0.3977  0.4547
 6878SOL    HW132267   2.218   3.589   3.846 -0.8048 -0.4507  1.0464
 6878SOL    HW232268   2.190   3.602   3.989 -1.9648  2.1525 -1.2074
 6879SOL     OW32269   2.368   0.913   7.299 -0.4977 -0.7352  0.0146
 6879SOL    HW132270   2.374   1.006   7.276  1.3034 -0.8529  0.0076
 6879SOL    HW232271   2.416   0.866   7.230  0.2597 -0.1956  0.1718
 6880SOL     OW32272   2.532   2.033  13.091  0.5151 -0.8954 -0.0503
 6880SOL    HW132273   2.509   2.036  13.183  1.7231 -0.8813  0.2578
 6880SOL    HW232274   2.475   1.964  13.059 -0.4720  0.1390 -0.5327
 6881SOL     OW32275   0.702   3.831  10.963  0.6112 -0.0370  0.0378
 6881SOL    HW132276   0.654   3.824  10.881 -0.6215  2.1990  0.5863
 6881SOL    HW232277   0.731   3.922  10.957  1.2082 -0.2132  0.1329
 6882SOL     OW32278   4.415   3.293  13.116 -0.2814  1.2506 -0.7766
 6882SOL    HW132279   4.405   3.287  13.211 -0.4376  0.9452 -0.8116
 6882SOL    HW232280   4.473   3.369  13.112 -0.5724  1.6012  1.7469
 6883SOL     OW32281   1.276   0.976   3.634 -0.1681 -0.0408  0.3094
 6883SOL    HW132282   1.354   0.990   3.688 -0.2850 -1.9821  0.9979
 6883SOL    HW232283   1.255   1.066   3.609  0.6971 -0.8349 -3.2281
 6884SOL     OW32284   1.485   1.634  16.419  0.6369 -0.1640  0.5348
 6884SOL    HW132285   1.392   1.652  16.406  0.9407  0.7321 -0.3949
 6884SOL    HW232286   1.523   1.718  16.445  2.1124  0.1433 -2.5664
 6885SOL     OW32287   0.796   0.443  13.534  0.1383 -0.2230  0.1088
 6885SOL    HW132288   0.770   0.445  13.442  0.0813 -1.5441  0.0989
 6885SOL    HW232289   0.774   0.528  13.574  2.9731 -0.4242  2.1199
 6886SOL     OW32290   2.183   1.322   7.903 -0.0990 -0.3583 -0.3953
 6886SOL    HW132291   2.125   1.294   7.974 -0.1413  1.4121  0.2454
 6886SOL    HW232292   2.264   1.336   7.951 -0.6566  0.3162  0.3375
 6887SOL     OW32293   1.951   0.842  14.163 -0.0108  0.3265  0.0911
 6887SOL    HW132294   1.860   0.832  14.189  0.1206  0.8638  0.7597
 6887SOL    HW232295   1.968   0.932  14.191 -4.2063  1.1855 -0.1308
 6888SOL     OW32296   2.291   0.201  16.903 -0.1516  0.0022 -0.1091
 6888SOL    HW132297   2.216   0.159  16.862  0.0033 -0.3854  0.0013
 6888SOL    HW232298   2.366   0.159  16.860 -0.0830  1.6032 -1.5238
 6889SOL     OW32299   2.166   3.065  10.371  0.5038 -0.2842  0.2287
 6889SOL    HW132300   2.122   3.132  10.423 -1.3971 -0.2446 -1.4221
 6889SOL    HW232301   2.226   3.034  10.439  0.2504  1.1578  1.0896
 6890SOL     OW32302   1.406   0.739   3.489 -0.1083  0.8378  0.4534
 6890SOL    HW132303   1.390   0.815   3.546  0.6743 -0.6253  2.6459
 6890SOL    HW232304   1.501   0.729   3.495 -0.0756  0.7357 -0.3252
 6891SOL     OW32305   1.760   2.773  15.970 -0.3030 -0.5870 -0.1023
 6891SOL    HW132306   1.784   2.827  15.895 -2.9377  0.3975 -0.2405
 6891SOL    HW232307   1.813   2.810  16.041  0.5116 -0.0445 -0.9932
 6892SOL     OW32308   4.417   1.638   3.472  0.0183  0.3484  0.1223
 6892SOL    HW132309   4.436   1.551   3.507  0.7498  0.3363 -0.3142
 6892SOL    HW232310   4.400   1.678   3.558  0.3377  2.5277 -0.8226
 6893SOL     OW32311   2.909   1.752   8.800 -0.2503 -0.4524  0.8374
 6893SOL    HW132312   2.989   1.709   8.770 -1.9885 -1.3594 -2.4441
 6893SOL    HW232313   2.947   1.840   8.808  1.4016 -1.0246 -0.6999
 6894SOL     OW32314   0.768   0.476   4.175 -0.2868 -0.0514  0.0537
 6894SOL    HW132315   0.858   0.453   4.151 -0.0373 -0.5095  1.4090
 6894SOL    HW232316   0.761   0.416   4.249 -2.1640  0.7171  0.4766
 6895SOL     OW32317   4.200   0.897  16.612  0.0376  0.6587  0.4067
 6895SOL    HW132318   4.134   0.881  16.544 -0.3073  2.1144  0.4100
 6895SOL    HW232319   4.283   0.881  16.566 -0.1904  0.7040 -0.0161
 6896SOL     OW32320   3.800   3.272   5.124 -0.1854 -0.0432 -0.8365
 6896SOL    HW132321   3.842   3.349   5.163 -0.0230  0.3816 -1.8420
 6896SOL    HW232322   3.718   3.273   5.174  0.1524  0.8088 -0.2991
 6897SOL     OW32323   0.583   1.153   8.131 -0.0631 -0.2230  0.0939
 6897SOL    HW132324   0.670   1.116   8.120  0.2278  0.1614  1.1035
 6897SOL    HW232325   0.561   1.164   8.039 -0.6536 -0.0896  0.2495
 6898SOL     OW32326   2.175   1.031  11.690 -0.4749 -0.2100 -0.0040
 6898SOL    HW132327   2.181   0.950  11.640  1.9900 -0.6448  0.9862
 6898SOL    HW232328   2.083   1.042  11.716 -0.4871 -0.5596  0.0928
 6899SOL     OW32329   4.336   1.475   8.395  0.0017  0.1944 -0.5944
 6899SOL    HW132330   4.391   1.405   8.359 -0.2764 -0.9699  1.1997
 6899SOL    HW232331   4.274   1.503   8.329 -0.6752  0.7235  0.2716
 6900SOL     OW32332   3.713   2.592   9.030 -0.5939 -0.3729  0.6388
 6900SOL    HW132333   3.722   2.606   9.124  1.2216  3.5595 -0.1100
 6900SOL    HW232334   3.757   2.669   8.994 -0.9412 -0.5132 -0.0755
 6901SOL     OW32335   4.106   1.635   2.716 -0.2283 -0.2597 -0.2455
 6901SOL    HW132336   4.043   1.661   2.783  1.1829  0.5007  0.8011
 6901SOL    HW232337   4.187   1.660   2.760 -1.3320 -0.1140  1.7150
 6902SOL     OW32338   4.686   3.218   7.201  0.0756 -0.0830  0.3190
 6902SOL    HW132339   0.034   3.195   7.231 -0.1392 -2.0375 -0.5834
 6902SOL    HW232340   4.675   3.141   7.145  1.1894 -0.3798  0.5084
 6903SOL     OW32341   1.731   2.922   4.720 -0.0258 -0.8925 -0.1498
 6903SOL    HW132342   1.702   2.897   4.808 -2.4759  1.6511 -0.2335
 6903SOL    HW232343   1.649   2.937   4.672 -1.0547 -1.1584  1.5100
 6904SOL     OW32344   0.532   2.597   8.284 -0.4839  0.6038 -0.9001
 6904SOL    HW132345   0.553   2.673   8.230 -1.0508  0.6493 -1.0553
 6904SOL    HW232346   0.557   2.533   8.218 -2.2804  0.0564 -1.0464
 6905SOL     OW32347   2.069   2.981  15.259 -0.2902 -0.1335  0.2375
 6905SOL    HW132348   2.057   2.896  15.218  1.5179  0.5184 -1.7047
 6905SOL    HW232349   2.013   3.040  15.209  0.1940  1.8475  2.0385
 6906SOL     OW32350   3.094   0.033   2.937 -0.1092  0.0785 -0.1342
 6906SOL    HW132351   3.000   0.046   2.948 -0.2347 -3.0157  2.1457
 6906SOL    HW232352   3.119   0.016   3.028  2.6878  3.8914 -0.1672
 6907SOL     OW32353   0.056   1.259   5.115 -0.1055 -0.1480 -0.5109
 6907SOL    HW132354   4.739   1.247   5.039 -2.3441 -0.3123  1.1950
 6907SOL    HW232355   0.137   1.244   5.065  0.1865 -3.1783  0.8753
 6908SOL     OW32356   1.749   3.771   9.342  0.4183  0.3205  0.3536
 6908SOL    HW132357   1.775   3.687   9.303 -2.3624 -0.8373  1.0143
 6908SOL    HW232358   1.825   3.779   9.400  1.1672 -1.4786 -0.3534
 6909SOL     OW32359   0.737   2.541   9.723  0.3729 -0.3192 -0.0161
 6909SOL    HW132360   0.778   2.625   9.700  1.0334 -0.5457  0.3303
 6909SOL    HW232361   0.764   2.538   9.815  1.1047  0.2403 -0.2166
 6910SOL     OW32362   0.012   1.623   6.959 -0.7769 -0.5537  0.3804
 6910SOL    HW132363   0.072   1.566   6.910  0.0891 -0.1908  1.0365
 6910SOL    HW232364   0.045   1.611   7.048 -1.2483  0.1394  0.6486
 6911SOL     OW32365   3.944   4.458   2.023 -0.6073  0.5249 -0.0187
 6911SOL    HW132366   3.997   4.530   1.989 -0.8192  0.5335 -0.3292
 6911SOL    HW232367   3.881   4.505   2.077 -1.2017 -1.1858  0.7859
 6912SOL     OW32368   1.559   0.105   4.793  0.4601 -0.0338 -0.6495
 6912SOL    HW132369   1.524   0.186   4.755  0.6724  1.7589  3.0656
 6912SOL    HW232370   1.505   0.092   4.871  0.9696 -1.6682 -0.5724
 6913SOL     OW32371   0.954   1.549   8.466  0.1573 -0.2389  0.2591
 6913SOL    HW132372   1.036   1.600   8.466  1.2728 -2.0284 -1.1842
 6913SOL    HW232373   0.929   1.542   8.558 -1.2985  2.1711  0.0652
 6914SOL     OW32374   4.027   3.692   8.526  0.2901  0.2152  0.3736
 6914SOL    HW132375   3.985   3.732   8.450 -1.0800  0.0378  1.0362
 6914SOL    HW232376   3.997   3.756   8.590  1.7868  2.3661 -1.0787
 6915SOL     OW32377   2.142   3.002   4.433 -0.1539 -0.0494  0.2497
 6915SOL    HW132378   2.094   3.026   4.512 -0.5340  0.1439 -0.0351
 6915SOL    HW232379   2.077   2.966   4.373 -0.6319 -0.4040  0.9856
 6916SOL     OW32380   0.189   3.354   3.506  0.0586  0.1621 -0.0759
 6916SOL    HW132381   0.227   3.266   3.504 -0.0381  0.1801 -2.5379
 6916SOL    HW232382   0.265   3.412   3.498 -0.5735  0.7997 -1.4248
 6917SOL     OW32383   4.257   3.311   8.228  0.3593 -0.1524  0.4309
 6917SOL    HW132384   4.309   3.311   8.308  0.9324 -0.2127  0.0587
 6917SOL    HW232385   4.217   3.225   8.238  1.9584 -1.2040 -2.0725
 6918SOL     OW32386   4.015   3.947   9.493 -0.8220 -0.4970 -0.2388
 6918SOL    HW132387   4.098   3.901   9.483  0.1765  1.2355  0.0666
 6918SOL    HW232388   4.015   3.991   9.408 -0.1031 -1.7470 -0.8742
 6919SOL     OW32389   1.389   2.164   4.873 -0.2725  0.1965  0.3238
 6919SOL    HW132390   1.338   2.194   4.949  1.1101  1.4826  0.7478
 6919SOL    HW232391   1.326   2.150   4.802  2.2134  1.9728 -2.2702
 6920SOL     OW32392   2.261   1.965   4.328  0.3758 -0.5464 -1.0214
 6920SOL    HW132393   2.245   1.973   4.234 -5.4644  1.6959  0.1778
 6920SOL    HW232394   2.350   1.929   4.335  1.5858  2.3372 -1.5805
 6921SOL     OW32395   2.708   2.022   5.677 -0.3189  0.1104  0.3767
 6921SOL    HW132396   2.733   2.115   5.677 -1.7345  0.4942 -2.7435
 6921SOL    HW232397   2.631   2.030   5.733 -0.6555 -1.5933  0.1563
 6922SOL     OW32398   2.855   2.652   1.826 -0.3950 -0.0989  0.1987
 6922SOL    HW132399   2.767   2.657   1.862 -1.8110  1.4677 -3.4790
 6922SOL    HW232400   2.905   2.672   1.905 -0.4166 -1.7565  0.6291
 6923SOL     OW32401   1.662   3.330  12.550 -0.0960  0.2025  0.1481
 6923SOL    HW132402   1.609   3.409  12.540  0.1715  0.2611 -0.8187
 6923SOL    HW232403   1.646   3.307  12.641  0.4308 -1.5679 -0.2123
 6924SOL     OW32404   1.013   1.967   7.979  0.0845 -0.1312  0.1599
 6924SOL    HW132405   1.105   1.945   7.992 -0.0525 -0.8305 -0.0669
 6924SOL    HW232406   0.955   1.903   8.021 -2.9065  0.8117 -2.5189
 6925SOL     OW32407   4.277   3.474   2.162  0.3552 -0.3138  0.5892
 6925SOL    HW132408   4.227   3.439   2.088 -1.0558  0.7687  1.0387
 6925SOL    HW232409   4.349   3.411   2.165 -0.0174 -0.9224 -2.5251
 6926SOL     OW32410   0.496   1.740  17.546  1.1519 -0.2282  0.6442
 6926SOL    HW132411   0.503   1.831  17.518 -0.0641  0.1645  1.6109
 6926SOL    HW232412   0.507   1.689  17.466 -2.8788 -0.0905 -0.0129
 6927SOL     OW32413   0.742   1.626   7.393 -0.2870  0.1088  0.6634
 6927SOL    HW132414   0.672   1.610   7.456 -0.5611 -2.1331 -0.2062
 6927SOL    HW232415   0.701   1.658   7.313 -0.4383 -1.1062  0.2522
 6928SOL     OW32416   1.240   4.083   7.692  0.4335  0.6881  0.2868
 6928SOL    HW132417   1.245   4.175   7.717 -0.2391  1.5320 -2.7002
 6928SOL    HW232418   1.245   4.089   7.597 -0.1811  2.2996  0.3603
 6929SOL     OW32419   0.027   1.198   6.589  0.2334 -0.2100 -0.7066
 6929SOL    HW132420   0.034   1.280   6.639  0.2689 -0.8366  0.3124
 6929SOL    HW232421   4.674   1.198   6.566  0.1517 -0.5201 -0.3712
 6930SOL     OW32422   2.053   2.777   9.458 -0.1710  0.5716 -0.2421
 6930SOL    HW132423   2.042   2.684   9.436 -2.0526  1.0089 -1.1455
 6930SOL    HW232424   1.959   2.792   9.451 -0.8204 -3.2606  0.3072
 6931SOL     OW32425   2.296   1.567   8.727  0.8652 -0.0583  0.0927
 6931SOL    HW132426   2.337   1.491   8.686  0.7425 -0.3689  0.5540
 6931SOL    HW232427   2.224   1.523   8.772  1.2482 -0.1037  0.6481
 6932SOL     OW32428   1.903   4.193  16.913  0.6549  0.4722 -0.0647
 6932SOL    HW132429   1.840   4.232  16.974  2.2431 -0.5438  2.2696
 6932SOL    HW232430   1.927   4.261  16.850 -0.6183  2.4326  1.5668
 6933SOL     OW32431   0.481   0.031   7.444  0.4350 -0.0733 -0.1319
 6933SOL    HW132432   0.458   4.713   7.372  0.6761  0.6691 -0.7966
 6933SOL    HW232433   0.520   4.715   7.512  0.1664  0.4309  0.4417
 6934SOL     OW32434   1.924   3.966   6.544  0.4032  0.4802  0.1869
 6934SOL    HW132435   1.942   3.881   6.584  0.7060 -0.4856 -2.0000
 6934SOL    HW232436   1.986   4.017   6.597 -0.3647  3.1373 -1.4953
 6935SOL     OW32437   4.509   2.676   9.218 -0.2544 -0.4910  0.0301
 6935SOL    HW132438   4.451   2.601   9.229  0.4943 -1.1029 -0.1588
 6935SOL    HW232439   4.515   2.709   9.307 -0.4851 -0.0588 -0.1157
 6936SOL     OW32440   2.240   4.166   2.186 -0.5107 -0.2643  0.2651
 6936SOL    HW132441   2.256   4.261   2.194  1.1517 -0.6762  2.0211
 6936SOL    HW232442   2.296   4.144   2.261  1.0423  0.7943 -0.5586
 6937SOL     OW32443   0.186   1.286   2.670 -0.4690 -0.0847  0.0533
 6937SOL    HW132444   0.102   1.277   2.716 -0.1703  0.3682  0.6834
 6937SOL    HW232445   0.207   1.378   2.686 -1.8813  0.0040  1.3892
 6938SOL     OW32446   0.525   0.080  12.164  0.1059  0.3690 -0.3062
 6938SOL    HW132447   0.431   0.093  12.151  0.3318  0.5009 -1.8638
 6938SOL    HW232448   0.552   0.151  12.222 -0.8914  0.5706 -0.0963
 6939SOL     OW32449   2.715   4.709  17.516  0.4985 -0.1329  0.1700
 6939SOL    HW132450   2.642   0.015  17.477  0.0373 -1.1942 -0.2061
 6939SOL    HW232451   2.773   4.709  17.440  1.5499  1.5569  0.9730
 6940SOL     OW32452   0.116   4.029  14.807  0.3220 -0.0781 -0.0441
 6940SOL    HW132453   0.174   3.955  14.823 -0.3287 -0.7846 -0.9523
 6940SOL    HW232454   0.055   4.026  14.881 -0.1406  2.7242 -0.2895
 6941SOL     OW32455   4.555   2.841  14.605  0.5978  0.0832  0.5535
 6941SOL    HW132456   4.559   2.928  14.564  1.0190  1.0226  2.5721
 6941SOL    HW232457   4.502   2.783  14.550  1.1311 -0.3881  0.5395
 6942SOL     OW32458   0.230   1.232  11.134  0.0737 -0.1246  0.4934
 6942SOL    HW132459   0.289   1.221  11.060  2.1884 -2.3098  2.5163
 6942SOL    HW232460   0.187   1.146  11.137 -0.0049 -0.0994 -0.0272
 6943SOL     OW32461   0.309   2.192   9.001  0.0384  0.4966  0.0268
 6943SOL    HW132462   0.287   2.104   8.970 -1.5114  1.0293 -0.3835
 6943SOL    HW232463   0.387   2.210   8.950  0.7219 -4.2313 -0.5523
 6944SOL     OW32464   2.416   0.055   6.487  0.2307 -0.0679  0.0734
 6944SOL    HW132465   2.448   4.706   6.505 -1.0292 -0.4788  0.2813
 6944SOL    HW232466   2.445   0.055   6.396 -0.2858 -1.8778 -0.1045
 6945SOL     OW32467   1.202   3.344   5.987  0.2472 -0.4322 -0.0852
 6945SOL    HW132468   1.173   3.254   6.004  1.2896 -1.1586 -2.1334
 6945SOL    HW232469   1.188   3.346   5.892 -0.1664 -1.1785 -0.0420
 6946SOL     OW32470   2.979   4.077   8.524 -0.5244 -0.0235  0.2409
 6946SOL    HW132471   2.994   4.038   8.610  1.5573 -1.1169 -0.6390
 6946SOL    HW232472   3.045   4.033   8.470 -1.5968 -0.2604 -0.8913
 6947SOL     OW32473   3.631   0.466   7.487  0.4646  0.1419 -0.2493
 6947SOL    HW132474   3.609   0.545   7.437 -0.7421  0.6380  1.0905
 6947SOL    HW232475   3.700   0.428   7.432 -1.7230 -0.7247 -2.3643
 6948SOL     OW32476   1.883   2.297   7.045  0.3210 -0.4426  0.4066
 6948SOL    HW132477   1.798   2.339   7.033  0.5068  0.1237  1.0391
 6948SOL    HW232478   1.888   2.268   7.136  0.6167  1.1521  0.8977
 6949SOL     OW32479   1.425   1.081  15.868  0.0478  0.1520 -0.3989
 6949SOL    HW132480   1.423   1.031  15.949 -0.6764 -0.4842 -0.8123
 6949SOL    HW232481   1.422   1.012  15.802 -0.9530 -1.0092  0.8490
 6950SOL     OW32482   3.381   0.766   6.331  0.4125  0.2554 -0.3724
 6950SOL    HW132483   3.447   0.779   6.263  0.3962 -0.6765 -0.5676
 6950SOL    HW232484   3.293   0.780   6.295  0.6051 -2.3703 -1.8386
 6951SOL     OW32485   1.474   3.057   6.346  0.6861  0.0953  0.1565
 6951SOL    HW132486   1.441   3.007   6.272  2.0155  0.4636 -0.6840
 6951SOL    HW232487   1.396   3.053   6.402 -1.1801  1.3182 -2.3620
 6952SOL     OW32488   3.172   0.393   9.406 -0.1307 -0.5299  0.1552
 6952SOL    HW132489   3.232   0.408   9.480  0.6999  0.2447 -0.6810
 6952SOL    HW232490   3.131   0.479   9.392  0.9577 -0.1859 -0.9282
 6953SOL     OW32491   2.001   1.689  15.490  0.4614  0.1239  0.7780
 6953SOL    HW132492   1.943   1.663  15.561 -1.4615 -0.6333 -1.0724
 6953SOL    HW232493   1.932   1.700  15.425  1.1113  1.5148  0.3171
 6954SOL     OW32494   4.503   4.090  17.437 -0.6703  0.7472 -0.0864
 6954SOL    HW132495   4.551   4.107  17.518 -3.6969 -1.2997  2.1018
 6954SOL    HW232496   4.447   4.016  17.459  0.9059  0.4085  2.6894
 6955SOL     OW32497   3.129   0.422   3.358 -0.2744  0.1741  0.5295
 6955SOL    HW132498   3.134   0.468   3.274  1.2739  0.7012  0.9205
 6955SOL    HW232499   3.163   0.494   3.412  0.1867  2.5792 -2.9523
 6956SOL     OW32500   0.861   1.121   6.037 -0.1913 -0.0702 -0.1099
 6956SOL    HW132501   0.942   1.127   6.088 -0.2831 -1.4019  0.2065
 6956SOL    HW232502   0.807   1.099   6.113  0.4765  0.1756  0.4390
 6957SOL     OW32503   4.451   1.835  16.317 -0.4396  0.0976  0.3344
 6957SOL    HW132504   4.417   1.870  16.234  2.8361  1.2500 -0.5157
 6957SOL    HW232505   4.380   1.843  16.381  1.6713  0.1104  2.6583
 6958SOL     OW32506   3.659   2.681   6.063  0.6972  0.0320 -0.4685
 6958SOL    HW132507   3.717   2.739   6.012  0.1284 -0.3797 -1.5778
 6958SOL    HW232508   3.575   2.707   6.026 -0.0829 -0.4616  0.9807
 6959SOL     OW32509   1.032   3.052  12.961 -0.3045  0.1062  0.3128
 6959SOL    HW132510   1.021   2.961  12.987  3.1775 -0.6971 -0.9554
 6959SOL    HW232511   0.967   3.091  13.018  1.5968 -0.1421  2.6569
 6960SOL     OW32512   3.081   3.970  15.139 -0.4587  0.1536  0.0695
 6960SOL    HW132513   3.144   3.936  15.076 -0.7058  1.5561 -0.9358
 6960SOL    HW232514   3.072   4.060  15.108 -0.7964  0.0162 -0.2410
 6961SOL     OW32515   2.427   2.947   4.036 -0.3726 -0.2925  0.2406
 6961SOL    HW132516   2.334   2.934   4.023  0.0958 -1.9820 -1.3105
 6961SOL    HW232517   2.429   2.868   4.090 -0.1803  1.0960  2.2845
 6962SOL     OW32518   2.250   1.660   7.503  0.0480 -0.5920  0.5276
 6962SOL    HW132519   2.266   1.605   7.580  1.2336  0.1062  0.7945
 6962SOL    HW232520   2.266   1.749   7.536 -1.5553 -1.1824  2.9393
 6963SOL     OW32521   2.752   3.023   2.859  0.6735  0.3872  0.4561
 6963SOL    HW132522   2.742   3.109   2.819  2.4214  0.3532 -0.0636
 6963SOL    HW232523   2.847   3.011   2.856  0.1837 -2.9054 -1.6989
 6964SOL     OW32524   3.889   3.227   8.537 -0.2740 -0.0664 -0.5884
 6964SOL    HW132525   3.910   3.236   8.444  0.7654 -0.5155 -0.4042
 6964SOL    HW232526   3.968   3.269   8.573 -1.2356 -0.7739  2.3552
 6965SOL     OW32527   1.139   1.248   6.859 -0.3143 -0.5706 -0.2247
 6965SOL    HW132528   1.210   1.260   6.921 -0.8695 -2.2128  0.7340
 6965SOL    HW232529   1.069   1.224   6.920 -1.5430  1.5145 -0.7948
 6966SOL     OW32530   4.037   2.499   7.758 -0.2984 -0.0896 -0.2419
 6966SOL    HW132531   3.952   2.463   7.784  0.9523 -3.0099 -0.1705
 6966SOL    HW232532   4.100   2.467   7.823 -0.5489 -1.2357 -0.5594
 6967SOL     OW32533   2.490   0.519   1.120  0.2759  0.0665 -0.1973
 6967SOL    HW132534   2.426   0.559   1.061 -1.1606 -0.3755  1.0612
 6967SOL    HW232535   2.570   0.567   1.098  0.5820  0.7130  2.3646
 6968SOL     OW32536   2.525   3.599   6.695 -0.2147 -0.1747 -0.1451
 6968SOL    HW132537   2.507   3.682   6.739  3.2152 -0.5869  2.0281
 6968SOL    HW232538   2.551   3.545   6.769 -0.1956  0.8989  0.6332
 6969SOL     OW32539   3.304   0.742   3.036  0.0925 -0.2596 -0.4381
 6969SOL    HW132540   3.372   0.802   3.068  0.3719 -0.3958 -0.7681
 6969SOL    HW232541   3.308   0.756   2.941 -0.2947  2.4406 -0.0734
 6970SOL     OW32542   4.618   3.980   3.010 -0.5578 -0.1773  0.2756
 6970SOL    HW132543   4.702   3.965   3.052 -0.6822 -2.1761 -0.1931
 6970SOL    HW232544   4.652   3.951   2.926 -0.2965  0.8204  0.0400
 6971SOL     OW32545   4.377   2.955   4.839 -0.6069  0.1480  0.3635
 6971SOL    HW132546   4.471   2.954   4.824 -0.3817  0.2264  1.8100
 6971SOL    HW232547   4.356   3.008   4.762  0.9910  1.3281  0.7358
 6972SOL     OW32548   0.960   4.012   6.708 -0.6101  0.1020  0.0455
 6972SOL    HW132549   0.876   4.057   6.701 -0.3186  0.5071 -0.8492
 6972SOL    HW232550   0.990   4.029   6.797 -1.0417  1.1452 -0.0139
 6973SOL     OW32551   0.298   3.866   7.200  0.3664 -0.5673 -0.5322
 6973SOL    HW132552   0.276   3.957   7.219 -2.6407 -1.2816 -0.6667
 6973SOL    HW232553   0.342   3.840   7.281  0.9924  1.6269 -0.1745
 6974SOL     OW32554   2.903   4.287   5.728  0.3299  0.2421  0.3073
 6974SOL    HW132555   2.823   4.244   5.757 -0.1130  0.6375 -0.3201
 6974SOL    HW232556   2.872   4.323   5.644  1.5226  0.4566 -0.0454
 6975SOL     OW32557   0.148   1.944   6.025 -0.2596 -0.6810 -0.0819
 6975SOL    HW132558   0.121   1.873   6.083  0.2528  1.3200  2.6243
 6975SOL    HW232559   0.209   1.989   6.084 -0.1085  0.4156 -1.0688
 6976SOL     OW32560   2.580   3.252   7.551  0.3203 -0.6653  0.3931
 6976SOL    HW132561   2.622   3.239   7.466 -0.0098 -0.6446  0.2294
 6976SOL    HW232562   2.528   3.330   7.535  1.8041  0.6880  2.0768
 6977SOL     OW32563   2.833   3.716  10.656  0.4104 -0.1323 -0.3769
 6977SOL    HW132564   2.850   3.660  10.732 -2.8917  0.0790  0.5265
 6977SOL    HW232565   2.787   3.791  10.693  0.0404 -1.8605  2.6490
 6978SOL     OW32566   4.460   2.608   4.806 -0.0738 -0.1294 -0.0437
 6978SOL    HW132567   4.447   2.515   4.825 -1.9901  0.1228 -0.1085
 6978SOL    HW232568   4.373   2.648   4.810  0.3128  0.6952  0.1939
 6979SOL     OW32569   1.448   1.768   4.568  0.2140 -0.2681 -0.0399
 6979SOL    HW132570   1.408   1.835   4.623  1.1293 -1.4570  2.0618
 6979SOL    HW232571   1.450   1.822   4.489  1.5994 -1.3101 -0.7163
 6980SOL     OW32572   4.552   2.129   4.820 -0.4359  0.7189 -0.0834
 6980SOL    HW132573   4.619   2.170   4.766 -2.0075  2.2798 -0.8709
 6980SOL    HW232574   4.599   2.047   4.835 -2.7852 -0.5540  0.3296
 6981SOL     OW32575   2.759   3.536   5.349  0.7555  0.5167 -0.2145
 6981SOL    HW132576   2.844   3.552   5.309  1.5020 -1.8425  0.4117
 6981SOL    HW232577   2.765   3.445   5.379  0.3287  0.3576 -0.6149
 6982SOL     OW32578   4.076   2.486  12.804 -0.0554  0.0015  0.0763
 6982SOL    HW132579   4.031   2.500  12.887  1.1592 -1.3549  0.9509
 6982SOL    HW232580   4.153   2.447  12.844 -0.5043 -1.3615 -0.3763
 6983SOL     OW32581   3.642   1.734   3.449 -0.1579 -0.4246  0.2439
 6983SOL    HW132582   3.669   1.782   3.527 -0.9707  0.0503  0.2369
 6983SOL    HW232583   3.676   1.789   3.378 -1.9685  0.5954  0.1600
 6984SOL     OW32584   4.628   0.306   6.503  0.0702  0.1582 -0.4705
 6984SOL    HW132585   4.673   0.222   6.511 -2.5631 -1.4879 -3.1682
 6984SOL    HW232586   4.689   0.360   6.554  0.6869 -1.0115  0.0287
 6985SOL     OW32587   2.907   0.368   8.724 -0.7184  0.0441 -0.4042
 6985SOL    HW132588   2.959   0.434   8.677 -1.1922 -1.1506 -2.6220
 6985SOL    HW232589   2.976   0.343   8.786 -1.3920 -1.7088 -0.3849
 6986SOL     OW32590   4.148   0.912  12.780  0.2667  0.7699  0.0315
 6986SOL    HW132591   4.074   0.956  12.822  0.4268  1.3916 -0.3245
 6986SOL    HW232592   4.139   0.829  12.826  0.8864  1.8712  2.1643
 6987SOL     OW32593   1.058   0.831   6.684  0.7418 -0.0858 -0.1739
 6987SOL    HW132594   1.107   0.837   6.766 -0.2744  0.9392  0.3461
 6987SOL    HW232595   1.044   0.924   6.668 -0.4947 -0.0582  1.0819
 6988SOL     OW32596   2.889   2.748   3.948  0.5054 -0.0458  0.1489
 6988SOL    HW132597   2.834   2.753   4.026  0.7177  0.5054  0.2620
 6988SOL    HW232598   2.893   2.842   3.929 -1.9415 -0.1365 -0.8314
 6989SOL     OW32599   3.842   0.023   7.566  0.2585  0.1418  0.5662
 6989SOL    HW132600   3.777   0.093   7.560  1.5356  1.1154 -2.0044
 6989SOL    HW232601   3.800   4.715   7.638  0.0578 -0.2986  0.1556
 6990SOL     OW32602   3.965   2.412  14.863  0.4177  0.4846 -0.6895
 6990SOL    HW132603   3.945   2.479  14.796  0.4645  2.3727  1.1865
 6990SOL    HW232604   4.056   2.392  14.846  0.0997 -1.8399  0.4788
 6991SOL     OW32605   3.105   1.513   7.400 -0.4917  0.2786  0.6482
 6991SOL    HW132606   3.054   1.483   7.476  2.3680 -2.2320  1.5699
 6991SOL    HW232607   3.047   1.510   7.324  0.9250  1.4034 -0.4570
 6992SOL     OW32608   1.396   2.591   8.532 -0.3099 -0.6493 -0.1251
 6992SOL    HW132609   1.449   2.595   8.611 -2.3784  1.1027  1.1331
 6992SOL    HW232610   1.323   2.532   8.552 -0.0319 -0.8343  0.3381
 6993SOL     OW32611   4.399   0.721   1.066  0.2939  0.1187  0.1483
 6993SOL    HW132612   4.355   0.640   1.093 -0.2959  0.4488  0.1761
 6993SOL    HW232613   4.354   0.746   0.986 -1.9087 -1.5958  0.8477
 6994SOL     OW32614   0.729   4.210  15.323  0.2420 -0.0511  0.1414
 6994SOL    HW132615   0.704   4.266  15.250 -0.3368 -2.5985 -1.6168
 6994SOL    HW232616   0.728   4.124  15.281  2.2660 -0.3866  0.7315
 6995SOL     OW32617   3.277   3.283   7.019 -0.1851  0.0843 -0.1349
 6995SOL    HW132618   3.275   3.371   6.982 -0.0319 -0.9202 -2.5134
 6995SOL    HW232619   3.342   3.249   6.958 -1.5987 -2.0928 -0.4500
 6996SOL     OW32620   0.039   1.796   4.662 -0.3800 -0.3773  0.1441
 6996SOL    HW132621   0.069   1.860   4.598 -0.3741  0.1446  0.6639
 6996SOL    HW232622   0.123   1.768   4.697 -0.3033  0.5404  0.7037
 6997SOL     OW32623   2.352   2.519  15.208 -0.5668 -0.4048  0.1608
 6997SOL    HW132624   2.386   2.606  15.185  3.1372 -1.5065  1.4177
 6997SOL    HW232625   2.396   2.467  15.141 -1.0435 -0.2856 -0.2456
 6998SOL     OW32626   3.787   3.638   2.591  0.0035 -0.2040 -0.6258
 6998SOL    HW132627   3.858   3.678   2.540  0.2120  2.0537  1.3657
 6998SOL    HW232628   3.756   3.577   2.525  0.9885 -0.2834 -1.0154
 6999SOL     OW32629   4.207   3.141   2.285 -0.0243 -0.3480  0.2820
 6999SOL    HW132630   4.276   3.204   2.264 -1.7043  1.1085 -0.8418
 6999SOL    HW232631   4.184   3.172   2.373 -0.6113 -0.9893  0.3560
 7000SOL     OW32632   3.165   3.441   3.101 -0.1828 -0.0873 -0.0920
 7000SOL    HW132633   3.200   3.506   3.163 -1.2998  1.5233 -1.1355
 7000SOL    HW232634   3.250   3.413   3.066 -1.1745 -1.8093 -1.1219
 7001SOL     OW32635   1.080   2.428   3.574  0.3554 -0.0223 -0.0024
 7001SOL    HW132636   1.158   2.482   3.565 -0.7358  1.4949 -0.2922
 7001SOL    HW232637   1.013   2.474   3.624 -0.0294 -1.6267  0.9732
 7002SOL     OW32638   4.407   1.223   8.295  0.1197 -0.5259 -0.1782
 7002SOL    HW132639   4.464   1.264   8.230  1.3343 -0.0866  1.1879
 7002SOL    HW232640   4.323   1.227   8.249  0.2149  1.2558 -0.1844
 7003SOL     OW32641   2.656   2.050   4.643 -0.0668  0.1243  0.3615
 7003SOL    HW132642   2.585   2.110   4.619  0.5544  0.2517 -1.1732
 7003SOL    HW232643   2.686   2.088   4.726 -1.9457 -0.7099  1.4204
 7004SOL     OW32644   3.871   1.462   5.124 -0.3107 -0.2109  0.4446
 7004SOL    HW132645   3.910   1.542   5.088 -1.9118  0.0053 -0.7854
 7004SOL    HW232646   3.777   1.478   5.128 -0.2061  0.6688 -0.6097
 7005SOL     OW32647   3.082   2.248   6.827  0.2641  0.3159 -0.1052
 7005SOL    HW132648   3.045   2.178   6.881  3.7573 -1.9993 -0.7456
 7005SOL    HW232649   3.030   2.253   6.747  1.2518  1.8723 -0.6667
 7006SOL     OW32650   3.613   1.410  15.598  1.0883  1.0298  0.0118
 7006SOL    HW132651   3.558   1.489  15.603 -2.0147 -1.0797 -0.7523
 7006SOL    HW232652   3.620   1.388  15.505  0.5830 -1.5433  0.5979
 7007SOL     OW32653   2.855   2.946   6.441 -0.3328  0.2815  0.1406
 7007SOL    HW132654   2.844   2.951   6.536 -1.1125 -1.1591  0.1296
 7007SOL    HW232655   2.936   2.897   6.431 -0.0123  0.3549  2.3611
 7008SOL     OW32656   1.738   3.965   8.234 -0.1319  0.3992  0.1709
 7008SOL    HW132657   1.807   4.011   8.187 -0.9362  2.1342  0.7180
 7008SOL    HW232658   1.662   3.984   8.180  0.4742  0.0155 -0.8094
 7009SOL     OW32659   3.915   1.823   3.162 -0.0682  0.4430 -0.0472
 7009SOL    HW132660   3.982   1.861   3.218 -0.6107 -0.4642  1.2229
 7009SOL    HW232661   3.954   1.812   3.075 -0.7394 -0.1463 -0.2780
 7010SOL     OW32662   4.406   1.993  13.540 -0.2940  0.2657 -0.0008
 7010SOL    HW132663   4.446   2.079  13.554  1.3534 -0.7235  1.4129
 7010SOL    HW232664   4.466   1.963  13.471  0.7481  0.9380  0.6138
 7011SOL     OW32665   2.914   2.702  16.033 -0.0214  0.3342  0.2490
 7011SOL    HW132666   2.860   2.771  15.995  0.6384  1.0633  0.6323
 7011SOL    HW232667   2.861   2.679  16.110  1.3184 -0.8367  0.8081
 7012SOL     OW32668   2.889   4.009   5.216  0.3322  0.0998 -0.3793
 7012SOL    HW132669   2.944   3.960   5.277  0.5615  1.1411  0.2600
 7012SOL    HW232670   2.828   4.044   5.282  0.7001  0.4520 -0.2273
 7013SOL     OW32671   0.745   0.404   6.261  0.1662  0.4657  0.4085
 7013SOL    HW132672   0.665   0.456   6.247  0.4710  0.7103 -0.4278
 7013SOL    HW232673   0.714   0.323   6.221 -0.5160  0.8737  0.1005
 7014SOL     OW32674   4.229   2.301   7.885 -0.4056  0.3533 -0.4593
 7014SOL    HW132675   4.214   2.379   7.938  2.6409  0.5758  0.0372
 7014SOL    HW232676   4.156   2.245   7.913  0.5960 -1.1324 -0.7706
 7015SOL     OW32677   1.162   4.001   4.298 -0.6968  0.3777 -0.0940
 7015SOL    HW132678   1.136   4.012   4.389  2.4463 -0.0692  0.8535
 7015SOL    HW232679   1.087   4.022   4.242 -2.6569  0.6645  2.6544
 7016SOL     OW32680   1.016   3.564  16.326 -0.1516 -0.0901 -0.2624
 7016SOL    HW132681   0.978   3.569  16.238 -1.5247  0.3444  0.3457
 7016SOL    HW232682   1.035   3.656  16.344 -0.5044 -0.2620  0.9883
 7017SOL     OW32683   2.145   0.547   6.213  0.0995 -0.1965 -0.0928
 7017SOL    HW132684   2.187   0.490   6.278 -2.6201 -0.7366  1.2010
 7017SOL    HW232685   2.225   0.552   6.161  0.1195  2.6184  0.2397
 7018SOL     OW32686   0.546   2.223   9.762  0.0292  0.7161 -0.4801
 7018SOL    HW132687   0.520   2.278   9.835  1.7053  0.6214  0.1962
 7018SOL    HW232688   0.601   2.157   9.806  0.2135  0.5156 -1.0016
 7019SOL     OW32689   1.104   0.726   4.819  0.0777 -0.1277  0.6007
 7019SOL    HW132690   1.028   0.684   4.778  0.6234  0.0187 -0.5773
 7019SOL    HW232691   1.053   0.750   4.896  1.3592  0.1966  1.3503
 7020SOL     OW32692   4.610   4.393  15.660  0.3147  0.1030  0.5018
 7020SOL    HW132693   4.620   4.372  15.753  0.7197  1.6197  0.8010
 7020SOL    HW232694   4.659   4.475  15.649  0.8909 -0.3554 -0.3357
 7021SOL     OW32695   4.365   0.785   4.287 -0.1243  0.2800 -0.0657
 7021SOL    HW132696   4.293   0.787   4.223 -1.4710  1.9154  1.4983
 7021SOL    HW232697   4.390   0.693   4.300 -1.6445 -0.3721 -1.6922
 7022SOL     OW32698   1.281   1.301  12.638 -0.1871  0.2138 -0.1547
 7022SOL    HW132699   1.286   1.294  12.734 -0.7583 -0.4668 -0.1769
 7022SOL    HW232700   1.187   1.292  12.622 -0.0444 -1.1069 -0.2184
 7023SOL     OW32701   1.798   0.942   6.610 -0.8283  0.0574  0.6257
 7023SOL    HW132702   1.811   0.981   6.524 -1.4787 -2.7372 -0.7467
 7023SOL    HW232703   1.888   0.928   6.638 -0.2074  1.8091 -0.5207
 7024SOL     OW32704   0.867   4.703   8.955  0.3360  0.2295 -0.1419
 7024SOL    HW132705   0.802   4.633   8.944  0.4183  0.3458 -1.3860
 7024SOL    HW232706   0.845   4.733   9.043 -2.6602 -0.7278 -0.5592
 7025SOL     OW32707   2.119   2.925   3.283 -0.3314 -0.2796 -0.3958
 7025SOL    HW132708   2.201   2.961   3.317 -1.8267  2.0939  0.7119
 7025SOL    HW232709   2.142   2.848   3.231  0.2040  1.0450 -2.1433
 7026SOL     OW32710   3.192   0.079  12.516 -0.2965  0.2892  0.8482
 7026SOL    HW132711   3.192   0.086  12.611  1.4557 -0.0182  0.8817
 7026SOL    HW232712   3.111   0.030  12.508 -0.6813  0.9656  0.6278
 7027SOL     OW32713   3.474   3.584   0.018  0.3814 -0.0613  0.1602
 7027SOL    HW132714   3.488   3.573   0.112 -1.3143  0.2555  0.4569
 7027SOL    HW232715   3.513   3.501  17.749 -0.1107 -0.0970 -0.4776
 7028SOL     OW32716   1.481   3.528  12.496 -0.4664 -0.4392 -0.5123
 7028SOL    HW132717   1.386   3.534  12.486 -0.6997 -1.1636  1.3678
 7028SOL    HW232718   1.512   3.610  12.457 -0.9354  0.2155  0.4841
 7029SOL     OW32719   0.085   2.372  12.418  0.0309 -0.6185 -0.0005
 7029SOL    HW132720   0.094   2.416  12.333 -1.5101  2.5929  1.5305
 7029SOL    HW232721   0.145   2.430  12.465  3.2178 -2.3308 -1.8924
 7030SOL     OW32722   2.692   4.514   3.643  0.2616 -0.7460 -0.2226
 7030SOL    HW132723   2.607   4.535   3.605  0.5422  1.8248  0.5767
 7030SOL    HW232724   2.731   4.598   3.620  0.4921 -0.2260  2.0927
 7031SOL     OW32725   0.104   1.617   5.891  0.8098 -0.3593 -0.5913
 7031SOL    HW132726   0.010   1.607   5.901  0.5149  0.1146 -2.8663
 7031SOL    HW232727   0.123   1.691   5.950  2.2439 -1.1526 -0.0487
 7032SOL     OW32728   2.346   4.514   3.738 -0.7064  0.0038  0.4063
 7032SOL    HW132729   2.286   4.543   3.806 -0.8730 -0.3522  0.4109
 7032SOL    HW232730   2.282   4.474   3.678 -0.1192  0.5655 -0.6026
 7033SOL     OW32731   0.549   1.626  13.520 -0.2375  0.5068 -0.3622
 7033SOL    HW132732   0.568   1.541  13.482 -3.0855 -1.4888  2.7585
 7033SOL    HW232733   0.575   1.686  13.450 -1.0010 -0.1916 -1.2431
 7034SOL     OW32734   1.681   0.906   4.057 -0.1137 -0.3119  0.3488
 7034SOL    HW132735   1.653   0.856   4.134  1.0138  0.5160  1.2962
 7034SOL    HW232736   1.621   0.981   4.065  1.8511  1.4122 -0.9882
 7035SOL     OW32737   2.039   0.339  10.618  0.3469  0.2286  0.0905
 7035SOL    HW132738   2.001   0.381  10.695  0.9280 -0.3748  0.7059
 7035SOL    HW232739   2.087   0.409  10.574  1.3075  0.1574  1.0154
 7036SOL     OW32740   1.958   4.590   3.771  0.2122  0.0421 -0.6036
 7036SOL    HW132741   1.919   4.511   3.808  0.7983  0.2632  0.5042
 7036SOL    HW232742   2.039   4.597   3.823  0.6540 -1.8317 -1.0388
 7037SOL     OW32743   0.228   0.898  11.220 -0.9533 -0.3745 -0.0645
 7037SOL    HW132744   0.164   0.935  11.157  0.8077  0.1672 -1.5408
 7037SOL    HW232745   0.213   0.804  11.223 -0.3457 -0.4410  0.7270
 7038SOL     OW32746   1.980   4.567  15.406 -0.5519 -0.4344 -0.1150
 7038SOL    HW132747   2.020   4.641  15.452  0.4304  0.5671 -2.5920
 7038SOL    HW232748   1.945   4.528  15.486  0.1005 -0.3788  0.1969
 7039SOL     OW32749   1.112   1.293   8.900  0.2693  0.3631  0.1311
 7039SOL    HW132750   1.057   1.345   8.958  1.1555  1.2747  0.1631
 7039SOL    HW232751   1.122   1.214   8.953  2.8894  0.3285 -0.3859
 7040SOL     OW32752   3.896   0.084  15.600  0.0179  0.1552 -0.2096
 7040SOL    HW132753   3.950   0.151  15.641 -0.4300  1.6854 -2.0848
 7040SOL    HW232754   3.953   0.012  15.574 -0.0854  0.5268 -1.5171
 7041SOL     OW32755   1.954   3.244   1.308  0.0815 -0.2715  0.8210
 7041SOL    HW132756   1.872   3.208   1.340 -0.8686  1.6665  0.5784
 7041SOL    HW232757   1.938   3.337   1.326  0.6970  0.0421 -0.1701
 7042SOL     OW32758   1.587   3.430   8.196  0.1457  0.1358  0.1128
 7042SOL    HW132759   1.559   3.378   8.121 -0.5579 -0.2376  0.6291
 7042SOL    HW232760   1.505   3.468   8.225  0.8269  1.4443  0.3416
 7043SOL     OW32761   3.945   2.395   2.211  0.0205 -0.1722 -0.1750
 7043SOL    HW132762   3.932   2.338   2.286  2.0907 -0.3993 -0.0025
 7043SOL    HW232763   3.875   2.458   2.231 -0.9527 -1.0779 -0.7065
 7044SOL     OW32764   4.509   4.024   8.118 -0.2898  0.7407  0.7582
 7044SOL    HW132765   4.427   3.974   8.112  0.1166  0.3417 -1.4632
 7044SOL    HW232766   4.567   3.964   8.164  0.9063  2.3637  1.3590
 7045SOL     OW32767   1.868   2.502   8.459  0.2704  0.2738 -0.1718
 7045SOL    HW132768   1.799   2.490   8.393 -0.4954  2.8564  0.1417
 7045SOL    HW232769   1.944   2.476   8.407  0.8652 -0.3215  1.0027
 7046SOL     OW32770   2.695   1.543   6.423  0.2292  0.0060  0.2952
 7046SOL    HW132771   2.728   1.525   6.511 -1.0867 -1.3263  0.5118
 7046SOL    HW232772   2.605   1.512   6.419  0.2006  0.1113  0.1215
 7047SOL     OW32773   2.739   2.182  16.997 -0.2611 -0.2499 -0.1203
 7047SOL    HW132774   2.664   2.232  16.964  0.0603 -0.2012 -0.7725
 7047SOL    HW232775   2.710   2.164  17.086  0.4712  1.4022  0.4471
 7048SOL     OW32776   3.089   4.360   8.361 -0.5304  0.2317 -0.7119
 7048SOL    HW132777   3.099   4.448   8.397  2.2066 -0.9384  1.3759
 7048SOL    HW232778   3.010   4.333   8.408 -1.6641  0.9551 -2.2264
 7049SOL     OW32779   3.178   0.445  12.704 -0.5370 -0.0164  0.2273
 7049SOL    HW132780   3.126   0.521  12.678 -1.1807 -0.8161 -0.8300
 7049SOL    HW232781   3.143   0.382  12.640 -2.1007  0.9272  0.1541
 7050SOL     OW32782   1.099   2.984   7.887 -0.0055 -0.0845 -0.4794
 7050SOL    HW132783   1.141   3.063   7.921  1.4681 -0.6576 -0.9557
 7050SOL    HW232784   1.127   2.925   7.957  1.1885  0.8327 -0.1708
 7051SOL     OW32785   2.296   0.045   0.722 -0.2189 -0.2951 -0.6494
 7051SOL    HW132786   2.218   0.025   0.670 -2.2579 -0.6411  2.5170
 7051SOL    HW232787   2.332   0.120   0.676 -0.6344  1.5796  2.0380
 7052SOL     OW32788   4.693   4.594   8.068  0.1829  0.6304 -0.0168
 7052SOL    HW132789   4.623   4.637   8.020 -3.0326 -3.1298  1.3187
 7052SOL    HW232790   4.675   4.507   8.033 -1.2505 -0.7594  4.1541
 7053SOL     OW32791   2.399   1.448   5.549  0.4795 -0.2035 -0.6092
 7053SOL    HW132792   2.401   1.360   5.585 -1.0367 -0.2130 -0.5401
 7053SOL    HW232793   2.331   1.436   5.483 -0.1811 -0.5850  0.1515
 7054SOL     OW32794   0.956   1.460   9.062 -0.6303 -0.6191 -0.4178
 7054SOL    HW132795   0.920   1.389   9.116 -2.0977  1.0423  0.7965
 7054SOL    HW232796   0.895   1.529   9.090  2.0851  1.1542  1.0465
 7055SOL     OW32797   3.298   1.508   4.507 -0.4441  0.5362 -0.1662
 7055SOL    HW132798   3.315   1.477   4.419  0.6173 -1.7607  0.8546
 7055SOL    HW232799   3.359   1.582   4.512 -0.4955  0.6264 -0.8571
 7056SOL     OW32800   0.857   2.287   9.042  0.3466 -0.6457 -0.0302
 7056SOL    HW132801   0.862   2.359   9.104  2.2597 -0.4757 -0.3843
 7056SOL    HW232802   0.948   2.260   9.042  0.5475  0.0135 -0.8424
 7057SOL     OW32803   1.437   0.809   7.941 -0.5373 -0.0023 -0.9890
 7057SOL    HW132804   1.373   0.874   7.972  0.7613  1.1672 -0.7506
 7057SOL    HW232805   1.436   0.743   8.010  0.3302  1.2687  0.2481
 7058SOL     OW32806   3.557   2.277  14.226 -0.1854  0.9262 -0.6889
 7058SOL    HW132807   3.524   2.349  14.279 -1.5918 -0.3243  0.1273
 7058SOL    HW232808   3.475   2.257  14.181 -1.0970  0.7552  1.0686
 7059SOL     OW32809   3.264   4.712   2.694 -0.0944  0.0453 -0.3081
 7059SOL    HW132810   3.285   4.662   2.773 -0.6797 -2.3855 -1.7110
 7059SOL    HW232811   3.173   4.735   2.712 -0.3080 -0.0619 -1.2652
 7060SOL     OW32812   4.657   4.289   9.023 -0.5529 -0.2998  0.4828
 7060SOL    HW132813   4.586   4.237   8.984 -1.2780  1.0697 -0.0005
 7060SOL    HW232814   4.696   4.224   9.082  0.0342  0.0523  0.4858
 7061SOL     OW32815   4.415   4.579   1.658  0.0833  0.4813  0.0582
 7061SOL    HW132816   4.378   4.532   1.733  0.1177 -1.2876 -1.0468
 7061SOL    HW232817   4.338   4.621   1.619  0.7965  0.8895 -0.8802
 7062SOL     OW32818   2.028   3.266  17.743 -0.4499  0.1012  0.0485
 7062SOL    HW132819   1.988   3.331  17.685  0.5913  0.5360 -0.1931
 7062SOL    HW232820   2.012   3.184  17.696  0.0594  0.6058 -1.0097
 7063SOL     OW32821   2.477   1.522   8.048  0.1913 -0.6014 -0.5006
 7063SOL    HW132822   2.552   1.565   8.090 -1.6648 -0.0709  2.3518
 7063SOL    HW232823   2.427   1.601   8.028 -0.3619 -0.4568  1.3568
 7064SOL     OW32824   1.160   1.383  14.015  0.6858  0.2323  0.1521
 7064SOL    HW132825   1.160   1.458  14.075  1.0646  0.8346 -0.5974
 7064SOL    HW232826   1.110   1.420  13.942  0.1374  0.7374  0.7793
 7065SOL     OW32827   2.828   3.617   7.881  0.4111 -0.2950 -0.3366
 7065SOL    HW132828   2.847   3.586   7.969 -0.4607  0.4664  0.1290
 7065SOL    HW232829   2.915   3.608   7.843  0.4781 -2.2210  0.2918
 7066SOL     OW32830   0.066   0.775   9.458  0.7202 -0.2508 -0.6193
 7066SOL    HW132831   0.126   0.701   9.460 -1.2078 -1.8843 -3.1466
 7066SOL    HW232832   0.048   0.796   9.366 -0.2799 -2.3487 -0.8970
 7067SOL     OW32833   4.718   2.832   2.193 -0.2112  0.0649  0.0588
 7067SOL    HW132834   4.628   2.862   2.205  0.2068  0.4787  2.1309
 7067SOL    HW232835   4.726   2.737   2.200  0.2785  0.0367 -0.9147
 7068SOL     OW32836   3.250   4.270   7.172 -0.2175 -0.2546  0.2515
 7068SOL    HW132837   3.339   4.267   7.208 -0.1149 -0.4977 -0.0244
 7068SOL    HW232838   3.204   4.291   7.254 -2.0074  0.5864 -0.9716
 7069SOL     OW32839   2.299   4.701   8.102  0.8833 -0.0018 -0.0210
 7069SOL    HW132840   2.384   4.660   8.087  1.7030  1.6141  0.2278
 7069SOL    HW232841   2.295   4.695   8.197  1.5800 -1.2356 -0.0644
 7070SOL     OW32842   2.827   0.071   7.130 -0.0385  0.5133  0.1218
 7070SOL    HW132843   2.888   0.116   7.189  0.5911  0.1100 -0.2240
 7070SOL    HW232844   2.890   0.022   7.076  0.7924  1.4756  0.2086
 7071SOL     OW32845   4.274   0.597  13.055  0.2472  0.1425  0.4773
 7071SOL    HW132846   4.326   0.675  13.076 -3.5179  2.9650 -0.7091
 7071SOL    HW232847   4.347   0.538  13.038 -0.5145 -0.8939  0.8225
 7072SOL     OW32848   4.113   0.779  14.927  0.1066  0.2664  0.6386
 7072SOL    HW132849   4.050   0.787  14.855  0.9530  1.5590  0.0538
 7072SOL    HW232850   4.156   0.696  14.907 -1.0909  0.0625 -1.0837
 7073SOL     OW32851   3.772   3.284   7.830 -0.0616  0.4375  0.3037
 7073SOL    HW132852   3.706   3.218   7.811  0.2666  0.2482 -0.1733
 7073SOL    HW232853   3.821   3.286   7.748  0.9048  2.4730  0.9080
 7074SOL     OW32854   1.800   2.000  16.412 -0.6043  0.2580  0.0338
 7074SOL    HW132855   1.885   2.014  16.369 -1.2751  1.1649 -0.9858
 7074SOL    HW232856   1.821   2.046  16.494  1.4826 -1.7050  0.6225
 7075SOL     OW32857   0.140   1.113  14.076  0.8797  0.2285 -0.3338
 7075SOL    HW132858   0.093   1.105  13.993 -2.9441 -1.1921  2.0143
 7075SOL    HW232859   0.139   1.208  14.089  3.9473 -0.0461  1.9764
 7076SOL     OW32860   3.582   2.142   4.873  0.0843  0.3550  0.1448
 7076SOL    HW132861   3.608   2.192   4.796  0.0884  0.4530  0.2105
 7076SOL    HW232862   3.486   2.137   4.874  0.0755  0.5340  0.2308
 7077SOL     OW32863   1.971   1.804   5.873  0.3507  1.0177 -0.5627
 7077SOL    HW132864   1.951   1.731   5.932 -0.2597  0.5760 -1.3176
 7077SOL    HW232865   2.013   1.754   5.802 -0.3911 -0.3785 -0.0040
 7078SOL     OW32866   3.853   2.122   9.419 -0.3516 -0.0387  0.6743
 7078SOL    HW132867   3.800   2.047   9.448 -2.5234  1.0299 -0.5119
 7078SOL    HW232868   3.782   2.186   9.408 -0.0740  0.2850  0.7945
 7079SOL     OW32869   2.172   3.737   5.313 -0.1201  0.2059  0.3216
 7079SOL    HW132870   2.103   3.799   5.287 -0.9384 -0.8323 -0.0124
 7079SOL    HW232871   2.164   3.677   5.238 -1.1698  0.1026  0.5152
 7080SOL     OW32872   2.312   2.196   7.839 -0.3291  0.6069  0.1536
 7080SOL    HW132873   2.361   2.241   7.907  0.9534  1.1727 -1.1333
 7080SOL    HW232874   2.379   2.163   7.780 -0.2933 -0.3185  0.7110
 7081SOL     OW32875   1.531   3.690   2.936  1.3291  0.2303 -0.1768
 7081SOL    HW132876   1.608   3.708   2.990 -0.4726 -0.7149  2.6624
 7081SOL    HW232877   1.488   3.614   2.974  0.7150  0.9907  0.6454
 7082SOL     OW32878   2.645   4.141   9.545  0.0295  0.2302  0.2001
 7082SOL    HW132879   2.685   4.189   9.617  2.3136  0.6979 -1.4070
 7082SOL    HW232880   2.655   4.048   9.567  1.7614  0.0115 -1.5451
 7083SOL     OW32881   4.595   3.081  11.179  0.4460 -0.3425  0.2021
 7083SOL    HW132882   4.616   3.045  11.092 -1.6117 -1.0840  0.0293
 7083SOL    HW232883   4.551   3.002  11.208 -1.0978 -0.1579 -1.6054
 7084SOL     OW32884   4.008   4.052   5.915  0.2938 -0.0910 -0.3113
 7084SOL    HW132885   3.954   4.074   5.840  1.0198  1.0873 -0.4927
 7084SOL    HW232886   4.037   4.141   5.938 -3.0666  0.1725  2.8715
 7085SOL     OW32887   2.306   3.439   1.020 -0.3303 -0.5198  0.1317
 7085SOL    HW132888   2.262   3.388   1.087  0.4770  1.5010  2.2055
 7085SOL    HW232889   2.373   3.491   1.065 -0.8872  0.1443  0.2071
 7086SOL     OW32890   1.862   4.726   2.851 -0.0043  0.2144  0.1540
 7086SOL    HW132891   1.828   0.025   2.932 -1.0753 -1.2498  0.4046
 7086SOL    HW232892   1.945   0.034   2.853  0.2157 -0.2355  2.2686
 7087SOL     OW32893   1.235   0.385   4.291  0.6088 -0.2987  0.2757
 7087SOL    HW132894   1.203   0.296   4.309  1.4887 -0.5639  0.5324
 7087SOL    HW232895   1.168   0.421   4.232  2.4849 -2.7304 -3.3312
 7088SOL     OW32896   2.082   2.355  10.538 -0.2664  0.3825  0.1451
 7088SOL    HW132897   2.137   2.315  10.605 -0.3936 -2.1240 -1.2367
 7088SOL    HW232898   2.039   2.275  10.506 -0.3887  0.4593  0.1139
 7089SOL     OW32899   1.482   2.371   6.284 -0.3930 -0.0433  0.7109
 7089SOL    HW132900   1.576   2.363   6.266 -0.0669  1.4660  1.6865
 7089SOL    HW232901   1.463   2.455   6.241 -1.4080  0.7687  2.7619
 7090SOL     OW32902   0.026   1.313   5.502 -0.1923 -0.3206 -0.3893
 7090SOL    HW132903   0.080   1.253   5.450 -0.6655 -0.6988 -0.4432
 7090SOL    HW232904   0.038   1.272   5.587 -0.7619 -0.9377 -0.6056
 7091SOL     OW32905   2.905   3.331  11.859  0.2872  0.3104  0.3044
 7091SOL    HW132906   2.851   3.320  11.781 -0.7101 -0.1226  1.0624
 7091SOL    HW232907   2.908   3.427  11.867  0.2160  0.5001 -1.8133
 7092SOL     OW32908   2.708   1.245   7.903 -0.5272 -0.0874 -0.4259
 7092SOL    HW132909   2.698   1.243   7.998  2.1520  1.1991 -0.1054
 7092SOL    HW232910   2.618   1.258   7.875  0.2430  1.5141 -2.1601
 7093SOL     OW32911   0.028   3.862   7.225  0.5370  0.7198  0.3633
 7093SOL    HW132912   0.123   3.853   7.215  0.6046  0.5557  1.1556
 7093SOL    HW232913   0.013   3.941   7.172 -1.1248 -0.0771 -0.3373
 7094SOL     OW32914   2.142   3.241   2.756 -0.5992  0.7754 -0.0662
 7094SOL    HW132915   2.098   3.172   2.706  0.1189 -0.8255  1.4884
 7094SOL    HW232916   2.168   3.194   2.835  2.1363 -0.5559 -1.7770
 7095SOL     OW32917   2.733   3.711   1.219 -0.9764 -0.2637 -0.2012
 7095SOL    HW132918   2.767   3.793   1.255  0.8243 -0.2853 -1.8645
 7095SOL    HW232919   2.642   3.733   1.241 -0.6561  2.5145 -1.6262
 7096SOL     OW32920   0.716   1.291  12.344  0.1633 -0.3002  0.6745
 7096SOL    HW132921   0.676   1.241  12.272 -0.1162  0.1182  0.5382
 7096SOL    HW232922   0.700   1.223  12.409  1.4696  0.7051  2.0258
 7097SOL     OW32923   2.370   0.014   1.216  0.4652 -0.1112 -0.5456
 7097SOL    HW132924   2.406   0.087   1.167  1.5349 -0.3900 -0.1782
 7097SOL    HW232925   2.339   4.705   1.139 -0.1295 -0.2982 -0.1892
 7098SOL     OW32926   3.209   0.006   4.084 -0.4219  0.2599  0.7351
 7098SOL    HW132927   3.212   0.101   4.080 -2.3909  0.3684  1.8499
 7098SOL    HW232928   3.115   4.731   4.089 -0.4123  0.0105  0.1532
 7099SOL     OW32929   1.965   1.377  13.852 -0.1685  0.1081  0.2983
 7099SOL    HW132930   1.905   1.303  13.865 -2.4836  1.4961 -2.3905
 7099SOL    HW232931   1.997   1.370  13.762 -0.6828  1.4243  0.0237
 7100SOL     OW32932   3.298   2.435   6.772  0.9340 -0.2090 -0.1887
 7100SOL    HW132933   3.219   2.383   6.782 -0.3614  1.1778 -3.2662
 7100SOL    HW232934   3.287   2.495   6.846  0.4579 -0.8597  0.2703
 7101SOL     OW32935   4.599   2.756   5.860  0.1095 -0.5576 -0.0582
 7101SOL    HW132936   4.576   2.849   5.866 -0.9169 -0.7668 -0.7996
 7101SOL    HW232937   4.568   2.726   5.946 -1.0006  0.3491 -0.1246
 7102SOL     OW32938   2.395   4.534   8.964 -1.1567  0.4402  0.4637
 7102SOL    HW132939   2.371   4.523   9.056  2.1605 -1.9279  1.0846
 7102SOL    HW232940   2.453   4.609   8.980 -0.7504  0.3452 -0.5682
 7103SOL     OW32941   3.687   2.159   2.569 -0.0343 -0.6538  0.2291
 7103SOL    HW132942   3.654   2.160   2.659 -0.8820  1.9064 -0.1007
 7103SOL    HW232943   3.605   2.182   2.526  1.3346  0.0359 -2.0078
 7104SOL     OW32944   2.440   4.257   9.939 -0.0689  0.4253  0.1434
 7104SOL    HW132945   2.484   4.181   9.974  1.2402  1.0560 -0.1364
 7104SOL    HW232946   2.406   4.305  10.014  2.5848 -1.6376  2.6415
 7105SOL     OW32947   3.140   1.920   2.013 -0.0127  0.9068  0.2470
 7105SOL    HW132948   3.156   1.829   2.039  0.4221  0.3434 -1.9552
 7105SOL    HW232949   3.051   1.908   1.979  0.8658  0.0040 -1.7456
 7106SOL     OW32950   3.924   4.500  17.185  0.0729  0.1883 -0.0680
 7106SOL    HW132951   3.966   4.576  17.227 -0.2199  1.6497 -2.4229
 7106SOL    HW232952   3.975   4.422  17.206  1.3376  1.7494  2.7508
 7107SOL     OW32953   4.143   0.239   5.445 -0.1967  0.6586 -0.3017
 7107SOL    HW132954   4.219   0.193   5.411 -0.7332 -1.3971  1.3022
 7107SOL    HW232955   4.087   0.165   5.467  1.0304  0.4205  2.0849
 7108SOL     OW32956   1.649   2.050   3.490 -0.2505  0.1748 -0.3381
 7108SOL    HW132957   1.672   2.021   3.578 -0.1325 -1.0172 -0.7577
 7108SOL    HW232958   1.556   2.071   3.490 -0.6581 -1.6285 -1.1319
 7109SOL     OW32959   4.486   0.483  11.640 -0.3806  0.2160  0.3869
 7109SOL    HW132960   4.399   0.447  11.656 -1.0350  1.8918  0.5729
 7109SOL    HW232961   4.533   0.431  11.706  0.6974 -1.1995 -1.5045
 7110SOL     OW32962   2.392   2.898   4.548 -0.6330 -0.1675  0.1771
 7110SOL    HW132963   2.366   2.893   4.640  0.0594  3.2707  0.5693
 7110SOL    HW232964   2.316   2.941   4.509 -0.6762  0.9762  1.5312
 7111SOL     OW32965   1.497   4.374   8.643  0.0184 -0.1115 -0.3778
 7111SOL    HW132966   1.524   4.389   8.553  2.7205  0.4638  0.5524
 7111SOL    HW232967   1.556   4.428   8.696 -0.2794  0.2103 -0.3740
 7112SOL     OW32968   0.715   1.445   0.793 -0.5163 -0.8411  0.6089
 7112SOL    HW132969   0.728   1.451   0.888 -2.0227 -1.9095  0.8834
 7112SOL    HW232970   0.805   1.470   0.770 -1.0710  0.3235 -0.2796
 7113SOL     OW32971   3.513   1.442   3.827 -0.6244 -0.1066  0.0878
 7113SOL    HW132972   3.447   1.415   3.764 -0.1150  0.5888 -0.7443
 7113SOL    HW232973   3.577   1.494   3.779  2.9672 -2.9846  1.6971
 7114SOL     OW32974   0.728   4.493   7.196  0.6273 -0.4149  0.0787
 7114SOL    HW132975   0.810   4.514   7.241  0.5860  1.3873 -0.7124
 7114SOL    HW232976   0.679   4.464   7.274 -3.4041  1.0721 -1.8907
 7115SOL     OW32977   0.330   0.470   5.996 -0.2037 -0.0112  0.3000
 7115SOL    HW132978   0.313   0.389   5.949  2.0390  1.2269 -2.6902
 7115SOL    HW232979   0.239   0.496   6.009 -1.0832 -2.6566 -0.5950
 7116SOL     OW32980   2.100   1.195  10.434 -0.4070 -0.3750  0.3505
 7116SOL    HW132981   2.018   1.172  10.479  0.2279 -1.9565  0.6669
 7116SOL    HW232982   2.092   1.287  10.461 -0.7316 -0.2770 -0.0751
 7117SOL     OW32983   2.750   3.392  17.218 -0.2990 -0.2857  0.0865
 7117SOL    HW132984   2.777   3.433  17.300  0.8592 -0.4005 -0.2393
 7117SOL    HW232985   2.751   3.470  17.162 -2.6706 -1.5000 -1.6431
 7118SOL     OW32986   1.274   2.209  12.428 -0.3159 -0.3435 -0.0519
 7118SOL    HW132987   1.343   2.265  12.393 -0.9977 -0.6926 -1.9163
 7118SOL    HW232988   1.303   2.188  12.517  1.6523 -0.4182 -0.7121
 7119SOL     OW32989   3.809   2.492   8.243 -0.0805 -0.2909  0.5360
 7119SOL    HW132990   3.753   2.441   8.301 -0.7085 -1.3337 -1.0001
 7119SOL    HW232991   3.894   2.464   8.278  0.3199  1.0388  0.6428
 7120SOL     OW32992   2.232   3.834   6.288 -0.1396 -0.0445  0.2528
 7120SOL    HW132993   2.265   3.812   6.375 -0.1915  1.7618  0.7211
 7120SOL    HW232994   2.149   3.787   6.291 -0.1852  0.0358  0.2626
 7121SOL     OW32995   2.795   3.080   6.198  0.1095 -0.0458 -0.1510
 7121SOL    HW132996   2.701   3.100   6.191  0.7944  2.5971 -1.4992
 7121SOL    HW232997   2.798   3.031   6.280  1.7446 -0.0164 -0.1915
 7122SOL     OW32998   2.268   0.470  10.223 -0.2133  0.3668  0.9963
 7122SOL    HW132999   2.201   0.407  10.197  1.1568 -0.6651 -0.0576
 7122SOL    HW233000   2.301   0.445  10.309 -0.6852 -0.0226  1.0651
 7123SOL     OW33001   2.028   1.896  12.492 -0.0620  0.5777  0.3495
 7123SOL    HW133002   2.033   1.954  12.567 -1.6221 -0.4799  1.2746
 7123SOL    HW233003   2.104   1.934  12.448 -1.3475  1.9433 -0.6716
 7124SOL     OW33004   4.722   0.945   5.916 -0.5925  0.3196 -0.5366
 7124SOL    HW133005   4.674   0.912   5.992 -0.8751 -1.9855 -1.6893
 7124SOL    HW233006   4.735   1.037   5.936  1.2164  0.3718 -1.9259
 7125SOL     OW33007   1.512   0.207  15.863 -0.2846  0.0878 -0.2694
 7125SOL    HW133008   1.573   0.134  15.853 -2.5262 -2.1629  2.5471
 7125SOL    HW233009   1.427   0.184  15.826  0.1441  2.3812 -2.6808
 7126SOL     OW33010   2.871   4.558  10.845 -0.4905 -0.2454  0.0681
 7126SOL    HW133011   2.915   4.638  10.871  0.3419 -0.6761 -0.0118
 7126SOL    HW233012   2.936   4.492  10.870  2.0230  2.7411  1.4350
 7127SOL     OW33013   0.850   2.685   8.954  0.3468  0.4224  0.2641
 7127SOL    HW133014   0.877   2.618   8.891 -1.5055 -2.3705  2.4315
 7127SOL    HW233015   0.872   2.639   9.035  3.9509 -1.4194 -1.6958
 7128SOL     OW33016   1.788   3.759   1.369 -0.6872 -0.9385  0.3277
 7128SOL    HW133017   1.827   3.772   1.456 -1.6342  0.3998  0.5347
 7128SOL    HW233018   1.753   3.842   1.339  0.3412  0.2111  2.3187
 7129SOL     OW33019   2.066   4.498   1.231 -0.2225  0.3413 -0.3595
 7129SOL    HW133020   2.010   4.466   1.161 -1.0033  0.5296  0.1758
 7129SOL    HW233021   2.013   4.572   1.261 -0.3029  0.9140 -1.9077
 7130SOL     OW33022   1.599   1.336   6.980  0.0999 -0.5775 -0.4687
 7130SOL    HW133023   1.573   1.271   6.915 -2.3247 -0.8885  0.7867
 7130SOL    HW233024   1.548   1.302   7.054 -0.0561 -1.6196 -1.0461
 7131SOL     OW33025   1.903   2.823  12.782  0.4228  0.3739  0.8210
 7131SOL    HW133026   1.875   2.860  12.698  0.1247 -0.6065  0.4941
 7131SOL    HW233027   1.818   2.794  12.813  0.6197  0.2567  1.2544
 7132SOL     OW33028   3.992   3.876   3.485 -0.2345 -0.4314  0.4427
 7132SOL    HW133029   4.028   3.830   3.561  1.2575 -0.9020 -0.5363
 7132SOL    HW233030   3.972   3.797   3.434  0.9890  0.6360 -1.7300
 7133SOL     OW33031   2.763   1.195   0.361  0.2797 -0.3590  0.2434
 7133SOL    HW133032   2.671   1.185   0.386 -0.1260 -0.3887 -1.2760
 7133SOL    HW233033   2.760   1.169   0.269 -1.3984  0.6799  0.0084
 7134SOL     OW33034   2.519   1.793   1.598 -0.1854  0.4249  0.0812
 7134SOL    HW133035   2.498   1.716   1.547 -1.3888  1.2618 -0.6889
 7134SOL    HW233036   2.517   1.858   1.527  1.4445  0.6664  0.2405
 7135SOL     OW33037   3.287   2.077   4.839  0.4051 -0.0880 -0.1257
 7135SOL    HW133038   3.206   2.097   4.791 -0.6473 -2.5416  0.6624
 7135SOL    HW233039   3.290   1.983   4.822 -0.8483 -0.0898 -0.3754
 7136SOL     OW33040   0.626   4.165   9.470  0.2817 -0.0691  0.0754
 7136SOL    HW133041   0.653   4.255   9.485  0.4740 -0.0493 -0.3958
 7136SOL    HW233042   0.545   4.163   9.521 -0.0405  0.2774 -0.4290
 7137SOL     OW33043   4.547   4.599   9.952 -0.7374 -0.1546 -0.0478
 7137SOL    HW133044   4.545   4.692   9.971 -0.3393 -0.0563 -0.4775
 7137SOL    HW233045   4.593   4.598   9.868 -0.1570 -1.6332  0.2830
 7138SOL     OW33046   0.197   3.358   4.022  0.1319 -0.5561  0.5314
 7138SOL    HW133047   0.163   3.359   3.932 -2.7764  1.1623  1.6617
 7138SOL    HW233048   0.120   3.395   4.064  0.7101  1.0158  0.2218
 7139SOL     OW33049   3.370   1.319   0.066  0.5149  0.4805  0.0189
 7139SOL    HW133050   3.404   1.401   0.101  0.6782 -0.6366  2.4599
 7139SOL    HW233051   3.293   1.293   0.117  0.0104  2.3950  0.2170
 7140SOL     OW33052   2.411   3.859  12.391 -0.0742 -0.3063 -0.0056
 7140SOL    HW133053   2.379   3.806  12.317 -0.0467 -1.4044  0.7736
 7140SOL    HW233054   2.346   3.848  12.460  0.6255  1.4882  0.9303
 7141SOL     OW33055   0.441   2.273   9.224 -0.4762 -0.3829 -0.6466
 7141SOL    HW133056   0.408   2.235   9.142 -1.4270  0.4652 -0.6513
 7141SOL    HW233057   0.371   2.249   9.283 -0.8119  2.5645  0.1455
 7142SOL     OW33058   3.396   0.118  10.058 -0.1776 -0.3732 -0.2985
 7142SOL    HW133059   3.450   0.108  10.137  0.4784 -0.7764 -0.8026
 7142SOL    HW233060   3.388   0.029  10.023 -0.1644 -0.5858  0.2293
 7143SOL     OW33061   2.532   4.616   9.319 -0.2974  1.0289  0.2289
 7143SOL    HW133062   2.523   4.679   9.390  0.9986 -1.1258  2.3057
 7143SOL    HW233063   2.623   4.588   9.330 -0.6513 -0.3181 -0.1698
 7144SOL     OW33064   0.462   3.473   9.055 -0.3224 -0.3405 -0.4027
 7144SOL    HW133065   0.547   3.507   9.027 -1.0323  0.6144 -1.3922
 7144SOL    HW233066   0.430   3.421   8.981 -0.3573 -1.8883  0.6947
 7145SOL     OW33067   1.610   1.280   8.194  0.0566 -0.5246 -0.4469
 7145SOL    HW133068   1.613   1.283   8.290 -2.4237 -1.4049 -0.3373
 7145SOL    HW233069   1.518   1.257   8.178  0.2519 -0.5140 -1.5941
 7146SOL     OW33070   0.965   1.566   5.920 -0.6062 -0.2797  0.5117
 7146SOL    HW133071   1.034   1.540   5.859  0.5764  3.2576  0.3461
 7146SOL    HW233072   0.909   1.490   5.906 -1.5021  0.2520  1.2245
 7147SOL     OW33073   4.421   2.953   6.379  0.4138 -0.4904  1.0777
 7147SOL    HW133074   4.335   2.939   6.340  0.8479 -0.2959  0.0505
 7147SOL    HW233075   4.405   3.027   6.438 -0.5346 -0.6196  0.9669
 7148SOL     OW33076   4.446   2.159   5.848 -0.4235  0.1385  0.0545
 7148SOL    HW133077   4.472   2.242   5.890 -1.0461  0.0985  0.5116
 7148SOL    HW233078   4.474   2.098   5.916  2.5743  4.0615  2.3821
 7149SOL     OW33079   1.749   2.653   4.637 -0.5959 -0.2528 -0.3802
 7149SOL    HW133080   1.757   2.639   4.543 -0.7428 -1.3387 -0.2301
 7149SOL    HW233081   1.759   2.748   4.627 -2.4329 -0.0597 -0.3434
 7150SOL     OW33082   1.579   4.183  12.066 -0.2250  0.1391  0.7202
 7150SOL    HW133083   1.660   4.172  12.017 -0.8624 -2.3625  0.2212
 7150SOL    HW233084   1.548   4.265  12.027  1.4624 -0.3860 -1.7081
 7151SOL     OW33085   2.784   0.895  11.909  0.5676  0.3388 -0.1423
 7151SOL    HW133086   2.689   0.886  11.909  0.8143 -2.2278 -1.4532
 7151SOL    HW233087   2.816   0.832  11.974  0.2975  0.7306  0.3688
 7152SOL     OW33088   2.931   1.617   4.297  0.3431 -0.6070  0.1148
 7152SOL    HW133089   2.882   1.698   4.309  0.9236 -0.0573 -1.2338
 7152SOL    HW233090   2.939   1.606   4.202 -0.1239 -2.3965  0.2888
 7153SOL     OW33091   3.907   1.033   6.872  0.0128  0.1735  0.0530
 7153SOL    HW133092   3.906   1.061   6.781 -2.4557  0.2847  0.1231
 7153SOL    HW233093   3.980   0.970   6.868  0.7075  0.5836  5.3979
 7154SOL     OW33094   3.587   1.316  12.850  0.3912  0.1646 -0.0313
 7154SOL    HW133095   3.579   1.334  12.944  0.0020  0.0400 -0.0431
 7154SOL    HW233096   3.523   1.246  12.838 -1.0758  1.7578 -1.3953
 7155SOL     OW33097   0.278   0.873  14.057  0.4526 -0.2350  0.1043
 7155SOL    HW133098   0.371   0.887  14.074  1.1712 -2.5571 -1.8800
 7155SOL    HW233099   0.235   0.955  14.080 -0.6607 -0.4643 -1.1317
 7156SOL     OW33100   4.600   1.164  15.892 -0.3011  0.4596 -0.6583
 7156SOL    HW133101   4.614   1.249  15.851  1.1433  0.3900 -0.3145
 7156SOL    HW233102   4.511   1.149  15.859 -0.8495 -0.2322  1.1462
 7157SOL     OW33103   1.554   1.904  16.434  0.1200  0.1480 -0.2847
 7157SOL    HW133104   1.645   1.931  16.417 -0.0060  1.3131  0.9779
 7157SOL    HW233105   1.536   1.941  16.520 -1.3459 -0.2431 -0.4294
 7158SOL     OW33106   3.259   2.255   5.931 -0.0105 -0.5067  0.0727
 7158SOL    HW133107   3.193   2.196   5.968 -0.2084 -0.5016 -0.2666
 7158SOL    HW233108   3.242   2.257   5.837  0.9283  3.0009 -0.0314
 7159SOL     OW33109   3.622   0.195   0.611 -0.0333  0.3556 -0.2877
 7159SOL    HW133110   3.695   0.154   0.566  0.0343  0.2601 -0.0909
 7159SOL    HW233111   3.620   0.274   0.556  0.9876 -0.7862 -1.9720
 7160SOL     OW33112   0.819   2.110  10.457  0.0965  0.0579  0.0572
 7160SOL    HW133113   0.909   2.137  10.473  0.3198  0.6071 -2.1980
 7160SOL    HW233114   0.814   2.095  10.363 -1.3555 -1.9764  0.4537
 7161SOL     OW33115   3.299   1.851  11.169  0.1864  0.1428 -0.0183
 7161SOL    HW133116   3.209   1.882  11.159  0.5571  1.1859 -0.1872
 7161SOL    HW233117   3.359   1.890  11.106  1.6202  0.4672  1.5252
 7162SOL     OW33118   0.154   2.324   8.654 -0.2035  0.2524  0.1585
 7162SOL    HW133119   0.132   2.394   8.593 -1.2077 -1.5110 -1.5078
 7162SOL    HW233120   0.226   2.361   8.706  1.9148  0.6481 -3.0339
 7163SOL     OW33121   4.050   4.643   1.309  0.7432 -0.0777 -0.4858
 7163SOL    HW133122   3.959   4.641   1.339  0.8712 -2.0235 -0.2394
 7163SOL    HW233123   4.086   4.718   1.356 -1.3198 -0.7257  2.1258
 7164SOL     OW33124   3.348   2.492   7.803 -0.0623  0.1856  0.1919
 7164SOL    HW133125   3.425   2.547   7.788 -0.3213  0.3491 -0.5557
 7164SOL    HW233126   3.275   2.538   7.760  0.5886  0.6518 -0.4223
 7165SOL     OW33127   2.698   0.934   8.592  0.5203  0.0448 -0.1917
 7165SOL    HW133128   2.787   0.901   8.597  0.2817 -0.5163  0.4251
 7165SOL    HW233129   2.707   0.988   8.514  2.5103  1.4049  0.9648
 7166SOL     OW33130   4.536   2.719   5.395 -0.2677 -0.0546  0.0385
 7166SOL    HW133131   4.625   2.737   5.364  0.0496  0.1715  1.0709
 7166SOL    HW233132   4.496   2.694   5.312 -1.9399  1.9875  0.2269
 7167SOL     OW33133   4.242   0.847   8.650 -0.4191  0.3776 -0.1239
 7167SOL    HW133134   4.305   0.799   8.597 -1.0907 -0.5949 -0.0532
 7167SOL    HW233135   4.243   0.932   8.607 -1.9153  1.3468  1.7370
 7168SOL     OW33136   2.998   1.700  15.621 -0.5778 -0.1600 -0.2046
 7168SOL    HW133137   2.927   1.717  15.683 -0.3129  2.7153 -0.6836
 7168SOL    HW233138   2.959   1.717  15.535  1.6322  0.3760 -1.0858
 7169SOL     OW33139   2.120   1.215  12.277 -0.3668  0.2741 -0.2634
 7169SOL    HW133140   2.053   1.259  12.329  0.4343 -0.7182  1.6274
 7169SOL    HW233141   2.196   1.266  12.304 -0.5545 -0.0083  0.7946
 7170SOL     OW33142   3.665   0.709   8.414  0.5004  0.9976  0.0612
 7170SOL    HW133143   3.759   0.696   8.405 -0.1586 -3.4163 -0.2557
 7170SOL    HW233144   3.660   0.800   8.445  0.3933  1.1494 -0.3884
 7171SOL     OW33145   0.694   0.483   0.173  0.4743  0.1125  0.9109
 7171SOL    HW133146   0.608   0.467   0.132  1.7763 -0.1042 -1.7212
 7171SOL    HW233147   0.756   0.505   0.103 -0.7723 -0.5227 -0.3966
 7172SOL     OW33148   4.130   2.114  12.907 -0.0500 -0.1303  0.1938
 7172SOL    HW133149   4.041   2.079  12.908  0.6907 -2.0198  2.1006
 7172SOL    HW233150   4.181   2.032  12.904  1.2456  0.7840 -2.2856
 7173SOL     OW33151   3.046   2.232   2.332 -0.0866  0.0685  0.4714
 7173SOL    HW133152   2.964   2.189   2.307 -0.3261  0.3327  0.8153
 7173SOL    HW233153   3.028   2.297   2.400  1.5086 -1.1303  2.0526
 7174SOL     OW33154   4.699   3.205   6.511  0.1771 -0.7457 -0.5140
 7174SOL    HW133155   4.718   3.260   6.435  3.2826  0.4494  1.1006
 7174SOL    HW233156   4.603   3.204   6.503  0.1633 -1.3924 -0.2369
 7175SOL     OW33157   4.483   4.344  12.569  0.1418 -0.2889 -0.5310
 7175SOL    HW133158   4.517   4.344  12.658  1.3604 -0.8070 -0.9988
 7175SOL    HW233159   4.428   4.422  12.569 -0.1127 -0.4723  1.6667
 7176SOL     OW33160   1.859   1.438   7.684 -0.1221 -0.7714  0.2871
 7176SOL    HW133161   1.888   1.497   7.753 -1.0799 -1.0488  0.9399
 7176SOL    HW233162   1.931   1.408   7.630 -2.0272 -2.1377 -1.4976
 7177SOL     OW33163   2.150   0.400   0.585 -0.1515  0.0352  0.0396
 7177SOL    HW133164   2.219   0.348   0.542  0.2239 -0.0938  0.7962
 7177SOL    HW233165   2.136   0.465   0.517  0.1555  2.2091  2.0527
 7178SOL     OW33166   1.404   2.998   8.534  0.4354 -0.4297 -0.5844
 7178SOL    HW133167   1.452   2.918   8.512  1.2743  0.1895 -1.0414
 7178SOL    HW233168   1.478   3.058   8.528  0.6353 -0.6646 -0.4925
 7179SOL     OW33169   2.448   1.045   0.660  0.7333 -0.0805 -0.4006
 7179SOL    HW133170   2.375   1.078   0.713  1.6816  0.8362  0.3498
 7179SOL    HW233171   2.473   0.969   0.712 -0.6860  0.2284  0.7200
 7180SOL     OW33172   3.158   3.238  15.786 -0.8568 -0.0124  0.4732
 7180SOL    HW133173   3.194   3.326  15.793 -0.4684 -0.0936 -0.4439
 7180SOL    HW233174   3.149   3.231  15.691 -2.0291 -1.5136  0.6910
 7181SOL     OW33175   1.899   2.734   2.467 -0.1622 -0.1378  0.4325
 7181SOL    HW133176   1.908   2.769   2.556 -1.6160  1.8177 -0.1955
 7181SOL    HW233177   1.990   2.735   2.438  0.2264 -0.1436  1.6281
 7182SOL     OW33178   2.525   0.208   1.789 -0.0957  0.2417  0.4645
 7182SOL    HW133179   2.493   0.277   1.847 -1.3022 -0.2250  0.3572
 7182SOL    HW233180   2.536   0.133   1.847  0.6936 -0.5737 -0.7309
 7183SOL     OW33181   1.498   1.125   3.430 -0.0734  0.6135  0.2608
 7183SOL    HW133182   1.485   1.060   3.362  0.7878  1.2056 -0.4765
 7183SOL    HW233183   1.406   1.144   3.449 -0.3225 -0.1273 -0.2496
 7184SOL     OW33184   3.565   2.892   1.896 -0.1329  0.5803 -0.8170
 7184SOL    HW133185   3.644   2.934   1.928 -0.3012 -0.3641  0.8577
 7184SOL    HW233186   3.550   2.818   1.954  1.1264  1.2153  0.3152
 7185SOL     OW33187   0.874   0.408   9.346 -0.2905 -1.1249 -0.4653
 7185SOL    HW133188   0.813   0.445   9.282 -0.6823  0.6929  0.9730
 7185SOL    HW233189   0.820   0.349   9.399 -0.5907 -1.0840 -0.7295
 7186SOL     OW33190   2.680   1.590   2.030  0.2701 -0.1851 -0.2953
 7186SOL    HW133191   2.679   1.683   2.007 -0.4734 -0.1639 -0.1732
 7186SOL    HW233192   2.772   1.568   2.039  0.6857  0.8074 -2.1888
 7187SOL     OW33193   4.206   4.390  12.270 -0.1829  0.3911  0.5884
 7187SOL    HW133194   4.301   4.402  12.277 -0.2529  0.7819  0.8199
 7187SOL    HW233195   4.170   4.471  12.304  2.1828  1.7941 -0.2811
 7188SOL     OW33196   2.825   2.144   7.912  0.3572  0.0160  0.4151
 7188SOL    HW133197   2.756   2.112   7.969  1.6150 -2.8632  0.3502
 7188SOL    HW233198   2.820   2.237   7.932  1.6888 -0.3154  2.2717
 7189SOL     OW33199   1.884   0.252   7.440  0.2522 -0.7359  0.1534
 7189SOL    HW133200   1.842   0.328   7.400 -1.4961  0.0715  3.4988
 7189SOL    HW233201   1.885   0.194   7.364  0.2290  0.2217 -0.5807
 7190SOL     OW33202   0.615   3.243  10.609 -0.2221 -0.1087 -0.3818
 7190SOL    HW133203   0.609   3.212  10.699  3.1251  2.5095  0.7963
 7190SOL    HW233204   0.635   3.334  10.631 -0.8320 -0.2151  0.5918
 7191SOL     OW33205   0.394   3.254   8.421  0.0085  0.0838 -0.6570
 7191SOL    HW133206   0.307   3.217   8.440 -0.8271  1.7855 -1.2370
 7191SOL    HW233207   0.443   3.172   8.413  1.7501  1.0500  0.1217
 7192SOL     OW33208   2.088   1.670   3.268 -0.0030  0.2500 -0.7857
 7192SOL    HW133209   2.090   1.734   3.197 -1.1770  1.1970  0.0304
 7192SOL    HW233210   2.094   1.722   3.348  1.6210 -0.4370 -0.4712
 7193SOL     OW33211   3.374   4.061   1.874 -0.0023  0.2149 -0.5742
 7193SOL    HW133212   3.363   4.128   1.807  2.1244  0.0802 -1.0395
 7193SOL    HW233213   3.450   4.097   1.920  0.5889  0.1788 -1.5216
 7194SOL     OW33214   2.534   2.831   6.900  0.6978  0.8547 -0.3850
 7194SOL    HW133215   2.603   2.798   6.957  0.0740  1.2212  0.5772
 7194SOL    HW233216   2.495   2.754   6.858  0.9518  0.4742  0.0845
 7195SOL     OW33217   0.715   3.532   8.974 -0.3082  0.2124  0.5237
 7195SOL    HW133218   0.800   3.506   9.009 -0.3868 -1.8743 -0.8545
 7195SOL    HW233219   0.739   3.597   8.909  1.7177  0.9951  2.0687
 7196SOL     OW33220   4.452   3.540   6.950  0.1565  0.4760  0.1396
 7196SOL    HW133221   4.547   3.533   6.948  0.0029 -1.8519  0.6691
 7196SOL    HW233222   4.433   3.547   6.856  2.6070  1.5574 -0.2647
 7197SOL     OW33223   0.577   2.017   3.286 -0.0064  0.1932 -0.4714
 7197SOL    HW133224   0.510   1.960   3.324  1.1303  0.0768  1.3856
 7197SOL    HW233225   0.581   1.998   3.192  1.2884  1.2491 -0.6280
 7198SOL     OW33226   3.788   1.353   1.292  0.3629  0.0097  0.1101
 7198SOL    HW133227   3.880   1.341   1.314  0.3515 -2.6473 -1.3121
 7198SOL    HW233228   3.744   1.341   1.377 -0.0445  1.4052  0.0992
 7199SOL     OW33229   2.774   0.046   8.863 -0.4273 -0.0046 -0.0113
 7199SOL    HW133230   2.818   0.083   8.939  0.4157  2.8673 -1.8916
 7199SOL    HW233231   2.684   0.030   8.893 -1.3228  2.9682 -1.1259
 7200SOL     OW33232   0.747   2.621   4.563  0.0175  0.0806 -0.0673
 7200SOL    HW133233   0.656   2.647   4.547 -0.6021 -1.1876  1.4070
 7200SOL    HW233234   0.759   2.546   4.505  0.8977 -0.6861  1.1183
 7201SOL     OW33235   3.961   3.318   3.657  0.3843 -0.5831 -0.0444
 7201SOL    HW133236   3.932   3.301   3.747  2.5976 -0.0341  0.7764
 7201SOL    HW233237   3.987   3.231   3.626  0.4658 -0.6844  0.3097
 7202SOL     OW33238   2.756   3.810   5.012 -0.1492  0.2750 -0.0596
 7202SOL    HW133239   2.676   3.850   4.977 -1.6269 -1.1004  1.7965
 7202SOL    HW233240   2.824   3.851   4.959 -0.9410  0.4904 -0.9152
 7203SOL     OW33241   1.818   2.750  16.668 -0.3544  0.2389 -0.4154
 7203SOL    HW133242   1.755   2.791  16.728  0.9862  1.6770  0.0232
 7203SOL    HW233243   1.893   2.748  16.728 -1.9841 -2.2010  1.5505
 7204SOL     OW33244   4.165   3.824  12.112  0.2386  0.0961 -0.8558
 7204SOL    HW133245   4.172   3.912  12.148  1.8320 -1.1054  1.7772
 7204SOL    HW233246   4.092   3.841  12.052  0.3369  0.2024 -0.9439
 7205SOL     OW33247   4.330   1.531   7.355  0.4741 -0.2163  0.4565
 7205SOL    HW133248   4.238   1.556   7.348  0.4118  0.3601  3.5402
 7205SOL    HW233249   4.328   1.437   7.338 -1.8382 -0.1847  0.4888
 7206SOL     OW33250   3.126   4.722   8.913  0.0239  0.5251  0.0114
 7206SOL    HW133251   3.047   0.002   8.964 -0.6599 -1.8958 -0.0659
 7206SOL    HW233252   3.207   4.735   8.963 -2.0658  1.1667  3.2656
 7207SOL     OW33253   2.479   3.616   5.595 -0.1465  0.1975  0.5351
 7207SOL    HW133254   2.563   3.644   5.632  1.5575 -1.9050 -1.6954
 7207SOL    HW233255   2.498   3.527   5.564 -1.1289 -0.6692  2.4316
 7208SOL     OW33256   0.658   3.430   7.999  0.4076 -0.0955 -0.0638
 7208SOL    HW133257   0.606   3.386   8.066 -0.5923  0.4064 -0.5192
 7208SOL    HW233258   0.653   3.522   8.025  0.6909  0.1865 -1.0177
 7209SOL     OW33259   2.068   4.665   7.604  0.0634 -0.0096  0.3750
 7209SOL    HW133260   2.154   4.688   7.640  0.6374  0.1648 -1.1312
 7209SOL    HW233261   2.071   4.570   7.616  0.0083 -0.0073  0.4063
 7210SOL     OW33262   1.025   1.456  12.462  0.2321  0.5369  0.0237
 7210SOL    HW133263   0.964   1.527  12.478 -0.8607 -0.2408 -0.6644
 7210SOL    HW233264   1.076   1.487  12.387 -1.2083  2.3225 -0.2248
 7211SOL     OW33265   4.407   0.656   7.598  0.4542  0.2833 -0.5782
 7211SOL    HW133266   4.314   0.635   7.592  0.5335 -0.4052  0.7247
 7211SOL    HW233267   4.440   0.579   7.551 -0.8212  0.1612 -1.2624
 7212SOL     OW33268   4.734   2.808  11.464 -0.0249  0.4502  0.5280
 7212SOL    HW133269   4.659   2.818  11.522 -0.1498 -0.5567  0.5321
 7212SOL    HW233270   4.697   2.742  11.406  1.2892 -0.5310  0.8011
 7213SOL     OW33271   1.064   2.225  13.358  0.0893 -0.2362  0.4629
 7213SOL    HW133272   1.077   2.146  13.411 -0.4136 -0.3904  0.3552
 7213SOL    HW233273   1.131   2.290  13.381  0.5499  0.2028 -2.1321
 7214SOL     OW33274   4.227   1.761   4.671 -0.0368  0.1979  0.0904
 7214SOL    HW133275   4.281   1.839   4.658 -1.0976  1.1084  1.1620
 7214SOL    HW233276   4.197   1.790   4.757 -0.9579  0.5558 -0.3651
 7215SOL     OW33277   2.197   3.409  16.863 -0.1918 -0.2083 -0.5444
 7215SOL    HW133278   2.243   3.326  16.849 -0.2004 -0.2514 -0.3175
 7215SOL    HW233279   2.264   3.472  16.835  0.4856 -0.8973 -0.4778
 7216SOL     OW33280   0.204   3.108   7.287 -0.5421 -0.0973  0.4707
 7216SOL    HW133281   0.167   3.102   7.375 -0.7698  0.5162  0.4171
 7216SOL    HW233282   0.293   3.140   7.303 -0.2587  0.0234 -1.2501
 7217SOL     OW33283   4.403   1.117   4.951 -0.3595  0.2065  0.2657
 7217SOL    HW133284   4.383   1.165   4.870  0.5153  0.1250  0.0074
 7217SOL    HW233285   4.342   1.160   5.011  0.1843 -0.9126  1.6086
 7218SOL     OW33286   3.928   3.086  13.745 -0.5880 -0.4192  0.1915
 7218SOL    HW133287   3.932   3.169  13.699  1.4316 -0.4675  0.3123
 7218SOL    HW233288   3.893   3.112  13.830  0.3414  2.2080 -0.2372
 7219SOL     OW33289   3.618   1.699   8.409  0.1377 -0.1675  0.1366
 7219SOL    HW133290   3.656   1.643   8.341 -0.7274  1.4102 -1.6784
 7219SOL    HW233291   3.566   1.764   8.361  1.0759  1.7566  1.7524
 7220SOL     OW33292   1.449   1.245  11.385  0.0609  0.1454 -0.0817
 7220SOL    HW133293   1.417   1.324  11.341 -0.5664 -0.0637  0.0003
 7220SOL    HW233294   1.523   1.282  11.434 -0.8606  0.7011  0.8983
 7221SOL     OW33295   2.240   2.364   8.659  0.0880 -0.2956 -0.1404
 7221SOL    HW133296   2.148   2.387   8.672  0.1177  0.9733 -2.1917
 7221SOL    HW233297   2.281   2.450   8.660  1.1969 -0.8023 -0.9809
 7222SOL     OW33298   4.319   3.397  15.075 -0.2133 -0.3449 -0.3686
 7222SOL    HW133299   4.402   3.445  15.080  0.2678 -0.8239 -3.7862
 7222SOL    HW233300   4.281   3.433  14.995  0.1867  0.4474 -0.2034
 7223SOL     OW33301   3.720   0.697   5.237  0.7649 -0.0752  0.6064
 7223SOL    HW133302   3.779   0.757   5.283 -1.5183  0.9139  2.2413
 7223SOL    HW233303   3.762   0.617   5.269  0.5338 -0.2824  0.3938
 7224SOL     OW33304   1.630   4.068   3.189 -0.0892  1.0334 -0.1086
 7224SOL    HW133305   1.584   4.098   3.268 -0.7705  1.6274 -0.7332
 7224SOL    HW233306   1.717   4.107   3.196  0.5177 -0.1363 -1.2459
 7225SOL     OW33307   2.413   2.333   2.697  0.5011 -0.0052 -0.4706
 7225SOL    HW133308   2.335   2.368   2.654  2.2733  2.5477 -1.5764
 7225SOL    HW233309   2.461   2.290   2.627 -0.8277  0.5164 -1.6934
 7226SOL     OW33310   4.044   1.244   1.334  0.1516 -0.2017  0.0578
 7226SOL    HW133311   4.121   1.193   1.358 -0.3091 -1.0664 -0.2937
 7226SOL    HW233312   4.055   1.256   1.239 -0.6191  1.6712  0.2123
 7227SOL     OW33313   3.210   2.577   6.997  0.5031 -0.3870 -0.4469
 7227SOL    HW133314   3.120   2.588   7.027  0.0615  1.1518 -2.3096
 7227SOL    HW233315   3.243   2.535   7.076  0.3356 -1.8967 -1.1857
 7228SOL     OW33316   2.757   4.628   9.609 -0.0882  0.0791  0.2849
 7228SOL    HW133317   2.759   4.722   9.592 -1.1544 -0.4352 -2.6666
 7228SOL    HW233318   2.673   4.612   9.653  0.9288 -1.2459  1.7147
 7229SOL     OW33319   1.172   2.306  17.595  0.2015 -0.0974 -0.4315
 7229SOL    HW133320   1.224   2.264  17.526  1.2464  1.5028 -0.6183
 7229SOL    HW233321   1.235   2.374  17.618  0.6496 -0.1170 -1.5849
 7230SOL     OW33322   3.602   4.463  13.180 -0.1327  0.1002  0.5654
 7230SOL    HW133323   3.676   4.433  13.232 -1.7678 -1.5050  1.9539
 7230SOL    HW233324   3.544   4.484  13.253 -1.5488  0.1595 -0.5600
 7231SOL     OW33325   1.908   2.784   4.461  0.1217 -0.5216 -0.0686
 7231SOL    HW133326   1.950   2.831   4.533 -0.7529  2.7140 -1.6283
 7231SOL    HW233327   1.851   2.851   4.422  0.9393 -0.5606 -1.3321
 7232SOL     OW33328   2.869   3.242   6.790  0.5157 -0.0087 -0.1690
 7232SOL    HW133329   2.961   3.216   6.793  0.4050 -0.2477  0.9969
 7232SOL    HW233330   2.868   3.289   6.873  2.4891  2.1704 -1.3735
 7233SOL     OW33331   3.951   1.786   7.614 -0.1775  0.2480 -0.1137
 7233SOL    HW133332   3.917   1.870   7.585 -1.9404 -0.4594 -0.1065
 7233SOL    HW233333   4.036   1.805   7.655  0.9744 -1.4398 -1.6844
 7234SOL     OW33334   0.687   0.547   9.132 -0.3355  0.0895  0.5157
 7234SOL    HW133335   0.622   0.481   9.154 -0.8471  0.0692 -1.0776
 7234SOL    HW233336   0.636   0.609   9.080 -1.0228 -0.0570  1.0173
 7235SOL     OW33337   0.999   2.478   6.772  0.3851 -0.4941 -0.5970
 7235SOL    HW133338   1.039   2.418   6.834  1.7945  2.7991  1.7001
 7235SOL    HW233339   0.923   2.426   6.747  0.0996  0.1896 -1.1489
 7236SOL     OW33340   0.382   3.767   6.925  0.4055  0.6204  0.2442
 7236SOL    HW133341   0.378   3.698   6.992 -1.7594  0.5014 -0.0026
 7236SOL    HW233342   0.297   3.811   6.933  0.0408 -0.0862  0.2200
 7237SOL     OW33343   4.196   1.433   6.232  0.2544 -0.2682 -0.5418
 7237SOL    HW133344   4.180   1.359   6.174  0.1146 -0.2646 -0.5079
 7237SOL    HW233345   4.128   1.408   6.294  1.9476  1.8641  2.2093
 7238SOL     OW33346   2.535   4.712   7.375  0.4860  0.8716 -0.2987
 7238SOL    HW133347   2.545   4.724   7.280  2.0368  4.8466  0.3865
 7238SOL    HW233348   2.611   0.017   7.412 -0.7925  2.5311  0.3200
 7239SOL     OW33349   2.821   3.365   2.671  0.4058 -0.0823 -0.3979
 7239SOL    HW133350   2.767   3.420   2.615  1.3750  0.5844 -0.6803
 7239SOL    HW233351   2.760   3.354   2.744 -0.0520  1.8042 -0.5162
 7240SOL     OW33352   3.284   2.846   0.585  0.2909 -0.5058 -0.0657
 7240SOL    HW133353   3.224   2.799   0.643  2.1087  0.3948  2.5043
 7240SOL    HW233354   3.231   2.923   0.567  2.1437  1.0790  1.3652
 7241SOL     OW33355   2.540   0.911   9.091  0.0469  0.4097 -0.0382
 7241SOL    HW133356   2.458   0.905   9.139  1.4065  2.2994  2.5116
 7241SOL    HW233357   2.534   1.001   9.060  1.7002  0.5337  0.0034
 7242SOL     OW33358   1.409   1.370   7.213 -0.2056 -0.2513  0.0094
 7242SOL    HW133359   1.458   1.451   7.199  0.3991 -0.2933  1.8909
 7242SOL    HW233360   1.362   1.404   7.288  1.3599  0.7094  0.5682
 7243SOL     OW33361   0.866   1.813   5.980 -0.1130 -0.4443  0.4183
 7243SOL    HW133362   0.908   1.732   5.954  0.9866 -0.1591  1.3130
 7243SOL    HW233363   0.828   1.797   6.066  0.9405  0.6836  1.0903
 7244SOL     OW33364   0.066   0.210   8.261 -0.4208  0.1364 -0.5718
 7244SOL    HW133365   0.122   0.280   8.294  1.0490 -1.2694 -0.0619
 7244SOL    HW233366   0.109   0.170   8.186 -0.5767  0.3870 -0.7935
 7245SOL     OW33367   4.150   4.077   2.851 -0.1904 -0.0791 -0.5598
 7245SOL    HW133368   4.110   4.004   2.804 -1.0871  0.1052 -0.0829
 7245SOL    HW233369   4.226   4.086   2.794  0.0094 -1.7138 -0.5329
 7246SOL     OW33370   3.958   3.237   8.022 -0.4970 -0.2762  0.3618
 7246SOL    HW133371   3.880   3.246   7.967 -1.1646 -0.1236  1.3302
 7246SOL    HW233372   4.007   3.176   7.967  0.2106 -1.6799  2.5678
 7247SOL     OW33373   4.072   4.225   9.869 -0.2674  0.7178 -0.4065
 7247SOL    HW133374   4.058   4.318   9.888 -0.5648  0.4658  0.6150
 7247SOL    HW233375   3.996   4.194   9.919 -0.9994 -0.3285 -2.1856
 7248SOL     OW33376   1.228   3.232   8.517 -0.3635  0.0706  0.2113
 7248SOL    HW133377   1.136   3.207   8.506 -0.2019  0.1599 -1.4195
 7248SOL    HW233378   1.252   3.172   8.587 -0.4357 -1.1467 -0.8202
 7249SOL     OW33379   0.196   4.527   7.620 -0.5636 -0.0277  0.1128
 7249SOL    HW133380   0.269   4.537   7.682 -1.6879  2.9516  0.9562
 7249SOL    HW233381   0.121   4.576   7.653  0.2880  1.7463 -0.5627
 7250SOL     OW33382   2.850   3.375   3.276 -0.2012 -0.1848 -0.0825
 7250SOL    HW133383   2.773   3.350   3.225  0.0067 -2.1428  0.5714
 7250SOL    HW233384   2.848   3.311   3.347 -0.7891 -1.2980 -1.1095
 7251SOL     OW33385   4.578   2.741   7.728 -0.4173  0.0651  0.3221
 7251SOL    HW133386   4.507   2.759   7.790 -0.3135 -0.1572  0.5062
 7251SOL    HW233387   4.645   2.732   7.796  0.7181  0.5049 -0.7490
 7252SOL     OW33388   4.178   1.190   3.580  0.2558 -0.0236  0.3408
 7252SOL    HW133389   4.123   1.179   3.503 -0.8821 -1.4106  1.3330
 7252SOL    HW233390   4.240   1.118   3.566  2.8610  2.1412  0.7503
 7253SOL     OW33391   2.558   4.125   2.364  0.0632 -0.3487 -0.3059
 7253SOL    HW133392   2.568   4.032   2.343 -1.2002 -0.5140 -0.1392
 7253SOL    HW233393   2.648   4.137   2.396 -1.3838  1.8463  2.9963
 7254SOL     OW33394   0.284   0.225   9.256 -0.2173 -0.1252  0.4097
 7254SOL    HW133395   0.215   0.257   9.197 -1.5775 -1.9612  1.0021
 7254SOL    HW233396   0.301   0.141   9.215  0.5990  0.0786  0.3334
 7255SOL     OW33397   2.020   0.633  14.523 -0.1979 -0.0370  0.2793
 7255SOL    HW133398   2.098   0.619  14.469 -1.0751  0.5967 -1.1469
 7255SOL    HW233399   2.009   0.727  14.506  0.2390 -0.3605 -1.8477
 7256SOL     OW33400   0.589   0.906  12.148 -0.2789 -0.0232 -0.3607
 7256SOL    HW133401   0.604   0.842  12.079 -0.8838 -2.2445  1.5417
 7256SOL    HW233402   0.518   0.874  12.204 -1.5644  0.5206 -1.6783
 7257SOL     OW33403   3.690   0.089   4.751 -0.0079 -0.4360  0.1900
 7257SOL    HW133404   3.618   0.123   4.698  0.2087  0.1393  0.2720
 7257SOL    HW233405   3.666   0.135   4.831  0.4772  0.1106  0.0124
 7258SOL     OW33406   2.782   2.755  15.417 -0.3384 -0.7688 -0.3745
 7258SOL    HW133407   2.809   2.715  15.335 -0.0438 -1.1740 -0.0804
 7258SOL    HW233408   2.714   2.818  15.393 -2.3456 -2.6549  0.2625
 7259SOL     OW33409   3.696   0.662   3.277  0.2948 -0.6336 -0.8530
 7259SOL    HW133410   3.706   0.756   3.260 -1.7551 -0.6397 -2.0308
 7259SOL    HW233411   3.601   0.659   3.275  0.2980 -1.1958 -0.1251
 7260SOL     OW33412   4.554   2.709   3.649  0.9332  0.1012 -0.4727
 7260SOL    HW133413   4.555   2.706   3.745 -0.1189 -1.8288 -0.5158
 7260SOL    HW233414   4.526   2.795   3.620  0.7961  0.3331  0.3584
 7261SOL     OW33415   3.881   4.448   2.642  0.1717  0.0873 -0.3133
 7261SOL    HW133416   3.881   4.449   2.737  0.6307 -1.5855 -0.2874
 7261SOL    HW233417   3.970   4.416   2.624  0.5108  1.8266 -1.7624
 7262SOL     OW33418   0.225   2.038  12.842  0.4218  0.5604 -0.3678
 7262SOL    HW133419   0.254   1.970  12.781 -0.4961 -0.9158  0.8390
 7262SOL    HW233420   0.277   2.112  12.811  0.2623  0.1239 -1.6483
 7263SOL     OW33421   2.290   2.747  14.896  0.6852  0.2625 -0.2428
 7263SOL    HW133422   2.291   2.660  14.858 -2.3017 -0.0503  0.4045
 7263SOL    HW233423   2.364   2.738  14.955  1.7981 -0.7198 -1.7828
 7264SOL     OW33424   1.747   1.270   6.584  0.7776 -0.1831  0.0830
 7264SOL    HW133425   1.767   1.309   6.669  1.2794  0.7835 -0.4716
 7264SOL    HW233426   1.668   1.225   6.612 -0.0907  0.5042 -1.2607
 7265SOL     OW33427   2.664   2.271   8.215  0.2975  0.1241 -0.3783
 7265SOL    HW133428   2.713   2.352   8.206  0.7010 -0.0633  0.0911
 7265SOL    HW233429   2.743   2.218   8.231 -1.7234 -2.7090  0.2983
 7266SOL     OW33430   2.970   1.912   6.275  0.1272  0.4703  0.4455
 7266SOL    HW133431   2.960   1.822   6.245  4.1309  0.5492 -1.1756
 7266SOL    HW233432   2.880   1.936   6.298 -0.0938  0.6975 -0.6647
 7267SOL     OW33433   0.215   2.910  11.318 -0.4197  0.0971 -0.1621
 7267SOL    HW133434   0.191   2.886  11.229  2.5693  0.2145 -0.9944
 7267SOL    HW233435   0.145   2.878  11.375 -0.8624 -0.1461 -0.8435
 7268SOL     OW33436   3.982   3.665   5.515  0.4105  0.2502  0.4638
 7268SOL    HW133437   3.908   3.695   5.566 -0.4020 -1.4316  0.2575
 7268SOL    HW233438   4.047   3.722   5.557  1.0630 -0.2560  0.1358
 7269SOL     OW33439   2.999   3.304  10.885  0.2836 -0.3326 -0.7482
 7269SOL    HW133440   3.015   3.395  10.860 -1.7657  0.3826  0.5017
 7269SOL    HW233441   2.909   3.297  10.853  0.4849  0.4280 -1.4940
 7270SOL     OW33442   0.863   3.118   4.612 -0.5448 -0.1516  0.0701
 7270SOL    HW133443   0.797   3.135   4.679 -0.6633  0.8076 -0.2884
 7270SOL    HW233444   0.854   3.023   4.612  2.4492 -0.4431 -4.0037
 7271SOL     OW33445   2.515   3.865   6.782  0.1764  0.4231  0.2964
 7271SOL    HW133446   2.429   3.830   6.802  0.8873 -0.6449  1.5074
 7271SOL    HW233447   2.541   3.912   6.862 -0.3313  1.8322 -0.3716
 7272SOL     OW33448   4.630   2.743  10.487 -0.1404  0.1167  0.2996
 7272SOL    HW133449   4.723   2.722  10.481 -0.2574 -0.9402  2.1084
 7272SOL    HW233450   4.585   2.668  10.526 -1.2726  0.3483 -0.5571
 7273SOL     OW33451   0.691   0.289  12.290  0.1032  0.1805 -0.7583
 7273SOL    HW133452   0.780   0.303  12.321 -0.3862 -1.3201  1.3772
 7273SOL    HW233453   0.691   0.317  12.199 -0.7002 -1.3877 -1.2428
 7274SOL     OW33454   0.200   0.322   7.119  0.2492 -0.5302  0.4252
 7274SOL    HW133455   0.153   0.381   7.179  1.7572 -0.2765  1.3614
 7274SOL    HW233456   0.277   0.301   7.171  1.6543  0.1087 -1.4253
 7275SOL     OW33457   4.642   0.393  14.289 -0.2456  0.1900  0.3390
 7275SOL    HW133458   4.672   0.459  14.227 -0.8205  0.1894  0.0588
 7275SOL    HW233459   4.725   0.381  14.336  0.2482  0.0784 -0.5679
 7276SOL     OW33460   4.589   4.213   2.444  0.3613 -0.0052 -0.1706
 7276SOL    HW133461   4.684   4.196   2.442  0.2726 -0.5300 -0.0937
 7276SOL    HW233462   4.562   4.191   2.354  0.4364 -1.8015  0.2394
 7277SOL     OW33463   0.264   3.887   2.590 -0.3116 -0.0344 -0.3896
 7277SOL    HW133464   0.324   3.958   2.614 -1.6806  0.6553  1.1067
 7277SOL    HW233465   0.316   3.813   2.621 -1.4601 -1.0726 -0.9374
 7278SOL     OW33466   1.223   4.407  16.394  0.1327 -0.0711  0.2992
 7278SOL    HW133467   1.131   4.395  16.418  0.0848  1.2052  0.7107
 7278SOL    HW233468   1.247   4.474  16.458  1.3150  0.7607 -1.0047
 7279SOL     OW33469   2.760   2.459  14.696 -0.5341  0.5426  0.1223
 7279SOL    HW133470   2.723   2.385  14.744  1.3316 -0.3490  0.1769
 7279SOL    HW233471   2.703   2.535  14.710  0.3714  1.2902 -0.2400
 7280SOL     OW33472   1.922   0.063   6.044 -0.4234  0.1530  0.4636
 7280SOL    HW133473   1.927   4.712   6.073 -2.3727  0.1015  0.6181
 7280SOL    HW233474   1.926   0.099   6.132  4.0784  0.1471  0.3009
 7281SOL     OW33475   3.547   4.209   6.753 -0.2144  0.5006 -0.2001
 7281SOL    HW133476   3.466   4.168   6.782 -0.0418 -0.5080 -1.1275
 7281SOL    HW233477   3.597   4.134   6.719  1.3078  1.4937 -0.1766
 7282SOL     OW33478   0.187   1.593   3.810  0.4011  0.4616 -0.6805
 7282SOL    HW133479   0.094   1.571   3.817 -0.0012  1.7121 -1.9058
 7282SOL    HW233480   0.223   1.540   3.880  0.3863  1.2915 -0.0436
 7283SOL     OW33481   0.447   3.589  17.000 -0.2281 -0.3116  0.2918
 7283SOL    HW133482   0.409   3.608  16.914 -1.4306 -0.3612  0.8178
 7283SOL    HW233483   0.394   3.646  17.056  0.0291  1.8395 -1.6156
 7284SOL     OW33484   1.367   3.030   4.883  0.2147  0.1614  0.3657
 7284SOL    HW133485   1.414   2.969   4.939 -1.1032 -3.1978 -2.1867
 7284SOL    HW233486   1.279   2.994   4.900  0.7754 -1.2688  0.2502
 7285SOL     OW33487   4.561   4.219   2.926  0.3384 -0.0056 -0.7850
 7285SOL    HW133488   4.519   4.199   2.842 -2.7223 -0.8114  0.9098
 7285SOL    HW233489   4.562   4.136   2.975  0.7114  1.1788  1.2036
 7286SOL     OW33490   0.554   3.999   8.740  0.2047 -0.0837  0.2341
 7286SOL    HW133491   0.464   3.996   8.709 -0.1473 -2.7547  1.5068
 7286SOL    HW233492   0.598   3.944   8.676  0.3873 -1.0980  1.2216
 7287SOL     OW33493   0.810   1.487   9.705 -0.0883  0.3316 -0.3033
 7287SOL    HW133494   0.869   1.559   9.730 -0.0837  0.3992 -0.5090
 7287SOL    HW233495   0.860   1.406   9.714 -1.6184 -0.1661  3.8635
 7288SOL     OW33496   0.026   1.985  11.269 -0.5683 -0.0869  0.2717
 7288SOL    HW133497   4.724   2.005  11.352  0.7364  1.2282  0.6240
 7288SOL    HW233498   0.069   2.068  11.248  1.2449 -0.8248  1.1371
 7289SOL     OW33499   0.806   3.080   5.907 -0.0104 -0.9910 -0.1187
 7289SOL    HW133500   0.809   3.143   5.979 -1.4602 -0.9291 -0.1152
 7289SOL    HW233501   0.795   2.995   5.951 -0.0110 -1.3990 -0.9171
 7290SOL     OW33502   2.915   2.304   7.410 -0.1668  0.5553 -0.0641
 7290SOL    HW133503   2.876   2.372   7.464 -1.4658 -0.7882  0.6817
 7290SOL    HW233504   2.982   2.265   7.467  0.7699  2.8048  0.3461
 7291SOL     OW33505   2.224   1.192   1.969 -0.1543  0.2065 -0.1528
 7291SOL    HW133506   2.176   1.185   2.052 -1.5799  0.2312 -0.9650
 7291SOL    HW233507   2.239   1.100   1.948 -1.9922 -0.4702  1.4856
 7292SOL     OW33508   2.019   0.112   3.862 -0.5260  0.3520  0.2827
 7292SOL    HW133509   1.990   0.036   3.812 -0.9031 -0.0899  1.1812
 7292SOL    HW233510   1.942   0.169   3.861 -1.4140 -0.8536  1.7163
 7293SOL     OW33511   3.340   1.981   7.966 -0.0855 -0.8101 -0.1503
 7293SOL    HW133512   3.319   2.046   8.033 -1.3941 -1.9925  0.5931
 7293SOL    HW233513   3.265   1.984   7.907 -0.6549 -0.8181  0.5655
 7294SOL     OW33514   0.493   1.004  11.258 -0.6164 -0.5181  0.1053
 7294SOL    HW133515   0.408   0.961  11.251 -1.2562  0.4447  1.8706
 7294SOL    HW233516   0.481   1.087  11.212  1.3873 -1.0462 -1.3561
 7295SOL     OW33517   0.117   1.264   4.694  0.1523 -0.0384  0.2157
 7295SOL    HW133518   0.179   1.223   4.633 -0.2477  0.4010 -0.4940
 7295SOL    HW233519   0.133   1.354   4.663 -0.6695  0.4069  1.1157
 7296SOL     OW33520   1.524   0.005   8.276 -0.4854 -0.2268  0.4548
 7296SOL    HW133521   1.581   4.702   8.212 -1.5118 -1.5154  0.4026
 7296SOL    HW233522   1.585   0.023   8.348  0.4391  2.1184 -0.9219
 7297SOL     OW33523   2.409   3.031   8.420  0.6528  0.6292 -0.3489
 7297SOL    HW133524   2.351   3.100   8.451 -0.1357 -0.1749 -0.0652
 7297SOL    HW233525   2.370   2.959   8.469  0.1280 -0.4518 -2.3621
 7298SOL     OW33526   1.215   0.009   6.611  0.4129 -0.2343 -0.3872
 7298SOL    HW133527   1.274   4.695   6.664  1.1835 -0.3634 -1.3670
 7298SOL    HW233528   1.167   4.682   6.564 -1.2004 -0.1707  1.1714
 7299SOL     OW33529   1.323   2.964   0.037 -0.2340 -0.1586  0.1539
 7299SOL    HW133530   1.264   3.002  17.730  0.4540  0.1678 -0.2824
 7299SOL    HW233531   1.300   2.871   0.032  0.6808 -0.4190  0.6859
 7300SOL     OW33532   2.220   4.510   8.754 -0.5655  0.3503  0.3627
 7300SOL    HW133533   2.275   4.516   8.832 -2.8260  0.3800  1.9752
 7300SOL    HW233534   2.265   4.436   8.713 -3.3633 -2.2632  1.8963
 7301SOL     OW33535   3.871   4.041   6.986  0.5713  0.4086 -0.3937
 7301SOL    HW133536   3.951   3.992   6.965 -0.5005 -0.3035 -2.7658
 7301SOL    HW233537   3.894   4.134   6.978  0.6818  0.3655 -0.6006
 7302SOL     OW33538   1.920   1.493   5.981 -0.6514 -0.2781  0.7061
 7302SOL    HW133539   1.872   1.450   5.909 -0.2350  3.2665 -1.6933
 7302SOL    HW233540   2.004   1.488   5.936 -0.3185 -1.0987  1.4192
 7303SOL     OW33541   2.079   3.842   9.436  0.0667  0.4534 -0.3143
 7303SOL    HW133542   2.096   3.749   9.427  1.0723  0.6497 -0.4544
 7303SOL    HW233543   2.157   3.880   9.393  0.5940 -1.5838 -1.1442
 7304SOL     OW33544   1.932   1.261   6.839  0.0376 -0.9284  0.0832
 7304SOL    HW133545   1.984   1.240   6.916  0.8582  2.9500  0.5556
 7304SOL    HW233546   1.895   1.346   6.864 -0.1751  0.0594 -3.5537
 7305SOL     OW33547   0.362   1.888   6.243 -0.0312  0.4007  0.0257
 7305SOL    HW133548   0.363   1.802   6.201  0.2212  0.3028  0.2326
 7305SOL    HW233549   0.294   1.878   6.310 -0.2738  4.5004  0.3657
 7306SOL     OW33550   4.707   1.522   8.176  0.2269  0.8545  0.1474
 7306SOL    HW133551   4.696   1.561   8.089 -1.8399  0.0479  0.0452
 7306SOL    HW233552   4.621   1.483   8.191  0.9679 -1.2781 -1.3043
 7307SOL     OW33553   3.718   1.866   3.668 -0.0117  0.0181  0.4437
 7307SOL    HW133554   3.649   1.852   3.732 -0.2337  0.5518  0.3239
 7307SOL    HW233555   3.744   1.953   3.700 -0.3897  0.5516 -0.6917
 7308SOL     OW33556   0.029   1.139   9.033 -0.3917 -0.2868 -0.9416
 7308SOL    HW133557   0.069   1.115   9.117 -0.2511 -1.6780 -1.4132
 7308SOL    HW233558   4.688   1.184   9.056  0.5786  0.7000  0.5955
 7309SOL     OW33559   4.254   0.822   7.261 -0.0906 -0.2593 -0.0385
 7309SOL    HW133560   4.189   0.872   7.309  2.1902  1.2936  1.4314
 7309SOL    HW233561   4.198   0.768   7.205  0.2798  0.0369 -0.6925
 7310SOL     OW33562   3.797   3.226   1.086  0.2740 -0.3917  0.0388
 7310SOL    HW133563   3.781   3.135   1.064 -1.5874 -0.0532 -0.0117
 7310SOL    HW233564   3.870   3.214   1.147 -1.3688 -1.8188  1.6977
 7311SOL     OW33565   2.428   4.649   3.513 -0.3539  0.9013 -0.2904
 7311SOL    HW133566   2.393   4.626   3.600 -0.0189  2.4846  0.2588
 7311SOL    HW233567   2.413   0.003   3.510 -2.2193  0.6533  0.9690
 7312SOL     OW33568   0.286   4.469   8.961 -0.8252 -0.6503 -0.1612
 7312SOL    HW133569   0.297   4.524   8.884  0.5266  0.7058  0.9978
 7312SOL    HW233570   0.299   4.379   8.932 -2.9243 -1.2477  0.7554
 7313SOL     OW33571   1.727   3.098   1.360  0.6024 -0.6873  0.0800
 7313SOL    HW133572   1.634   3.083   1.378  0.6012 -0.2270  0.4612
 7313SOL    HW233573   1.762   3.014   1.388  0.4102 -1.3978 -1.8210
 7314SOL     OW33574   4.474   3.960   9.222 -0.2933 -0.3299  0.2143
 7314SOL    HW133575   4.466   4.003   9.307  1.4194  1.2615 -0.4335
 7314SOL    HW233576   4.541   3.894   9.243  0.5162  0.5379  0.3481
 7315SOL     OW33577   0.793   1.745  11.695 -0.1139  0.1207 -0.1367
 7315SOL    HW133578   0.841   1.766  11.614 -0.6464 -1.0752 -0.7629
 7315SOL    HW233579   0.720   1.687  11.676  0.2171  0.2454 -1.7980
 7316SOL     OW33580   4.042   2.441  17.193 -0.6774 -0.6202  0.5184
 7316SOL    HW133581   4.000   2.491  17.263 -0.5039 -0.1858  0.3207
 7316SOL    HW233582   4.130   2.424  17.228 -0.0053 -3.4459 -2.5896
 7317SOL     OW33583   2.564   4.219   0.162  0.1649 -0.1077 -0.1488
 7317SOL    HW133584   2.615   4.146   0.196  0.8508  0.3300 -0.2544
 7317SOL    HW233585   2.616   4.239   0.085  0.4014  0.6693  0.2128
 7318SOL     OW33586   1.431   2.788   7.936 -0.0912 -0.0776  0.7204
 7318SOL    HW133587   1.380   2.818   8.011 -1.1304 -0.8567  0.3125
 7318SOL    HW233588   1.441   2.876   7.900  1.7788 -0.1860  0.9505
 7319SOL     OW33589   2.083   1.822  13.845  0.1047  0.1378  0.0384
 7319SOL    HW133590   2.145   1.764  13.887 -1.5829 -0.6155  1.4853
 7319SOL    HW233591   2.130   1.895  13.805  0.4368 -0.5691 -0.8625
 7320SOL     OW33592   2.321   1.879   7.663 -0.1276 -0.3910 -0.6475
 7320SOL    HW133593   2.409   1.876   7.700 -0.5020  1.7413  0.4329
 7320SOL    HW233594   2.300   1.962   7.620  0.9633  1.1329  1.7468
 7321SOL     OW33595   4.364   2.548   5.658 -0.5950  0.0275 -0.0905
 7321SOL    HW133596   4.455   2.532   5.682 -1.5379 -1.1868  2.6418
 7321SOL    HW233597   4.382   2.591   5.575  0.4362  1.2776  0.7738
 7322SOL     OW33598   1.927   1.595   5.286  0.5483 -0.0206  0.0621
 7322SOL    HW133599   1.964   1.509   5.266  1.1389  0.0441  0.8771
 7322SOL    HW233600   2.000   1.653   5.266  0.3470 -0.5105 -2.1081
 7323SOL     OW33601   1.681   4.447   1.155  0.0403  0.6747  0.6331
 7323SOL    HW133602   1.769   4.413   1.139 -0.7359 -0.7487 -0.5577
 7323SOL    HW233603   1.634   4.431   1.073  2.0132 -0.2878 -0.2795
 7324SOL     OW33604   2.883   4.436   6.885 -0.4710  0.6847  0.0124
 7324SOL    HW133605   2.890   4.378   6.809 -1.0354  0.0319  0.4585
 7324SOL    HW233606   2.975   4.444   6.911  0.1752 -2.1351 -1.3358
 7325SOL     OW33607   3.619   3.646  14.962  0.0543  0.0843  0.5020
 7325SOL    HW133608   3.615   3.726  15.015 -1.6750  0.8097 -0.7431
 7325SOL    HW233609   3.636   3.687  14.877 -0.7387  4.9307  2.6453
 7326SOL     OW33610   0.993   2.640   7.187 -0.0201 -0.2020  0.7504
 7326SOL    HW133611   1.071   2.636   7.132 -0.6093 -0.1520 -0.0964
 7326SOL    HW233612   0.935   2.702   7.143 -1.0353 -0.4700  1.7071
 7327SOL     OW33613   3.008   0.852   8.927 -0.3149  0.0582  0.1020
 7327SOL    HW133614   2.914   0.837   8.914  0.1123 -0.5682 -2.1737
 7327SOL    HW233615   3.017   0.784   8.994  0.2625  0.3149  0.2811
 7328SOL     OW33616   4.568   4.346   0.582  0.2808 -0.2643 -0.2189
 7328SOL    HW133617   4.538   4.323   0.671 -1.7540 -1.7410 -1.2733
 7328SOL    HW233618   4.520   4.428   0.573  0.9663  0.2163  0.4961
 7329SOL     OW33619   4.599   2.335   0.524  0.2643 -0.2929 -0.0967
 7329SOL    HW133620   4.626   2.355   0.435  2.6032 -0.3753  0.5686
 7329SOL    HW233621   4.615   2.240   0.525 -3.6222 -0.9414  3.0535
 7330SOL     OW33622   0.491   4.663  16.982 -0.2294 -0.2628  0.5852
 7330SOL    HW133623   0.503   0.015  16.955 -0.5699 -0.1169  0.9453
 7330SOL    HW233624   0.537   4.662  17.066  1.8334  0.6466 -0.5222
 7331SOL     OW33625   1.572   3.061  16.090 -0.6193 -0.9984 -0.1121
 7331SOL    HW133626   1.577   2.970  16.121 -1.1515 -0.8072  0.5308
 7331SOL    HW233627   1.580   3.031  15.999  0.1937  0.7975 -0.6341
 7332SOL     OW33628   4.682   1.402   7.270 -0.6499  0.7021  0.1721
 7332SOL    HW133629   4.687   1.488   7.312  0.8741  0.4616  0.4763
 7332SOL    HW233630   4.713   1.343   7.338  0.6712  0.4002 -0.7087
 7333SOL     OW33631   3.002   3.919   2.350 -0.5377  0.1243  0.2730
 7333SOL    HW133632   3.011   3.824   2.358  0.0830  0.1177 -0.5778
 7333SOL    HW233633   3.090   3.957   2.348  0.2675 -1.7622 -0.1286
 7334SOL     OW33634   3.529   2.373   6.624  0.4590  0.1799  0.6887
 7334SOL    HW133635   3.445   2.394   6.664  0.1203 -0.1964  0.1778
 7334SOL    HW233636   3.583   2.447   6.651  0.3029  0.1035  1.2204
 7335SOL     OW33637   4.512   4.554  14.507 -0.2957 -0.6011 -0.1018
 7335SOL    HW133638   4.489   4.647  14.505 -1.4593 -0.8141  2.7700
 7335SOL    HW233639   4.527   4.535  14.600 -0.0095 -0.4088 -0.1065
 7336SOL     OW33640   2.826   0.414  11.620 -0.0201  0.2082 -0.6361
 7336SOL    HW133641   2.771   0.373  11.553 -0.5490 -2.8181  1.6261
 7336SOL    HW233642   2.767   0.448  11.687 -0.4430 -1.9320  0.0885
 7337SOL     OW33643   4.283   2.863   3.733 -0.3741 -0.0653 -0.0584
 7337SOL    HW133644   4.343   2.887   3.803 -0.0436  3.1705 -1.4142
 7337SOL    HW233645   4.201   2.855   3.781  1.0436 -0.9825  2.1492
 7338SOL     OW33646   3.202   0.502   7.132  0.0796 -0.4319  0.2198
 7338SOL    HW133647   3.182   0.551   7.051 -0.2861 -0.6212  0.1973
 7338SOL    HW233648   3.201   0.412   7.100 -0.9267  0.0256 -1.0382
 7339SOL     OW33649   0.157   4.187   5.786 -0.0852  0.5298 -0.2702
 7339SOL    HW133650   0.122   4.276   5.787  1.5091  1.1693 -0.8114
 7339SOL    HW233651   0.238   4.203   5.737 -0.9555 -0.7058 -2.1281
 7340SOL     OW33652   2.204   1.482   5.937  0.2277  0.2513  0.2972
 7340SOL    HW133653   2.237   1.394   5.922  1.5416  0.6179  0.9925
 7340SOL    HW233654   2.191   1.527   5.854  0.1972 -0.6591 -0.1788
 7341SOL     OW33655   1.866   3.122   5.720 -0.3912 -0.0816 -0.5410
 7341SOL    HW133656   1.950   3.139   5.763  0.2184 -1.7851 -1.0686
 7341SOL    HW233657   1.815   3.194   5.757 -0.0627  0.0679 -0.3778
 7342SOL     OW33658   3.598   4.224   5.239 -0.0455 -0.8221  0.0257
 7342SOL    HW133659   3.632   4.283   5.172  1.0318 -0.3448  0.9970
 7342SOL    HW233660   3.600   4.286   5.312 -1.5090 -0.2617 -0.4100
 7343SOL     OW33661   0.441   0.818   7.055 -0.3863  0.0931  0.2623
 7343SOL    HW133662   0.472   0.736   7.093  2.2344  0.6799 -0.6330
 7343SOL    HW233663   0.349   0.820   7.082 -0.8246 -2.6505 -0.9998
 7344SOL     OW33664   3.933   3.713   9.028  0.0309  0.0133  0.5632
 7344SOL    HW133665   3.861   3.730   9.088  0.1798 -1.0800  1.0568
 7344SOL    HW233666   4.002   3.765   9.070  0.0357  1.2859 -1.0088
 7345SOL     OW33667   4.266   0.607   8.292  0.5862 -0.1340  0.4085
 7345SOL    HW133668   4.238   0.672   8.227 -0.2914 -1.5906 -0.6640
 7345SOL    HW233669   4.199   0.540   8.281 -0.0053  0.9810 -2.9738
 7346SOL     OW33670   4.436   0.196   0.317  0.4196 -0.4138 -0.1818
 7346SOL    HW133671   4.530   0.196   0.334  0.3111 -2.3301  0.4343
 7346SOL    HW233672   4.391   0.151   0.388 -0.3642  2.2123  0.9840
 7347SOL     OW33673   0.464   4.577   4.545 -0.1247 -0.1746  0.2083
 7347SOL    HW133674   0.529   4.645   4.532 -0.1812 -0.3582 -1.0380
 7347SOL    HW233675   0.481   4.525   4.466  3.2709  0.9134  0.2171
 7348SOL     OW33676   2.212   4.252   3.840 -0.0049  0.5231  0.6932
 7348SOL    HW133677   2.177   4.163   3.836 -0.0569  0.5406  0.7628
 7348SOL    HW233678   2.157   4.297   3.777  1.9505 -1.1959 -2.2583
 7349SOL     OW33679   3.819   2.759   0.583  0.2902  0.6707  0.4422
 7349SOL    HW133680   3.725   2.769   0.600 -0.0653 -1.5296 -0.2603
 7349SOL    HW233681   3.853   2.730   0.667  1.3500 -1.4568 -0.7220
 7350SOL     OW33682   0.086   1.750   0.226  0.5265 -0.6609  0.1202
 7350SOL    HW133683   0.064   1.659   0.246 -0.2147 -0.9989 -2.1414
 7350SOL    HW233684   0.001   1.793   0.235  0.7803 -0.9802  4.0049
 7351SOL     OW33685   4.516   0.297   5.120  0.1528 -0.3417 -0.1951
 7351SOL    HW133686   4.432   0.314   5.078  0.1532  1.8424  0.6574
 7351SOL    HW233687   4.569   0.306   5.042  0.8545 -0.9467  0.2155
 7352SOL     OW33688   1.744   1.483  14.177 -0.3253  0.1457 -0.3733
 7352SOL    HW133689   1.827   1.527  14.160 -1.4586  1.7361 -1.7650
 7352SOL    HW233690   1.692   1.501  14.098  1.2458  0.8225 -1.2412
 7353SOL     OW33691   1.857   2.055  11.056 -0.3882  0.1242  0.0556
 7353SOL    HW133692   1.885   2.023  10.970 -1.4813  1.0891 -0.6640
 7353SOL    HW233693   1.774   2.008  11.071  0.8912 -2.4911 -1.0149
 7354SOL     OW33694   4.731   4.317  15.351  0.6381 -0.2404 -0.4398
 7354SOL    HW133695   4.699   4.358  15.431 -1.3204 -3.3940  0.3586
 7354SOL    HW233696   4.656   4.335  15.294  1.0102  1.1380 -0.5025
 7355SOL     OW33697   0.960   1.538   2.738 -0.6842 -0.0758  0.1852
 7355SOL    HW133698   0.945   1.603   2.807 -0.1939  1.0418 -0.7676
 7355SOL    HW233699   0.999   1.590   2.668 -2.6972 -0.4942 -1.2373
 7356SOL     OW33700   3.068   2.463   6.379  0.1952  0.0289  0.2618
 7356SOL    HW133701   3.059   2.371   6.402 -0.0908  0.1275  0.5493
 7356SOL    HW233702   3.159   2.473   6.351  0.8110  1.3616  2.7178
 7357SOL     OW33703   4.245   3.866   6.480  0.5034 -0.0817  0.3760
 7357SOL    HW133704   4.295   3.869   6.561  1.5970  0.1520 -0.3179
 7357SOL    HW233705   4.237   3.959   6.458 -1.1180 -0.3911 -0.4112
 7358SOL     OW33706   1.823   4.655   2.436  0.0451  0.0707  0.2946
 7358SOL    HW133707   1.816   0.002   2.475  1.3473 -0.0054  0.7130
 7358SOL    HW233708   1.891   4.676   2.371  0.6968  0.2468  1.0360
 7359SOL     OW33709   3.188   0.085   6.472  0.7102  0.3815  0.8426
 7359SOL    HW133710   3.281   0.073   6.488  0.9554  1.7656  0.4316
 7359SOL    HW233711   3.181   0.146   6.399 -1.7046 -0.2812  0.4966
 7360SOL     OW33712   3.477   0.093   6.591 -0.0232  0.3948 -0.8823
 7360SOL    HW133713   3.475   0.189   6.591  0.2560  0.4012 -1.7102
 7360SOL    HW233714   3.573   0.085   6.586  0.0082  0.0505  0.3318
 7361SOL     OW33715   1.947   1.037   4.797 -0.4456  0.0084 -0.3266
 7361SOL    HW133716   1.964   0.943   4.801 -1.1079 -0.1298 -0.8336
 7361SOL    HW233717   1.890   1.040   4.720 -0.0334 -0.7509 -0.6680
 7362SOL     OW33718   2.860   4.695   8.597 -0.4417  0.1414  0.0278
 7362SOL    HW133719   2.853   4.604   8.626 -2.2377  0.3376  0.2544
 7362SOL    HW233720   2.831   4.736   8.678 -1.4500  0.4526 -0.4840
 7363SOL     OW33721   1.372   0.587   6.356 -0.3600  0.2169 -0.4428
 7363SOL    HW133722   1.382   0.533   6.278 -0.9417  0.1270 -0.4572
 7363SOL    HW233723   1.305   0.530   6.394  0.4890 -0.2076  0.4223
 7364SOL     OW33724   3.202   4.496   6.649 -0.1684 -0.4052 -0.1459
 7364SOL    HW133725   3.228   4.452   6.729  2.0767 -0.5281 -0.9450
 7364SOL    HW233726   3.284   4.504   6.600  1.5051  0.0743  2.7580
 7365SOL     OW33727   3.393   1.474  13.748  0.3440  0.3067 -0.0188
 7365SOL    HW133728   3.404   1.418  13.824  0.3463  0.9211  0.4310
 7365SOL    HW233729   3.473   1.527  13.753  1.1746 -0.8550 -0.7751
 7366SOL     OW33730   1.667   1.150   7.618  0.0323 -0.3330 -0.4045
 7366SOL    HW133731   1.618   1.079   7.660 -0.5847  0.3504  0.0204
 7366SOL    HW233732   1.696   1.109   7.537  0.5849  0.5146 -0.6422
 7367SOL     OW33733   3.766   3.784   4.342  0.1560  0.5611 -0.4463
 7367SOL    HW133734   3.689   3.822   4.383 -0.9412  0.5969 -2.5376
 7367SOL    HW233735   3.821   3.755   4.415  0.3805 -0.4713 -1.0291
 7368SOL     OW33736   0.171   1.096  17.117 -0.1150 -0.1396 -0.0948
 7368SOL    HW133737   0.253   1.139  17.138  0.2483 -1.2650  0.7598
 7368SOL    HW233738   0.144   1.142  17.037 -0.9961 -0.1672  0.1860
 7369SOL     OW33739   0.360   2.663   4.817  0.1295 -0.2527 -0.0265
 7369SOL    HW133740   0.379   2.597   4.885 -0.0787 -0.4386 -0.1484
 7369SOL    HW233741   0.299   2.617   4.759  0.3064  1.3206 -1.4544
 7370SOL     OW33742   0.323   4.306   0.236 -0.4796 -0.3798  0.1322
 7370SOL    HW133743   0.273   4.239   0.188 -2.9999 -0.2633  2.6192
 7370SOL    HW233744   0.303   4.269   0.322 -2.2227  0.3469  0.0216
 7371SOL     OW33745   2.730   3.943   0.794 -0.1274 -0.7014  0.3104
 7371SOL    HW133746   2.638   3.934   0.816 -0.5814 -0.4369 -1.4325
 7371SOL    HW233747   2.747   3.922   0.701  0.9760 -1.5683  0.6991
 7372SOL     OW33748   4.036   1.219   2.399 -0.4111 -0.1540  0.5938
 7372SOL    HW133749   3.982   1.201   2.322  2.1785  0.9087 -1.4794
 7372SOL    HW233750   4.102   1.275   2.358 -0.8561  1.3793  1.9710
 7373SOL     OW33751   3.295   1.041   4.035 -0.1078  0.3111 -0.1816
 7373SOL    HW133752   3.295   0.991   3.953 -0.9526  0.5864 -0.3496
 7373SOL    HW233753   3.315   0.976   4.103 -1.9121  1.5877  1.5556
 7374SOL     OW33754   0.748   3.193   9.531 -0.0988 -0.0071  0.2048
 7374SOL    HW133755   0.792   3.141   9.463  0.7425  2.1826 -0.9303
 7374SOL    HW233756   0.656   3.176   9.512 -0.3103  0.4727  0.8178
 7375SOL     OW33757   3.732   3.984   7.215  0.5810 -0.0246  0.1117
 7375SOL    HW133758   3.799   4.040   7.255  0.7452  0.1851 -0.4570
 7375SOL    HW233759   3.756   3.972   7.123 -1.8120 -3.2856 -0.0704
 7376SOL     OW33760   0.179   0.548  17.426 -0.3807  0.3507 -0.0402
 7376SOL    HW133761   0.153   0.549  17.334 -1.0432  0.0513  0.1497
 7376SOL    HW233762   0.107   0.597  17.465 -0.8015  0.8444 -1.4366
 7377SOL     OW33763   0.098   3.889  17.158  0.9490 -0.2248  0.2530
 7377SOL    HW133764   0.049   3.971  17.169 -3.2565 -2.6168 -0.6235
 7377SOL    HW233765   0.030   3.831  17.123  0.1045  1.7669 -1.4786
 7378SOL     OW33766   2.997   1.293  11.777 -0.4613  0.4179  0.4109
 7378SOL    HW133767   3.056   1.278  11.703 -2.1711 -1.0946 -0.6394
 7378SOL    HW233768   2.927   1.231  11.757  0.3898 -0.2211 -0.6006
 7379SOL     OW33769   3.407   3.049   8.586  0.0983  0.1556 -0.6262
 7379SOL    HW133770   3.460   3.118   8.625  0.1243 -1.3378  1.9651
 7379SOL    HW233771   3.339   3.104   8.547 -1.2481 -1.8990 -1.2199
 7380SOL     OW33772   4.584   4.149   5.287  0.1113  0.2593 -0.2161
 7380SOL    HW133773   4.664   4.097   5.296  0.8503  1.5645  0.6133
 7380SOL    HW233774   4.607   4.200   5.209 -2.9289 -0.7986 -1.8071
 7381SOL     OW33775   4.034   0.039   3.975  0.1298 -0.4081  0.0645
 7381SOL    HW133776   4.007   4.711   4.037  2.1117 -0.6187  0.7091
 7381SOL    HW233777   4.106   0.000   3.926  0.0013 -1.3518  0.6258
 7382SOL     OW33778   1.459   0.258   5.440 -0.1547  1.0439 -0.1289
 7382SOL    HW133779   1.381   0.273   5.494 -0.9639  2.0361 -1.5633
 7382SOL    HW233780   1.525   0.263   5.509 -0.2059 -1.3959  0.0969
 7383SOL     OW33781   2.435   2.218  10.437  0.1178  0.2438  0.0985
 7383SOL    HW133782   2.411   2.202  10.529  0.4803  0.4029  0.2192
 7383SOL    HW233783   2.473   2.305  10.448 -1.0031  0.7648 -0.2355
 7384SOL     OW33784   2.798   3.144   4.933 -0.1883  0.2290 -0.1182
 7384SOL    HW133785   2.777   3.126   4.842 -2.5038 -0.8021  0.6213
 7384SOL    HW233786   2.835   3.233   4.928 -0.6292  0.4125 -0.1137
 7385SOL     OW33787   1.076   4.518   9.281 -0.1380 -0.1985  0.0283
 7385SOL    HW133788   1.165   4.510   9.315  0.1753 -0.7923 -0.9352
 7385SOL    HW233789   1.039   4.439   9.319 -1.9558 -0.2923 -1.9589
 7386SOL     OW33790   3.961   1.991   2.769  0.5112 -0.0660  0.6411
 7386SOL    HW133791   3.918   1.928   2.712  0.1174  0.6313  0.1766
 7386SOL    HW233792   4.027   2.028   2.710  0.8290 -1.0977  0.3544
 7387SOL     OW33793   2.479   0.912   7.984 -0.3870 -0.1219  0.1543
 7387SOL    HW133794   2.566   0.891   8.018  0.9426  2.9975 -1.3914
 7387SOL    HW233795   2.494   0.993   7.936  0.2781 -0.1112  0.3919
 7388SOL     OW33796   4.178   2.239   8.223  0.2221 -0.4150  0.1938
 7388SOL    HW133797   4.262   2.208   8.258 -0.2592 -0.9364  0.8883
 7388SOL    HW233798   4.172   2.180   8.148 -1.2688  0.1848 -0.1514
 7389SOL     OW33799   1.577   4.408  10.688  0.2706 -0.4180  0.3657
 7389SOL    HW133800   1.550   4.479  10.631 -0.9227 -1.4917 -0.4157
 7389SOL    HW233801   1.673   4.413  10.681  0.3701 -3.4071 -0.7118
 7390SOL     OW33802   1.588   4.174   8.808  0.3052 -0.2559  0.3532
 7390SOL    HW133803   1.660   4.236   8.817 -2.4425  2.5616  2.6942
 7390SOL    HW233804   1.532   4.207   8.738  0.7233  1.8788  1.0278
 7391SOL     OW33805   2.442   2.076   2.430  0.3703 -0.1707  0.0998
 7391SOL    HW133806   2.366   2.132   2.418  1.3030  0.2977 -3.5831
 7391SOL    HW233807   2.512   2.139   2.410  2.2770 -2.5162 -0.7009
 7392SOL     OW33808   2.752   1.218  11.383 -0.2290 -0.8854  0.0723
 7392SOL    HW133809   2.701   1.196  11.305  0.1945 -0.5448 -0.2973
 7392SOL    HW233810   2.698   1.285  11.425  1.0716 -0.1274  0.5464
 7393SOL     OW33811   4.119   4.329   0.169  0.4705 -0.1436 -0.0809
 7393SOL    HW133812   4.029   4.330   0.136  0.3892  2.5234  0.2286
 7393SOL    HW233813   4.130   4.414   0.211  0.9093 -0.5275  0.5764
 7394SOL     OW33814   4.434   1.595   2.803 -0.2757 -0.7107 -0.0952
 7394SOL    HW133815   4.481   1.569   2.882  0.8574 -1.0949 -0.8989
 7394SOL    HW233816   4.474   1.680   2.788 -1.8457  0.0806  0.1193
 7395SOL     OW33817   2.170   0.192   4.911  0.2870  0.0625  0.1643
 7395SOL    HW133818   2.103   0.236   4.858  0.8582 -0.9290 -1.3658
 7395SOL    HW233819   2.123   0.191   4.995  0.8448 -0.7482  0.4650
 7396SOL     OW33820   1.482   2.939   5.139  0.7371  0.6502  0.2634
 7396SOL    HW133821   1.494   3.027   5.173 -1.1536  0.0284  2.4679
 7396SOL    HW233822   1.572   2.904   5.137  0.3122 -0.4172 -0.0794
 7397SOL     OW33823   0.292   4.546   2.444  0.6134 -0.0621 -0.2760
 7397SOL    HW133824   0.317   4.636   2.422 -2.6257  1.1899  1.1928
 7397SOL    HW233825   0.369   4.506   2.404 -0.8857 -0.7372 -2.5460
 7398SOL     OW33826   4.558   2.216   6.178  0.0075  0.1867 -0.0048
 7398SOL    HW133827   4.578   2.129   6.144  0.1769 -0.4265  1.6296
 7398SOL    HW233828   4.636   2.231   6.231  1.2308  0.8368 -2.0030
 7399SOL     OW33829   4.269   2.341  12.912 -0.1223  0.3330  0.1137
 7399SOL    HW133830   4.217   2.261  12.910 -0.6284  0.6243  1.9746
 7399SOL    HW233831   4.342   2.311  12.857  0.0291 -0.6830  0.8787
 7400SOL     OW33832   2.522   4.606   0.432 -0.2279  0.3264  0.0100
 7400SOL    HW133833   2.605   4.560   0.421 -0.1438  0.7425 -1.1055
 7400SOL    HW233834   2.480   4.617   0.347 -0.5611 -2.0036 -0.1205
 7401SOL     OW33835   1.398   2.876   9.131 -0.3989  0.3190  0.1327
 7401SOL    HW133836   1.320   2.864   9.076  0.3422  0.9891 -1.0598
 7401SOL    HW233837   1.357   2.886   9.216 -1.1759 -0.1038 -0.1887
 7402SOL     OW33838   3.439   1.551   3.111 -0.2327 -0.0918 -0.6274
 7402SOL    HW133839   3.496   1.597   3.050  0.6178 -1.6401 -1.0038
 7402SOL    HW233840   3.481   1.465   3.105 -0.6397 -0.2731 -0.8782
 7403SOL     OW33841   1.115   2.074   5.696 -0.4635  0.2079  0.3641
 7403SOL    HW133842   1.077   2.057   5.781 -0.6278 -3.7717 -0.5199
 7403SOL    HW233843   1.121   2.169   5.686 -1.1364  0.1888 -0.3100
 7404SOL     OW33844   3.559   4.644   8.115  0.3068  0.4133 -0.1596
 7404SOL    HW133845   3.473   4.622   8.080 -0.3193  1.2440  0.8190
 7404SOL    HW233846   3.563   0.000   8.118 -0.3519  0.4388 -0.1291
 7405SOL     OW33847   3.550   3.104  17.755  0.3463  0.6444 -0.0872
 7405SOL    HW133848   3.598   3.022   0.012 -2.2595 -0.5360  1.8897
 7405SOL    HW233849   3.458   3.079  17.749  1.4779 -3.3079 -1.0001
 7406SOL     OW33850   1.020   2.074   2.858  0.4197  0.2577  0.2399
 7406SOL    HW133851   1.011   1.989   2.815  0.7280  0.2998  0.0935
 7406SOL    HW233852   0.964   2.125   2.800 -0.6961  2.6668  3.4164
 7407SOL     OW33853   0.167   1.092   5.600  0.3461 -0.1605 -0.0987
 7407SOL    HW133854   0.191   1.109   5.509 -1.5403  0.0960 -0.5573
 7407SOL    HW233855   0.151   0.998   5.593 -2.5440  0.5764 -3.3470
 7408SOL     OW33856   0.650   1.235   7.419 -0.4011 -0.2073 -0.1176
 7408SOL    HW133857   0.563   1.252   7.383 -0.8053 -0.3666  0.8020
 7408SOL    HW233858   0.659   1.141   7.403  1.6638  0.3093 -2.1122
 7409SOL     OW33859   0.909   3.582   6.278  0.2865  0.4235 -0.1807
 7409SOL    HW133860   0.903   3.632   6.359  0.9420  0.9407 -0.4503
 7409SOL    HW233861   0.831   3.528   6.289 -0.5847  1.6198 -0.6230
 7410SOL     OW33862   0.306   0.460   1.729 -0.1494 -0.0079 -0.1185
 7410SOL    HW133863   0.370   0.530   1.713 -2.1914  1.8499 -0.2244
 7410SOL    HW233864   0.236   0.512   1.770 -0.2942 -1.1292  1.0590
 7411SOL     OW33865   0.188   0.980  11.538 -0.0115 -0.1541  0.3771
 7411SOL    HW133866   0.196   1.073  11.520  0.4940 -0.3615 -0.4517
 7411SOL    HW233867   0.200   0.953  11.447 -1.0893  0.9996 -0.1095
 7412SOL     OW33868   4.559   0.883   5.673 -1.0701 -0.3273  0.2172
 7412SOL    HW133869   4.571   0.950   5.606 -2.2530  0.5859  0.9175
 7412SOL    HW233870   4.607   0.916   5.749 -0.9690 -1.0635  0.4761
 7413SOL     OW33871   0.065   1.061   9.304 -0.1497 -0.2919 -0.3570
 7413SOL    HW133872   0.040   1.151   9.324  1.1687  0.0568 -0.2610
 7413SOL    HW233873   0.118   1.040   9.380 -1.4005 -0.8180  0.3616
 7414SOL     OW33874   4.695   0.380  12.713  0.1476  0.1403 -0.2264
 7414SOL    HW133875   4.696   0.453  12.651  1.4271 -0.0843 -0.4745
 7414SOL    HW233876   4.711   0.439  12.786  2.3133 -1.0260  0.2374
 7415SOL     OW33877   2.395   2.134   9.088  0.7077  0.1815 -0.0361
 7415SOL    HW133878   2.430   2.176   9.009  0.2055  2.4112  0.9383
 7415SOL    HW233879   2.303   2.157   9.078  0.3620 -1.2846 -0.2385
 7416SOL     OW33880   0.988   3.661   2.566  0.6350 -0.0424 -0.1144
 7416SOL    HW133881   1.055   3.645   2.500 -0.6164 -0.5174 -1.2867
 7416SOL    HW233882   1.006   3.598   2.635  2.6099 -0.8262 -1.3327
 7417SOL     OW33883   0.521   3.290   2.932 -0.6063 -0.2339  0.3901
 7417SOL    HW133884   0.443   3.320   2.885 -0.6510  0.2209  0.7537
 7417SOL    HW233885   0.551   3.236   2.859 -1.6389 -0.3733  0.0600
 7418SOL     OW33886   3.821   1.036   2.958  0.2386 -0.5622 -0.4751
 7418SOL    HW133887   3.787   1.077   2.878  0.7680  0.5248 -0.1454
 7418SOL    HW233888   3.891   1.095   2.987  1.0069 -1.7922  0.1555
 7419SOL     OW33889   0.811   1.181   9.491  0.3614  0.8598  0.1901
 7419SOL    HW133890   0.814   1.198   9.585  0.7264 -0.3741  0.3973
 7419SOL    HW233891   0.863   1.102   9.477 -0.7716  0.1155  0.1935
 7420SOL     OW33892   3.970   3.152   9.702  0.3808  0.4449 -0.1997
 7420SOL    HW133893   3.891   3.190   9.741 -0.0749 -1.7761  1.0365
 7420SOL    HW233894   4.028   3.228   9.697 -1.4070  1.7550 -1.3271
 7421SOL     OW33895   1.805   4.363   3.799  0.1443 -0.2438 -0.6676
 7421SOL    HW133896   1.847   4.298   3.742 -0.1800 -2.3480  1.4857
 7421SOL    HW233897   1.817   4.323   3.886  0.8025 -1.1579 -1.1746
 7422SOL     OW33898   0.020   3.691   7.692  0.0926  0.0845  0.2467
 7422SOL    HW133899   0.028   3.774   7.645 -0.9958  1.5611  2.6534
 7422SOL    HW233900   0.005   3.729   7.779 -0.9929 -1.1903  0.6174
 7423SOL     OW33901   3.154   2.632  16.159 -0.0220  0.4313  0.3698
 7423SOL    HW133902   3.201   2.715  16.152  0.3630 -0.0624 -2.6062
 7423SOL    HW233903   3.068   2.654  16.123  0.3762  2.4932  0.6787
 7424SOL     OW33904   2.414   2.514   4.849  0.0897 -0.2464 -0.3631
 7424SOL    HW133905   2.351   2.473   4.788 -0.6973 -0.1183  0.3675
 7424SOL    HW233906   2.352   2.516   4.922  1.1677  0.3535  0.5315
 7425SOL     OW33907   3.150   1.463   3.730  0.2741  0.5211  0.1294
 7425SOL    HW133908   3.213   1.395   3.705 -2.7086 -2.3748  0.5015
 7425SOL    HW233909   3.092   1.404   3.779  1.3791  1.0868  2.1008
 7426SOL     OW33910   4.566   4.100  13.070 -0.9070 -0.5986 -0.1913
 7426SOL    HW133911   4.488   4.147  13.040 -0.7721 -0.0538  0.3131
 7426SOL    HW233912   4.625   4.133  13.002 -0.6791 -0.4906  0.0577
 7427SOL     OW33913   0.221   4.226  12.686  0.1857  0.8044 -0.1563
 7427SOL    HW133914   0.187   4.305  12.644  0.0250  0.7159 -0.1911
 7427SOL    HW233915   0.280   4.204  12.613 -0.1479 -1.0943  0.1476
 7428SOL     OW33916   3.133   0.093  12.779 -0.4148 -0.0202  0.0320
 7428SOL    HW133917   3.100   0.173  12.819  1.6677  0.7011  0.2620
 7428SOL    HW233918   3.132   0.021  12.841  0.2973 -0.9243 -1.0034
 7429SOL     OW33919   0.888   3.860   4.436  0.3098  0.2503 -0.0166
 7429SOL    HW133920   0.846   3.776   4.415  0.6850  0.5597 -2.0925
 7429SOL    HW233921   0.935   3.864   4.352  2.0222 -0.0529  0.9102
 7430SOL     OW33922   1.277   4.325   2.246  0.0793 -0.0966  0.3316
 7430SOL    HW133923   1.340   4.342   2.316 -0.0381 -0.0781  0.4331
 7430SOL    HW233924   1.214   4.268   2.290 -0.9801 -0.6605 -1.9333
 7431SOL     OW33925   0.504   0.867   2.994 -0.4515 -0.5994 -0.3220
 7431SOL    HW133926   0.500   0.961   2.977 -0.6572 -0.6801 -0.7182
 7431SOL    HW233927   0.539   0.822   2.917  1.8718  1.9822 -0.7695
 7432SOL     OW33928   4.444   2.178   8.628 -0.2072 -0.1853 -0.0777
 7432SOL    HW133929   4.525   2.140   8.660  0.2157 -0.2216 -1.1899
 7432SOL    HW233930   4.392   2.176   8.709 -0.9320 -2.5385 -0.6059
 7433SOL     OW33931   2.957   1.165   7.007  0.2807 -0.3991 -0.2916
 7433SOL    HW133932   2.943   1.169   7.101  0.1767 -3.7507 -0.1503
 7433SOL    HW233933   3.017   1.238   6.994  1.8580 -1.9124 -1.6793
 7434SOL     OW33934   1.514   4.127   4.506 -0.3128 -0.0982 -0.3163
 7434SOL    HW133935   1.440   4.184   4.529 -0.4149  0.0097 -0.9101
 7434SOL    HW233936   1.503   4.064   4.577  2.9994 -0.4077 -0.0833
 7435SOL     OW33937   3.205   3.201   3.420 -0.2281 -0.0656  0.2813
 7435SOL    HW133938   3.120   3.246   3.422 -0.1593  0.0199  1.0792
 7435SOL    HW233939   3.260   3.255   3.362 -1.7289  0.5436 -0.5978
 7436SOL     OW33940   3.116   2.767   8.579  0.5566 -0.6052 -0.2788
 7436SOL    HW133941   3.096   2.846   8.629  0.7333 -1.3980  1.0529
 7436SOL    HW233942   3.149   2.714   8.652 -0.8982  0.1890  0.9551
 7437SOL     OW33943   1.743   3.273   5.900 -0.0921 -0.2055  0.2003
 7437SOL    HW133944   1.813   3.254   5.962  0.2768  1.6833  0.3511
 7437SOL    HW233945   1.662   3.242   5.940  0.9606 -1.0090  1.6865
 7438SOL     OW33946   1.612   3.824   4.398 -0.0958  0.0303 -0.1328
 7438SOL    HW133947   1.642   3.763   4.466 -0.3833 -1.6521 -1.5240
 7438SOL    HW233948   1.616   3.903   4.453  0.6256 -0.6345  0.7901
 7439SOL     OW33949   4.353   3.873   5.351 -0.3703  0.4574  0.2361
 7439SOL    HW133950   4.268   3.863   5.394  0.1873 -0.0995  1.2035
 7439SOL    HW233951   4.400   3.917   5.422  0.6604 -1.3329  0.6700
 7440SOL     OW33952   2.155   2.939   7.585 -0.0035 -0.0931 -0.1833
 7440SOL    HW133953   2.148   2.858   7.536  0.6519  1.3050 -2.5687
 7440SOL    HW233954   2.142   2.998   7.511 -0.1053 -1.5551 -1.3186
 7441SOL     OW33955   2.603   1.312   5.243 -0.8069  0.1414  0.2732
 7441SOL    HW133956   2.541   1.385   5.237 -2.7931 -1.4998  0.7800
 7441SOL    HW233957   2.674   1.336   5.303  0.1433 -0.3511 -0.6684
 7442SOL     OW33958   0.343   3.234   7.508 -0.2175  0.8010  0.0980
 7442SOL    HW133959   0.268   3.291   7.497 -0.9339  0.1411  1.4923
 7442SOL    HW233960   0.352   3.233   7.604  0.5211  2.0601  0.0400
 7443SOL     OW33961   0.086   3.102  12.535 -0.3361 -0.2914 -0.2305
 7443SOL    HW133962   0.106   3.177  12.591 -0.3930 -0.2749 -0.2317
 7443SOL    HW233963   0.095   3.038  12.606  1.2002 -1.1817 -1.2203
 7444SOL     OW33964   1.299   3.159  11.572 -0.5685 -0.1189 -0.1030
 7444SOL    HW133965   1.385   3.162  11.616 -1.5233  1.3770  1.6344
 7444SOL    HW233966   1.306   3.243  11.527  1.5555 -0.4683 -0.4341
 7445SOL     OW33967   0.206   2.241   7.066 -0.0455 -0.0977  0.0023
 7445SOL    HW133968   0.153   2.251   6.987 -1.2194  0.0019  0.8070
 7445SOL    HW233969   0.279   2.203   7.016  0.1179 -2.0977  1.7650
 7446SOL     OW33970   3.639   1.011   3.786  0.2961  0.0258  0.3271
 7446SOL    HW133971   3.572   1.045   3.728 -0.2532 -0.1039  0.8814
 7446SOL    HW233972   3.628   1.079   3.852  2.6647  0.8160 -0.0716
 7447SOL     OW33973   2.024   4.346   5.147  0.0905 -0.6178  0.1734
 7447SOL    HW133974   2.021   4.440   5.167 -0.3776 -0.5143 -0.3941
 7447SOL    HW233975   2.051   4.350   5.055 -0.4619  0.0407  0.0408
 7448SOL     OW33976   3.007   0.917   3.818 -0.0180 -0.1889  0.2390
 7448SOL    HW133977   3.029   0.996   3.866 -1.3987  0.5169 -0.3002
 7448SOL    HW233978   2.932   0.944   3.766 -0.5066 -0.5835  0.7361
 7449SOL     OW33979   3.685   2.538   7.039 -0.4333 -0.3708 -0.2300
 7449SOL    HW133980   3.748   2.604   7.068  0.6090 -0.9445 -1.1580
 7449SOL    HW233981   3.654   2.577   6.957  1.5516 -0.7715 -1.1720
 7450SOL     OW33982   0.014   4.582   1.346 -0.4892 -0.0286 -0.3521
 7450SOL    HW133983   4.674   4.536   1.374 -0.3052 -0.9646 -1.3525
 7450SOL    HW233984   0.048   4.528   1.275 -0.5525 -0.8381  0.2269
 7451SOL     OW33985   2.539   1.383  14.191  0.2537 -0.7775 -0.8499
 7451SOL    HW133986   2.576   1.442  14.258 -1.4843 -1.3032  0.5903
 7451SOL    HW233987   2.617   1.335  14.162 -0.2080 -1.8815 -0.2554
 7452SOL     OW33988   0.176   4.167  10.341 -0.3890  0.0830  0.4645
 7452SOL    HW133989   0.122   4.152  10.264 -0.1962 -1.6552  0.6502
 7452SOL    HW233990   0.254   4.183  10.289 -0.7284  0.4921  0.0909
 7453SOL     OW33991   3.538   0.872   6.100  0.1567 -0.4373 -0.0055
 7453SOL    HW133992   3.538   0.789   6.052 -0.5046 -0.6603  0.3865
 7453SOL    HW233993   3.506   0.943   6.043  3.3841 -3.0288 -5.0353
 7454SOL     OW33994   0.249   2.741   9.139  0.6274 -0.0355 -0.6536
 7454SOL    HW133995   0.272   2.666   9.194 -2.7004  0.0569  0.8855
 7454SOL    HW233996   0.161   2.712   9.116 -0.6281  0.8228  2.9403
 7455SOL     OW33997   1.499   1.059   1.097  0.2469 -0.0652  0.4066
 7455SOL    HW133998   1.530   1.034   1.011 -0.4307  0.9676 -0.1387
 7455SOL    HW233999   1.577   1.072   1.152  1.7528 -1.8678 -1.3366
 7456SOL     OW34000   1.740   2.248   9.448 -0.1805 -0.1229 -0.3169
 7456SOL    HW134001   1.705   2.338   9.449  1.5776  0.5670  1.2321
 7456SOL    HW234002   1.716   2.210   9.533 -0.6557 -0.1698 -0.4740
 7457SOL     OW34003   4.554   2.145   7.373 -1.0755  0.2522  0.1528
 7457SOL    HW134004   4.497   2.086   7.324 -1.7620 -0.0585  1.3375
 7457SOL    HW234005   4.645   2.129   7.347 -1.0622 -1.6106  1.3535
 7458SOL     OW34006   0.277   1.949  17.134 -0.2708  1.2271 -0.8717
 7458SOL    HW134007   0.339   1.892  17.090 -0.2499 -0.0658  0.8415
 7458SOL    HW234008   0.202   1.889  17.138  0.2854  0.5926 -0.1621
 7459SOL     OW34009   1.303   4.650   2.524  0.0583 -0.3570  0.5274
 7459SOL    HW134010   1.253   4.681   2.449  1.3698 -0.6801 -0.4769
 7459SOL    HW234011   1.342   4.573   2.482  3.1752  1.4378  0.1473
 7460SOL     OW34012   3.905   4.201   5.051 -0.7585  0.0097  0.0659
 7460SOL    HW134013   3.840   4.131   5.051  0.3010 -0.9403  2.7265
 7460SOL    HW234014   3.850   4.280   5.050 -0.4890  0.1979 -0.0506
 7461SOL     OW34015   1.119   0.438   0.939 -0.2007  0.3762 -0.3114
 7461SOL    HW134016   1.167   0.493   0.877 -1.1597 -0.8994 -2.1896
 7461SOL    HW234017   1.157   0.459   1.025 -0.4424 -0.9063  0.1096
 7462SOL     OW34018   4.041   2.026   6.528 -0.2184  0.3892  0.2450
 7462SOL    HW134019   4.000   2.101   6.571 -0.7025  0.4739 -0.3554
 7462SOL    HW234020   4.070   1.983   6.608 -0.1253 -1.5255 -0.8248
 7463SOL     OW34021   1.044   1.795   8.261  0.2127  0.0173  0.0714
 7463SOL    HW134022   1.061   1.710   8.221 -0.4678  0.6213 -1.5382
 7463SOL    HW234023   0.949   1.802   8.270  0.1752 -0.5189  0.0697
 7464SOL     OW34024   1.747   1.655  11.756 -0.0082 -0.3039  0.5186
 7464SOL    HW134025   1.820   1.626  11.701 -1.2057 -1.4182 -0.4798
 7464SOL    HW234026   1.792   1.726  11.802 -0.1813 -1.1804  2.0332
 7465SOL     OW34027   1.592   1.487   4.840 -0.0497  0.4460  0.2336
 7465SOL    HW134028   1.535   1.450   4.772  1.7908 -2.2330  0.1798
 7465SOL    HW234029   1.602   1.574   4.801 -1.9891 -0.0842 -1.4964
 7466SOL     OW34030   3.418   1.478   8.382  0.4749  0.0646  0.2761
 7466SOL    HW134031   3.472   1.557   8.379  0.6601 -0.1434 -2.1936
 7466SOL    HW234032   3.416   1.439   8.294  1.1182  0.9679 -0.1509
 7467SOL     OW34033   2.094   0.602   2.187 -0.0144  0.1715 -0.0772
 7467SOL    HW134034   2.166   0.609   2.125  0.0191 -0.7733 -0.1323
 7467SOL    HW234035   2.023   0.655   2.150  0.6142  1.4593  0.5216
 7468SOL     OW34036   4.625   3.049   9.257  0.0580  0.3862  0.0178
 7468SOL    HW134037   4.626   2.984   9.187 -0.3890  0.7083 -0.2894
 7468SOL    HW234038   4.535   3.078   9.245 -1.0399 -1.7361  3.1465
 7469SOL     OW34039   0.497   3.755   4.887 -0.3442  0.3841 -0.1189
 7469SOL    HW134040   0.477   3.687   4.823 -2.4781  1.5297 -0.6628
 7469SOL    HW234041   0.542   3.823   4.836 -0.1324 -0.4462 -1.0264
 7470SOL     OW34042   4.575   0.832   6.109  0.3785  0.2697  0.3569
 7470SOL    HW134043   4.597   0.741   6.130 -2.1663 -0.8941 -1.9415
 7470SOL    HW234044   4.495   0.838   6.161  1.0126  3.7532  0.9180
 7471SOL     OW34045   2.197   1.762  12.789  0.5686 -0.1147 -0.6266
 7471SOL    HW134046   2.223   1.700  12.720  1.0514 -1.1367  0.4522
 7471SOL    HW234047   2.149   1.709  12.853 -0.8436 -0.8188 -2.2680
 7472SOL     OW34048   0.299   1.773   4.317 -0.1221  0.1551  0.7965
 7472SOL    HW134049   0.241   1.790   4.391 -1.1499 -1.5249  0.3679
 7472SOL    HW234050   0.340   1.689   4.335 -0.0777  0.6146  2.8771
 7473SOL     OW34051   0.548   1.364   9.669  0.0935  0.0284  0.1943
 7473SOL    HW134052   0.556   1.314   9.587 -1.8952 -0.5661  0.3730
 7473SOL    HW234053   0.639   1.392   9.676  0.0921 -0.3806  1.7663
 7474SOL     OW34054   0.258   4.681   3.350  0.2681  0.1576  0.4746
 7474SOL    HW134055   0.328   4.645   3.404  0.1307 -0.7816  0.0235
 7474SOL    HW234056   0.248   0.034   3.372  1.4169  0.5367 -0.6679
 7475SOL     OW34057   1.890   0.030   2.106  0.3737 -0.1377  0.1301
 7475SOL    HW134058   1.927   0.032   2.017 -0.6438 -0.1456 -0.2940
 7475SOL    HW234059   1.926   4.684   2.127  1.2179  0.3763  0.7477
 7476SOL     OW34060   4.578   3.788   8.975 -0.0222  0.2532 -0.3266
 7476SOL    HW134061   4.497   3.787   8.923 -1.5016  0.0919  1.9812
 7476SOL    HW234062   4.598   3.881   8.987 -0.9260  0.5428 -1.0487
 7477SOL     OW34063   2.976   3.569   8.588 -0.4654 -0.2019  0.0406
 7477SOL    HW134064   3.047   3.620   8.548 -0.7410 -0.5051 -0.8494
 7477SOL    HW234065   3.007   3.559   8.678  3.5916 -2.1737 -1.6044
 7478SOL     OW34066   0.339   4.740   1.841  0.1052 -0.8840 -0.4535
 7478SOL    HW134067   0.366   4.697   1.922 -0.2282  1.7883  1.0739
 7478SOL    HW234068   0.360   0.090   1.865  0.7737 -0.1493 -3.7720
 7479SOL     OW34069   1.766   1.125  12.160  0.2428 -0.5915  0.4089
 7479SOL    HW134070   1.807   1.197  12.113 -0.8654 -1.5714 -2.0336
 7479SOL    HW234071   1.712   1.176  12.221 -0.8991 -0.4272 -0.7357
 7480SOL     OW34072   3.287   0.273  10.495 -0.3108 -0.3906  0.1204
 7480SOL    HW134073   3.196   0.297  10.474 -0.0220 -1.2788 -2.1163
 7480SOL    HW234074   3.290   0.254  10.589  0.1660  0.7587  0.3443
 7481SOL     OW34075   4.561   1.885   3.012  0.4662  0.3424  0.0375
 7481SOL    HW134076   4.571   1.941   3.089 -1.1751 -0.1562  0.6115
 7481SOL    HW234077   4.615   1.925   2.944  0.8055 -1.5430 -0.7999
 7482SOL     OW34078   1.683   3.090   3.578  0.0504  0.0453  0.7048
 7482SOL    HW134079   1.650   3.151   3.512 -0.8486 -1.8992 -0.6539
 7482SOL    HW234080   1.724   3.025   3.521  1.8394  0.9218  0.9806
 7483SOL     OW34081   4.371   2.735  12.938 -0.1599  0.1214 -0.2166
 7483SOL    HW134082   4.416   2.799  12.994  1.9725  0.5089 -2.3394
 7483SOL    HW234083   4.297   2.717  12.996 -0.0835 -0.0505 -0.1708
 7484SOL     OW34084   2.199   4.144   9.886 -0.3473 -0.1510  0.3817
 7484SOL    HW134085   2.293   4.163   9.889  0.0177 -1.9069  0.2895
 7484SOL    HW234086   2.194   4.060   9.840  2.2530 -0.8219  1.3248
 7485SOL     OW34087   1.018   1.568   3.859 -0.0665  0.3148  0.3917
 7485SOL    HW134088   1.104   1.610   3.848 -0.7571  1.2371 -1.5208
 7485SOL    HW234089   0.989   1.609   3.940 -0.1046  3.1936 -1.0520
 7486SOL     OW34090   0.604   3.123   7.737 -0.2574  0.0741 -0.9821
 7486SOL    HW134091   0.689   3.082   7.719 -0.6101 -1.2310  0.2939
 7486SOL    HW234092   0.622   3.216   7.722 -1.0038  0.5110  0.8142
 7487SOL     OW34093   2.862   1.064  11.691 -0.0044  0.2816 -0.5212
 7487SOL    HW134094   2.778   1.061  11.737  0.3458  0.1109  0.1002
 7487SOL    HW234095   2.920   1.011  11.746  2.6122  0.5030 -3.0792
 7488SOL     OW34096   2.931   3.244   7.303  0.0573 -0.4124  0.3008
 7488SOL    HW134097   3.023   3.243   7.330  0.0156  2.2467  0.5217
 7488SOL    HW234098   2.919   3.338   7.289  0.3541 -0.6063 -1.3476
 7489SOL     OW34099   1.379   3.850  13.054 -0.0133  0.5234  0.3276
 7489SOL    HW134100   1.286   3.856  13.035 -0.0515  0.0080  0.3587
 7489SOL    HW234101   1.383   3.843  13.150 -0.9198  1.0937  0.4024
 7490SOL     OW34102   4.015   1.436  12.893  0.5247  0.4835  0.0215
 7490SOL    HW134103   4.025   1.516  12.945 -1.5152  0.8231 -0.1158
 7490SOL    HW234104   3.962   1.389  12.958  0.1577  1.1308  0.1862
 7491SOL     OW34105   4.579   4.382   8.657  0.0562  0.0623 -0.5240
 7491SOL    HW134106   4.486   4.361   8.672 -0.0863  1.0745 -0.0453
 7491SOL    HW234107   4.572   4.420   8.569 -1.1213  2.4616  0.6278
 7492SOL     OW34108   2.992   4.202   6.216 -0.0383 -0.1062  0.1662
 7492SOL    HW134109   2.898   4.190   6.203  0.2223 -2.3936  0.3334
 7492SOL    HW234110   3.024   4.142   6.148 -0.7979 -0.8938  0.5050
 7493SOL     OW34111   3.254   0.267   6.996  0.3765  0.2437 -0.3272
 7493SOL    HW134112   3.298   0.181   6.996 -0.8950 -0.3896 -1.0842
 7493SOL    HW234113   3.183   0.258   6.934  0.1429 -2.5950  0.3143
 7494SOL     OW34114   0.405   0.577   6.845  0.2065 -0.3252  0.3606
 7494SOL    HW134115   0.492   0.603   6.874  0.0865  0.7420 -0.2307
 7494SOL    HW234116   0.398   0.489   6.882 -2.0301  0.4224  1.7430
 7495SOL     OW34117   3.806   0.929   6.519 -0.1503  0.0647  0.3197
 7495SOL    HW134118   3.793   0.904   6.428  2.3606  0.7814 -0.2217
 7495SOL    HW234119   3.752   0.862   6.561 -0.2489 -0.9534 -1.4281
 7496SOL     OW34120   0.912   0.032   4.645  0.2762  0.1100  0.0789
 7496SOL    HW134121   0.899   0.110   4.699  0.3550  1.2602 -1.5686
 7496SOL    HW234122   1.004   0.034   4.617  0.4788 -2.6631  0.5523
 7497SOL     OW34123   4.382   3.725   3.946  0.3323 -0.0456  0.5679
 7497SOL    HW134124   4.337   3.733   3.861 -2.1692  2.5301  2.1394
 7497SOL    HW234125   4.308   3.742   4.004 -0.5995 -1.0424 -0.3302
 7498SOL     OW34126   1.046   2.786   2.314 -0.5755  0.1767 -0.2296
 7498SOL    HW134127   0.973   2.783   2.253  0.2291  1.1405 -1.2378
 7498SOL    HW234128   1.019   2.713   2.370  3.5562  0.0075  1.6120
 7499SOL     OW34129   3.000   0.817  15.633  0.3679 -0.9628  0.2292
 7499SOL    HW134130   3.075   0.777  15.588 -0.9884 -2.2137 -0.9138
 7499SOL    HW234131   3.010   0.909  15.606 -0.5390 -1.7636 -2.8816
 7500SOL     OW34132   0.129   0.731   5.900  0.2566  0.1883 -0.5940
 7500SOL    HW134133   0.089   0.818   5.911  2.0793  0.9484 -0.1109
 7500SOL    HW234134   0.056   0.678   5.867  1.8928 -1.0437 -2.2227
 7501SOL     OW34135   3.201   1.567   8.714  0.0545 -0.3151  0.4467
 7501SOL    HW134136   3.259   1.491   8.721 -1.6087 -1.6378  0.1417
 7501SOL    HW234137   3.251   1.634   8.668 -2.1157 -0.5128 -2.2086
 7502SOL     OW34138   3.992   3.406  13.186 -0.2537 -0.1675  0.6013
 7502SOL    HW134139   4.053   3.362  13.127 -0.1908 -0.3119  0.7697
 7502SOL    HW234140   4.054   3.476  13.208 -0.3306 -0.0657  0.4914
 7503SOL     OW34141   3.395   3.398   6.001 -0.1914  0.1353  0.5600
 7503SOL    HW134142   3.383   3.330   5.935  2.1140  1.1604 -0.9044
 7503SOL    HW234143   3.484   3.382   6.032 -0.8092 -0.5012  2.0118
 7504SOL     OW34144   1.210   2.156  17.151  0.8166  0.2463 -0.2421
 7504SOL    HW134145   1.138   2.214  17.174 -0.7940 -1.2955 -1.3709
 7504SOL    HW234146   1.160   2.087  17.107  2.5101 -1.7870  1.0408
 7505SOL     OW34147   1.884   2.689  11.674 -0.1822  0.3783 -0.6987
 7505SOL    HW134148   1.913   2.657  11.759  1.3785 -0.7063 -1.6513
 7505SOL    HW234149   1.889   2.616  11.613 -1.7425  0.2024 -0.6110
 7506SOL     OW34150   2.859   3.907   5.623  0.1579  0.1246 -0.4963
 7506SOL    HW134151   2.809   3.955   5.557  2.0464  2.0554 -0.5457
 7506SOL    HW234152   2.812   3.825   5.634 -0.7306  0.4430 -1.8684
 7507SOL     OW34153   3.332   1.287   3.631  0.4527 -0.3105 -0.1014
 7507SOL    HW134154   3.346   1.192   3.627  0.4271 -0.3218  0.0875
 7507SOL    HW234155   3.400   1.317   3.571 -0.8719  3.4797  0.3511
 7508SOL     OW34156   4.338   0.754   2.222  0.9236 -0.0925 -0.3108
 7508SOL    HW134157   4.315   0.788   2.308 -0.3098  1.2446 -1.1650
 7508SOL    HW234158   4.332   0.831   2.167  0.3919  0.4774  0.5460
 7509SOL     OW34159   1.695   1.771   6.219  0.3115 -0.6478 -0.6964
 7509SOL    HW134160   1.791   1.763   6.224  0.0024 -3.2892  1.2327
 7509SOL    HW234161   1.670   1.697   6.165  2.6657 -0.7435 -1.6745
 7510SOL     OW34162   3.849   1.877   2.139  0.3335 -0.2005 -0.3183
 7510SOL    HW134163   3.928   1.910   2.097  0.8441 -1.2374 -0.1696
 7510SOL    HW234164   3.888   1.889   2.226 -1.3883 -0.7250  0.5324
 7511SOL     OW34165   0.212   2.549   4.132  0.1579 -0.0584  0.8001
 7511SOL    HW134166   0.168   2.631   4.109 -3.6679 -2.0476  0.9667
 7511SOL    HW234167   0.303   2.565   4.107  0.5166 -0.2080  2.0032
 7512SOL     OW34168   2.079   1.350   8.155  0.1975  0.2230 -0.3784
 7512SOL    HW134169   2.153   1.384   8.205  1.0183 -2.2683  0.1354
 7512SOL    HW234170   2.022   1.311   8.222  0.0260  0.2588 -0.5036
 7513SOL     OW34171   2.121   1.101   5.149  0.0622  0.0796  0.6729
 7513SOL    HW134172   2.073   1.023   5.121 -0.5909  0.4492  0.7700
 7513SOL    HW234173   2.198   1.066   5.193 -0.1562  1.9957  2.6004
 7514SOL     OW34174   3.341   4.587   6.121  0.1113  0.2846 -0.4062
 7514SOL    HW134175   3.377   4.667   6.160 -0.7206  2.0670 -3.2500
 7514SOL    HW234176   3.277   4.625   6.059 -2.0368  2.1786  2.9842
 7515SOL     OW34177   4.735   3.778   1.605 -0.0520 -0.8964 -0.1781
 7515SOL    HW134178   0.024   3.700   1.652 -0.1189 -0.0117  1.3356
 7515SOL    HW234179   4.703   3.822   1.683  1.7366  4.0408 -2.1986
 7516SOL     OW34180   1.085   1.058   5.708  0.0508 -0.0593 -0.1153
 7516SOL    HW134181   1.170   1.102   5.706 -0.4505  0.8400 -1.1919
 7516SOL    HW234182   1.031   1.136   5.697 -1.4474 -1.0385  0.2051
 7517SOL     OW34183   2.723   0.260   4.141 -0.1162 -0.4466  0.0210
 7517SOL    HW134184   2.698   0.262   4.049  0.1329  0.6654 -0.0133
 7517SOL    HW234185   2.816   0.273   4.121 -0.1676  1.2646  0.9165
 7518SOL     OW34186   2.258   3.149   0.068  0.1412  0.3035  0.4116
 7518SOL    HW134187   2.180   3.203   0.057 -0.6843 -1.0469 -0.3542
 7518SOL    HW234188   2.230   3.060   0.088 -2.2233  0.8797 -0.3144
 7519SOL     OW34189   1.025   2.535   0.102  0.4493  0.1876 -0.0086
 7519SOL    HW134190   0.961   2.464   0.110 -1.2046  1.7414  0.6797
 7519SOL    HW234191   0.967   2.608   0.081  1.4672  0.9621 -0.1180
 7520SOL     OW34192   3.836   4.641  14.279 -0.4825  0.6237 -0.1984
 7520SOL    HW134193   3.760   4.585  14.295 -0.6753  0.8406 -0.3431
 7520SOL    HW234194   3.912   4.583  14.287 -0.6009  0.2946 -1.4898
 7521SOL     OW34195   4.518   3.008   5.816 -0.2542 -0.4483  0.3213
 7521SOL    HW134196   4.447   3.050   5.864 -0.5790 -0.7956  0.1451
 7521SOL    HW234197   4.483   3.000   5.727  2.4234  0.3845 -0.8041
 7522SOL     OW34198   4.174   0.191  17.383 -0.1234  0.4934  0.0155
 7522SOL    HW134199   4.208   0.207  17.471  0.8145 -0.7022 -0.1336
 7522SOL    HW234200   4.253   0.211  17.333  0.7779 -0.3429  1.0955
 7523SOL     OW34201   1.250   3.033   6.738 -0.5351 -0.2255 -0.3348
 7523SOL    HW134202   1.167   2.993   6.765 -2.8742  2.5711 -3.4178
 7523SOL    HW234203   1.283   3.085   6.811 -4.1712  1.2883  0.2257
 7524SOL     OW34204   4.585   2.250   2.975 -0.1848 -0.1405 -0.2540
 7524SOL    HW134205   4.489   2.250   2.974 -0.1697 -0.8384 -1.9516
 7524SOL    HW234206   4.603   2.273   3.066 -0.6429  0.4795 -0.3175
 7525SOL     OW34207   3.315   1.952  10.537  0.4170 -0.0293 -0.0978
 7525SOL    HW134208   3.228   1.928  10.506 -0.9441  3.2128  1.2430
 7525SOL    HW234209   3.341   1.871  10.580 -1.0533 -1.3889 -1.8170
 7526SOL     OW34210   3.581   3.629   5.734 -0.0358  0.2316 -0.1277
 7526SOL    HW134211   3.499   3.664   5.700 -0.7392 -1.2139  0.0545
 7526SOL    HW234212   3.546   3.589   5.814 -1.8997 -0.2100 -1.1615
 7527SOL     OW34213   2.110   4.365   9.592  0.9686  0.4850  0.2446
 7527SOL    HW134214   2.108   4.455   9.558 -0.3450  0.1583 -0.5661
 7527SOL    HW234215   2.200   4.365   9.624  1.0627 -0.1830 -0.0358
 7528SOL     OW34216   2.727   2.216   8.575  0.6225 -0.2285 -0.0973
 7528SOL    HW134217   2.666   2.165   8.627  1.5517 -0.8427  0.3834
 7528SOL    HW234218   2.791   2.151   8.547  1.3512 -0.0455  1.1297
 7529SOL     OW34219   1.437   0.062   5.053 -0.7591  0.2025  0.1437
 7529SOL    HW134220   1.454   0.140   5.105  0.2688 -1.2504  1.9825
 7529SOL    HW234221   1.442   4.735   5.121 -0.9916  0.1277  0.0853
 7530SOL     OW34222   4.406   0.368   8.206 -0.3191  0.3687  0.2978
 7530SOL    HW134223   4.397   0.443   8.264  0.6857  0.2879  0.5601
 7530SOL    HW234224   4.497   0.370   8.176  0.4321  0.5352  2.6045
 7531SOL     OW34225   1.906   1.203   1.861 -0.2236 -0.2819 -0.4797
 7531SOL    HW134226   1.849   1.145   1.811 -0.2976 -0.5533 -0.0806
 7531SOL    HW234227   1.939   1.138   1.923 -0.0091 -1.5206 -1.9078
 7532SOL     OW34228   0.095   3.799   8.824 -0.5058  0.2944 -0.0633
 7532SOL    HW134229   0.074   3.879   8.873  0.3913  0.1078  0.6249
 7532SOL    HW234230   0.036   3.741   8.872 -0.2262  0.0638  0.0056
 7533SOL     OW34231   3.795   0.903  16.274 -0.1535 -0.3471 -0.4361
 7533SOL    HW134232   3.783   0.979  16.217  1.7554  0.6077  0.4381
 7533SOL    HW234233   3.704   0.889  16.301  0.0316 -1.0054 -0.1550
 7534SOL     OW34234   3.091   3.583   8.857 -0.2050 -0.5271 -0.1241
 7534SOL    HW134235   3.066   3.673   8.881 -0.4680 -0.6045 -0.1089
 7534SOL    HW234236   3.164   3.571   8.919 -0.8283 -0.4327  0.6268
 7535SOL     OW34237   0.442   3.937   1.169  0.2942  0.1986 -0.1566
 7535SOL    HW134238   0.361   3.886   1.174  0.1747  0.0438 -3.7645
 7535SOL    HW234239   0.455   3.963   1.260  1.8329 -0.0966 -0.2754
 7536SOL     OW34240   0.870   2.001   7.739 -0.4808  0.4585 -0.2295
 7536SOL    HW134241   0.877   1.906   7.731 -1.2714  0.5702 -2.4252
 7536SOL    HW234242   0.928   2.016   7.813 -0.2958 -0.2240 -0.2438
 7537SOL     OW34243   2.743   1.207   5.005  0.0316  0.1331  0.6962
 7537SOL    HW134244   2.806   1.245   5.066 -0.1341 -0.5454  1.2872
 7537SOL    HW234245   2.662   1.252   5.026  0.1775  0.4729  0.5261
 7538SOL     OW34246   4.357   1.573  13.536 -0.1361 -0.0841 -0.6153
 7538SOL    HW134247   4.436   1.519  13.528 -0.8514 -1.1523 -0.3754
 7538SOL    HW234248   4.401   1.657  13.525 -0.6470  0.1644 -0.7422
 7539SOL     OW34249   3.122   1.412   6.694 -0.8583  0.2487  0.3081
 7539SOL    HW134250   3.116   1.461   6.612 -0.0554 -1.1777 -0.6118
 7539SOL    HW234251   3.163   1.333   6.660  0.8665  1.5797 -0.7151
 7540SOL     OW34252   2.964   4.047   0.892 -0.0713  0.1574 -0.4206
 7540SOL    HW134253   2.878   4.008   0.878 -0.9311  2.1752 -0.7688
 7540SOL    HW234254   2.985   4.067   0.801  0.7512  0.5079 -0.1603
 7541SOL     OW34255   1.491   4.168   6.269 -0.1423  0.0269 -0.2489
 7541SOL    HW134256   1.527   4.091   6.313 -0.2069 -1.0285 -2.0087
 7541SOL    HW234257   1.550   4.178   6.194  0.4783 -1.3235  0.0619
 7542SOL     OW34258   0.050   1.732   3.530 -0.3233 -0.1479  0.2335
 7542SOL    HW134259   0.127   1.692   3.571  0.0978 -0.9801 -1.3633
 7542SOL    HW234260   4.723   1.665   3.519 -0.0807 -0.0011 -2.3179
 7543SOL     OW34261   3.666   0.742   6.627  0.1540  0.2670  0.0225
 7543SOL    HW134262   3.696   0.674   6.686 -1.4029 -0.6626 -0.2668
 7543SOL    HW234263   3.573   0.744   6.653 -0.1537  1.3795 -1.1451
 7544SOL     OW34264   3.691   0.162   4.417 -0.5799  0.7709 -0.2984
 7544SOL    HW134265   3.612   0.145   4.365 -0.2889  0.9939 -0.8123
 7544SOL    HW234266   3.759   0.141   4.352 -1.1838 -1.7406 -0.1377
 7545SOL     OW34267   3.133   2.272   5.280  0.1146 -0.1253  0.3862
 7545SOL    HW134268   3.163   2.224   5.357  0.9170 -1.1001 -0.5350
 7545SOL    HW234269   3.159   2.209   5.213  0.2055 -0.3759  0.6598
 7546SOL     OW34270   0.318   0.805  15.195  0.4609 -0.7165  0.5589
 7546SOL    HW134271   0.310   0.744  15.269  0.1487 -1.0464  0.2494
 7546SOL    HW234272   0.337   0.746  15.123 -0.8088 -1.8911  1.1781
 7547SOL     OW34273   4.698   2.344   2.543  0.1664 -0.3030  0.4279
 7547SOL    HW134274   4.666   2.380   2.626  1.4683 -0.4681  1.0049
 7547SOL    HW234275   4.731   2.423   2.500 -1.5411  0.8269  1.1743
 7548SOL     OW34276   4.550   1.315   4.283 -0.3323 -0.0921 -0.4662
 7548SOL    HW134277   4.456   1.324   4.266 -0.2752  0.1004 -0.6765
 7548SOL    HW234278   4.563   1.369   4.360  1.6223 -0.2980 -0.6568
 7549SOL     OW34279   3.203   1.868   1.727  0.6704  0.5847 -0.1098
 7549SOL    HW134280   3.154   1.932   1.676  0.4226  1.3895  1.1241
 7549SOL    HW234281   3.185   1.905   1.813 -1.1195  0.3029 -0.3612
 7550SOL     OW34282   2.678   2.692  15.091  0.3925 -0.1241 -0.2646
 7550SOL    HW134283   2.706   2.654  15.008  1.9977  2.8478 -1.0978
 7550SOL    HW234284   2.594   2.734  15.072  0.3106  0.6331  1.7426
 7551SOL     OW34285   3.682   4.706   5.555  0.0531  0.0517  0.1863
 7551SOL    HW134286   3.718   4.650   5.624 -1.3480 -1.8667 -0.6282
 7551SOL    HW234287   3.661   0.046   5.604 -1.5377 -0.6874  0.7536
 7552SOL     OW34288   4.725   2.553   2.209  0.3572 -0.3275  0.2849
 7552SOL    HW134289   4.735   2.561   2.304  2.0198 -2.8134  0.3174
 7552SOL    HW234290   0.017   2.464   2.192  0.0400 -0.0028 -2.0697
 7553SOL     OW34291   1.576   3.795   9.570  0.5713 -0.0520 -0.0856
 7553SOL    HW134292   1.664   3.829   9.588  1.1613 -0.6456 -1.8379
 7553SOL    HW234293   1.580   3.796   9.474 -1.7660  2.7704 -0.1550
 7554SOL     OW34294   2.018   3.975   5.110  0.6594  0.5417  0.4795
 7554SOL    HW134295   1.974   4.041   5.057 -0.3991 -1.0890 -0.6692
 7554SOL    HW234296   2.056   4.024   5.183  3.3313  0.9692 -1.2089
 7555SOL     OW34297   3.606   4.404   2.214  0.4487 -0.0745 -0.2182
 7555SOL    HW134298   3.658   4.484   2.205 -1.1012  1.2001  1.8380
 7555SOL    HW234299   3.632   4.379   2.303 -0.5698 -1.2827 -0.2590
 7556SOL     OW34300   1.245   3.916   7.333  0.1808 -0.2883 -0.5992
 7556SOL    HW134301   1.250   3.905   7.238  0.0750 -2.1554 -0.3889
 7556SOL    HW234302   1.283   4.004   7.343  0.5181 -0.6265  1.0689
 7557SOL     OW34303   3.631   3.995   3.384 -0.5928  0.7730 -0.1293
 7557SOL    HW134304   3.690   3.993   3.308  0.6006  1.8848  0.7586
 7557SOL    HW234305   3.548   4.006   3.337 -1.0299  1.1188  0.7183
 7558SOL     OW34306   4.313   4.449   2.829  0.2880  0.0021  0.5068
 7558SOL    HW134307   4.280   4.361   2.846 -0.0072  0.2402  1.1824
 7558SOL    HW234308   4.396   4.429   2.786 -0.9189  1.6751 -2.5707
 7559SOL     OW34309   2.932   0.603   2.281 -0.2646  0.3842 -0.1314
 7559SOL    HW134310   2.874   0.536   2.244  0.4841 -1.2260  1.6186
 7559SOL    HW234311   2.940   0.661   2.205  1.6380  0.2013 -0.0598
 7560SOL     OW34312   2.469   2.941  14.042 -0.2865  0.3764 -0.1396
 7560SOL    HW134313   2.406   2.910  13.977  2.4703 -0.7645 -2.3019
 7560SOL    HW234314   2.547   2.943  13.986  0.5393  0.0086  1.0091
 7561SOL     OW34315   3.806   2.989   5.116 -0.0602  0.4878  0.4024
 7561SOL    HW134316   3.711   2.985   5.100  0.3887 -2.4496 -1.4180
 7561SOL    HW234317   3.822   3.083   5.104  3.7604 -0.2209  0.1862
 7562SOL     OW34318   4.351   3.000  14.711  0.2912  0.2174  0.3359
 7562SOL    HW134319   4.428   2.946  14.695  0.3484  0.5313 -0.4432
 7562SOL    HW234320   4.289   2.956  14.652  0.4065  0.6558 -0.1190
 7563SOL     OW34321   3.523   0.396   9.096  0.3689  0.1400  0.1590
 7563SOL    HW134322   3.605   0.423   9.055 -0.3402  1.7009 -0.2229
 7563SOL    HW234323   3.469   0.475   9.092  0.5190  0.3150  1.4092
 7564SOL     OW34324   3.883   2.783   1.856 -0.5093 -0.1997 -0.1114
 7564SOL    HW134325   3.913   2.701   1.818 -1.2796 -1.4762  2.0260
 7564SOL    HW234326   3.943   2.851   1.826 -0.2031 -1.6762 -2.8346
 7565SOL     OW34327   2.460   1.014  11.423  0.0341 -0.2350  0.1601
 7565SOL    HW134328   2.413   1.090  11.457  1.0324  1.1514 -1.5527
 7565SOL    HW234329   2.519   1.044  11.354  2.0417 -0.9731  1.5430
 7566SOL     OW34330   0.872   3.908   2.512  0.1975  0.4164  0.6699
 7566SOL    HW134331   0.923   3.834   2.545 -1.0860 -0.8284 -0.1236
 7566SOL    HW234332   0.874   3.888   2.418  0.3915 -1.3164  1.0455
 7567SOL     OW34333   2.592   3.420   8.448 -0.0799 -0.7692 -0.1236
 7567SOL    HW134334   2.615   3.460   8.364 -0.7607 -0.9063 -0.3718
 7567SOL    HW234335   2.497   3.429   8.455  0.1438  1.0636  0.6156
 7568SOL     OW34336   1.428   0.916   9.620 -0.2892  0.0921 -0.2815
 7568SOL    HW134337   1.407   0.929   9.527  0.8367 -1.0656 -0.7020
 7568SOL    HW234338   1.522   0.931   9.608  0.0339 -1.0181  0.8689
 7569SOL     OW34339   0.336   1.848  12.683  0.2721 -0.4207 -0.8003
 7569SOL    HW134340   0.357   1.882  12.596 -0.4949  1.7697 -0.1333
 7569SOL    HW234341   0.333   1.753  12.668  0.7963 -0.6473  0.5710
 7570SOL     OW34342   3.251   3.945   0.704  0.6596  0.0571 -0.5118
 7570SOL    HW134343   3.162   3.980   0.699  1.4867  2.4608  1.7864
 7570SOL    HW234344   3.287   3.982   0.623  2.2556 -0.7405 -0.1619
 7571SOL     OW34345   2.654   3.931   4.226 -0.9728 -0.3824  0.7880
 7571SOL    HW134346   2.620   3.868   4.163 -0.8901 -0.4756  0.8362
 7571SOL    HW234347   2.661   4.006   4.167 -2.3160 -1.2485 -0.4623
 7572SOL     OW34348   2.954   0.613  13.828 -0.1250  0.0348  0.5665
 7572SOL    HW134349   2.895   0.582  13.760  2.7049 -2.7166 -0.6590
 7572SOL    HW234350   2.956   0.534  13.883 -0.4616 -1.3464 -1.4212
 7573SOL     OW34351   0.103   2.312   2.090 -0.0060  1.1267  0.4071
 7573SOL    HW134352   0.045   2.241   2.063  2.5879 -1.3950  1.4410
 7573SOL    HW234353   0.165   2.267   2.148 -0.1513 -0.7928 -0.8983
 7574SOL     OW34354   0.749   2.480   6.558 -0.3073 -0.6287 -0.0412
 7574SOL    HW134355   0.710   2.398   6.530 -0.2209 -1.0824  1.1353
 7574SOL    HW234356   0.733   2.533   6.480  0.6373 -0.3300 -0.0283
 7575SOL     OW34357   4.178   1.815  12.905  0.3390 -0.3929 -0.3566
 7575SOL    HW134358   4.192   1.774  12.819  1.2730 -0.1757 -0.3146
 7575SOL    HW234359   4.219   1.749  12.961  3.0902  1.2432 -0.4446
 7576SOL     OW34360   1.026   3.972   2.890 -0.2833  0.5321  0.0545
 7576SOL    HW134361   1.095   3.911   2.919 -1.8737 -1.6374 -0.6754
 7576SOL    HW234362   1.077   4.053   2.891 -0.4641  0.6492 -0.4015
 7577SOL     OW34363   1.379   1.011  11.731 -0.5684  0.3338  0.1524
 7577SOL    HW134364   1.361   1.038  11.641  0.3163 -1.5986 -0.6079
 7577SOL    HW234365   1.303   0.958  11.755 -0.9777  1.5938  1.6354
 7578SOL     OW34366   1.160   3.175   3.316 -0.0836 -0.0909  0.7130
 7578SOL    HW134367   1.144   3.081   3.321 -1.2980 -0.1327 -3.9890
 7578SOL    HW234368   1.131   3.215   3.398  1.2978  0.1579  1.0951
 7579SOL     OW34369   0.056   3.076   0.802  0.0709  0.6450 -0.3999
 7579SOL    HW134370   4.709   3.102   0.831 -0.6033 -0.7412 -1.2136
 7579SOL    HW234371   0.083   3.160   0.765 -1.0273  0.3789 -1.7970
 7580SOL     OW34372   2.609   3.476   6.902  0.2268  0.2567  0.3096
 7580SOL    HW134373   2.693   3.435   6.922 -0.0154  0.0651  0.9649
 7580SOL    HW234374   2.591   3.514   6.988 -1.0819  1.0822 -0.3260
 7581SOL     OW34375   1.451   3.747   4.204  0.2209  0.2403 -0.6142
 7581SOL    HW134376   1.464   3.833   4.164  1.1800  0.1003 -0.6031
 7581SOL    HW234377   1.492   3.766   4.288 -3.1966 -0.7956  1.3086
 7582SOL     OW34378   4.023   0.958  16.801 -0.0029  0.0640  0.0800
 7582SOL    HW134379   3.947   0.959  16.743 -0.6816  0.5251  0.9886
 7582SOL    HW234380   4.100   0.941  16.747 -0.2437 -1.4231  0.2056
 7583SOL     OW34381   4.392   3.601   3.639  0.3694 -0.1984 -0.2063
 7583SOL    HW134382   4.439   3.603   3.555 -0.3259 -0.8202 -0.6092
 7583SOL    HW234383   4.352   3.688   3.647 -1.1832 -0.9078 -0.3860
 7584SOL     OW34384   0.262   1.065   7.206 -0.2435  0.0403 -0.3645
 7584SOL    HW134385   0.205   1.073   7.130 -2.1331 -1.1655  0.9190
 7584SOL    HW234386   0.214   0.999   7.257  0.4654  0.1165  0.4114
 7585SOL     OW34387   3.534   0.570   6.416 -0.0647 -0.9589  0.1525
 7585SOL    HW134388   3.625   0.600   6.416 -1.0657  2.1358 -0.9753
 7585SOL    HW234389   3.481   0.643   6.382 -1.0263 -1.1793  1.1758
 7586SOL     OW34390   3.314   2.024   6.322  0.3328  0.0774  0.5241
 7586SOL    HW134391   3.342   2.027   6.230  0.0182 -1.7266  0.3648
 7586SOL    HW234392   3.371   2.091   6.359 -3.2558  2.6659  1.2719
 7587SOL     OW34393   0.757   2.231   8.783 -0.1858 -0.5083 -0.3504
 7587SOL    HW134394   0.789   2.228   8.873  0.0735 -0.0729 -0.4325
 7587SOL    HW234395   0.813   2.173   8.731  0.0088  0.0731 -0.7832
 7588SOL     OW34396   4.282   3.491   9.262 -0.3930  0.3526 -0.2066
 7588SOL    HW134397   4.228   3.504   9.184 -0.3813 -1.8692 -0.5917
 7588SOL    HW234398   4.371   3.496   9.227  0.4774 -2.5703  1.5833
 7589SOL     OW34399   3.930   3.977   0.942 -0.0849  0.1884 -0.4543
 7589SOL    HW134400   3.927   4.068   0.972 -2.1766 -0.0841  0.1426
 7589SOL    HW234401   3.843   3.985   0.902  0.9914  2.6923 -2.3212
 7590SOL     OW34402   0.238   4.705   2.673 -0.2021 -0.1487 -0.8481
 7590SOL    HW134403   0.245   4.633   2.610  0.6321  0.2241 -1.1857
 7590SOL    HW234404   0.148   4.687   2.701 -0.0543  0.4100 -0.0162
 7591SOL     OW34405   1.238   1.294   5.880 -0.0143  0.3105  0.6842
 7591SOL    HW134406   1.265   1.348   5.955  2.1811  0.6224 -0.3217
 7591SOL    HW234407   1.151   1.275   5.915 -0.3145  2.7777  1.2528
 7592SOL     OW34408   1.285   0.770   4.561  0.2787  0.2307 -0.8692
 7592SOL    HW134409   1.317   0.683   4.582 -3.0934 -0.9185 -0.5856
 7592SOL    HW234410   1.192   0.747   4.557  0.0983  1.1049 -1.8608
 7593SOL     OW34411   0.381   1.647  12.481 -0.0023  0.3410 -0.2957
 7593SOL    HW134412   0.320   1.574  12.492  1.2016 -0.7862 -1.0007
 7593SOL    HW234413   0.458   1.601  12.446 -1.9134 -1.2720 -2.3654
 7594SOL     OW34414   4.648   4.221   5.584 -0.1864 -0.1993 -0.0326
 7594SOL    HW134415   4.604   4.237   5.501  1.0001 -0.5219 -0.7345
 7594SOL    HW234416   4.724   4.184   5.539 -0.7156 -0.9823 -0.2824
 7595SOL     OW34417   4.659   0.654   7.923  0.4737 -0.6569 -0.2550
 7595SOL    HW134418   4.638   0.580   7.865 -1.0730  0.8020 -1.5623
 7595SOL    HW234419   4.733   0.689   7.874 -1.6005  0.7308 -2.4164
 7596SOL     OW34420   0.215   4.466   3.688 -0.5614 -0.5368  0.2269
 7596SOL    HW134421   0.166   4.539   3.650  0.7908 -0.7794 -2.0239
 7596SOL    HW234422   0.144   4.435   3.744 -2.2478  0.1865 -1.4723
 7597SOL     OW34423   0.920   0.204   3.821  0.0126 -0.1301  0.2090
 7597SOL    HW134424   0.830   0.200   3.852 -0.6114  2.6307 -1.2824
 7597SOL    HW234425   0.918   0.270   3.753 -0.1940 -0.8880 -0.5190
 7598SOL     OW34426   2.340   3.178   4.362  0.1255  0.3486  0.5444
 7598SOL    HW134427   2.311   3.175   4.453  0.6784 -2.2632  0.6333
 7598SOL    HW234428   2.274   3.127   4.315 -1.8816  2.0163  1.5554
 7599SOL     OW34429   0.686   0.228  12.694 -0.4985  0.1265  0.1418
 7599SOL    HW134430   0.620   0.234  12.763  0.5352  1.3180  1.0184
 7599SOL    HW234431   0.759   0.272  12.737 -0.3576  0.0337 -0.0029
 7600SOL     OW34432   0.105   2.964   6.645 -0.0250  0.7413  0.0538
 7600SOL    HW134433   0.102   2.946   6.739  0.9352  1.2614  0.1809
 7600SOL    HW234434   0.098   3.059   6.648 -4.0217  0.5261 -2.7872
 7601SOL     OW34435   1.556   4.005  16.768 -0.1669 -0.0463 -0.2173
 7601SOL    HW134436   1.631   3.990  16.825 -0.5876  1.1973  0.6689
 7601SOL    HW234437   1.537   3.917  16.737  1.4979 -1.3564  2.4667
 7602SOL     OW34438   1.333   3.188   9.729  0.6247 -0.4261  0.0259
 7602SOL    HW134439   1.322   3.282   9.743 -0.8680 -0.6536  0.4804
 7602SOL    HW234440   1.401   3.190   9.663  1.3077  0.0973  0.7478
 7603SOL     OW34441   1.008   4.006   6.436  0.6738  0.2023  0.3544
 7603SOL    HW134442   1.009   3.999   6.532  1.1771  1.2185  0.4206
 7603SOL    HW234443   1.102   4.016   6.420  0.6455 -0.3431 -0.1432
 7604SOL     OW34444   0.533   0.429   8.187  0.2883  0.0720 -0.5079
 7604SOL    HW134445   0.472   0.501   8.199  0.8458  0.1912  1.5484
 7604SOL    HW234446   0.519   0.381   8.268  2.3896  0.1842 -0.0948
 7605SOL     OW34447   4.161   0.921   9.039 -0.0478  0.5231  0.2213
 7605SOL    HW134448   4.187   0.855   9.104 -2.7378  0.5778  1.3490
 7605SOL    HW234449   4.204   1.000   9.072  0.1912  0.0587  1.0361
 7606SOL     OW34450   4.091   2.462   9.538 -0.3146 -0.5971 -0.0296
 7606SOL    HW134451   4.126   2.501   9.618 -0.5615 -0.5055  0.0325
 7606SOL    HW234452   4.066   2.375   9.568  0.0547 -0.8153 -0.3485
 7607SOL     OW34453   3.239   3.171   9.083  0.1700 -0.4281  0.1139
 7607SOL    HW134454   3.302   3.101   9.101 -3.0799 -3.0842  1.1128
 7607SOL    HW234455   3.169   3.114   9.051  0.0618 -0.1223 -0.1975
 7608SOL     OW34456   0.622   1.966   2.975 -0.0933  0.0280 -0.1393
 7608SOL    HW134457   0.672   2.029   2.923 -0.1000 -0.4223 -0.6979
 7608SOL    HW234458   0.641   1.890   2.920 -0.5811 -0.7483  0.7590
 7609SOL     OW34459   2.678   0.183  15.054  0.0429  0.1434  0.3878
 7609SOL    HW134460   2.669   0.264  15.004  3.4435  2.1184  2.9504
 7609SOL    HW234461   2.609   0.125  15.024  1.3711 -1.0778 -0.3462
 7610SOL     OW34462   2.454   1.775   8.594  0.1546 -0.7329  0.1907
 7610SOL    HW134463   2.396   1.742   8.525  0.0730 -2.9888  1.3286
 7610SOL    HW234464   2.433   1.707   8.659 -1.1814 -0.2838  0.2285
 7611SOL     OW34465   0.396   0.992   8.525  0.0141  0.1568 -0.3020
 7611SOL    HW134466   0.442   1.054   8.469  0.9363  0.7664  1.1501
 7611SOL    HW234467   0.373   1.055   8.593  0.8099 -0.0592  0.1589
 7612SOL     OW34468   3.483   2.725   8.948 -0.2625  0.0026  0.2555
 7612SOL    HW134469   3.563   2.673   8.953 -0.1081 -0.0349 -2.8510
 7612SOL    HW234470   3.504   2.756   8.860  3.4405 -2.4538  0.2954
 7613SOL     OW34471   0.502   4.509  13.650 -0.1805  0.4825  0.0434
 7613SOL    HW134472   0.444   4.585  13.652 -0.5495  0.1483  1.5703
 7613SOL    HW234473   0.564   4.529  13.719 -0.4661  1.2382  0.0742
 7614SOL     OW34474   0.329   3.948  12.329  0.3047  0.6442 -0.2522
 7614SOL    HW134475   0.269   3.931  12.256 -1.1572  3.2252  0.3325
 7614SOL    HW234476   0.286   3.912  12.407  0.1045 -0.7701 -1.0112
 7615SOL     OW34477   3.794   2.972   2.035 -0.3703  0.1680 -0.3982
 7615SOL    HW134478   3.842   2.901   1.992  0.3379  1.7100 -2.2105
 7615SOL    HW234479   3.856   3.025   2.085 -0.7049  1.7159 -1.6295
 7616SOL     OW34480   0.553   1.233   3.157  0.6645 -0.1675  0.7775
 7616SOL    HW134481   0.633   1.242   3.105  0.0190 -2.1074 -0.5399
 7616SOL    HW234482   0.572   1.312   3.208  1.1146  0.4593 -0.3501
 7617SOL     OW34483   2.888   3.729   2.604 -0.3858  0.0628  0.3958
 7617SOL    HW134484   2.824   3.672   2.560 -0.1722  0.5538 -0.5626
 7617SOL    HW234485   2.828   3.800   2.626  1.1375  0.9303  1.6749
 7618SOL     OW34486   0.292   0.797   6.580  0.6919  0.2554 -0.2715
 7618SOL    HW134487   0.274   0.743   6.503  0.7561  0.3274 -0.3352
 7618SOL    HW234488   0.263   0.881   6.545  1.2992  0.7593  0.4350
 7619SOL     OW34489   3.294   3.772   7.529 -0.2950 -0.0531 -0.5816
 7619SOL    HW134490   3.295   3.709   7.457  1.5572 -0.2783 -0.3484
 7619SOL    HW234491   3.200   3.774   7.550  0.1831  1.6213  1.3995
 7620SOL     OW34492   0.415   3.501   3.489  0.2136  0.3337 -0.3330
 7620SOL    HW134493   0.478   3.451   3.541  0.4143  0.6808 -0.2469
 7620SOL    HW234494   0.471   3.540   3.422  1.7804 -0.5836  0.4458
 7621SOL     OW34495   4.619   2.993   5.110 -0.1840 -0.5847 -0.3489
 7621SOL    HW134496   4.607   3.088   5.111  1.4451 -0.3725 -0.9067
 7621SOL    HW234497   4.649   2.976   5.021 -0.0131 -2.7530  0.1254
 7622SOL     OW34498   1.419   4.549   9.665  0.5060 -0.3440  0.0658
 7622SOL    HW134499   1.383   4.601   9.593  1.4427  0.8327  0.4538
 7622SOL    HW234500   1.410   4.458   9.636  3.2436 -1.2180  2.0733
 7623SOL     OW34501   0.250   0.502  13.745 -0.0774 -0.1005 -0.5939
 7623SOL    HW134502   0.324   0.529  13.691 -0.4555  0.1597 -0.9727
 7623SOL    HW234503   0.212   0.584  13.776  1.3358 -0.1975  1.4323
 7624SOL     OW34504   4.102   3.828  10.724 -0.0235  0.5743 -0.5442
 7624SOL    HW134505   4.080   3.735  10.731 -2.8278  1.1613 -1.5349
 7624SOL    HW234506   4.190   3.836  10.687  0.4955 -2.0435  0.0764
 7625SOL     OW34507   3.476   1.222  10.579 -0.0403  0.0461  0.5642
 7625SOL    HW134508   3.403   1.260  10.530  0.2496 -2.0327 -1.4748
 7625SOL    HW234509   3.550   1.276  10.549  1.3300 -0.4906  3.0118
 7626SOL     OW34510   0.134   3.465   6.459  0.3504 -0.0982 -0.0972
 7626SOL    HW134511   0.215   3.415   6.471  0.0639 -0.1984  1.4797
 7626SOL    HW234512   0.167   3.553   6.444  1.1754 -0.2805  0.6488
 7627SOL     OW34513   0.477   3.267   3.949  0.1506 -1.0861 -0.0149
 7627SOL    HW134514   0.386   3.278   3.977  0.4114 -2.3628  1.3565
 7627SOL    HW234515   0.510   3.345   3.994  0.1516 -0.7021 -0.6800
 7628SOL     OW34516   4.597   3.917   5.498 -0.5989 -0.1592  0.0642
 7628SOL    HW134517   4.666   3.934   5.562  0.2220  1.9251 -1.3872
 7628SOL    HW234518   4.629   3.975   5.429 -1.6929 -0.2454 -0.5193
 7629SOL     OW34519   4.686   1.523  17.234  0.0034 -0.2439 -0.4172
 7629SOL    HW134520   4.717   1.543  17.146 -1.1095 -0.9546 -0.9672
 7629SOL    HW234521   0.037   1.513  17.260  0.1066  0.7423 -0.3768
 7630SOL     OW34522   3.909   2.121   9.006 -0.5235 -0.5839  0.7040
 7630SOL    HW134523   3.967   2.179   8.957 -0.7337 -0.6359  0.3906
 7630SOL    HW234524   3.847   2.103   8.935  0.2971 -0.6321  0.0089
 7631SOL     OW34525   2.011   0.690   8.164  0.1816  0.0963 -0.1052
 7631SOL    HW134526   2.043   0.644   8.086 -0.6807 -2.1197  0.8357
 7631SOL    HW234527   2.028   0.619   8.227  1.3336 -0.2794 -0.8320
 7632SOL     OW34528   3.536   3.782  16.468  0.0901 -0.3223  0.4035
 7632SOL    HW134529   3.604   3.849  16.463 -0.1152  0.0326  2.4469
 7632SOL    HW234530   3.521   3.787  16.373  0.5358  1.3767  0.4099
 7633SOL     OW34531   2.769   0.012   1.222 -0.6711 -0.1643  0.0955
 7633SOL    HW134532   2.832   4.711   1.162 -0.9209 -1.5011  0.7546
 7633SOL    HW234533   2.768   4.675   1.278 -2.2324 -1.1578 -1.2714
 7634SOL     OW34534   4.708   0.219  12.017  0.0600 -0.2575  0.0918
 7634SOL    HW134535   4.723   0.154  11.948  0.8565 -1.2490  1.2053
 7634SOL    HW234536   4.718   0.166  12.096 -1.9205  0.4980  0.8434
 7635SOL     OW34537   4.224   3.116  15.320  0.2915  0.2329  0.2871
 7635SOL    HW134538   4.157   3.130  15.252 -0.2505  1.6847  1.1236
 7635SOL    HW234539   4.220   3.025  15.350  1.9467 -0.1897 -0.7825
 7636SOL     OW34540   3.903   3.408   5.526 -0.3833 -0.3049  0.0476
 7636SOL    HW134541   3.841   3.420   5.599  0.0364  0.2139  0.3180
 7636SOL    HW234542   3.965   3.481   5.526  0.3976 -0.9679  0.1178
 7637SOL     OW34543   4.068   4.277   6.964 -0.6863  0.0367  0.2728
 7637SOL    HW134544   4.068   4.362   7.008 -0.4194  0.3721 -0.3781
 7637SOL    HW234545   4.156   4.254   6.992 -0.8987 -1.0406  0.0542
 7638SOL     OW34546   4.309   1.871   8.357 -0.1329  0.2041  0.1310
 7638SOL    HW134547   4.232   1.882   8.301  0.9147  0.0897 -1.3419
 7638SOL    HW234548   4.260   1.853   8.437  1.6219 -0.5116  1.0400
 7639SOL     OW34549   0.985   3.954   8.104  0.5255  0.0576 -0.0980
 7639SOL    HW134550   1.073   3.945   8.066  0.5765 -1.5645  0.3816
 7639SOL    HW234551   1.002   3.926   8.194  3.1602  1.7091 -0.1117
 7640SOL     OW34552   3.623   3.675   9.045  0.6682 -0.4537  0.3864
 7640SOL    HW134553   3.624   3.760   9.089 -1.5496 -0.9285  1.3617
 7640SOL    HW234554   3.605   3.613   9.115 -4.1066 -1.8468 -2.0940
 7641SOL     OW34555   2.813   1.531   6.927  0.1424 -0.4152 -0.2474
 7641SOL    HW134556   2.900   1.496   6.948  0.2432 -1.4729 -2.4636
 7641SOL    HW234557   2.760   1.481   6.990 -3.0413  2.1785 -0.8867
 7642SOL     OW34558   2.863   3.792   8.212 -0.2968 -0.5754 -0.2501
 7642SOL    HW134559   2.838   3.702   8.194 -0.1540 -0.7937  0.6107
 7642SOL    HW234560   2.959   3.789   8.209 -0.2184  0.2296  1.2400
 7643SOL     OW34561   0.160   1.244   2.399  0.0221  0.0369 -0.4686
 7643SOL    HW134562   0.070   1.258   2.370 -0.1475  0.2152  0.1462
 7643SOL    HW234563   0.164   1.271   2.491  1.9619 -2.4645  0.2009
 7644SOL     OW34564   3.130   1.886   8.543  0.1598 -0.0588  0.3776
 7644SOL    HW134565   3.140   1.921   8.454  2.6717  0.1850  0.7605
 7644SOL    HW234566   3.207   1.829   8.547  0.3149  0.3557  3.0071
 7645SOL     OW34567   3.380   4.522   4.561 -0.0431  0.0705  0.5515
 7645SOL    HW134568   3.387   4.532   4.656  2.3096 -2.6348  0.6743
 7645SOL    HW234569   3.451   4.458   4.550 -0.7543 -0.5268 -0.5805
 7646SOL     OW34570   3.302   4.163  16.146 -0.0599  0.1331  0.2323
 7646SOL    HW134571   3.344   4.244  16.115 -1.3185 -0.1374 -2.1862
 7646SOL    HW234572   3.265   4.130  16.064  0.9118 -0.3258 -0.0236
 7647SOL     OW34573   3.189   0.317  10.169 -0.0005  0.2337 -0.2405
 7647SOL    HW134574   3.190   0.410  10.192  1.3080  0.4495 -1.1679
 7647SOL    HW234575   3.283   0.300  10.165 -0.1789 -0.6347 -0.7948
 7648SOL     OW34576   0.703   0.062   3.076  0.0680  0.1106 -0.3249
 7648SOL    HW134577   0.624   0.105   3.045  0.5687  1.9468  0.9518
 7648SOL    HW234578   0.776   0.108   3.034  0.2946 -0.0887 -0.1488
 7649SOL     OW34579   3.561   3.782   9.639  0.5103  0.2984  0.6480
 7649SOL    HW134580   3.473   3.764   9.607  0.1389  2.1214  0.6228
 7649SOL    HW234581   3.557   3.857   9.698  0.5318 -0.0604  1.1040
 7650SOL     OW34582   3.513   2.965   3.341 -1.4534  0.3111  0.1390
 7650SOL    HW134583   3.421   2.950   3.360 -1.4453 -0.3428 -0.3742
 7650SOL    HW234584   3.547   2.979   3.430  0.9746  0.0004 -0.7428
 7651SOL     OW34585   2.528   2.546   8.250  0.6272 -0.2772  0.4687
 7651SOL    HW134586   2.471   2.618   8.278  2.0280  1.1190 -0.2085
 7651SOL    HW234587   2.478   2.512   8.176 -0.6910  1.5523  0.5252
 7652SOL     OW34588   4.181   1.646   3.349 -0.1708  0.4949 -0.4693
 7652SOL    HW134589   4.268   1.664   3.382  0.0529  0.3774 -0.9893
 7652SOL    HW234590   4.156   1.731   3.312  2.0649  1.4128  0.1784
 7653SOL     OW34591   3.355   2.574   9.176  0.0213 -0.0825 -0.8364
 7653SOL    HW134592   3.430   2.594   9.120  0.8526 -1.0184 -0.0514
 7653SOL    HW234593   3.284   2.632   9.147 -1.1141 -0.0161  1.9708
 7654SOL     OW34594   4.183   0.421   9.676 -0.1659 -0.5484  0.0321
 7654SOL    HW134595   4.200   0.486   9.608  0.6193  0.1208  0.8732
 7654SOL    HW234596   4.157   0.350   9.617 -0.6742 -1.6675  1.6136
 7655SOL     OW34597   0.774   4.584  16.140 -0.0230  0.3818  0.2678
 7655SOL    HW134598   0.832   4.522  16.095  1.2262  1.1212  0.8578
 7655SOL    HW234599   0.835   4.657  16.154  1.8680 -0.5833 -2.8722
 7656SOL     OW34600   2.874   2.740   9.461  0.4712 -0.2819 -0.0859
 7656SOL    HW134601   2.922   2.658   9.448 -1.6071 -1.4524 -0.3920
 7656SOL    HW234602   2.937   2.808   9.437 -0.2627 -0.6806 -3.1951
 7657SOL     OW34603   2.864   2.495   3.907  0.4997  0.2998 -0.0733
 7657SOL    HW134604   2.920   2.467   3.980  2.1949  1.5719 -0.8774
 7657SOL    HW234605   2.875   2.590   3.913 -0.5852  0.3401  1.4899
 7658SOL     OW34606   0.714   3.186   0.728  0.0085 -0.2755 -0.1100
 7658SOL    HW134607   0.749   3.167   0.641 -0.7978 -1.6543 -0.1352
 7658SOL    HW234608   0.683   3.276   0.733 -2.3940 -1.2201  1.9964
 7659SOL     OW34609   1.443   2.926   3.372  0.1780  0.4543  0.1288
 7659SOL    HW134610   1.518   2.870   3.391  0.3198  0.7789  0.5316
 7659SOL    HW234611   1.413   2.944   3.462 -1.8722 -2.0899 -0.0494
 7660SOL     OW34612   4.640   4.223   7.419 -0.0030 -0.8104  0.1654
 7660SOL    HW134613   4.621   4.129   7.418  1.9239 -1.1961  0.2437
 7660SOL    HW234614   4.718   4.221   7.474  0.3272  2.0479 -0.2563
 7661SOL     OW34615   0.995   2.255  12.289  0.2093 -0.0267  0.5712
 7661SOL    HW134616   1.071   2.206  12.319  0.2227  0.4558  1.3270
 7661SOL    HW234617   0.932   2.183  12.296 -1.4908  1.4483  0.5574
 7662SOL     OW34618   1.531   4.254   4.026 -0.0024 -0.0883  0.5580
 7662SOL    HW134619   1.455   4.245   3.968  1.5083 -0.2184 -1.4163
 7662SOL    HW234620   1.523   4.342   4.063  1.8837  0.8069 -1.1182
 7663SOL     OW34621   1.688   3.661   1.682  0.0210 -0.5597 -0.2184
 7663SOL    HW134622   1.779   3.685   1.661 -0.1330  1.0132  0.9398
 7663SOL    HW234623   1.699   3.588   1.743 -2.4610 -1.0268 -0.3294
 7664SOL     OW34624   2.653   3.793   7.673  0.0193 -0.2662  0.5589
 7664SOL    HW134625   2.699   3.736   7.735 -1.3762  1.3829  3.1007
 7664SOL    HW234626   2.575   3.819   7.722  0.2592 -1.7642  1.7150
 7665SOL     OW34627   4.389   4.062   5.811 -0.3804 -0.1057  0.3349
 7665SOL    HW134628   4.326   4.133   5.797 -0.9244 -1.1771 -2.6052
 7665SOL    HW234629   4.469   4.114   5.817  0.3106 -1.1038 -0.3118
 7666SOL     OW34630   2.184   2.166   4.512  0.4899  0.4032 -0.1304
 7666SOL    HW134631   2.223   2.109   4.446 -0.1070  1.2210 -1.1886
 7666SOL    HW234632   2.091   2.144   4.510  0.6588 -0.4652  1.5831
 7667SOL     OW34633   3.742   3.550   3.565  0.3632  0.1038 -0.0030
 7667SOL    HW134634   3.694   3.632   3.576  1.6923  0.9017 -0.0775
 7667SOL    HW234635   3.767   3.534   3.656  0.2942 -0.0052 -0.0039
 7668SOL     OW34636   0.428   4.700   5.501  0.2375  0.0467 -0.2068
 7668SOL    HW134637   0.434   0.035   5.442  0.4510  1.4066  1.5350
 7668SOL    HW234638   0.519   4.685   5.525  0.6917 -1.7841 -3.1151
 7669SOL     OW34639   2.580   1.167   4.742 -0.4856  0.3989  0.0453
 7669SOL    HW134640   2.522   1.165   4.817  0.4035 -0.1903  0.7248
 7669SOL    HW234641   2.667   1.193   4.773 -0.0274 -1.5001  0.3679
 7670SOL     OW34642   4.197   3.897   8.719 -0.0921  0.0216  0.0734
 7670SOL    HW134643   4.177   3.978   8.671  0.1541 -0.2068 -0.4060
 7670SOL    HW234644   4.109   3.861   8.728 -0.3640  0.3842 -1.0733
 7671SOL     OW34645   0.287   3.637   3.165  0.1457 -0.0508 -0.5306
 7671SOL    HW134646   0.279   3.732   3.151  0.2105 -0.3457 -2.6693
 7671SOL    HW234647   0.375   3.642   3.202 -1.2073 -2.3059  2.9354
 7672SOL     OW34648   3.132   2.291   7.572 -0.6628 -0.2493  0.0101
 7672SOL    HW134649   3.211   2.280   7.519 -1.2687 -1.5433 -0.5962
 7672SOL    HW234650   3.135   2.381   7.607 -1.8897 -0.6156  1.0168
 7673SOL     OW34651   3.635   2.700   2.450  0.2934 -0.0143  0.5162
 7673SOL    HW134652   3.540   2.708   2.459  0.3308  2.0643 -0.9314
 7673SOL    HW234653   3.667   2.763   2.515  0.6340 -1.2047  1.4814
 7674SOL     OW34654   2.394   3.937  17.730  0.4953  0.2291 -0.1291
 7674SOL    HW134655   2.346   3.883  17.668  0.6017 -1.4250  1.2256
 7674SOL    HW234656   2.463   3.965  17.670  0.9968  0.3878  0.5252
 7675SOL     OW34657   1.500   3.456   2.413 -0.3250  0.0840  0.1341
 7675SOL    HW134658   1.590   3.479   2.434 -0.5697 -0.2798  1.5792
 7675SOL    HW234659   1.513   3.390   2.345 -0.0360 -2.2349  2.4352
 7676SOL     OW34660   0.223   3.265   4.657  0.1703 -0.1333 -0.3308
 7676SOL    HW134661   0.149   3.258   4.717  1.0276  0.9626  0.8390
 7676SOL    HW234662   0.304   3.258   4.707 -0.0498  0.7052  0.1521
 7677SOL     OW34663   3.146   2.785  17.321  0.7011  0.7161  0.2337
 7677SOL    HW134664   3.106   2.776  17.407  0.2947  1.0866  0.0837
 7677SOL    HW234665   3.210   2.852  17.344  2.7884 -0.9193 -0.8197
 7678SOL     OW34666   1.869   1.600   7.901 -0.3095 -0.0751  0.2842
 7678SOL    HW134667   1.838   1.570   7.986 -1.6851 -0.4068 -0.3385
 7678SOL    HW234668   1.822   1.684   7.910 -0.6060 -0.1025 -0.9937
 7679SOL     OW34669   3.806   3.713   1.972  0.0747  0.1999  0.0203
 7679SOL    HW134670   3.889   3.738   2.014  0.1514 -0.1281  0.0711
 7679SOL    HW234671   3.750   3.789   1.982  0.3401  0.6499 -1.9606
 7680SOL     OW34672   1.859   4.178   8.071  0.3756  0.7955  0.2150
 7680SOL    HW134673   1.916   4.200   8.144 -1.3318  0.6181  1.5981
 7680SOL    HW234674   1.888   4.246   8.010 -1.1122  1.1251 -0.1268
 7681SOL     OW34675   3.773   0.893   6.243 -0.5708 -0.2497  0.4614
 7681SOL    HW134676   3.700   0.885   6.183 -0.3732 -1.3847  0.3865
 7681SOL    HW234677   3.843   0.854   6.191  0.9605  1.0324  1.5296
 7682SOL     OW34678   0.344   0.687  16.237 -0.6038 -0.4924  0.0526
 7682SOL    HW134679   0.277   0.750  16.212  0.3553  0.4004 -0.3012
 7682SOL    HW234680   0.358   0.724  16.324  0.0368  1.7951 -1.0120
 7683SOL     OW34681   0.212   1.995   0.299  0.0359  0.5322  0.5625
 7683SOL    HW134682   0.140   1.933   0.307  0.1345  0.3356 -0.1288
 7683SOL    HW234683   0.287   1.939   0.280 -1.1657 -0.7525 -0.3227
 7684SOL     OW34684   2.388   4.433   7.943  0.4927 -0.1780 -0.1213
 7684SOL    HW134685   2.369   4.354   7.891 -1.0163 -0.6871  1.1923
 7684SOL    HW234686   2.455   4.392   7.997  0.0969  0.1754  0.6344
 7685SOL     OW34687   4.340   0.251   6.767  0.3870 -0.1005 -0.3913
 7685SOL    HW134688   4.273   0.217   6.825  1.1280 -1.1102 -0.1378
 7685SOL    HW234689   4.417   0.208   6.805 -0.0924 -2.6490 -2.3479
 7686SOL     OW34690   1.985   2.488   9.433  0.5378  0.1537  0.2164
 7686SOL    HW134691   1.891   2.497   9.420  0.7408 -0.1115 -1.4975
 7686SOL    HW234692   2.000   2.465   9.525 -1.3301 -0.3230  0.3967
 7687SOL     OW34693   3.646   3.455   2.430  0.2666  0.1535 -0.4928
 7687SOL    HW134694   3.574   3.480   2.371 -2.6283 -0.0232  2.9730
 7687SOL    HW234695   3.667   3.369   2.394 -0.4670  0.4847 -1.7023
 7688SOL     OW34696   0.287   0.403   3.220 -0.1612 -0.2999 -0.3451
 7688SOL    HW134697   0.245   0.379   3.137 -3.8501 -0.3056  1.5588
 7688SOL    HW234698   0.297   0.497   3.203 -3.8119  0.2441  0.6517
 7689SOL     OW34699   2.353   3.470   5.327 -0.6789  0.1776 -0.3264
 7689SOL    HW134700   2.304   3.551   5.342 -1.4129  0.0804 -2.1350
 7689SOL    HW234701   2.332   3.418   5.404 -0.0978  1.0502  0.4181
 7690SOL     OW34702   1.191   1.264   2.681 -0.0452 -0.0714 -0.2639
 7690SOL    HW134703   1.204   1.184   2.630 -0.6020 -0.6053  0.4300
 7690SOL    HW234704   1.110   1.302   2.646  0.3891  1.0200 -0.1020
 7691SOL     OW34705   4.277   2.123   3.211  0.1522 -0.0889  0.3652
 7691SOL    HW134706   4.308   2.122   3.121  0.9041 -1.1171  0.6251
 7691SOL    HW234707   4.246   2.213   3.219 -0.3487 -0.3506  1.4242
 7692SOL     OW34708   1.437   0.355   5.868  0.3513  0.1942 -0.0055
 7692SOL    HW134709   1.413   0.405   5.791 -1.2401 -0.6289 -0.0613
 7692SOL    HW234710   1.405   0.269   5.839  1.1713 -0.8993  2.3113
 7693SOL     OW34711   2.840   2.834   8.261 -0.2098 -0.0110  0.1426
 7693SOL    HW134712   2.852   2.907   8.320  1.6209 -0.3001  0.1291
 7693SOL    HW234713   2.753   2.843   8.223 -1.1541  0.9796  2.5594
 7694SOL     OW34714   2.350   3.465  15.026 -0.2266  0.3090  0.3418
 7694SOL    HW134715   2.280   3.406  14.998  0.9175 -0.6993 -0.4078
 7694SOL    HW234716   2.353   3.518  14.947  2.8399  0.6882  0.7041
 7695SOL     OW34717   3.671   1.941  10.461  0.6792 -0.0679 -0.0086
 7695SOL    HW134718   3.614   1.864  10.466  1.5252 -0.5886  1.7766
 7695SOL    HW234719   3.671   1.966  10.554  1.5971  0.4778 -0.1635
 7696SOL     OW34720   2.829   0.085   2.919 -0.7819 -0.4071  0.1799
 7696SOL    HW134721   2.783   0.087   2.835  1.1530 -0.0321 -0.8749
 7696SOL    HW234722   2.824   0.178   2.940 -0.2738 -0.3507  0.0555
 7697SOL     OW34723   2.902   2.487  13.513  0.2176  0.2566  0.2114
 7697SOL    HW134724   2.864   2.513  13.596  0.6745  1.2550  0.1091
 7697SOL    HW234725   2.992   2.517  13.529 -0.3262  2.4986 -0.9581
 7698SOL     OW34726   1.604   4.364  16.743 -0.1130  0.2548 -0.7024
 7698SOL    HW134727   1.527   4.316  16.774 -0.4368  1.0087 -0.3345
 7698SOL    HW234728   1.580   4.449  16.779  1.4280  0.6601 -0.6713
 7699SOL     OW34729   0.746   0.224   9.461  0.1591  0.6409  0.5571
 7699SOL    HW134730   0.679   0.170   9.418 -0.1834 -0.1481  2.0403
 7699SOL    HW234731   0.813   0.163   9.493  1.4624  1.3640 -0.8283
 7700SOL     OW34732   1.242   0.285  16.281 -0.2984  0.3773 -0.5760
 7700SOL    HW134733   1.229   0.379  16.288 -0.8706  0.2778 -0.2946
 7700SOL    HW234734   1.295   0.273  16.202 -1.2505 -1.3123 -0.9523
 7701SOL     OW34735   1.716   0.514   3.633 -0.2757 -0.8941  0.1920
 7701SOL    HW134736   1.743   0.429   3.668 -0.3465 -0.9721  0.0557
 7701SOL    HW234737   1.701   0.547   3.722  0.1084  0.2884 -0.1729
 7702SOL     OW34738   1.901   3.504  15.043 -0.0316 -0.0711  0.4919
 7702SOL    HW134739   1.873   3.468  15.127  1.1832 -0.3301  0.7884
 7702SOL    HW234740   1.858   3.589  15.047 -0.7263 -0.4010 -0.0179
 7703SOL     OW34741   0.842   3.026   2.577  0.3890 -0.4657  0.6475
 7703SOL    HW134742   0.776   3.061   2.516  2.0429  0.5508 -0.5544
 7703SOL    HW234743   0.916   3.084   2.561 -0.2974  0.5389  1.0384
 7704SOL     OW34744   0.181   1.789  16.536  0.0548  0.1678 -0.1754
 7704SOL    HW134745   0.141   1.876  16.538  2.1262  1.1187  0.2739
 7704SOL    HW234746   0.128   1.739  16.474 -0.2699 -1.0584  1.0777
 7705SOL     OW34747   3.669   0.389   5.925 -0.2237 -0.3885 -0.8504
 7705SOL    HW134748   3.611   0.353   5.859 -1.0407  0.5688 -0.6600
 7705SOL    HW234749   3.719   0.310   5.943 -2.3098 -1.4230  0.3738
 7706SOL     OW34750   1.554   1.462  16.736 -0.4148 -0.1087 -0.2615
 7706SOL    HW134751   1.617   1.485  16.805 -0.6919  0.1995 -0.1080
 7706SOL    HW234752   1.553   1.367  16.732  0.0038 -0.1434  0.2775
 7707SOL     OW34753   3.921   0.660   7.408  0.4308 -0.0246 -0.2749
 7707SOL    HW134754   3.894   0.572   7.383  1.1732 -0.1927 -0.4762
 7707SOL    HW234755   3.836   0.703   7.416 -0.8999 -2.7499 -0.0178
 7708SOL     OW34756   4.251   3.426  11.576  0.2124  0.4186 -0.3151
 7708SOL    HW134757   4.313   3.392  11.512  1.8924  0.8624  1.0881
 7708SOL    HW234758   4.179   3.365  11.559  0.3245  0.7746 -2.0043
 7709SOL     OW34759   1.877   1.016   5.682  0.2261  0.0340  0.2293
 7709SOL    HW134760   1.861   1.108   5.660  0.4420 -0.4788 -2.0350
 7709SOL    HW234761   1.808   0.973   5.631  0.1231 -0.0196  0.4150
 7710SOL     OW34762   0.761   0.765   9.718 -0.1327 -0.4337 -0.4292
 7710SOL    HW134763   0.792   0.698   9.657  2.7267  0.5831 -0.0972
 7710SOL    HW234764   0.840   0.814   9.741  0.4880 -2.3087  1.4897
 7711SOL     OW34765   1.110   0.690   7.593  0.2176  0.0176  0.0891
 7711SOL    HW134766   1.082   0.698   7.685 -1.3248 -0.1200 -0.3640
 7711SOL    HW234767   1.089   0.773   7.551 -1.1285 -0.6073 -0.5042
 7712SOL     OW34768   0.385   2.710   5.260 -0.1240 -0.0081 -0.3642
 7712SOL    HW134769   0.303   2.667   5.284  0.1577  0.1544  0.8877
 7712SOL    HW234770   0.385   2.787   5.318  2.5930 -0.1272 -0.2312
 7713SOL     OW34771   2.107   4.471  12.524 -0.1764  0.0916  0.0391
 7713SOL    HW134772   2.107   4.505  12.613 -1.3457 -1.8620  0.7828
 7713SOL    HW234773   2.171   4.399  12.530 -1.1545 -0.9399 -1.9493
 7714SOL     OW34774   3.560   0.604   4.518 -0.5061 -0.1625  0.5029
 7714SOL    HW134775   3.655   0.600   4.507 -0.6283  0.3844 -0.6934
 7714SOL    HW234776   3.554   0.697   4.541 -1.2149  0.2687 -1.3843
 7715SOL     OW34777   0.361   3.452   4.225 -0.4079  0.8103  0.6592
 7715SOL    HW134778   0.300   3.430   4.155 -0.5717  3.3567  0.0253
 7715SOL    HW234779   0.341   3.545   4.227  0.8336  1.0934 -0.8827
 7716SOL     OW34780   0.374   4.585   2.107 -0.4488 -0.4456  0.4731
 7716SOL    HW134781   0.418   4.631   2.178 -0.5807  3.3644 -1.9338
 7716SOL    HW234782   0.417   4.500   2.104 -0.2983 -0.3426 -0.3630
 7717SOL     OW34783   1.032   4.223   2.368  0.5425  0.4588  0.4318
 7717SOL    HW134784   1.014   4.278   2.444 -1.6058  1.2177 -0.6067
 7717SOL    HW234785   0.998   4.137   2.393 -1.3259  1.4650  1.3798
 7718SOL     OW34786   3.842   4.525  11.411 -0.1985  0.0595 -0.2019
 7718SOL    HW134787   3.785   4.582  11.358 -0.2069  0.9298  0.7454
 7718SOL    HW234788   3.788   4.446  11.408 -0.7124  0.4072 -0.1301
 7719SOL     OW34789   1.043   0.414   4.109 -0.5375 -0.1393 -0.3396
 7719SOL    HW134790   1.065   0.485   4.049 -1.5670  0.1759 -0.3470
 7719SOL    HW234791   1.036   0.332   4.060 -0.2297  0.7768 -1.9253
 7720SOL     OW34792   2.657   4.204  13.032 -0.2957  0.1789  0.3047
 7720SOL    HW134793   2.662   4.238  12.943  1.0644  0.3465  0.4432
 7720SOL    HW234794   2.619   4.284  13.068  0.1771  0.9239 -0.8239
 7721SOL     OW34795   4.096   2.791   7.988  0.4887  0.1501 -0.2330
 7721SOL    HW134796   4.047   2.857   7.938 -0.9950 -0.6763  0.1357
 7721SOL    HW234797   4.118   2.831   8.072  0.0806 -0.9422  0.3894
 7722SOL     OW34798   2.221   1.371   5.353  0.0021  0.2308 -0.1179
 7722SOL    HW134799   2.265   1.419   5.283  1.1390  2.0942  1.9051
 7722SOL    HW234800   2.144   1.348   5.300  2.1741 -0.8498 -2.7907
 7723SOL     OW34801   0.723   4.617   1.862 -0.4459  0.3182 -0.4983
 7723SOL    HW134802   0.813   4.632   1.833  0.0313 -1.8248 -0.1657
 7723SOL    HW234803   0.679   4.611   1.777  0.0497 -0.5419 -0.7017
 7724SOL     OW34804   0.256   3.646   5.775 -0.0755 -0.0684 -0.4986
 7724SOL    HW134805   0.344   3.607   5.781  0.3807  0.6120 -3.0056
 7724SOL    HW234806   0.220   3.610   5.694 -1.1046  0.5210 -0.3032
 7725SOL     OW34807   0.994   1.818   2.699 -0.7143 -0.6640  0.4244
 7725SOL    HW134808   1.032   1.846   2.616 -2.0052 -0.7313 -0.1937
 7725SOL    HW234809   1.072   1.808   2.753 -1.6540 -2.5103  1.4448
 7726SOL     OW34810   1.962   4.131   7.661  0.5186 -0.0858  0.2581
 7726SOL    HW134811   1.871   4.121   7.691  0.7419  1.6577  1.4962
 7726SOL    HW234812   2.010   4.098   7.736  1.1975  1.5313  0.5484
 7727SOL     OW34813   2.228   1.041  14.999  0.0112  0.6360 -0.4351
 7727SOL    HW134814   2.297   1.096  14.962  1.2087 -1.8432 -1.8327
 7727SOL    HW234815   2.156   1.097  14.969 -0.2485  1.6685  2.0833
 7728SOL     OW34816   0.826   0.149   1.638 -0.1749  0.2146 -0.1145
 7728SOL    HW134817   0.897   0.192   1.590 -1.4595  0.1482 -2.0754
 7728SOL    HW234818   0.831   0.056   1.616 -0.7786  0.4878 -1.4087
 7729SOL     OW34819   2.013   2.299  15.061  1.1054  0.2862 -0.0550
 7729SOL    HW134820   1.957   2.251  15.122  1.0468  3.2744  2.2184
 7729SOL    HW234821   2.087   2.240  15.051 -0.5796 -2.5371  4.0176
 7730SOL     OW34822   2.015   1.660   3.958  0.0403 -0.2136  0.2474
 7730SOL    HW134823   1.977   1.600   3.894  1.0585 -0.4995 -0.0870
 7730SOL    HW234824   1.940   1.697   4.003  1.1849 -0.0594  2.0268
 7731SOL     OW34825   2.120   1.063  12.057 -0.7870  0.3714  0.4696
 7731SOL    HW134826   2.096   1.127  12.124 -1.1859  1.1821 -0.4464
 7731SOL    HW234827   2.110   0.984  12.110  0.0780 -0.5409 -0.7298
 7732SOL     OW34828   1.725   0.271   3.003  0.2952 -0.4957 -0.1227
 7732SOL    HW134829   1.818   0.269   2.979  0.4383  2.6818  0.1985
 7732SOL    HW234830   1.707   0.192   3.055 -0.0086 -0.6164 -0.4109
 7733SOL     OW34831   3.919   3.995   2.496  0.0038  0.0290  0.7562
 7733SOL    HW134832   3.958   3.999   2.583 -1.7937 -1.4542  1.6308
 7733SOL    HW234833   3.991   3.946   2.457  0.9362  0.5386  1.8350
 7734SOL     OW34834   1.862   4.484   9.408 -0.1855 -0.2061  0.2138
 7734SOL    HW134835   1.840   4.402   9.453 -1.0415 -0.2998 -0.3679
 7734SOL    HW234836   1.784   4.538   9.414 -0.9092 -1.2836  0.5430
 7735SOL     OW34837   3.808   1.534   3.282 -0.1347  0.3430  0.3755
 7735SOL    HW134838   3.823   1.628   3.270 -0.8323  0.4294  0.1514
 7735SOL    HW234839   3.768   1.513   3.198 -3.1657  0.6921  1.6935
 7736SOL     OW34840   1.973   0.430   4.873 -0.2909 -0.4865  0.1427
 7736SOL    HW134841   2.044   0.469   4.924  0.0092 -1.5320  0.5259
 7736SOL    HW234842   1.906   0.497   4.882 -1.3855 -1.5985  0.1699
 7737SOL     OW34843   3.705   2.957   7.390 -0.1162 -0.8795  0.1214
 7737SOL    HW134844   3.793   2.927   7.365  1.0820 -0.2157  3.4736
 7737SOL    HW234845   3.649   2.908   7.330 -1.0118 -1.8855  1.7490
 7738SOL     OW34846   1.784   3.320   9.575 -0.7402  0.0745 -0.8026
 7738SOL    HW134847   1.771   3.403   9.530  0.3704  0.7513  0.0912
 7738SOL    HW234848   1.724   3.330   9.649  1.5091  1.6469  0.8455
 7739SOL     OW34849   2.838   0.264  10.796 -0.3961  0.7012 -0.2157
 7739SOL    HW134850   2.926   0.225  10.802 -0.8548 -0.4123 -0.7303
 7739SOL    HW234851   2.782   0.187  10.808  0.1598  0.3752  0.2763
 7740SOL     OW34852   3.907   2.055  15.638 -0.0862 -0.2000 -0.0956
 7740SOL    HW134853   3.907   2.059  15.542  1.7365  0.4311 -0.0694
 7740SOL    HW234854   3.812   2.044  15.649 -0.0325 -0.6994 -0.1432
 7741SOL     OW34855   3.324   0.821   7.706  0.1496 -0.2769  0.5228
 7741SOL    HW134856   3.337   0.871   7.625 -2.4829 -0.5477 -0.0489
 7741SOL    HW234857   3.389   0.863   7.762  0.4027  1.9506 -1.4347
 7742SOL     OW34858   0.597   0.766   4.484  0.1685  0.8263  0.1108
 7742SOL    HW134859   0.635   0.684   4.452 -0.5444 -0.1789  1.8843
 7742SOL    HW234860   0.520   0.736   4.532 -0.3992  1.5287 -0.3593
 7743SOL     OW34861   1.659   1.756   7.660  0.0234  0.2908  0.1353
 7743SOL    HW134862   1.715   1.814   7.608 -1.1890  1.5545  0.2258
 7743SOL    HW234863   1.680   1.798   7.744  0.0506  1.6498 -0.5369
 7744SOL     OW34864   0.854   3.611   4.179  0.2818  0.2343 -0.5360
 7744SOL    HW134865   0.934   3.629   4.228 -0.6072  1.2912  0.5136
 7744SOL    HW234866   0.881   3.626   4.088  2.0732 -1.3155 -0.2558
 7745SOL     OW34867   1.296   0.977   7.553 -0.4552 -0.2450 -0.0387
 7745SOL    HW134868   1.373   0.966   7.497  0.6432 -0.0988  1.4205
 7745SOL    HW234869   1.346   0.998   7.632 -0.7879  0.8947 -0.1379
 7746SOL     OW34870   2.730   0.098   5.213 -0.0066  0.2893  0.1290
 7746SOL    HW134871   2.730   0.193   5.203 -1.6113 -0.1400 -4.1027
 7746SOL    HW234872   2.821   0.078   5.190 -0.0158  0.7631 -0.3116
 7747SOL     OW34873   1.148   1.560  12.226  0.2294  0.1454  0.2545
 7747SOL    HW134874   1.121   1.651  12.236 -0.9669  0.0039 -1.6321
 7747SOL    HW234875   1.194   1.563  12.141 -0.5308  0.0104 -0.1609
 7748SOL     OW34876   1.293   0.365   3.850 -0.0405  0.2379  0.3733
 7748SOL    HW134877   1.312   0.407   3.766 -0.1504  1.6613  1.0712
 7748SOL    HW234878   1.215   0.414   3.875 -0.5504 -0.4788  0.2053
 7749SOL     OW34879   1.729   4.135  16.181  0.1232  0.0422  0.0842
 7749SOL    HW134880   1.697   4.178  16.260 -2.1080 -0.1305 -0.7258
 7749SOL    HW234881   1.658   4.078  16.154  0.8411  0.3489 -2.4433
 7750SOL     OW34882   1.334   1.224  17.062  0.6343  0.1207 -0.2393
 7750SOL    HW134883   1.258   1.167  17.071  1.0934 -0.3439  0.7288
 7750SOL    HW234884   1.361   1.199  16.973 -1.5644 -2.5412 -0.1778
 7751SOL     OW34885   2.236   0.539  11.383 -0.7112 -0.0844  0.1953
 7751SOL    HW134886   2.290   0.617  11.372  0.5749 -1.0380 -0.2153
 7751SOL    HW234887   2.265   0.480  11.313 -1.1057 -0.7981  0.6352
 7752SOL     OW34888   4.242   2.744   7.426 -0.5118  0.0999 -0.6100
 7752SOL    HW134889   4.324   2.792   7.428 -1.9315  2.4286  1.8242
 7752SOL    HW234890   4.191   2.784   7.497  2.2941  0.8366  1.0049
 7753SOL     OW34891   4.448   2.182   5.559 -0.0627  0.2411 -0.0620
 7753SOL    HW134892   4.432   2.096   5.521  0.5111 -0.2556  0.8138
 7753SOL    HW234893   4.472   2.165   5.650  1.6403 -3.7305 -1.2446
 7754SOL     OW34894   2.335   0.417   5.098 -0.5371 -0.3311  0.4666
 7754SOL    HW134895   2.412   0.415   5.041 -0.4398  1.0036  0.5475
 7754SOL    HW234896   2.312   0.510   5.089  1.2556 -0.0599 -1.4412
 7755SOL     OW34897   4.064   4.015  14.516 -0.0805 -0.8421  0.3665
 7755SOL    HW134898   4.063   4.036  14.609 -0.3305  1.2566 -0.1113
 7755SOL    HW234899   3.987   3.959  14.518 -1.1434  0.6646  1.5355
 7756SOL     OW34900   4.692   1.960  16.676  0.2664  0.6443  0.7804
 7756SOL    HW134901   0.016   1.979  16.745  0.8876  0.6171  0.2065
 7756SOL    HW234902   0.005   1.997  16.605 -0.4185 -0.5874 -0.3749
 7757SOL     OW34903   4.346   2.807   6.042 -0.1635 -0.4049 -0.0518
 7757SOL    HW134904   4.325   2.813   5.949 -1.1023 -1.0564  0.1117
 7757SOL    HW234905   4.325   2.895   6.072  2.4643 -0.2275  1.1904
 7758SOL     OW34906   4.619   3.091  13.097 -0.4115 -0.2422 -0.1904
 7758SOL    HW134907   4.665   3.162  13.141 -0.3511 -1.4836  1.7469
 7758SOL    HW234908   4.574   3.141  13.029  0.8701  1.6803  0.3836
 7759SOL     OW34909   3.196   0.250  10.752 -0.2000  0.1058 -0.3450
 7759SOL    HW134910   3.186   0.159  10.779  1.4384  0.4243  1.3454
 7759SOL    HW234911   3.201   0.301  10.833  1.7860  0.9812 -1.0031
 7760SOL     OW34912   2.562   3.283   5.257 -0.1786 -0.2314 -0.8227
 7760SOL    HW134913   2.551   3.303   5.164 -1.3584 -0.0132 -0.6333
 7760SOL    HW234914   2.504   3.349   5.295 -1.8735 -2.3740  0.2963
 7761SOL     OW34915   3.456   4.514   8.895  0.4258 -0.2653  0.1699
 7761SOL    HW134916   3.394   4.447   8.866 -0.1925  0.5663 -0.4069
 7761SOL    HW234917   3.492   4.483   8.978 -3.8867 -3.8873  0.7162
 7762SOL     OW34918   3.783   1.652   2.022  0.2571  0.3095  0.1582
 7762SOL    HW134919   3.799   1.735   2.066 -1.1347  2.4506 -3.3319
 7762SOL    HW234920   3.870   1.612   2.032  1.0456  2.0100  0.1148
 7763SOL     OW34921   3.872   0.737  13.248 -0.1628 -0.1316 -0.1567
 7763SOL    HW134922   3.950   0.684  13.228  1.5041  1.5107  2.0653
 7763SOL    HW234923   3.864   0.735  13.343 -2.3166 -0.3376 -0.3484
 7764SOL     OW34924   0.233   2.023   8.631  0.4418  0.5098 -0.0753
 7764SOL    HW134925   0.302   2.054   8.573  0.5104  0.4723 -0.0137
 7764SOL    HW234926   0.281   2.013   8.713 -0.6214 -0.3695  0.4401
 7765SOL     OW34927   0.454   3.993   2.035  0.2767  0.7973  0.1291
 7765SOL    HW134928   0.538   4.028   2.007  0.3844  1.2155  0.9706
 7765SOL    HW234929   0.414   3.982   1.949  1.1204 -0.1567 -0.1424
 7766SOL     OW34930   3.605   2.280   2.198 -0.1753  0.2294  0.0250
 7766SOL    HW134931   3.632   2.340   2.268 -0.7457  0.9365 -0.3688
 7766SOL    HW234932   3.557   2.220   2.255  1.4236  1.4800  2.6775
 7767SOL     OW34933   1.230   4.523   3.496  0.0922  0.4573 -0.6513
 7767SOL    HW134934   1.225   4.617   3.514 -2.9966 -0.3249  2.4944
 7767SOL    HW234935   1.177   4.487   3.567  1.6616 -1.0699 -0.2528
 7768SOL     OW34936   2.551   0.001   9.073  0.1551 -0.1045  0.1814
 7768SOL    HW134937   2.559   4.683   9.149  1.4946  1.5589  1.2873
 7768SOL    HW234938   2.541   0.088   9.112 -3.2366  0.2488 -1.4186
 7769SOL     OW34939   4.457   0.112   5.954 -0.0344 -0.3209 -0.3443
 7769SOL    HW134940   4.433   0.126   5.863  2.2471 -0.3286 -0.9504
 7769SOL    HW234941   4.402   0.036   5.973  0.9843 -1.5771 -2.4171
 7770SOL     OW34942   3.040   1.835   4.770  0.5851  0.4350 -0.0258
 7770SOL    HW134943   3.126   1.807   4.738  0.6482  1.7655 -1.0344
 7770SOL    HW234944   2.991   1.824   4.688  3.2744 -0.3148 -1.5260
 7771SOL     OW34945   2.834   0.294  15.243  0.4019  0.2126 -0.3725
 7771SOL    HW134946   2.860   0.381  15.212  1.2641  0.1710  0.2532
 7771SOL    HW234947   2.815   0.248  15.161  0.4713  1.2272 -0.9493
 7772SOL     OW34948   4.438   2.863  11.286 -0.7273  0.2287 -0.2259
 7772SOL    HW134949   4.418   2.937  11.343 -1.0021  0.0060 -0.0352
 7772SOL    HW234950   4.457   2.793  11.349 -3.1067 -0.5070 -0.3306
 7773SOL     OW34951   1.879   2.234  11.268 -0.5229  0.0557  0.2680
 7773SOL    HW134952   1.828   2.303  11.226 -1.0530 -1.0706 -0.9457
 7773SOL    HW234953   1.904   2.186  11.189  1.4297  0.5876  0.5512
 7774SOL     OW34954   0.403   4.065   2.765  0.3311  0.0375  0.3040
 7774SOL    HW134955   0.416   4.011   2.844  3.7502 -0.5624 -0.6673
 7774SOL    HW234956   0.484   4.041   2.721  1.0806 -0.5819  2.0111
 7775SOL     OW34957   2.471   4.022  10.971  0.3430  0.0072  0.4731
 7775SOL    HW134958   2.542   4.086  10.965 -0.3635  0.7129 -0.3295
 7775SOL    HW234959   2.500   3.970  11.046  0.4080  0.8913  1.0679
 7776SOL     OW34960   1.236   4.436   0.466  0.2560  0.3427  0.0656
 7776SOL    HW134961   1.158   4.410   0.515  0.8761 -2.6108 -0.4977
 7776SOL    HW234962   1.247   4.531   0.467  0.2530  0.3307  1.6408
 7777SOL     OW34963   2.853   1.084   4.572  0.5503 -0.6544 -0.7087
 7777SOL    HW134964   2.824   0.999   4.606  0.3102 -0.2092  0.2010
 7777SOL    HW234965   2.914   1.044   4.511  0.7443  1.1724 -1.7231
 7778SOL     OW34966   1.993   1.395  11.134  0.0151 -0.1080  0.3264
 7778SOL    HW134967   2.023   1.454  11.203  0.3136  0.0352  0.0753
 7778SOL    HW234968   2.024   1.450  11.062  0.3019 -1.1815 -0.3646
 7779SOL     OW34969   3.328   3.526   6.913 -0.2023 -0.4518 -0.4074
 7779SOL    HW134970   3.256   3.583   6.885 -0.1992  0.8091  2.1969
 7779SOL    HW234971   3.388   3.573   6.971 -1.1399  0.0094  0.1805
 7780SOL     OW34972   3.022   0.170   7.324 -0.2006 -0.4491 -0.0092
 7780SOL    HW134973   3.030   0.183   7.418  1.5172 -0.0649 -0.2154
 7780SOL    HW234974   3.113   0.170   7.295 -0.0701 -2.8770  0.3645
 7781SOL     OW34975   0.574   2.790   8.898 -0.0245 -0.3012 -0.2950
 7781SOL    HW134976   0.638   2.720   8.884  0.5744  0.1248  0.2825
 7781SOL    HW234977   0.585   2.788   8.993  0.0567  1.1414 -0.2748
 7782SOL     OW34978   3.602   1.101   8.341 -0.4289 -0.1923 -0.5924
 7782SOL    HW134979   3.673   1.065   8.395 -1.2284  1.8828  1.8538
 7782SOL    HW234980   3.654   1.116   8.262  1.5081  2.5073  1.1867
 7783SOL     OW34981   4.173   0.454   0.039 -0.6083 -0.5736  0.1545
 7783SOL    HW134982   4.168   0.478   0.132 -2.6166  0.8136 -0.3121
 7783SOL    HW234983   4.237   0.384   0.044  1.0429  1.0110  1.1562
 7784SOL     OW34984   3.717   4.399   5.030 -0.4723 -0.6573 -0.3063
 7784SOL    HW134985   3.644   4.462   5.027  0.5910  0.5006 -1.9400
 7784SOL    HW234986   3.792   4.457   5.039  0.2967 -1.6547 -0.3218
 7785SOL     OW34987   3.412   0.840  11.215 -0.3738 -0.4136  0.0113
 7785SOL    HW134988   3.321   0.868  11.203 -0.9346 -1.7970  1.0369
 7785SOL    HW234989   3.455   0.911  11.167 -2.6732  1.8473  1.2886
 7786SOL     OW34990   3.725   0.418   4.233  0.3256 -0.1551 -0.5855
 7786SOL    HW134991   3.800   0.464   4.197  0.2445  0.5045  0.0804
 7786SOL    HW234992   3.764   0.360   4.298 -1.4307  0.0129  0.6248
 7787SOL     OW34993   2.392   1.836  11.661 -0.2705  0.2059  0.3080
 7787SOL    HW134994   2.344   1.906  11.617 -0.0077  0.6617  0.7533
 7787SOL    HW234995   2.358   1.858  11.748 -0.8091  0.9074 -0.0807
 7788SOL     OW34996   2.433   3.378   2.785 -0.1689 -0.2597  0.5183
 7788SOL    HW134997   2.400   3.289   2.773 -1.3214  0.3288 -0.5743
 7788SOL    HW234998   2.380   3.412   2.856 -0.8992  0.6124 -0.4569
 7789SOL     OW34999   4.396   3.249  16.196  0.1671 -0.6022 -0.7840
 7789SOL    HW135000   4.330   3.185  16.223  0.4055  0.3881  2.1052
 7789SOL    HW235001   4.337   3.321  16.175  0.8142 -0.3003 -1.5713
 7790SOL     OW35002   2.528   4.554   5.716  0.5262  0.3568 -0.3504
 7790SOL    HW135003   2.495   4.515   5.636  0.8485  0.7143 -0.6560
 7790SOL    HW235004   2.506   4.487   5.781 -0.1101 -1.0267 -2.0030
 7791SOL     OW35005   1.409   0.041   2.764  0.4262 -0.0745  0.1702
 7791SOL    HW135006   1.497   0.066   2.739  0.1906  1.2785  0.7005
 7791SOL    HW235007   1.379   4.730   2.689  0.1187  0.7988 -0.2948
 7792SOL     OW35008   0.703   4.401   6.910  0.5749  0.3189  0.3964
 7792SOL    HW135009   0.725   4.309   6.895 -1.2146 -0.1354  0.5128
 7792SOL    HW235010   0.731   4.413   7.001 -1.6023  1.6909  0.8745
 7793SOL     OW35011   0.827   2.956  15.559 -0.6392 -0.2909 -0.7069
 7793SOL    HW135012   0.763   3.027  15.556  1.1221  1.3002 -0.5595
 7793SOL    HW235013   0.781   2.884  15.601 -1.5401  1.4476  1.3250
 7794SOL     OW35014   0.368   1.408  11.300 -0.6393 -0.1510 -0.3895
 7794SOL    HW135015   0.305   1.352  11.254 -2.1530  0.7786  0.5529
 7794SOL    HW235016   0.371   1.488  11.247 -3.8696  1.3754  1.7504
 7795SOL     OW35017   2.809   1.772  16.548 -0.7054  0.0462 -0.3428
 7795SOL    HW135018   2.889   1.754  16.597 -0.7555  2.0247  0.4810
 7795SOL    HW235019   2.807   1.868  16.546 -1.4882  0.0489  0.4926
 7796SOL     OW35020   2.691   4.153   3.630 -0.0225  0.1884 -0.1781
 7796SOL    HW135021   2.626   4.088   3.657  0.1459 -0.8980 -2.4632
 7796SOL    HW235022   2.690   4.128   3.538 -0.2266 -1.3250  0.2373
 7797SOL     OW35023   1.011   0.195   8.365  0.7535  0.1216 -0.0713
 7797SOL    HW135024   1.007   0.130   8.436  1.7631 -0.8220 -0.8828
 7797SOL    HW235025   1.060   0.147   8.298  2.9121  1.6803  0.3739
 7798SOL     OW35026   2.699   1.108   4.150 -0.1453  0.7344 -0.5313
 7798SOL    HW135027   2.668   1.185   4.197  0.8537  0.3637  0.7423
 7798SOL    HW235028   2.669   1.129   4.062 -0.4719  0.3804 -0.5086
 7799SOL     OW35029   3.814   4.505   8.717 -0.1024 -0.1693  0.1535
 7799SOL    HW135030   3.783   4.587   8.755 -1.4815 -0.9266  0.6568
 7799SOL    HW235031   3.816   4.530   8.624 -3.0688 -1.0487 -0.1240
 7800SOL     OW35032   0.618   1.707  10.642  0.4062  0.3002 -0.3279
 7800SOL    HW135033   0.541   1.760  10.658  0.3364  0.4710 -1.2298
 7800SOL    HW235034   0.617   1.653  10.721  2.1013 -1.0678 -1.2396
 7801SOL     OW35035   1.214   4.656   9.092  0.1273  0.1146 -0.5655
 7801SOL    HW135036   1.149   4.621   9.153  0.5883 -0.4004 -0.3749
 7801SOL    HW235037   1.254   4.730   9.137  1.5300  0.1647 -1.8722
 7802SOL     OW35038   4.119   0.001  17.673 -0.9605 -0.1863  0.6453
 7802SOL    HW135039   4.049   0.056  17.638  1.7587  1.5636 -2.0084
 7802SOL    HW235040   4.150   4.685  17.602 -0.1444  0.5394  0.4396
 7803SOL     OW35041   2.471   0.719  14.880  0.4024  0.0150 -0.2417
 7803SOL    HW135042   2.406   0.726  14.950 -1.1199  2.4832 -1.9286
 7803SOL    HW235043   2.546   0.747  14.932  0.1419 -0.8123  0.5962
 7804SOL     OW35044   2.780   1.179   9.472  0.1471 -0.1535 -0.4021
 7804SOL    HW135045   2.713   1.111   9.467 -1.2154  1.2295 -1.1706
 7804SOL    HW235046   2.789   1.205   9.380 -0.0057  0.9891 -0.1034
 7805SOL     OW35047   2.777   0.469   3.451  0.1592 -1.0361 -0.5990
 7805SOL    HW135048   2.684   0.448   3.467 -0.7065  1.3056 -2.5528
 7805SOL    HW235049   2.822   0.385   3.459  1.4384 -0.2640  0.0712
 7806SOL     OW35050   4.121   1.918   6.798 -0.9013  0.1121 -0.6312
 7806SOL    HW135051   4.062   1.855   6.838  0.4875 -2.0327 -1.9480
 7806SOL    HW235052   4.163   1.944   6.880 -1.2035  1.8425 -1.0302
 7807SOL     OW35053   4.137   3.834   5.670  0.3717  0.4190 -0.1589
 7807SOL    HW135054   4.225   3.811   5.701 -0.4094  0.5667  2.1325
 7807SOL    HW235055   4.123   3.923   5.700  1.3742  1.2552 -2.1981
 7808SOL     OW35056   4.521   0.922   5.125  0.0617 -0.1671 -0.4004
 7808SOL    HW135057   4.560   0.860   5.063  3.0799 -1.8017  3.1084
 7808SOL    HW235058   4.506   0.999   5.071  0.8833  0.0915 -0.2651
 7809SOL     OW35059   4.185   4.525   3.479  0.4877  0.3632  0.4074
 7809SOL    HW135060   4.113   4.523   3.543 -0.0387 -0.1440 -0.2133
 7809SOL    HW235061   4.141   4.492   3.401 -0.0213  0.2427  0.7426
 7810SOL     OW35062   0.748   4.027   5.217  0.0945  0.1432  0.1718
 7810SOL    HW135063   0.784   3.938   5.219  0.0678  0.1489  1.0031
 7810SOL    HW235064   0.683   4.025   5.146 -0.5225 -1.6347  0.8106
 7811SOL     OW35065   3.421   4.184  15.414 -0.0111 -0.1373  0.0712
 7811SOL    HW135066   3.327   4.180  15.397 -0.0144  0.0020  0.0536
 7811SOL    HW235067   3.424   4.112  15.477 -0.0814  0.8553  1.2332
 7812SOL     OW35068   2.724   3.421   1.090 -0.8672  0.5833  0.8851
 7812SOL    HW135069   2.657   3.373   1.140  0.4762 -0.3034  1.8514
 7812SOL    HW235070   2.758   3.474   1.162 -0.9058  0.5575  0.9230
 7813SOL     OW35071   4.056   3.529   3.989 -0.5797 -0.0466  0.4455
 7813SOL    HW135072   3.982   3.536   3.929  0.4105 -1.7188 -0.9732
 7813SOL    HW235073   4.107   3.469   3.935  1.6345  1.7747  0.4809
 7814SOL     OW35074   2.297   3.489   8.450  0.2509  0.9730 -0.5709
 7814SOL    HW135075   2.301   3.563   8.511  3.1859 -1.2205  1.8604
 7814SOL    HW235076   2.212   3.494   8.405  0.1249  2.8367 -0.1327
 7815SOL     OW35077   2.361   0.928   1.930  0.2067  0.2659 -1.0434
 7815SOL    HW135078   2.399   0.928   1.842  1.2168 -0.9158 -0.6083
 7815SOL    HW235079   2.288   0.868   1.914  0.3041  0.0422 -0.6407
 7816SOL     OW35080   4.224   2.493   8.298  0.0584 -0.1387  0.5059
 7816SOL    HW135081   4.222   2.504   8.394 -1.1757 -0.6139  0.5298
 7816SOL    HW235082   4.199   2.401   8.299  0.2076 -0.1839 -0.2188
 7817SOL     OW35083   0.658   2.513   7.269  0.5923  0.0589 -0.1556
 7817SOL    HW135084   0.653   2.599   7.312 -0.7192 -1.0123  1.8280
 7817SOL    HW235085   0.626   2.530   7.180  1.8282 -1.0044 -0.7963
 7818SOL     OW35086   3.201   0.181   1.752  0.0724 -0.4210  0.5001
 7818SOL    HW135087   3.175   0.233   1.828 -1.4799 -1.6076  0.7500
 7818SOL    HW235088   3.119   0.177   1.704 -0.8390 -0.3852  2.0548
 7819SOL     OW35089   1.779   4.113   3.983  0.4078 -1.1493 -0.5749
 7819SOL    HW135090   1.699   4.162   4.001  0.3574 -0.4444 -2.6637
 7819SOL    HW235091   1.751   4.070   3.903 -0.8813  0.5219 -1.0274
 7820SOL     OW35092   3.951   3.148   5.402 -0.5171  0.2327  0.2799
 7820SOL    HW135093   4.047   3.146   5.392 -0.2435 -2.7390  3.3168
 7820SOL    HW235094   3.955   3.243   5.401 -2.1674  0.2908 -0.3270
 7821SOL     OW35095   1.047   1.944   1.582  0.3662  0.2231 -0.5633
 7821SOL    HW135096   0.957   1.926   1.554  0.9132 -2.4233 -0.6496
 7821SOL    HW235097   1.048   2.038   1.564 -1.0160  0.3132 -0.1786
 7822SOL     OW35098   2.362   3.163  16.833  0.0873  0.1064 -0.3062
 7822SOL    HW135099   2.432   3.228  16.830 -0.0739  0.2404 -1.1702
 7822SOL    HW235100   2.389   3.108  16.759 -1.9577  2.3831 -2.7596
 7823SOL     OW35101   2.715   3.931   2.620  0.2526 -0.6002 -0.8330
 7823SOL    HW135102   2.641   3.907   2.565 -1.0457 -1.7150  1.4219
 7823SOL    HW235103   2.747   4.009   2.574 -0.9501  1.2762  1.4774
 7824SOL     OW35104   2.078   0.401   1.301 -0.4485  0.6157  0.6188
 7824SOL    HW135105   2.116   0.350   1.230 -0.4851  1.2500  0.1410
 7824SOL    HW235106   2.149   0.465   1.314  2.3434 -2.5370  1.0923
 7825SOL     OW35107   0.705   2.057   9.940  0.0299  0.1304  0.1085
 7825SOL    HW135108   0.731   2.097  10.022 -0.6358  0.1909  0.2855
 7825SOL    HW235109   0.633   1.996   9.958  0.7798 -0.6776  0.3870
 7826SOL     OW35110   3.509   3.111   2.551  0.0601 -0.1321 -0.2600
 7826SOL    HW135111   3.498   3.200   2.584 -1.8226 -0.2305 -0.5961
 7826SOL    HW235112   3.470   3.122   2.464  1.6830 -0.1148 -0.9912
 7827SOL     OW35113   4.010   4.192  17.274  0.0336  0.0622 -0.4871
 7827SOL    HW135114   4.030   4.253  17.345 -0.1099 -0.9255  0.3935
 7827SOL    HW235115   3.931   4.159  17.318 -0.4441 -2.4142 -3.2764
 7828SOL     OW35116   3.933   4.500   7.894 -0.2106  0.9406  0.3319
 7828SOL    HW135117   4.001   4.557   7.931  1.8388 -0.6966 -0.9258
 7828SOL    HW235118   3.855   4.545   7.926 -1.8954  0.8531 -3.7327
 7829SOL     OW35119   0.597   2.464   8.707 -0.1022  0.6536  0.2396
 7829SOL    HW135120   0.648   2.466   8.626 -1.5960  0.3538 -0.7153
 7829SOL    HW235121   0.649   2.398   8.752  0.2571 -0.4685 -1.8154
 7830SOL     OW35122   0.284   4.497   2.961 -0.2956  0.1613 -0.5560
 7830SOL    HW135123   0.266   4.590   2.979  1.2325  0.4554 -0.5109
 7830SOL    HW235124   0.196   4.467   2.939  0.7500 -1.4571 -2.5233
 7831SOL     OW35125   1.917   1.328  12.845 -0.2878  0.0246  0.5492
 7831SOL    HW135126   1.848   1.264  12.865  0.8798 -1.4733 -0.2122
 7831SOL    HW235127   1.861   1.401  12.820  0.7019  0.8852  0.8377
 7832SOL     OW35128   1.611   0.755   7.109 -0.3280 -0.1309  0.1267
 7832SOL    HW135129   1.540   0.692   7.117 -1.8958  1.3836 -1.7195
 7832SOL    HW235130   1.568   0.816   7.049  1.4221  1.0077  0.0043
 7833SOL     OW35131   2.336   4.002  15.570  0.0647  0.3938 -0.0650
 7833SOL    HW135132   2.353   3.913  15.539 -2.2164 -0.9903  2.5714
 7833SOL    HW235133   2.241   3.998  15.586  0.4387 -1.9050  1.5051
 7834SOL     OW35134   1.107   2.965  11.371  0.1731 -0.0077 -0.0578
 7834SOL    HW135135   1.112   3.042  11.427  0.6102 -0.4050  0.4423
 7834SOL    HW235136   1.162   2.997  11.300 -0.9233  0.6265 -0.6278
 7835SOL     OW35137   0.576   0.286   3.340 -0.3043  0.2280  0.6506
 7835SOL    HW135138   0.542   0.312   3.255 -1.5834 -0.2586  1.0181
 7835SOL    HW235139   0.660   0.332   3.332  1.0710 -2.5817 -1.0655
 7836SOL     OW35140   0.021   0.598   3.094  0.0485  0.7984 -0.7542
 7836SOL    HW135141   4.735   0.519   3.046  0.1785 -0.0948  0.6396
 7836SOL    HW235142   0.116   0.595   3.090  0.0075 -0.5316 -0.6410
 7837SOL     OW35143   3.948   4.303   2.867 -0.7698  0.2197 -0.2057
 7837SOL    HW135144   3.902   4.277   2.947  0.0013  1.6274  0.6951
 7837SOL    HW235145   4.013   4.233   2.865  0.3196  1.2489 -0.8372
 7838SOL     OW35146   2.170   4.037   2.653 -0.2321 -0.1091  0.3035
 7838SOL    HW135147   2.122   3.980   2.712  1.3541 -0.9282  0.8077
 7838SOL    HW235148   2.104   4.106   2.647 -0.3791 -0.3132 -0.4911
 7839SOL     OW35149   0.713   3.504  10.603  0.0044 -0.4888 -0.0259
 7839SOL    HW135150   0.656   3.578  10.622 -1.6319 -1.1555 -2.4148
 7839SOL    HW235151   0.743   3.500  10.694  0.3906 -0.3891 -0.1491
 7840SOL     OW35152   3.503   1.124  17.711  0.1912  0.0776 -0.0908
 7840SOL    HW135153   3.588   1.135  17.754 -0.9228 -1.0181  2.4246
 7840SOL    HW235154   3.452   1.197  17.746 -0.4212 -0.3232 -0.1260
 7841SOL     OW35155   0.866   0.610   6.683 -0.2915  0.4195  0.1451
 7841SOL    HW135156   0.922   0.657   6.745 -0.4470 -0.9173  1.2857
 7841SOL    HW235157   0.892   0.653   6.601 -0.3220 -0.5796 -0.3882
 7842SOL     OW35158   0.253   2.079   3.174 -0.4603  0.2542  0.3634
 7842SOL    HW135159   0.280   2.068   3.082 -1.4955  0.9241 -0.0195
 7842SOL    HW235160   0.216   1.994   3.196 -2.0260  0.6373 -0.7806
 7843SOL     OW35161   3.251   2.140   7.106 -0.5903 -0.8999 -0.0464
 7843SOL    HW135162   3.188   2.120   7.037 -1.7790 -0.1602  0.8380
 7843SOL    HW235163   3.204   2.209   7.151 -0.0881 -0.2531 -0.5071
 7844SOL     OW35164   2.598   2.002   0.641 -0.0324  0.2815  0.0510
 7844SOL    HW135165   2.595   2.013   0.546  1.1516 -1.1563 -0.1487
 7844SOL    HW235166   2.686   1.996   0.676 -0.3993  0.4829  1.0097
 7845SOL     OW35167   1.808   3.848   5.991 -0.3977  0.7997  0.1675
 7845SOL    HW135168   1.824   3.754   6.000 -0.8344  0.7552  0.4461
 7845SOL    HW235169   1.722   3.832   5.953 -0.4276 -1.9113  1.3531
 7846SOL     OW35170   0.394   4.235  10.193  0.1895 -0.4833  0.0735
 7846SOL    HW135171   0.476   4.246  10.240  0.6346  1.1269 -1.0681
 7846SOL    HW235172   0.396   4.305  10.128 -2.1231  0.1247  0.6220
 7847SOL     OW35173   2.694   2.310   6.424 -0.7780  0.1670 -0.7394
 7847SOL    HW135174   2.691   2.214   6.424 -2.3039  0.2271  2.4642
 7847SOL    HW235175   2.599   2.323   6.434 -0.7985  0.4671 -1.3524
 7848SOL     OW35176   1.413   0.166   3.648  0.1103 -0.1034  0.3874
 7848SOL    HW135177   1.399   0.230   3.717  1.2203 -1.0814  1.5370
 7848SOL    HW235178   1.422   0.083   3.696 -0.2641 -0.0385  0.5681
 7849SOL     OW35179   1.099   1.852   4.943 -0.3397 -0.3971 -0.1374
 7849SOL    HW135180   1.043   1.802   5.003 -0.1374  0.5294  0.8102
 7849SOL    HW235181   1.183   1.809   4.959  0.8658  1.3195 -2.0696
 7850SOL     OW35182   0.877   3.203   2.829 -0.3574  0.0428 -0.1025
 7850SOL    HW135183   0.962   3.214   2.786 -0.0622 -0.9353  0.2299
 7850SOL    HW235184   0.845   3.127   2.781  0.5208 -0.7167  0.5039
 7851SOL     OW35185   2.887   0.170  15.497  0.8675 -0.0227  0.6033
 7851SOL    HW135186   2.899   0.223  15.417  3.5816 -0.4305  0.7597
 7851SOL    HW235187   2.971   0.171  15.543  1.1514 -2.7195  0.1336
 7852SOL     OW35188   1.603   0.086   6.463  0.0734 -0.5300  0.5896
 7852SOL    HW135189   1.620   0.110   6.372 -1.7620 -0.8178  0.1812
 7852SOL    HW235190   1.519   0.127   6.483  1.6169  2.9403  0.0048
 7853SOL     OW35191   3.046   2.417   4.085  0.6183  0.2429 -0.2848
 7853SOL    HW135192   3.133   2.387   4.111  0.7885  1.4928  0.6313
 7853SOL    HW235193   2.998   2.336   4.101  0.1306  0.6521  0.3152
 7854SOL     OW35194   0.131   0.931  13.596 -0.1981 -0.0508 -0.1307
 7854SOL    HW135195   0.152   0.838  13.591 -1.2413 -0.3047  0.2357
 7854SOL    HW235196   0.043   0.941  13.559 -1.3184  0.5173  2.6738
 7855SOL     OW35197   2.677   0.811   7.331 -0.0732 -0.1105 -0.8255
 7855SOL    HW135198   2.601   0.775   7.377  1.8591 -2.0997  0.7935
 7855SOL    HW235199   2.730   0.733   7.316  0.0139 -0.7252  2.6158
 7856SOL     OW35200   3.718   1.714   6.974 -0.2184  0.4930 -0.1543
 7856SOL    HW135201   3.713   1.756   6.888 -1.2542  2.6731  0.9785
 7856SOL    HW235202   3.684   1.784   7.029 -2.1997 -0.9842  0.5267
 7857SOL     OW35203   1.158   0.266  16.969  0.0527 -0.1838  0.3910
 7857SOL    HW135204   1.085   0.243  17.027 -0.1604  0.0796  0.2310
 7857SOL    HW235205   1.169   0.352  17.010  2.3578 -0.1116 -0.3905
 7858SOL     OW35206   4.182   1.692  14.377  0.3142  0.7756 -0.0088
 7858SOL    HW135207   4.140   1.623  14.428  0.3311  0.2957 -0.6546
 7858SOL    HW235208   4.178   1.758  14.447 -3.5199 -1.5379  1.9499
 7859SOL     OW35209   3.808   1.577   6.191  0.9752 -0.4220  0.0747
 7859SOL    HW135210   3.722   1.618   6.188  1.6568  1.2515  2.7090
 7859SOL    HW235211   3.838   1.578   6.100 -0.8252 -1.8936 -0.5270
 7860SOL     OW35212   2.469   3.769   8.433  0.2884 -0.1913  0.0880
 7860SOL    HW135213   2.400   3.773   8.500  0.8267  1.0219  0.5632
 7860SOL    HW235214   2.417   3.770   8.352 -1.6881 -2.0158  1.3298
 7861SOL     OW35215   2.623   1.678   4.970 -0.4903  0.6386  0.1752
 7861SOL    HW135216   2.693   1.742   4.957  0.2656 -0.2192  0.0279
 7861SOL    HW235217   2.636   1.641   4.883 -0.7704 -3.3856  1.8636
 7862SOL     OW35218   0.617   1.672   4.647  0.0595 -0.9493  0.0337
 7862SOL    HW135219   0.707   1.705   4.650  0.5457 -2.1950 -1.0051
 7862SOL    HW235220   0.622   1.600   4.584 -2.5750 -1.0984 -0.0104
 7863SOL     OW35221   0.233   3.782   4.955 -0.5807 -0.2412  0.0560
 7863SOL    HW135222   0.258   3.830   5.034  1.5831 -0.4947 -0.4964
 7863SOL    HW235223   0.319   3.780   4.915 -0.2957  3.4167  0.4523
 7864SOL     OW35224   0.782   3.374   3.372 -0.0944  0.4922  0.0716
 7864SOL    HW135225   0.783   3.286   3.336  1.3054  1.0999 -1.3622
 7864SOL    HW235226   0.755   3.424   3.294 -1.7668  0.1129  0.3975
 7865SOL     OW35227   2.020   0.829   9.257 -0.8178 -0.0154  0.2883
 7865SOL    HW135228   2.055   0.749   9.296 -0.5400 -0.5006 -0.9543
 7865SOL    HW235229   1.946   0.796   9.206 -0.8327  0.0513  0.2667
 7866SOL     OW35230   4.043   3.785   3.778 -0.0620  0.8322  0.5788
 7866SOL    HW135231   3.992   3.704   3.786  1.2665 -0.1641 -1.1647
 7866SOL    HW235232   4.006   3.839   3.849 -0.0812 -0.2248  1.3723
 7867SOL     OW35233   4.065   4.225   6.704 -0.1433 -0.4317 -0.3364
 7867SOL    HW135234   4.014   4.145   6.718 -0.6278  0.2104  1.5773
 7867SOL    HW235235   4.076   4.252   6.795 -2.4453 -1.4528  0.2476
 7868SOL     OW35236   2.163   1.684   6.490 -0.2745 -0.0166  0.6040
 7868SOL    HW135237   2.138   1.768   6.450 -0.9325 -0.4782  0.0490
 7868SOL    HW235238   2.085   1.629   6.494  0.6742 -1.3896  0.2829
 7869SOL     OW35239   0.579   0.306   5.923 -0.2118 -0.3996  0.4236
 7869SOL    HW135240   0.593   0.248   5.997  1.5813 -0.9205 -0.3225
 7869SOL    HW235241   0.492   0.344   5.933 -0.6521 -1.5490  1.0438
 7870SOL     OW35242   2.268   4.051   9.351 -0.0520  0.5591 -0.7296
 7870SOL    HW135243   2.323   4.128   9.343 -0.1822  0.7982  0.6783
 7870SOL    HW235244   2.208   4.065   9.277 -0.0519  0.8327 -0.6751
 7871SOL     OW35245   4.085   4.539   6.899  0.4166 -0.4213 -0.6669
 7871SOL    HW135246   4.041   4.559   6.816 -1.3037 -1.2502  0.0548
 7871SOL    HW235247   4.156   4.484   6.867  1.7165  0.2852  1.0302
 7872SOL     OW35248   1.108   1.221   4.883 -0.1829 -0.1588 -0.3321
 7872SOL    HW135249   1.121   1.131   4.856  2.7332  0.2896 -0.4250
 7872SOL    HW235250   1.199   1.249   4.870  0.0129 -1.0465 -0.8695
 7873SOL     OW35251   1.993   4.347   2.387 -0.2228  0.3534 -0.1382
 7873SOL    HW135252   1.980   4.368   2.480 -0.1874 -0.7013  0.0960
 7873SOL    HW235253   1.905   4.352   2.350  0.2189  1.6489 -1.0253
 7874SOL     OW35254   2.348   0.713   6.651  0.2149 -0.2219  0.5834
 7874SOL    HW135255   2.369   0.656   6.725  1.8878 -1.0899 -0.5519
 7874SOL    HW235256   2.320   0.644   6.590 -0.1834  1.1823 -0.8211
 7875SOL     OW35257   3.590   0.453   0.775 -0.1502 -0.0736  0.0359
 7875SOL    HW135258   3.607   0.361   0.756  1.2226 -0.0321  1.0943
 7875SOL    HW235259   3.597   0.456   0.870 -1.3740  0.6107  0.1068
 7876SOL     OW35260   1.503   1.241   4.274 -0.4640  0.3281 -0.0152
 7876SOL    HW135261   1.507   1.221   4.367 -0.9799 -0.6891 -0.2167
 7876SOL    HW235262   1.411   1.223   4.252 -1.0524  2.0338  1.0589
 7877SOL     OW35263   0.151   0.258  13.670  0.1211 -0.4273 -0.0299
 7877SOL    HW135264   0.226   0.223  13.717 -0.0509  0.2204  0.7181
 7877SOL    HW235265   0.164   0.349  13.696 -1.2703 -0.3289  0.2816
 7878SOL     OW35266   1.923   1.897   7.119  0.5757  0.0939 -0.8014
 7878SOL    HW135267   1.834   1.891   7.153  2.6474 -0.6582  4.4869
 7878SOL    HW235268   1.944   1.979   7.163  1.8417 -1.1653  0.9330
 7879SOL     OW35269   4.024   3.463   4.803  1.0880 -0.4020 -0.2024
 7879SOL    HW135270   4.099   3.414   4.771  2.1926  1.4572 -0.4507
 7879SOL    HW235271   4.008   3.432   4.892 -0.9496 -0.5696 -0.6130
 7880SOL     OW35272   4.480   0.238   1.719 -0.4739 -0.1310  0.0244
 7880SOL    HW135273   4.478   0.330   1.745 -2.0595 -0.2765  0.4555
 7880SOL    HW235274   4.568   0.216   1.748 -0.6710 -0.1333  0.6306
 7881SOL     OW35275   2.248   1.860   8.850  0.3725  0.5967  0.5641
 7881SOL    HW135276   2.239   1.795   8.780 -0.9863  1.6798 -0.2610
 7881SOL    HW235277   2.328   1.834   8.895  0.7030  0.6364  0.0114
 7882SOL     OW35278   1.756   0.475   4.154  0.3646  0.0123 -0.0611
 7882SOL    HW135279   1.835   0.429   4.125  1.6344  1.6957  0.7063
 7882SOL    HW235280   1.715   0.409   4.210 -1.0816  0.0730 -1.0594
 7883SOL     OW35281   0.079   3.326   7.524  0.1303 -0.0454  0.1005
 7883SOL    HW135282   4.738   3.376   7.517  1.8149  2.6678  0.1621
 7883SOL    HW235283   0.036   3.245   7.551 -0.2522  0.3667  0.7200
 7884SOL     OW35284   4.094   0.063   7.613  0.0102  0.0042  0.0513
 7884SOL    HW135285   4.003   0.065   7.582 -0.4528  2.1720  1.5529
 7884SOL    HW235286   4.120   0.155   7.624  0.8870 -0.4201  1.4044
 7885SOL     OW35287   4.315   4.423   2.389 -0.2652  0.3323  0.1828
 7885SOL    HW135288   4.409   4.403   2.384  0.2370  2.3368  1.6996
 7885SOL    HW235289   4.304   4.480   2.313  2.2513 -1.4442 -1.5557
 7886SOL     OW35290   3.784   0.517   4.903  0.2701 -0.3945  0.0324
 7886SOL    HW135291   3.872   0.532   4.939 -0.3931  4.7883 -0.6361
 7886SOL    HW235292   3.798   0.446   4.840  0.2050 -1.3867  1.1204
 7887SOL     OW35293   3.272   3.640   0.620 -0.8806  0.4355 -0.1022
 7887SOL    HW135294   3.346   3.682   0.663 -2.7353  0.9281  2.5855
 7887SOL    HW235295   3.211   3.713   0.632 -1.7826 -0.3444  0.0587
 7888SOL     OW35296   4.735   4.607   0.347 -0.2895 -0.1516 -0.5193
 7888SOL    HW135297   4.714   4.514   0.360  0.0440 -0.3154 -1.1331
 7888SOL    HW235298   0.090   4.609   0.351 -0.2547 -0.6793 -1.0666
 7889SOL     OW35299   2.951   1.258  13.813 -0.6051 -0.3652 -0.2931
 7889SOL    HW135300   2.909   1.174  13.830 -1.0464  0.0932  0.8781
 7889SOL    HW235301   2.993   1.233  13.730  1.4745 -0.9696  0.9567
 7890SOL     OW35302   4.552   1.029   3.980 -0.1198 -0.5036  0.1657
 7890SOL    HW135303   4.559   0.940   3.947 -1.5135 -0.9006  0.9596
 7890SOL    HW235304   4.461   1.051   3.999  0.2021  0.7531  0.2569
 7891SOL     OW35305   1.794   0.436  10.190  0.3489 -0.3196 -0.1027
 7891SOL    HW135306   1.748   0.458  10.270  0.1692  0.3581 -0.3872
 7891SOL    HW235307   1.827   0.522  10.164 -1.5261  0.2426 -0.6648
 7892SOL     OW35308   3.706   1.190   3.310 -0.0814 -0.0283  0.0979
 7892SOL    HW135309   3.741   1.273   3.278 -0.0528 -0.9130 -2.1975
 7892SOL    HW235310   3.772   1.165   3.375 -0.3522  1.4211  0.9237
 7893SOL     OW35311   3.786   2.174   1.965 -0.0754 -0.5890  0.3163
 7893SOL    HW135312   3.740   2.199   2.045 -0.2231 -2.8170  0.9442
 7893SOL    HW235313   3.872   2.213   1.984  0.5671 -2.3214  0.9602
 7894SOL     OW35314   3.677   1.906   9.454  0.1149  0.2524  0.5444
 7894SOL    HW135315   3.677   1.811   9.440  0.5337  0.5150 -1.2206
 7894SOL    HW235316   3.587   1.925   9.481 -0.6017 -1.4542 -0.6316
 7895SOL     OW35317   2.549   1.949   4.378  0.3273 -0.9080  0.6634
 7895SOL    HW135318   2.636   1.936   4.342  0.8664 -1.9846  2.3303
 7895SOL    HW235319   2.568   1.994   4.461  0.4911  2.5987 -1.2925
 7896SOL     OW35320   1.283   3.518   0.288 -0.7723 -0.2916  0.2983
 7896SOL    HW135321   1.200   3.513   0.335 -0.6194 -0.9851  0.4897
 7896SOL    HW235322   1.238   3.550   0.209  0.0994 -0.4000 -0.2463
 7897SOL     OW35323   3.423   4.223   2.410  0.0038  0.0181  0.0958
 7897SOL    HW135324   3.514   4.247   2.428 -0.7366  2.3640  0.6969
 7897SOL    HW235325   3.380   4.234   2.495  3.9116  0.0939  2.0630
 7898SOL     OW35326   4.057   4.330   6.464  0.1550  0.5543 -0.1359
 7898SOL    HW135327   3.962   4.340   6.458 -0.0026 -1.2391 -0.5437
 7898SOL    HW235328   4.061   4.277   6.544  1.2568  2.5514  1.1508
 7899SOL     OW35329   3.487   2.495   9.427 -0.8913 -0.4002 -0.3382
 7899SOL    HW135330   3.448   2.530   9.347 -1.8423 -0.6302  0.0256
 7899SOL    HW235331   3.421   2.501   9.495  0.2512 -0.4628  0.7710
 7900SOL     OW35332   0.044   4.339   0.413 -0.2421  0.0867  0.0071
 7900SOL    HW135333   0.120   4.359   0.468  0.2081 -0.3272 -0.4559
 7900SOL    HW235334   4.718   4.328   0.481 -0.4923  2.3254  0.1033
 7901SOL     OW35335   3.020   3.669  10.431  0.0552  0.3249  0.2121
 7901SOL    HW135336   2.947   3.668  10.369 -0.5737 -0.4239  0.9568
 7901SOL    HW235337   2.971   3.685  10.512 -0.7984  0.6920 -0.3743
 7902SOL     OW35338   1.886   2.502   4.446 -0.0453  0.4942 -0.3977
 7902SOL    HW135339   1.944   2.577   4.459  0.0856  0.5104 -1.0811
 7902SOL    HW235340   1.939   2.429   4.415  1.7253  1.6928 -0.1966
 7903SOL     OW35341   2.093   3.527   2.455 -0.4486  0.2329 -0.0740
 7903SOL    HW135342   2.058   3.616   2.463  1.5771  0.9259  1.0509
 7903SOL    HW235343   2.173   3.542   2.405  1.0494 -1.7940  1.7148
 7904SOL     OW35344   2.360   0.108  15.421 -0.2446 -0.4584  0.1430
 7904SOL    HW135345   2.328   0.159  15.346  1.3140  0.7919  0.3198
 7904SOL    HW235346   2.437   0.157  15.448  0.8080 -0.5396 -2.6970
 7905SOL     OW35347   2.382   3.972  10.705  0.1746 -0.1104 -0.1552
 7905SOL    HW135348   2.404   3.970  10.799 -0.9444  1.5822  0.1503
 7905SOL    HW235349   2.440   4.044  10.679  0.6247 -0.2074  0.5736
 7906SOL     OW35350   0.282   4.320   1.126  0.3188  0.7600  0.6008
 7906SOL    HW135351   0.310   4.405   1.091 -3.5458  2.1574  0.9747
 7906SOL    HW235352   0.336   4.322   1.204  0.3614 -1.8768  0.6171
 7907SOL     OW35353   0.668   4.568  15.204 -0.3330 -0.1993  0.2120
 7907SOL    HW135354   0.685   4.485  15.160  0.1830 -0.8140  1.5513
 7907SOL    HW235355   0.599   4.546  15.266  0.1067 -3.3502 -0.4289
 7908SOL     OW35356   4.019   0.741   6.536  0.4627 -0.1515  0.4015
 7908SOL    HW135357   3.955   0.742   6.607 -1.4107  0.5877 -1.2972
 7908SOL    HW235358   3.967   0.795   6.477  0.0108  0.6698  1.5630
 7909SOL     OW35359   1.479   0.780   0.134  0.2224 -0.3707  0.4403
 7909SOL    HW135360   1.498   0.856   0.080 -0.1310 -1.4293 -1.1952
 7909SOL    HW235361   1.569   0.759   0.159  0.1544  1.1964  1.9711
 7910SOL     OW35362   2.052   3.393   7.952  0.2762  0.1453 -0.3296
 7910SOL    HW135363   2.080   3.328   7.887 -1.0081 -1.8608  1.1342
 7910SOL    HW235364   2.009   3.451   7.889 -0.2150 -0.3566 -0.4542
 7911SOL     OW35365   3.532   3.697   3.334  0.2745 -0.1180 -0.0751
 7911SOL    HW135366   3.552   3.790   3.337  0.3871 -0.1797  1.3252
 7911SOL    HW235367   3.532   3.676   3.427 -1.1658 -0.2112 -0.1019
 7912SOL     OW35368   1.947   3.499  15.412  0.1887  0.4071 -0.1044
 7912SOL    HW135369   2.038   3.524  15.426  1.2068 -2.6942 -1.1269
 7912SOL    HW235370   1.957   3.405  15.429  0.2438  0.4197 -0.0661
 7913SOL     OW35371   3.973   2.098   3.537  0.5411  0.2054  0.7727
 7913SOL    HW135372   4.004   2.086   3.627 -0.0711 -0.3688  0.9047
 7913SOL    HW235373   4.010   2.184   3.518  0.9346  0.0977  1.0351
 7914SOL     OW35374   3.609   2.632   2.004  0.1048  0.3845  0.2925
 7914SOL    HW135375   3.533   2.582   2.036  1.1327 -1.8741 -0.8061
 7914SOL    HW235376   3.636   2.573   1.934  1.0242 -1.2552  2.0375
 7915SOL     OW35377   2.224   2.476   5.482 -0.5848  0.3612 -0.0343
 7915SOL    HW135378   2.316   2.452   5.493 -0.3749  0.4214 -1.7267
 7915SOL    HW235379   2.186   2.392   5.454  0.2378 -0.8386  2.3790
 7916SOL     OW35380   1.386   0.254  11.980 -0.1167  0.5029 -0.1240
 7916SOL    HW135381   1.346   0.218  11.901  1.0108 -2.1906  0.5261
 7916SOL    HW235382   1.315   0.257  12.044 -0.0164  1.7094 -0.0816
 7917SOL     OW35383   1.275   2.083   2.430 -0.6734  0.4123  0.0518
 7917SOL    HW135384   1.233   2.113   2.350 -0.8434 -0.9075 -0.3651
 7917SOL    HW235385   1.359   2.041   2.407 -0.0031  1.0438  1.3657
 7918SOL     OW35386   2.763   1.828  10.740 -0.0693 -0.5808  0.3369
 7918SOL    HW135387   2.782   1.758  10.678 -1.3923 -0.3480 -0.3198
 7918SOL    HW235388   2.787   1.808  10.831  2.2021  0.7623  0.0158
 7919SOL     OW35389   4.427   3.713   1.895 -0.4359 -0.1967 -0.4468
 7919SOL    HW135390   4.498   3.761   1.853 -1.7289  2.6720  0.6607
 7919SOL    HW235391   4.482   3.676   1.964  0.8669 -1.3257 -2.0816
 7920SOL     OW35392   1.296   0.482   8.903 -0.3101 -0.1178 -0.0550
 7920SOL    HW135393   1.363   0.415   8.914 -0.0609 -0.4237 -3.4644
 7920SOL    HW235394   1.257   0.450   8.822 -0.6242 -1.2498  0.5342
 7921SOL     OW35395   1.931   3.350  12.534 -0.4767  0.2063 -0.1613
 7921SOL    HW135396   1.840   3.329  12.553  0.1484 -1.6174  0.8260
 7921SOL    HW235397   1.961   3.313  12.617 -0.8773 -2.2047 -1.0927
 7922SOL     OW35398   3.137   3.017  17.119 -0.0654 -0.0074 -0.2107
 7922SOL    HW135399   3.066   2.960  17.148 -0.3403  0.7427  0.5854
 7922SOL    HW235400   3.184   3.023  17.202  1.5820 -0.5602 -1.1086
 7923SOL     OW35401   4.448   3.620   5.411 -0.0767 -0.6580  0.8287
 7923SOL    HW135402   4.419   3.711   5.415  1.2234 -0.1841 -0.3389
 7923SOL    HW235403   4.524   3.613   5.469  1.5379  0.5952 -1.1333
 7924SOL     OW35404   2.504   2.064   6.073  0.9719  0.2475  0.2696
 7924SOL    HW135405   2.573   2.001   6.094 -0.2808 -1.0231  0.5636
 7924SOL    HW235406   2.490   2.035   5.982  0.1367  3.3779 -0.5782
 7925SOL     OW35407   2.864   0.226   4.705 -0.5763 -0.6840 -0.8092
 7925SOL    HW135408   2.950   0.267   4.702  0.1395 -1.8981  2.7790
 7925SOL    HW235409   2.878   0.149   4.760 -0.9912  0.2862  0.6594
 7926SOL     OW35410   3.681   4.633   0.004 -0.1657  0.2957  0.1911
 7926SOL    HW135411   3.724   4.631  17.675 -2.1485  2.4062 -0.8537
 7926SOL    HW235412   3.750   4.661   0.064 -1.3219  1.5762  0.9305
 7927SOL     OW35413   0.198   4.305  11.968 -0.4808 -0.0956 -0.5287
 7927SOL    HW135414   0.151   4.387  11.986 -2.0336 -1.0138 -0.3299
 7927SOL    HW235415   0.153   4.275  11.888  0.2201 -3.5919  0.3966
 7928SOL     OW35416   0.213   2.390   2.806  0.9098 -0.0042  0.7430
 7928SOL    HW135417   0.119   2.392   2.786  1.4274 -0.4223 -1.7551
 7928SOL    HW235418   0.231   2.483   2.822  1.8260 -0.3847  1.8742
 7929SOL     OW35419   3.594   1.283   8.629 -0.2834  0.2159  0.0198
 7929SOL    HW135420   3.656   1.249   8.565  0.3461 -0.2696  0.8963
 7929SOL    HW235421   3.626   1.254   8.714 -1.0598  1.8399  0.8793
 7930SOL     OW35422   0.219   3.015   9.098 -0.1480 -0.3810  0.0986
 7930SOL    HW135423   0.245   2.926   9.124 -0.4327 -0.2260  0.8732
 7930SOL    HW235424   0.243   3.011   9.005 -0.5051  0.7432 -0.0374
 7931SOL     OW35425   0.659   0.276   5.505 -0.4661  0.2426  0.6906
 7931SOL    HW135426   0.669   0.358   5.553 -1.8891  0.7447  0.1225
 7931SOL    HW235427   0.628   0.207   5.564 -0.3157 -0.2369  0.2198
 7932SOL     OW35428   4.195   4.240   8.289 -0.6037  0.2069  0.0853
 7932SOL    HW135429   4.244   4.315   8.324 -1.5218  0.8109  0.0978
 7932SOL    HW235430   4.252   4.215   8.217 -0.7893 -0.3175  0.1194
 7933SOL     OW35431   1.021   0.599   4.415 -0.1606  0.0536  0.5883
 7933SOL    HW135432   0.928   0.582   4.401 -0.2109  1.5568 -1.0593
 7933SOL    HW235433   1.048   0.509   4.433  0.1925 -0.4314 -2.2921
 7934SOL     OW35434   3.705   2.334   4.188 -0.2543  0.5194 -0.2162
 7934SOL    HW135435   3.688   2.301   4.099  0.7577  1.5098 -0.7835
 7934SOL    HW235436   3.768   2.402   4.164  2.2783 -2.0303 -0.7731
 7935SOL     OW35437   0.025   2.777   5.284 -0.1186  0.1031  0.3810
 7935SOL    HW135438   4.716   2.847   5.241 -1.2627 -0.4979  0.6888
 7935SOL    HW235439   0.066   2.734   5.209  0.6850 -0.9131  1.4008
 7936SOL     OW35440   3.564   0.825  10.279 -0.0089 -1.0475  0.1645
 7936SOL    HW135441   3.473   0.807  10.256  0.2155 -0.3137 -1.3072
 7936SOL    HW235442   3.568   0.769  10.356  0.9897  0.6392  1.3371
 7937SOL     OW35443   3.234   0.916   5.003  0.1273  0.8986  0.0629
 7937SOL    HW135444   3.257   0.851   5.069 -2.5551 -0.7563 -0.6772
 7937SOL    HW235445   3.319   0.943   4.967 -0.8859  2.1610 -1.3827
 7938SOL     OW35446   1.284   3.843  10.176  0.3777  0.1711  0.5622
 7938SOL    HW135447   1.203   3.794  10.191  1.2345 -1.1392  0.9457
 7938SOL    HW235448   1.265   3.937  10.177 -0.0666  0.0839  0.2007
 7939SOL     OW35449   2.184   4.133   4.367  0.0412  0.1678  0.4821
 7939SOL    HW135450   2.099   4.090   4.365  1.0496 -1.7471 -1.3187
 7939SOL    HW235451   2.193   4.150   4.273 -1.8725  1.1492  0.4812
 7940SOL     OW35452   1.542   2.608   4.868 -0.7382  0.2141 -0.0916
 7940SOL    HW135453   1.569   2.625   4.778  2.6412 -0.5914  0.7760
 7940SOL    HW235454   1.624   2.626   4.914 -1.5424  2.8339  0.2888
 7941SOL     OW35455   2.274   2.371  17.214 -0.0844  0.2667 -0.5285
 7941SOL    HW135456   2.337   2.424  17.263 -0.3588  0.9566 -0.9189
 7941SOL    HW235457   2.315   2.360  17.128  0.9112 -0.4938  0.0490
 7942SOL     OW35458   3.895   0.509   1.718  0.1488  0.5578 -0.2779
 7942SOL    HW135459   3.911   0.434   1.661  1.3835 -1.4485  2.7081
 7942SOL    HW235460   3.918   0.581   1.659  1.8100  0.2313 -0.0495
 7943SOL     OW35461   2.700   1.445   7.169 -0.1364  0.0439 -0.1452
 7943SOL    HW135462   2.770   1.424   7.231 -0.0564 -2.1385 -0.9716
 7943SOL    HW235463   2.665   1.518   7.220  1.7832  1.3660 -0.6888
 7944SOL     OW35464   3.306   0.434   4.526 -0.2079 -0.1380 -0.1871
 7944SOL    HW135465   3.392   0.476   4.522 -0.7138  1.0689  1.5964
 7944SOL    HW235466   3.272   0.434   4.437 -0.9631  1.5380  0.1029
 7945SOL     OW35467   4.425   2.294   2.442  0.5160  0.0854 -0.0512
 7945SOL    HW135468   4.508   2.258   2.472 -0.5352  0.7559  3.6655
 7945SOL    HW235469   4.433   2.266   2.351  1.1334  0.3932 -0.0935
 7946SOL     OW35470   4.238   3.763   7.203 -0.0799 -0.2225  0.1815
 7946SOL    HW135471   4.146   3.769   7.229  0.1534 -0.9048  1.1443
 7946SOL    HW235472   4.260   3.670   7.205  0.0464 -0.2252 -1.2419
 7947SOL     OW35473   0.301   0.231   5.857 -0.0187  0.0541 -0.1317
 7947SOL    HW135474   0.287   0.247   5.764  3.0019 -1.3228 -0.8487
 7947SOL    HW235475   0.316   0.137   5.865  2.0392  0.5048  1.2760
 7948SOL     OW35476   3.330   4.076   1.290  0.4552  0.2160  0.2634
 7948SOL    HW135477   3.337   4.048   1.381 -0.3457  0.1809  0.3169
 7948SOL    HW235478   3.339   4.000   1.232  0.8513 -0.2819  0.9677
 7949SOL     OW35479   1.781   1.910   8.196  0.4834 -0.7909 -0.0117
 7949SOL    HW135480   1.866   1.949   8.175 -0.3025  0.3655 -1.0547
 7949SOL    HW235481   1.794   1.911   8.291 -0.8697 -1.2028  0.1728
 7950SOL     OW35482   2.991   2.327   8.633 -0.1050  0.3577 -0.0286
 7950SOL    HW135483   3.059   2.292   8.692  1.1840  1.2926 -0.9884
 7950SOL    HW235484   2.907   2.289   8.661 -1.1519  1.3280 -1.8818
 7951SOL     OW35485   3.484   4.413   0.144  0.7388  0.2720 -0.2857
 7951SOL    HW135486   3.543   4.455   0.082  1.4860 -1.3392 -0.6860
 7951SOL    HW235487   3.466   4.484   0.206  0.1159  0.0110 -0.1635
 7952SOL     OW35488   1.319   2.053   3.176  0.1945 -0.4667  0.3488
 7952SOL    HW135489   1.287   2.091   3.094 -0.5163 -1.4153  0.1951
 7952SOL    HW235490   1.384   2.123   3.188 -0.0124  0.1769 -2.3314
 7953SOL     OW35491   0.607   4.297   6.401  0.5747  0.2775  0.1806
 7953SOL    HW135492   0.698   4.321   6.420  1.5293 -1.7434 -1.7753
 7953SOL    HW235493   0.557   4.363   6.448  0.4280  0.5878 -0.4139
 7954SOL     OW35494   1.654   4.312  13.836 -0.2371 -0.5861  0.6036
 7954SOL    HW135495   1.653   4.288  13.743 -0.3299  0.1626  0.4104
 7954SOL    HW235496   1.574   4.271  13.869 -0.5707  1.3056  2.1499
 7955SOL     OW35497   4.222   1.594   3.940  0.1624 -0.0101 -0.5122
 7955SOL    HW135498   4.129   1.576   3.925  0.3866  0.5694 -2.5710
 7955SOL    HW235499   4.214   1.655   4.013  0.8435 -1.0863  0.4666
 7956SOL     OW35500   4.383   1.724   3.720 -0.2279  0.2056 -0.9109
 7956SOL    HW135501   4.296   1.710   3.758 -0.0293  0.1072 -0.5044
 7956SOL    HW235502   4.417   1.794   3.775  0.9640  0.6609 -2.2265
 7957SOL     OW35503   3.790   2.329  14.100  0.4844 -0.1267  0.1956
 7957SOL    HW135504   3.714   2.291  14.145  0.7366  0.3986  1.0669
 7957SOL    HW235505   3.756   2.340  14.012 -0.7744 -0.6100  0.6165
 7958SOL     OW35506   0.979   0.847   8.862  0.0785  0.1601  0.4213
 7958SOL    HW135507   0.918   0.839   8.788  0.9351 -0.8596 -0.1741
 7958SOL    HW235508   0.959   0.763   8.903 -0.1451  0.0516  0.0936
 7959SOL     OW35509   0.563   1.794  13.910  0.4571  0.0432  0.7835
 7959SOL    HW135510   0.491   1.731  13.912 -1.4535  2.2724  2.0498
 7959SOL    HW235511   0.556   1.834  13.824 -0.4164  0.3328  0.9926
 7960SOL     OW35512   0.462   4.467  15.346 -0.4531 -0.3412 -0.2482
 7960SOL    HW135513   0.437   4.556  15.369 -0.1706 -0.6963  1.5078
 7960SOL    HW235514   0.451   4.411  15.424  0.4178  1.2849  1.0532
 7961SOL     OW35515   4.725   0.764   4.996 -0.3728 -0.6709 -0.7193
 7961SOL    HW135516   0.014   0.770   5.087  3.3276  4.1665 -2.2681
 7961SOL    HW235517   0.055   0.810   4.951 -0.6530  0.8918  0.4553
 7962SOL     OW35518   3.719   1.137   4.860 -0.4402  0.0221 -0.3060
 7962SOL    HW135519   3.666   1.093   4.793  0.1625  1.1205 -1.4913
 7962SOL    HW235520   3.737   1.225   4.829  1.1225 -0.4670 -0.7850
 7963SOL     OW35521   1.340   4.159   8.131 -0.0690 -0.2041  0.4638
 7963SOL    HW135522   1.428   4.122   8.135  1.6878  4.1639  1.5873
 7963SOL    HW235523   1.297   4.096   8.072 -0.4989  0.2863  0.2497
 7964SOL     OW35524   3.149   3.974   9.210 -0.1734 -0.5440 -0.2507
 7964SOL    HW135525   3.203   4.018   9.277 -1.2558  0.2944  0.0711
 7964SOL    HW235526   3.071   3.953   9.261 -0.7644  1.2854 -0.4100
 7965SOL     OW35527   3.754   2.432   7.489  0.0427 -0.0238  0.0403
 7965SOL    HW135528   3.824   2.367   7.498  1.0395  1.1282  0.5586
 7965SOL    HW235529   3.678   2.392   7.532  1.1699 -1.9729  0.2468
 7966SOL     OW35530   4.601   0.639   4.244 -0.3694  0.1565  0.1810
 7966SOL    HW135531   4.677   0.697   4.249  0.5078 -1.2136  2.5849
 7966SOL    HW235532   4.628   0.577   4.311 -1.3378 -1.0644 -0.5465
 7967SOL     OW35533   1.813   2.023   5.821 -0.1922 -0.0192  0.0798
 7967SOL    HW135534   1.842   1.931   5.821 -0.9628 -0.2564  0.0570
 7967SOL    HW235535   1.807   2.051   5.912  1.7025  0.0002  0.2169
 7968SOL     OW35536   4.266   1.120  12.315 -0.3267  0.0205  0.1091
 7968SOL    HW135537   4.221   1.084  12.238 -0.7686 -1.3173  1.0005
 7968SOL    HW235538   4.217   1.069  12.379  1.8195 -0.8803  1.0519
 7969SOL     OW35539   3.890   4.456   0.887  0.2069 -0.1360  0.3600
 7969SOL    HW135540   3.922   4.479   0.800  1.3250  2.7998  1.5144
 7969SOL    HW235541   3.903   4.534   0.941  2.0877  1.0352 -1.7763
 7970SOL     OW35542   4.702   4.250   1.538  0.2585  0.0730 -0.7305
 7970SOL    HW135543   4.662   4.320   1.486  0.9612  1.3927  0.4879
 7970SOL    HW235544   4.629   4.188   1.538 -0.2621  0.6763 -1.6247
 7971SOL     OW35545   3.450   0.526   1.819  0.5983 -0.3592 -0.3130
 7971SOL    HW135546   3.435   0.478   1.900 -0.6815  1.1794  0.3519
 7971SOL    HW235547   3.528   0.479   1.788  0.1378 -2.7941  2.2759
 7972SOL     OW35548   1.781   1.544  12.721  0.0138  0.2715  0.0347
 7972SOL    HW135549   1.847   1.585  12.666 -0.9565  0.5968 -0.8839
 7972SOL    HW235550   1.691   1.563  12.695  0.2709  2.3887  0.7416
 7973SOL     OW35551   2.470   4.507   0.910 -0.2779 -0.1466 -0.0438
 7973SOL    HW135552   2.393   4.558   0.935 -0.7864 -0.8612 -0.1779
 7973SOL    HW235553   2.458   4.516   0.816  1.9925  3.0717 -0.0337
 7974SOL     OW35554   0.435   3.883   6.631 -0.1802  0.0908 -0.2591
 7974SOL    HW135555   0.404   3.856   6.718  0.0447  0.6390 -0.0134
 7974SOL    HW235556   0.460   3.974   6.646  0.9383 -0.2177 -0.2899
 7975SOL     OW35557   2.832   1.831   4.582  0.1202 -1.0831  0.1962
 7975SOL    HW135558   2.769   1.901   4.597  0.4463 -0.0119 -3.4740
 7975SOL    HW235559   2.825   1.814   4.488 -0.4771  3.6490 -0.5951
 7976SOL     OW35560   3.604   0.840  13.209  0.0902 -0.2093 -0.5305
 7976SOL    HW135561   3.617   0.862  13.117 -3.4044  1.2187 -0.6857
 7976SOL    HW235562   3.667   0.770  13.222 -1.4823 -1.5822 -0.3357
 7977SOL     OW35563   1.302   0.079   4.074 -0.2380 -0.2214  0.4640
 7977SOL    HW135564   1.341   0.113   3.994  0.9477 -1.9201  0.3201
 7977SOL    HW235565   1.213   0.054   4.049  0.6481 -1.6088 -1.3179
 7978SOL     OW35566   4.469   0.502  14.689 -0.5313 -0.5009  0.2309
 7978SOL    HW135567   4.453   0.505  14.595 -2.0005 -1.2283  0.4629
 7978SOL    HW235568   4.519   0.582  14.706  0.8670 -1.0454 -1.3371
 7979SOL     OW35569   2.839   0.481   4.981  0.1934 -0.4175 -0.5417
 7979SOL    HW135570   2.893   0.470   4.903  1.7219 -0.1165  0.4699
 7979SOL    HW235571   2.758   0.439   4.952  0.8335 -0.4682 -2.2288
 7980SOL     OW35572   0.977   4.417   3.621  0.0230  0.1046 -0.2698
 7980SOL    HW135573   0.929   4.375   3.550 -1.0457 -0.3325  0.6998
 7980SOL    HW235574   0.935   4.503   3.612 -1.4759 -0.9365 -3.3784
 7981SOL     OW35575   4.353   4.225   7.514  1.1115 -0.0802  0.3717
 7981SOL    HW135576   4.434   4.275   7.508  1.2888 -0.4242 -0.0379
 7981SOL    HW235577   4.378   4.148   7.565 -0.2408 -1.4334 -1.0161
 7982SOL     OW35578   2.311   0.991   4.289 -0.0160  0.0718 -0.2353
 7982SOL    HW135579   2.226   1.028   4.266 -0.1605 -0.3905 -0.4286
 7982SOL    HW235580   2.346   1.061   4.345 -0.3085 -0.5313  0.6963
 7983SOL     OW35581   2.882   2.937   3.187 -0.6916 -0.3312  0.1023
 7983SOL    HW135582   2.875   2.919   3.280  0.2668 -0.8262  0.0739
 7983SOL    HW235583   2.927   3.021   3.193 -0.2690 -0.6622  1.3983
 7984SOL     OW35584   4.094   0.017  12.597  0.1393  0.4959  0.3704
 7984SOL    HW135585   4.058   0.001  12.510 -0.9998 -0.6813  1.0496
 7984SOL    HW235586   4.021   0.004  12.658 -0.1402  0.4516  0.0287
 7985SOL     OW35587   4.646   3.504  13.466 -0.6742 -0.1033  0.1967
 7985SOL    HW135588   4.735   3.470  13.466 -0.3082  0.8684 -0.0343
 7985SOL    HW235589   4.628   3.533  13.556 -2.3638 -1.0783  0.1841
 7986SOL     OW35590   2.542   4.392   8.581 -0.4494 -0.1660  0.0999
 7986SOL    HW135591   2.596   4.336   8.637 -1.2550 -0.5006  0.5439
 7986SOL    HW235592   2.610   4.415   8.518 -1.1074  2.9743  0.5464
 7987SOL     OW35593   3.778   4.226   3.102  0.0100  0.0950 -0.2360
 7987SOL    HW135594   3.789   4.131   3.103 -1.3405 -0.0685 -1.5079
 7987SOL    HW235595   3.683   4.226   3.089  0.4047 -0.6243 -2.9453
 7988SOL     OW35596   3.978   4.134   3.629 -0.4966 -0.2838  0.0552
 7988SOL    HW135597   4.011   4.094   3.549  2.0303 -1.4212  1.6623
 7988SOL    HW235598   3.900   4.081   3.640 -2.7692  2.9153 -0.5871
 7989SOL     OW35599   0.608   2.790  15.674 -0.2193 -0.3834 -0.3181
 7989SOL    HW135600   0.521   2.827  15.684  0.0335  0.2505 -0.4668
 7989SOL    HW235601   0.645   2.802  15.762 -1.8558 -0.9046  0.4507
 7990SOL     OW35602   3.127   4.159   8.976  0.5767 -0.2257  0.7073
 7990SOL    HW135603   3.146   4.247   9.008 -1.6524  0.6244 -0.2736
 7990SOL    HW235604   3.138   4.105   9.054 -0.2180  0.0318  1.0059
 7991SOL     OW35605   2.220   1.528  12.258  0.9249 -0.1272  0.0236
 7991SOL    HW135606   2.276   1.496  12.187  0.4348 -0.6204 -0.1396
 7991SOL    HW235607   2.279   1.596  12.291 -0.0825 -0.3257  2.2452
 7992SOL     OW35608   3.617   4.334  10.840 -0.5574 -0.7271 -0.2178
 7992SOL    HW135609   3.564   4.265  10.801 -1.6457 -0.2429  0.4116
 7992SOL    HW235610   3.652   4.374  10.760 -0.4596  0.3814  0.3656
 7993SOL     OW35611   3.770   0.189   8.749  0.0126 -0.5386  0.3710
 7993SOL    HW135612   3.760   0.284   8.749 -1.8934 -0.7445 -1.1478
 7993SOL    HW235613   3.838   0.181   8.816 -0.8093 -1.3201  1.1040
 7994SOL     OW35614   2.235   3.751   8.566  0.0832  0.4961 -0.0345
 7994SOL    HW135615   2.164   3.798   8.521  1.1932  1.8777 -0.3499
 7994SOL    HW235616   2.243   3.799   8.648  1.7326 -0.6763  0.4932
 7995SOL     OW35617   1.544   3.779  10.244 -0.1838 -0.1120 -0.4374
 7995SOL    HW135618   1.596   3.779  10.164  0.3248 -0.9153 -0.0992
 7995SOL    HW235619   1.458   3.790  10.202 -0.5192 -0.2258  0.2229
 7996SOL     OW35620   3.092   4.540   5.371 -0.6953  0.6005 -0.3545
 7996SOL    HW135621   3.122   4.450   5.354 -0.6217  0.4260  0.7047
 7996SOL    HW235622   3.175   4.582   5.394  0.9242 -2.1885 -0.9893
 7997SOL     OW35623   4.260   3.218   2.535  0.3590  0.2819  0.1128
 7997SOL    HW135624   4.282   3.311   2.529 -0.2312  0.5389  2.0444
 7997SOL    HW235625   4.257   3.194   2.627  0.1587  2.0108  0.5506
 7998SOL     OW35626   1.131   3.961  11.726  0.0511  0.3022 -0.0650
 7998SOL    HW135627   1.095   4.015  11.797  0.9954  1.4336 -0.4345
 7998SOL    HW235628   1.068   3.899  11.690  1.9695 -0.7888 -1.5262
 7999SOL     OW35629   2.266   1.068  15.265  0.4239  0.0917  0.1047
 7999SOL    HW135630   2.295   0.979  15.285 -0.7058 -0.1667  0.5798
 7999SOL    HW235631   2.261   1.051  15.171 -2.5547  0.4014  0.1992
 8000SOL     OW35632   3.039   1.006   9.226  0.2541  0.3789  0.2421
 8000SOL    HW135633   3.070   1.003   9.136 -1.2057  0.8282 -0.2862
 8000SOL    HW235634   2.945   1.003   9.204 -0.1455  2.2385  1.6167
 8001SOL     OW35635   3.972   3.694   1.360  0.6377 -0.4998 -0.1221
 8001SOL    HW135636   3.976   3.762   1.293 -1.9064 -0.1069  0.1282
 8001SOL    HW235637   3.924   3.738   1.429 -1.0712 -1.7757 -0.5076
 8002SOL     OW35638   1.198   0.135  11.788 -0.0887  0.8605  0.3544
 8002SOL    HW135639   1.105   0.118  11.773 -0.0441  3.0132 -2.2982
 8002SOL    HW235640   1.229   0.100  11.705 -1.5916  1.9605 -0.6666
 8003SOL     OW35641   2.998   1.447   7.635  0.1224  0.4079 -0.3395
 8003SOL    HW135642   2.930   1.487   7.689  0.4436  0.3937  0.0804
 8003SOL    HW235643   3.057   1.398   7.693  2.0724  0.4918 -2.2395
 8004SOL     OW35644   0.253   2.145   2.251  0.8478  0.0912  0.6810
 8004SOL    HW135645   0.221   2.064   2.212  0.2680  1.0077 -0.7722
 8004SOL    HW235646   0.325   2.115   2.307  2.4775  0.5600 -1.1487
 8005SOL     OW35647   2.601   1.535   5.887  0.5479 -0.3926 -0.5172
 8005SOL    HW135648   2.687   1.564   5.856  0.3243  0.1450 -0.6312
 8005SOL    HW235649   2.637   1.459   5.934  1.2425 -0.5075 -1.2308
 8006SOL     OW35650   3.200   1.867  17.490  0.1469  0.3454  0.3411
 8006SOL    HW135651   3.122   1.821  17.521  1.9865 -1.6327  1.9706
 8006SOL    HW235652   3.232   1.903  17.572 -0.4679 -1.4931  1.3908
 8007SOL     OW35653   0.977   4.483   8.724  0.6350 -0.1544  0.4897
 8007SOL    HW135654   1.045   4.441   8.671 -0.0874 -2.4519  1.3923
 8007SOL    HW235655   1.007   4.475   8.815  0.6078 -1.8385  0.3473
 8008SOL     OW35656   3.959   3.735   9.828  0.4586  0.4499  0.2959
 8008SOL    HW135657   3.932   3.824   9.806  1.0023  0.7633  0.8871
 8008SOL    HW235658   3.889   3.691   9.780  0.9793  2.1015 -1.9509
 8009SOL     OW35659   4.410   0.234  17.554 -0.3416  0.1124  0.2904
 8009SOL    HW135660   4.384   0.261  17.641 -1.1477 -0.0311  0.0908
 8009SOL    HW235661   4.444   0.316  17.517  0.4127 -0.2364  0.1923
 8010SOL     OW35662   1.506   4.539   1.377 -0.1829 -0.2727 -0.7669
 8010SOL    HW135663   1.546   4.513   1.294  0.6289  0.9389 -0.7709
 8010SOL    HW235664   1.584   4.549   1.431 -1.1199 -1.6524  0.8170
 8011SOL     OW35665   1.646   2.212   8.395 -0.2219 -0.5389 -0.5179
 8011SOL    HW135666   1.584   2.263   8.343  0.4056  0.0309 -0.7056
 8011SOL    HW235667   1.731   2.240   8.361  0.6606 -0.2754  1.8887
 8012SOL     OW35668   2.347   4.722   1.488 -0.0697  0.1382  0.2322
 8012SOL    HW135669   2.335   4.719   1.393 -1.7363 -0.4396  0.4562
 8012SOL    HW235670   2.263   0.023   1.507 -0.0497  0.7795 -1.0553
 8013SOL     OW35671   3.371   0.689   9.523  0.3665  0.0521  0.1914
 8013SOL    HW135672   3.466   0.679   9.525  0.3793  0.0375 -0.5547
 8013SOL    HW235673   3.337   0.614   9.571  2.5686  0.3242  2.1954
 8014SOL     OW35674   4.115   4.708  15.456 -0.0382  0.2451  0.1422
 8014SOL    HW135675   4.197   4.683  15.500  0.4040 -1.4203 -1.5722
 8014SOL    HW235676   4.109   4.622  15.414 -0.7584 -0.5162  1.8099
 8015SOL     OW35677   0.876   4.284   5.181 -0.4622 -0.2299 -0.3753
 8015SOL    HW135678   0.821   4.209   5.202  1.2733 -1.0232  1.2486
 8015SOL    HW235679   0.927   4.292   5.261 -0.9095  0.2370 -0.1312
 8016SOL     OW35680   3.531   2.915   5.341 -0.3854  0.0126  0.5540
 8016SOL    HW135681   3.457   2.854   5.336 -0.8056  0.8210 -2.8963
 8016SOL    HW235682   3.512   2.968   5.264 -0.8328  1.4082  1.6220
 8017SOL     OW35683   2.135   0.503  14.116 -0.2070  0.3998  0.6272
 8017SOL    HW135684   2.207   0.501  14.179  2.0858 -0.7573 -2.0321
 8017SOL    HW235685   2.061   0.505  14.177 -0.5639  1.6371  0.1752
 8018SOL     OW35686   4.026   3.738   0.837  0.6821  0.1133 -0.2927
 8018SOL    HW135687   3.967   3.679   0.885 -1.5607  1.2232 -1.6820
 8018SOL    HW235688   4.032   3.821   0.882 -0.9621  0.2159 -0.2559
 8019SOL     OW35689   2.066   3.921   6.972  0.2057 -0.4700 -0.0511
 8019SOL    HW135690   2.093   3.995   7.026 -1.0075 -0.6242  0.7623
 8019SOL    HW235691   1.975   3.911   7.000 -0.1412  1.1743 -0.6228
 8020SOL     OW35692   2.436   2.996   9.250 -0.0891  0.1691 -0.6949
 8020SOL    HW135693   2.486   2.934   9.303  0.8939  2.0061  0.5474
 8020SOL    HW235694   2.468   2.997   9.160  0.7585 -0.7958 -0.3921
 8021SOL     OW35695   0.215   3.973   5.141  0.3924  0.2581  0.3711
 8021SOL    HW135696   0.214   4.059   5.098 -1.9303  0.3596  0.6692
 8021SOL    HW235697   0.168   3.986   5.223 -0.4996  1.9686 -0.4115
 8022SOL     OW35698   0.686   2.572  17.184 -0.1411 -0.8530  0.0446
 8022SOL    HW135699   0.675   2.488  17.227  1.6368 -2.1589 -2.0885
 8022SOL    HW235700   0.772   2.562  17.144 -0.1614 -1.1531  0.0751
 8023SOL     OW35701   4.636   0.779  14.414 -0.2721  0.0133 -0.0909
 8023SOL    HW135702   4.663   0.814  14.329 -0.9251 -0.2689 -0.4196
 8023SOL    HW235703   4.564   0.838  14.439 -1.9973 -1.9976 -0.3665
 8024SOL     OW35704   3.407   0.002   1.709  0.8903 -0.2382 -0.2166
 8024SOL    HW135705   3.475   0.028   1.771 -1.7535  0.2429  2.4829
 8024SOL    HW235706   3.327   0.045   1.739  1.2756 -1.1115  2.0017
 8025SOL     OW35707   3.253   1.811   5.119 -0.0151  0.3634 -0.1910
 8025SOL    HW135708   3.228   1.747   5.186 -1.2032  1.1006  0.0675
 8025SOL    HW235709   3.229   1.756   5.044 -0.5565 -0.0004  0.2519
 8026SOL     OW35710   2.287   0.576  16.905 -0.1561  0.4155 -0.5152
 8026SOL    HW135711   2.244   0.497  16.939  3.1338 -0.2763  2.0103
 8026SOL    HW235712   2.213   0.636  16.905 -1.2508 -0.9261 -2.5697
 8027SOL     OW35713   3.586   2.646   4.034 -0.2614 -0.0060 -0.0837
 8027SOL    HW135714   3.591   2.737   4.005  0.6235 -0.1597 -0.4443
 8027SOL    HW235715   3.594   2.603   3.949 -2.1440 -0.3981 -0.0597
 8028SOL     OW35716   4.713   3.236   4.783  0.0512 -0.6095 -0.1503
 8028SOL    HW135717   0.024   3.218   4.862  0.1950 -2.2382 -0.6197
 8028SOL    HW235718   4.628   3.241   4.828  0.1571  1.9340 -0.2631
 8029SOL     OW35719   3.726   2.919   9.293  0.0718  0.2211 -0.2820
 8029SOL    HW135720   3.772   2.985   9.345 -0.1302  1.7321 -2.0167
 8029SOL    HW235721   3.724   2.846   9.354 -0.1150 -1.0471 -1.8114
 8030SOL     OW35722   2.056   1.581  11.297 -0.6720  0.0313  0.0894
 8030SOL    HW135723   2.124   1.589  11.364 -1.4802 -0.6175  0.9930
 8030SOL    HW235724   2.020   1.670  11.295  1.6188  0.9155 -2.1510
 8031SOL     OW35725   3.153   4.101   6.709 -0.0660 -0.2046  0.6508
 8031SOL    HW135726   3.155   4.048   6.629  1.6711  1.5446 -0.4509
 8031SOL    HW235727   3.220   4.058   6.762  1.1183  0.7218 -0.1088
 8032SOL     OW35728   0.588   2.124   0.047 -0.3076  0.0585  0.0153
 8032SOL    HW135729   0.591   2.028   0.051 -0.4327  0.1480  2.1251
 8032SOL    HW235730   0.600   2.143  17.711  2.5943  1.1054  0.6042
 8033SOL     OW35731   0.305   3.914   9.493 -0.1643  0.1441 -0.4307
 8033SOL    HW135732   0.337   3.919   9.583  0.8645 -0.9038 -0.7306
 8033SOL    HW235733   0.302   4.003   9.457 -0.3291 -0.1211 -1.0826
 8034SOL     OW35734   2.269   3.198   4.778  0.1237  0.2568  0.4705
 8034SOL    HW135735   2.354   3.234   4.754 -1.0948  2.3321 -0.6436
 8034SOL    HW235736   2.261   3.212   4.872 -0.7228  0.7818  0.3235
 8035SOL     OW35737   3.731   3.259   9.758 -0.3669  0.0465  0.1973
 8035SOL    HW135738   3.662   3.303   9.708  0.7305  0.6957 -0.7449
 8035SOL    HW235739   3.701   3.275   9.848 -1.0093 -2.7760  0.4912
 8036SOL     OW35740   1.360   1.801  11.927  0.1494 -0.2842 -0.1613
 8036SOL    HW135741   1.433   1.840  11.975 -0.4825 -0.1560  0.6941
 8036SOL    HW235742   1.370   1.707  11.942  1.0320  0.1059  1.6774
 8037SOL     OW35743   4.663   1.113  10.283  0.1330 -0.1957 -0.2782
 8037SOL    HW135744   4.710   1.173  10.225  0.2513 -0.9680 -0.9789
 8037SOL    HW235745   4.613   1.075  10.211 -1.9646 -1.0662  1.6592
 8038SOL     OW35746   4.355   4.410   6.119  0.5341  0.5238 -0.2745
 8038SOL    HW135747   4.316   4.396   6.205 -3.5197  1.5291 -1.9115
 8038SOL    HW235748   4.416   4.338   6.131 -0.1846 -0.6256 -3.4438
 8039SOL     OW35749   3.333   0.987  17.575 -0.3087  0.2788  0.9673
 8039SOL    HW135750   3.362   0.906  17.618  1.0932  2.0822  3.3854
 8039SOL    HW235751   3.391   1.052  17.614  0.1282 -0.1747  1.0667
 8040SOL     OW35752   2.972   0.574   1.612 -0.2801 -0.1489 -0.3440
 8040SOL    HW135753   2.907   0.582   1.542 -1.0882 -1.2125  0.2824
 8040SOL    HW235754   2.994   0.480   1.613  2.3669  0.4426 -0.9117
 8041SOL     OW35755   0.743   0.757   4.070  0.3124 -0.2151  0.4970
 8041SOL    HW135756   0.661   0.802   4.088  1.4848  2.1243 -0.0127
 8041SOL    HW235757   0.742   0.687   4.135  1.8895 -0.9175 -0.2199
 8042SOL     OW35758   3.612   0.333   2.310 -0.1132 -0.1973 -0.4724
 8042SOL    HW135759   3.622   0.303   2.400  1.3770  0.6840 -0.3508
 8042SOL    HW235760   3.692   0.385   2.316  0.7029 -1.4752 -0.1881
 8043SOL     OW35761   1.820   0.586   6.169  0.0962 -0.5192 -0.2784
 8043SOL    HW135762   1.822   0.681   6.156 -1.1045 -0.7365 -1.9470
 8043SOL    HW235763   1.838   0.585   6.263  1.1286  0.4078 -0.4600
 8044SOL     OW35764   0.872   2.481  12.310 -0.2589  0.0440  0.1609
 8044SOL    HW135765   0.904   2.392  12.295  1.0839  0.5922 -0.3301
 8044SOL    HW235766   0.852   2.483  12.404  2.6858 -0.8016  0.8157
 8045SOL     OW35767   4.379   3.889  15.884  0.0652 -0.0047 -0.0366
 8045SOL    HW135768   4.381   3.984  15.885 -1.3031  0.0548 -3.6473
 8045SOL    HW235769   4.345   3.865  15.797 -2.4420  0.1500  0.9024
 8046SOL     OW35770   4.055   1.546   5.744 -0.4373 -0.3280  0.3932
 8046SOL    HW135771   4.135   1.502   5.774  0.3028  0.4386 -0.4734
 8046SOL    HW235772   4.081   1.568   5.655  0.4509  0.4641  0.8537
 8047SOL     OW35773   2.451   4.166   2.789 -0.5035 -0.0895  0.0081
 8047SOL    HW135774   2.381   4.127   2.737 -1.3568  1.2535  0.1385
 8047SOL    HW235775   2.499   4.204   2.715  0.0930 -0.4803  0.1915
 8048SOL     OW35776   4.435   0.378  12.937  0.0912 -0.0616  0.0103
 8048SOL    HW135777   4.465   0.309  12.997 -2.3376 -0.6963  0.5016
 8048SOL    HW235778   4.349   0.346  12.912 -0.4238  0.8779  0.5905
 8049SOL     OW35779   0.389   1.628  11.146  0.1407 -0.3770  0.0725
 8049SOL    HW135780   0.360   1.694  11.209 -1.2870  0.0206 -0.9888
 8049SOL    HW235781   0.338   1.634  11.065  0.0864  1.1761  0.2152
 8050SOL     OW35782   0.754   2.246  12.684  0.2762  0.0758  0.4632
 8050SOL    HW135783   0.688   2.181  12.708 -1.4220  0.5095 -2.9994
 8050SOL    HW235784   0.746   2.258  12.589 -1.6460  1.9547  0.8784
 8051SOL     OW35785   3.534   2.414  10.765  0.4205  0.2504  0.0237
 8051SOL    HW135786   3.497   2.342  10.714 -1.2249  0.2920  1.1567
 8051SOL    HW235787   3.550   2.372  10.850  0.8571  2.8051  1.2057
 8052SOL     OW35788   2.234   0.482   3.559  0.5109  0.1966 -0.2097
 8052SOL    HW135789   2.176   0.483   3.635 -1.7433  2.5733 -1.9789
 8052SOL    HW235790   2.161   0.473   3.499  0.6898 -0.2092 -0.3601
 8053SOL     OW35791   2.196   4.484   5.447  0.0718 -0.0552 -0.0053
 8053SOL    HW135792   2.290   4.473   5.429  0.0873 -0.5100  0.3630
 8053SOL    HW235793   2.166   4.523   5.365 -2.4234  1.2594  1.5585
 8054SOL     OW35794   0.869   0.833  11.853 -0.2513 -0.8091 -0.3630
 8054SOL    HW135795   0.908   0.908  11.898 -1.4825  0.3428 -1.1891
 8054SOL    HW235796   0.912   0.843  11.768 -1.9071  0.5942 -1.0536
 8055SOL     OW35797   3.359   0.904   4.251  0.0973 -0.3675 -0.2138
 8055SOL    HW135798   3.291   0.891   4.318 -1.4795  1.8102 -1.4008
 8055SOL    HW235799   3.430   0.844   4.275 -1.2538 -1.8362  0.0931
 8056SOL     OW35800   4.315   0.938  15.041  0.6206  0.5147  0.4625
 8056SOL    HW135801   4.241   0.885  15.009 -1.0061  0.5291  4.2771
 8056SOL    HW235802   4.267   1.020  15.055  0.2651  0.0973  1.6309
 8057SOL     OW35803   0.519   4.405  12.522 -0.1107 -0.2245 -0.3918
 8057SOL    HW135804   0.463   4.482  12.512 -0.0673 -0.0386  0.7446
 8057SOL    HW235805   0.462   4.328  12.517 -1.1992  0.6237 -1.1375
 8058SOL     OW35806   0.137   0.315   3.022  0.2691  0.5711 -0.1320
 8058SOL    HW135807   0.104   0.242   3.075 -2.1596  3.6767  2.6281
 8058SOL    HW235808   0.052   0.337   2.983  0.8753  0.5716 -1.4503
 8059SOL     OW35809   2.518   0.281   8.441  0.0207  0.2189  0.1029
 8059SOL    HW135810   2.583   0.254   8.506  0.7653 -0.8029 -1.0586
 8059SOL    HW235811   2.572   0.345   8.395 -1.0465 -0.9583 -2.7768
 8060SOL     OW35812   1.760   3.380   5.164 -0.5094  0.1195  0.1260
 8060SOL    HW135813   1.755   3.366   5.069  0.6333 -0.8531  0.2019
 8060SOL    HW235814   1.812   3.300   5.177 -3.3905 -1.8730 -0.4987
 8061SOL     OW35815   2.409   0.797   4.133  0.5805 -0.0900 -0.0497
 8061SOL    HW135816   2.398   0.839   4.047 -2.3867  0.8008  0.7878
 8061SOL    HW235817   2.343   0.847   4.180 -1.1574 -2.7673  0.3257
 8062SOL     OW35818   1.167   1.570   4.680  0.0448  0.0656  0.6133
 8062SOL    HW135819   1.190   1.590   4.771  1.0403  0.8112  0.1942
 8062SOL    HW235820   1.179   1.653   4.635 -0.3741  0.0150  0.4061
 8063SOL     OW35821   4.460   4.163  15.593  0.6898  0.2435 -0.1598
 8063SOL    HW135822   4.507   4.080  15.582  0.6967  0.2959 -0.5438
 8063SOL    HW235823   4.533   4.225  15.598  0.2057  1.0481 -2.9266
 8064SOL     OW35824   4.434   2.373  15.706 -0.0754 -0.0059  0.4517
 8064SOL    HW135825   4.419   2.456  15.662 -1.6972 -0.7738 -0.4333
 8064SOL    HW235826   4.495   2.394  15.777 -0.9148 -0.8088  1.4103
 8065SOL     OW35827   4.104   3.980   0.678  0.1176  0.3989 -0.0791
 8065SOL    HW135828   4.071   3.896   0.647  1.2071 -0.6446  1.5786
 8065SOL    HW235829   4.062   3.985   0.764 -0.1936 -2.0935 -0.0666
 8066SOL     OW35830   1.175   4.400   8.219  0.0866  0.2111 -0.3598
 8066SOL    HW135831   1.239   4.453   8.268 -1.3344  1.9425 -0.3637
 8066SOL    HW235832   1.226   4.327   8.184  0.1672 -0.3442  0.9015
 8067SOL     OW35833   0.440   2.922  15.271  0.4258 -0.4363  0.4548
 8067SOL    HW135834   0.495   2.878  15.336  0.4267  0.6365  1.1781
 8067SOL    HW235835   0.394   2.851  15.226 -0.7912  0.4549  0.2644
 8068SOL     OW35836   1.851   2.286   3.113  0.5402  0.1222  0.4683
 8068SOL    HW135837   1.809   2.273   3.028 -1.7203  0.1465  1.5772
 8068SOL    HW235838   1.927   2.238   3.082  0.9895 -0.0575  1.8336
 8069SOL     OW35839   2.266   1.630  12.560 -0.2664 -0.3942  0.2936
 8069SOL    HW135840   2.310   1.546  12.544  1.7675  0.4532  1.4623
 8069SOL    HW235841   2.334   1.687  12.526  0.7582 -2.6229 -1.4321
 8070SOL     OW35842   1.320   1.295   5.312 -0.2650  0.2458  0.1862
 8070SOL    HW135843   1.405   1.258   5.290 -0.5726 -1.0109  1.0950
 8070SOL    HW235844   1.336   1.346   5.392  0.0946  1.6013 -0.7497
 8071SOL     OW35845   3.808   1.415   0.767 -0.3297  0.2364  0.7265
 8071SOL    HW135846   3.746   1.435   0.697  1.2302 -0.1101 -0.7465
 8071SOL    HW235847   3.787   1.323   0.784  0.7124  0.5166  3.5314
 8072SOL     OW35848   0.357   3.599   4.695 -0.5738 -0.0912 -0.0424
 8072SOL    HW135849   0.385   3.519   4.650  0.7402 -0.6022  1.7004
 8072SOL    HW235850   0.263   3.596   4.679 -0.6391 -1.6643  0.6235
 8073SOL     OW35851   3.103   2.521   4.440 -0.4485 -0.4169 -0.1274
 8073SOL    HW135852   3.174   2.581   4.462 -0.2116 -0.9692  0.6494
 8073SOL    HW235853   3.028   2.575   4.464 -1.0980 -0.3178 -2.3403
 8074SOL     OW35854   4.130   2.072   5.018  0.2819  0.4232 -0.1570
 8074SOL    HW135855   4.215   2.111   5.040  1.1058 -0.1100 -2.3647
 8074SOL    HW235856   4.161   1.982   5.024  0.9655  0.6030 -1.1096
 8075SOL     OW35857   4.636   1.508   0.064  0.3082  0.0266  0.0160
 8075SOL    HW135858   4.590   1.527  17.739  0.2884 -0.1685 -0.0180
 8075SOL    HW235859   4.679   1.426   0.042 -0.8031 -0.6846  0.4757
 8076SOL     OW35860   2.335   4.177  11.350  0.1362  0.1232 -0.1004
 8076SOL    HW135861   2.407   4.218  11.302  1.3899 -0.3768  1.3550
 8076SOL    HW235862   2.295   4.135  11.274 -1.1148 -0.0155  0.6331
 8077SOL     OW35863   0.814   3.753   7.246  0.0175 -0.0143 -0.1401
 8077SOL    HW135864   0.765   3.674   7.271 -0.3686 -0.5072 -2.4788
 8077SOL    HW235865   0.842   3.781   7.333  0.5606 -0.1600 -0.2727
 8078SOL     OW35866   3.533   1.697  10.403  0.2485 -0.1593 -0.2934
 8078SOL    HW135867   3.441   1.688  10.380  0.3356  2.8265 -1.7943
 8078SOL    HW235868   3.557   1.662  10.317 -1.7570  1.0362 -1.3118
 8079SOL     OW35869   1.079   0.668   2.129  0.0219  0.0154 -0.0109
 8079SOL    HW135870   0.987   0.641   2.124  0.0073  0.0828 -0.1197
 8079SOL    HW235871   1.072   0.749   2.078 -0.9971 -0.3750 -0.5035
 8080SOL     OW35872   0.413   2.519  13.312  0.0120 -0.2743  0.6828
 8080SOL    HW135873   0.393   2.529  13.405 -0.7434 -1.8204  0.6809
 8080SOL    HW235874   0.327   2.516  13.271 -0.9609  0.0022  2.6800
 8081SOL     OW35875   2.016   3.248  15.492 -0.7851 -0.0320  0.2063
 8081SOL    HW135876   1.967   3.167  15.480  0.8834 -1.1352  0.9135
 8081SOL    HW235877   2.091   3.221  15.543 -0.1761  1.6033  0.1879
 8082SOL     OW35878   2.754   1.309   7.440 -0.0133  0.0427 -0.1874
 8082SOL    HW135879   2.793   1.388   7.479 -0.7117  0.9282 -1.2891
 8082SOL    HW235880   2.664   1.334   7.457  0.2096 -0.1250  1.2472
 8083SOL     OW35881   4.124   0.231  15.433  0.0525  0.4365  0.5417
 8083SOL    HW135882   4.091   0.258  15.518  0.7999 -1.0394  1.3069
 8083SOL    HW235883   4.115   0.135  15.435  1.0219  0.3400  0.1081
 8084SOL     OW35884   1.127   1.082   6.380 -0.3929  0.2486  0.1479
 8084SOL    HW135885   1.135   0.987   6.384 -0.7372  0.1751 -0.9822
 8084SOL    HW235886   1.096   1.108   6.467 -0.4358  0.6498  0.0116
 8085SOL     OW35887   3.785   2.071   6.985 -0.0185 -0.4718  0.0488
 8085SOL    HW135888   3.700   2.110   7.004  0.5619  1.2407 -0.8413
 8085SOL    HW235889   3.798   2.010   7.057  0.1227  1.8005  1.9737
 8086SOL     OW35890   1.802   3.748   7.093  0.8309 -0.0833  0.2906
 8086SOL    HW135891   1.719   3.704   7.109 -0.0527  1.6783  0.4788
 8086SOL    HW235892   1.767   3.836   7.080 -0.4356 -1.0911 -3.0309
 8087SOL     OW35893   0.441   2.408  14.227 -0.0102 -0.5391  0.3729
 8087SOL    HW135894   0.500   2.476  14.194 -2.1668  1.0900 -0.1086
 8087SOL    HW235895   0.386   2.392  14.151 -0.1305  1.9907 -0.0706
 8088SOL     OW35896   4.334   0.181   7.986 -0.9746 -0.2102 -0.2740
 8088SOL    HW135897   4.355   0.205   8.076  0.4103 -0.7885 -0.4339
 8088SOL    HW235898   4.341   0.264   7.938 -3.7421  0.9791  1.4271
 8089SOL     OW35899   0.207   4.140   7.240 -0.0520 -0.2873  0.4175
 8089SOL    HW135900   0.217   4.226   7.199  0.4873 -0.8447 -0.6310
 8089SOL    HW235901   0.218   4.155   7.334 -0.9121 -3.2238  0.9837
 8090SOL     OW35902   0.628   4.435  16.959  0.1462 -0.1435  0.0922
 8090SOL    HW135903   0.574   4.510  16.934  0.2762  0.6301  2.1863
 8090SOL    HW235904   0.601   4.428  17.050  0.6803 -0.2248  0.2428
 8091SOL     OW35905   0.907   2.801  16.740 -0.1171 -0.3187  0.0416
 8091SOL    HW135906   0.866   2.799  16.827 -0.0974  1.0419  0.0769
 8091SOL    HW235907   0.845   2.746  16.692  1.8010 -1.9381 -0.5713
 8092SOL     OW35908   2.519   0.133  11.177  0.0755 -0.0882  0.0546
 8092SOL    HW135909   2.588   0.180  11.130 -1.6092  0.8301 -1.5074
 8092SOL    HW235910   2.567   0.066  11.224 -0.0835 -1.4456 -1.7484
 8093SOL     OW35911   2.591   3.582   7.155 -0.3082  0.2487  0.1665
 8093SOL    HW135912   2.600   3.547   7.244  2.5404  2.2852  0.6803
 8093SOL    HW235913   2.666   3.642   7.157 -1.4905  1.6769  1.4308
 8094SOL     OW35914   1.064   3.001   7.355  0.5912  0.4403  0.4131
 8094SOL    HW135915   1.030   3.089   7.367 -2.6551 -1.1857  3.2461
 8094SOL    HW235916   1.073   2.977   7.448  1.8283 -0.5865  0.0370
 8095SOL     OW35917   2.831   0.109   0.242  0.4121  0.6941  0.2974
 8095SOL    HW135918   2.926   0.102   0.241  0.2027 -1.7444 -2.3561
 8095SOL    HW235919   2.802   0.084   0.329 -0.1924 -0.6302 -0.2892
 8096SOL     OW35920   0.432   4.222   1.625  0.1886 -0.3051  0.0987
 8096SOL    HW135921   0.391   4.279   1.690  0.4721 -0.5632  0.5100
 8096SOL    HW235922   0.394   4.251   1.542  1.8184  0.5415 -0.3516
 8097SOL     OW35923   4.074   2.283   2.016 -0.1635 -0.0496  0.3497
 8097SOL    HW135924   4.138   2.352   1.997  0.3414 -0.7196 -0.3799
 8097SOL    HW235925   4.033   2.340   2.082 -0.2973  0.7625 -0.4284
 8098SOL     OW35926   1.346   3.457  16.356  0.5290 -0.3003 -0.0789
 8098SOL    HW135927   1.376   3.367  16.342  1.2183 -0.2923  1.3977
 8098SOL    HW235928   1.313   3.460  16.445  1.5933 -0.7022  0.3284
 8099SOL     OW35929   2.396   1.706   4.216  0.4357 -0.1388 -0.3291
 8099SOL    HW135930   2.445   1.630   4.184  2.5507  1.2939 -0.4916
 8099SOL    HW235931   2.419   1.765   4.144 -0.7235 -0.9111 -1.3345
 8100SOL     OW35932   1.991   1.476   0.246  0.0038  0.1727 -0.4499
 8100SOL    HW135933   1.974   1.482   0.340 -0.1276  0.0778 -0.4671
 8100SOL    HW235934   1.908   1.442   0.212  0.4264 -2.0941  0.7734
 8101SOL     OW35935   1.478   0.428   3.239  0.4617  0.0818 -0.6581
 8101SOL    HW135936   1.395   0.414   3.285 -0.5387 -1.5230 -2.9603
 8101SOL    HW235937   1.451   0.495   3.176 -0.3996  0.4052  0.0505
 8102SOL     OW35938   0.417   1.287   4.294 -0.1717  0.5701  0.2999
 8102SOL    HW135939   0.373   1.222   4.239  0.3111 -0.6825  1.4016
 8102SOL    HW235940   0.352   1.298   4.364 -0.0833 -1.6088  0.7069
 8103SOL     OW35941   1.712   0.117  10.988  0.0617 -0.1699 -0.8842
 8103SOL    HW135942   1.617   0.115  10.975 -0.2707  1.9063  1.1826
 8103SOL    HW235943   1.742   0.058  10.920  0.7581  0.7898 -1.4098
 8104SOL     OW35944   0.954   2.536   9.164  0.2184 -0.2710 -0.1172
 8104SOL    HW135945   0.949   2.568   9.254 -1.9350  0.0289 -0.3445
 8104SOL    HW235946   1.049   2.539   9.153  0.3054 -0.9254  0.4818
 8105SOL     OW35947   1.372   1.340   5.604  0.1130  0.4786 -0.7710
 8105SOL    HW135948   1.438   1.410   5.600  1.9826 -1.2910 -0.4865
 8105SOL    HW235949   1.342   1.350   5.694 -0.8204  0.8763 -1.1270
 8106SOL     OW35950   3.642   4.381  17.550  0.0014 -0.4518  0.4172
 8106SOL    HW135951   3.567   4.379  17.492  0.7001  1.7712 -0.5660
 8106SOL    HW235952   3.670   4.472  17.545 -1.3452 -0.0433  0.4486
 8107SOL     OW35953   4.039   3.433   1.410  0.1334  0.5056  0.3092
 8107SOL    HW135954   4.111   3.439   1.473 -0.6318  2.3483  0.9868
 8107SOL    HW235955   4.017   3.525   1.397  0.0210  0.3960 -0.3068
 8108SOL     OW35956   2.217   2.486  14.814  0.4030  0.4622 -0.0260
 8108SOL    HW135957   2.155   2.417  14.839 -0.4954  1.6822  1.1432
 8108SOL    HW235958   2.290   2.461  14.871 -0.6099  0.6405  1.3734
 8109SOL     OW35959   1.010   0.211   5.800  0.5829 -0.2665  0.3683
 8109SOL    HW135960   0.970   0.161   5.729  0.0030  1.6176 -0.6443
 8109SOL    HW235961   0.958   0.292   5.799 -0.2529 -0.8067 -0.0822
 8110SOL     OW35962   3.454   3.623   1.739  0.4980 -0.2010  0.4067
 8110SOL    HW135963   3.494   3.569   1.670 -0.7258 -0.0998 -0.3791
 8110SOL    HW235964   3.423   3.702   1.694 -1.9024 -1.2423  0.2447
 8111SOL     OW35965   1.590   2.731   1.898  0.0537  0.0821 -0.0685
 8111SOL    HW135966   1.640   2.715   1.978  1.3116 -1.5764 -1.1967
 8111SOL    HW235967   1.510   2.774   1.929 -0.8393 -0.1631 -2.0623
 8112SOL     OW35968   4.118   0.512   5.439  0.1889 -0.2912 -0.1527
 8112SOL    HW135969   4.206   0.526   5.474  0.1479 -0.0981 -0.1307
 8112SOL    HW235970   4.117   0.418   5.457 -0.5040 -0.3426 -0.4365
 8113SOL     OW35971   1.919   2.134   4.576 -0.0447  0.3948  0.1357
 8113SOL    HW135972   1.839   2.081   4.576 -0.0713  0.4150 -2.5574
 8113SOL    HW235973   1.939   2.123   4.669 -0.6759 -0.7718  0.1410
 8114SOL     OW35974   2.434   4.201   5.837  0.0624 -0.5635 -0.5805
 8114SOL    HW135975   2.400   4.288   5.858  0.0715 -0.7452  0.2026
 8114SOL    HW235976   2.463   4.170   5.923 -0.0352 -0.2966 -0.4489
 8115SOL     OW35977   2.700   3.430   4.371 -0.4672 -0.7492  0.2072
 8115SOL    HW135978   2.741   3.456   4.289  1.6772  1.8370  2.1061
 8115SOL    HW235979   2.642   3.358   4.346 -0.5046  0.1581 -2.2722
 8116SOL     OW35980   3.705   3.572   1.620 -0.0971 -0.3437 -0.9127
 8116SOL    HW135981   3.672   3.516   1.550 -3.4449 -0.4593  0.7486
 8116SOL    HW235982   3.722   3.509   1.690 -0.0944  0.1124 -0.4999
 8117SOL     OW35983   4.529   0.647  12.764 -0.0034 -0.3473  0.2009
 8117SOL    HW135984   4.567   0.650  12.852 -2.5219 -1.9589  1.3475
 8117SOL    HW235985   4.477   0.567  12.764 -0.5232 -0.0192  4.1493
 8118SOL     OW35986   4.556   4.265   8.359 -0.0703  0.1306  0.2300
 8118SOL    HW135987   4.591   4.197   8.301  3.1646  0.9824  1.1729
 8118SOL    HW235988   4.593   4.344   8.320  3.7698 -0.8881  1.7491
 8119SOL     OW35989   1.021   0.715  13.249 -0.4694 -0.0710 -0.3082
 8119SOL    HW135990   1.047   0.629  13.283 -0.4766  0.0559  0.0272
 8119SOL    HW235991   0.928   0.692  13.250 -0.4984  0.0326 -0.7958
 8120SOL     OW35992   0.212   0.209   6.163 -0.3498 -0.2916  0.0092
 8120SOL    HW135993   0.229   0.235   6.073 -0.8951  0.3944  0.0968
 8120SOL    HW235994   0.124   0.171   6.158 -1.8246  2.4411  4.7946
 8121SOL     OW35995   1.427   1.931   5.615 -0.3335  0.2520  0.0330
 8121SOL    HW135996   1.473   1.982   5.549  1.3964 -1.1107  0.1929
 8121SOL    HW235997   1.498   1.899   5.671 -0.3635 -0.4923 -0.3510
 8122SOL     OW35998   0.850   2.807   8.096  0.7012 -0.9735  0.2801
 8122SOL    HW135999   0.829   2.743   8.028 -0.0635 -0.3765 -0.0458
 8122SOL    HW236000   0.884   2.748   8.164  0.8027 -0.8963  0.2958
 8123SOL     OW36001   2.947   2.672  15.199 -0.2063 -0.4086 -0.5693
 8123SOL    HW136002   2.961   2.580  15.175  1.5957 -0.8470  2.1180
 8123SOL    HW236003   2.875   2.691  15.139 -0.0512 -2.2144 -1.3491
 8124SOL     OW36004   0.522   3.202   2.651 -0.3509 -1.0555  0.1755
 8124SOL    HW136005   0.433   3.202   2.613 -1.4174 -0.0901  2.6978
 8124SOL    HW236006   0.578   3.202   2.574 -0.5567  0.3618  0.0365
 8125SOL     OW36007   3.829   2.336  10.617  0.3621 -0.0950  0.6045
 8125SOL    HW136008   3.849   2.337  10.523 -1.6818 -1.6297  0.1412
 8125SOL    HW236009   3.763   2.406  10.615  1.9011  1.3699  1.0522
 8126SOL     OW36010   0.725   0.897   0.404 -0.4622 -0.3347 -0.2703
 8126SOL    HW136011   0.651   0.842   0.378  0.1465 -0.6202 -1.3876
 8126SOL    HW236012   0.703   0.926   0.493  0.2206  0.6324 -0.4127
 8127SOL     OW36013   3.692   1.602   3.680 -0.0317 -0.0766  0.8056
 8127SOL    HW136014   3.680   1.583   3.587  0.3988 -1.6683  1.0832
 8127SOL    HW236015   3.716   1.694   3.665  1.0188 -0.4845  0.0318
 8128SOL     OW36016   2.067   3.505   8.258 -0.1150 -0.2557  0.3935
 8128SOL    HW136017   1.976   3.473   8.257 -0.3692  0.4512  0.5194
 8128SOL    HW236018   2.091   3.491   8.166 -2.6095 -0.6290 -0.2044
 8129SOL     OW36019   3.919   2.878   4.513 -0.4091  0.1057 -0.2412
 8129SOL    HW136020   3.999   2.848   4.557 -0.5964  1.1653  0.8174
 8129SOL    HW236021   3.852   2.887   4.581 -0.3972  1.5641 -0.4100
 8130SOL     OW36022   2.165   4.557  10.254  0.9344  0.1183  0.2229
 8130SOL    HW136023   2.197   4.645  10.275 -1.1269  1.4832 -2.3655
 8130SOL    HW236024   2.082   4.586  10.216 -0.0199  0.2698  2.4257
 8131SOL     OW36025   4.416   3.031   6.873  0.0170 -0.3373  0.4594
 8131SOL    HW136026   4.390   3.121   6.895  1.4444  0.4254 -1.0264
 8131SOL    HW236027   4.369   3.018   6.791 -1.8516  2.1809  1.1040
 8132SOL     OW36028   1.451   1.686   2.137 -0.4683  0.3394 -0.0852
 8132SOL    HW136029   1.464   1.608   2.190  0.2669 -0.7579 -1.8700
 8132SOL    HW236030   1.540   1.696   2.103 -0.4766  0.4638 -0.0709
 8133SOL     OW36031   3.144   3.409   0.888  0.5040 -0.2956  0.0144
 8133SOL    HW136032   3.139   3.420   0.793  1.6922  1.3613  0.1445
 8133SOL    HW236033   3.057   3.370   0.897  0.2908  0.1116 -0.2935
 8134SOL     OW36034   2.709   0.301   7.078 -0.0527  0.0267 -0.5244
 8134SOL    HW136035   2.711   0.288   6.983  0.6015  0.6496 -0.6004
 8134SOL    HW236036   2.738   0.215   7.106 -0.6551 -0.7275 -2.2482
 8135SOL     OW36037   4.225   4.106   8.558  0.2425  0.2917 -0.0991
 8135SOL    HW136038   4.131   4.117   8.539 -0.5696 -0.9663  3.3210
 8135SOL    HW236039   4.252   4.042   8.492 -1.1431  1.0737 -1.4356
 8136SOL     OW36040   4.233   2.621   2.600 -0.4607  0.8135 -0.1605
 8136SOL    HW136041   4.156   2.644   2.652 -1.1029 -0.5884 -0.4928
 8136SOL    HW236042   4.211   2.667   2.519 -1.3648  2.4048  0.9980
 8137SOL     OW36043   3.575   3.930   4.472 -0.1951 -0.0359 -0.4759
 8137SOL    HW136044   3.596   3.976   4.553 -1.3711  0.1093 -0.2536
 8137SOL    HW236045   3.522   3.995   4.425 -0.1024 -0.2634 -0.8928
 8138SOL     OW36046   1.844   0.043   3.124 -0.0847 -0.6076 -0.2684
 8138SOL    HW136047   1.890   0.093   3.191 -0.0631 -0.1604 -0.6168
 8138SOL    HW236048   1.875   4.695   3.145 -0.7626 -0.6370  0.6339
 8139SOL     OW36049   1.284   2.528   4.698  0.4431 -0.1716 -0.2627
 8139SOL    HW136050   1.294   2.618   4.670 -0.3750  0.7848  2.4601
 8139SOL    HW236051   1.349   2.540   4.767 -0.0245 -0.9790  0.3332
 8140SOL     OW36052   4.326   1.933   6.121 -0.7318  0.4900  0.0924
 8140SOL    HW136053   4.248   1.988   6.116 -2.2673 -1.4659  1.9295
 8140SOL    HW236054   4.281   1.848   6.115 -0.6587  0.3125  1.9474
 8141SOL     OW36055   3.945   0.778   3.416 -0.3128 -0.1884 -0.3235
 8141SOL    HW136056   3.941   0.739   3.503 -2.8414  0.3655 -0.1824
 8141SOL    HW236057   3.858   0.754   3.385 -0.3707  0.8073 -0.9414
 8142SOL     OW36058   4.583   1.602   8.829 -0.4599  0.0239 -0.5079
 8142SOL    HW136059   4.497   1.591   8.869  0.0184  2.6787  1.2982
 8142SOL    HW236060   4.603   1.525   8.775 -0.2892 -1.7450  2.0591
 8143SOL     OW36061   2.373   4.353   6.730 -0.3415  0.4038  0.3740
 8143SOL    HW136062   2.305   4.305   6.777  1.0777 -2.5341 -0.6035
 8143SOL    HW236063   2.443   4.342   6.795 -0.6928 -1.4571  0.4367
 8144SOL     OW36064   2.098   1.996  12.705 -0.5302  0.4516  0.1290
 8144SOL    HW136065   2.146   2.053  12.764  1.2585  1.3006 -2.1661
 8144SOL    HW236066   2.136   1.913  12.736  1.8557  1.4291 -0.1976
 8145SOL     OW36067   4.065   4.662  12.155 -0.4735 -0.3648  0.1796
 8145SOL    HW136068   4.155   4.659  12.186 -0.6431 -3.2570  0.4155
 8145SOL    HW236069   4.063   4.630  12.064 -4.3644  4.5353 -1.4143
 8146SOL     OW36070   0.857   2.380  10.206 -0.0952  0.3820  0.2707
 8146SOL    HW136071   0.943   2.377  10.246 -0.8521 -0.7546  1.7799
 8146SOL    HW236072   0.857   2.290  10.174 -2.3446  0.5069 -0.0754
 8147SOL     OW36073   0.954   3.407   9.623  0.0956  0.2179 -0.2713
 8147SOL    HW136074   0.899   3.365   9.690 -0.3119  0.5891 -0.3722
 8147SOL    HW236075   1.005   3.469   9.674 -1.0047 -0.2944  1.4827
 8148SOL     OW36076   3.913   1.186   0.532 -0.8554  0.4155 -0.4186
 8148SOL    HW136077   3.967   1.108   0.520 -1.0832  0.3216 -0.8004
 8148SOL    HW236078   3.828   1.162   0.496 -1.0307  0.4171 -0.0133
 8149SOL     OW36079   3.721   2.516   3.114  0.4406  0.3062 -0.5048
 8149SOL    HW136080   3.743   2.437   3.163  0.1127 -1.0399 -2.5105
 8149SOL    HW236081   3.715   2.582   3.183 -0.1311  0.9661 -1.1853
 8150SOL     OW36082   1.656   1.567   6.055  0.4815 -0.1301  0.1079
 8150SOL    HW136083   1.636   1.475   6.074 -0.5827  0.0985  0.0829
 8150SOL    HW236084   1.741   1.542   6.021  0.6574  0.3042  0.2239
 8151SOL     OW36085   1.312   1.541  11.993 -0.4175 -0.0442 -0.8296
 8151SOL    HW136086   1.270   1.495  11.921 -3.9510  1.8757  0.0302
 8151SOL    HW236087   1.406   1.528  11.978 -0.5700 -0.1995 -1.6222
 8152SOL     OW36088   3.194   2.862   4.749 -0.1241 -0.2408  0.2160
 8152SOL    HW136089   3.289   2.853   4.753 -0.2411 -0.9968  1.6006
 8152SOL    HW236090   3.182   2.846   4.843 -0.8681  0.1488  0.1907
 8153SOL     OW36091   0.163   0.082   8.962 -0.4941  0.2614  0.1535
 8153SOL    HW136092   0.179   0.166   8.919 -1.8493  0.2491 -0.3560
 8153SOL    HW236093   0.161   0.022   8.888  0.3152  0.7388 -0.2676
 8154SOL     OW36094   0.894   3.981   6.187  0.2854  0.0248  0.4605
 8154SOL    HW136095   0.816   4.033   6.205 -0.2621 -0.6953  0.1855
 8154SOL    HW236096   0.918   3.966   6.278 -0.5086 -0.8595  0.5283
 8155SOL     OW36097   0.803   2.262   6.772 -0.0779 -0.8456 -0.0702
 8155SOL    HW136098   0.731   2.300   6.823 -0.8614  0.2995 -2.0290
 8155SOL    HW236099   0.762   2.191   6.723 -0.3685 -0.2360 -0.7185
 8156SOL     OW36100   2.590   4.675  13.254  0.3716 -0.6485 -0.4545
 8156SOL    HW136101   2.629   4.603  13.303  0.0004 -0.0597  0.6976
 8156SOL    HW236102   2.546   4.728  13.320  0.1985  1.9575 -2.6559
 8157SOL     OW36103   4.334   0.355   2.695  0.3753  0.0767  0.5966
 8157SOL    HW136104   4.316   0.416   2.767  1.0657  0.3055  0.5732
 8157SOL    HW236105   4.414   0.397   2.664  1.1052 -1.8748 -0.2324
 8158SOL     OW36106   3.295   2.183   8.122 -0.6745  0.2471  0.0630
 8158SOL    HW136107   3.342   2.265   8.137  1.8915 -1.3235  0.8050
 8158SOL    HW236108   3.213   2.226   8.145  0.2410  2.3769 -0.6966
 8159SOL     OW36109   3.917   4.723   0.147  0.1035 -0.2530 -0.1957
 8159SOL    HW136110   3.966   4.664   0.204  0.0033  1.5912  1.7994
 8159SOL    HW236111   3.970   4.727   0.067 -0.2344  0.9231 -0.3549
 8160SOL     OW36112   2.354   3.485   7.678 -0.0079 -0.1870 -0.1350
 8160SOL    HW136113   2.419   3.496   7.747 -0.4511 -1.4685  0.4876
 8160SOL    HW236114   2.289   3.424   7.712 -0.2572 -1.3104 -2.6406
 8161SOL     OW36115   1.316   0.060   9.908  0.4054 -0.4006 -0.1919
 8161SOL    HW136116   1.406   0.090   9.922  0.8971 -2.4177  0.9214
 8161SOL    HW236117   1.283   0.128   9.849  0.6725  0.5965  0.8100
 8162SOL     OW36118   3.208   0.005   0.077  0.3063 -0.0544 -0.3853
 8162SOL    HW136119   3.281   0.065   0.092  0.6335 -0.3563 -0.7600
 8162SOL    HW236120   3.177   0.047  17.754  0.4485  2.6454  0.9390
 8163SOL     OW36121   0.510   0.382   9.263  0.1182  0.5599 -0.0405
 8163SOL    HW136122   0.429   0.333   9.252  1.0487 -0.8604 -0.6302
 8163SOL    HW236123   0.561   0.333   9.327  1.5685 -1.2658 -2.5694
 8164SOL     OW36124   2.559   4.664   9.806 -0.0184 -0.8841  0.0232
 8164SOL    HW136125   2.579   0.004   9.856  0.3718 -2.0122  1.6623
 8164SOL    HW236126   2.563   4.599   9.876  2.7499  1.0812  1.7014
 8165SOL     OW36127   1.084   0.403   9.568  0.0642  0.4468 -0.0396
 8165SOL    HW136128   1.168   0.420   9.527  0.2107 -0.0767  0.0482
 8165SOL    HW236129   1.019   0.443   9.511 -0.1921  0.2209  0.0926
 8166SOL     OW36130   4.191   4.633   0.845 -0.4254 -0.2507 -0.0605
 8166SOL    HW136131   4.126   4.651   0.913 -1.3613 -1.9466 -0.5095
 8166SOL    HW236132   4.267   4.627   0.903 -0.9282  0.3607  0.6588
 8167SOL     OW36133   2.143   1.735   7.072 -0.0509 -0.0751 -0.7103
 8167SOL    HW136134   2.171   1.760   6.984 -2.3767 -2.4000 -2.1101
 8167SOL    HW236135   2.089   1.811   7.092  0.3623  0.9038 -3.2308
 8168SOL     OW36136   1.868   0.195   7.708  0.1744  0.2829  0.2845
 8168SOL    HW136137   1.881   0.225   7.618 -2.9684 -0.3082 -0.3724
 8168SOL    HW236138   1.954   0.213   7.746  0.9909 -0.7329 -1.0643
 8169SOL     OW36139   4.724   0.824   8.328  0.0480  0.6977  0.2641
 8169SOL    HW136140   4.692   0.913   8.342 -1.8348  0.2550 -1.2391
 8169SOL    HW236141   0.074   0.835   8.361  0.0306  1.3234  0.0900
 8170SOL     OW36142   1.104   3.128  13.818 -0.7702 -0.1716  0.1287
 8170SOL    HW136143   1.173   3.138  13.884 -1.9141 -0.6868  1.3818
 8170SOL    HW236144   1.128   3.177  13.739  0.5371  0.0448  0.6508
 8171SOL     OW36145   0.386   2.787   3.105  0.1471 -0.0529 -0.1513
 8171SOL    HW136146   0.337   2.869   3.108 -0.9209 -0.6878 -0.5251
 8171SOL    HW236147   0.475   2.823   3.105 -0.1751  0.7184  1.4734
 8172SOL     OW36148   4.415   3.417   6.319 -0.3321  0.1784  0.4787
 8172SOL    HW136149   4.403   3.493   6.376  1.8539  2.6659 -2.3824
 8172SOL    HW236150   4.508   3.425   6.298 -0.6397 -0.6781 -1.2265
 8173SOL     OW36151   3.990   0.191   7.940  0.0978  0.1920 -0.2581
 8173SOL    HW136152   4.009   0.166   7.849 -1.5992 -0.0788 -0.5407
 8173SOL    HW236153   3.979   0.286   7.937 -0.1899  0.1771  0.4252
 8174SOL     OW36154   0.842   4.542   7.946  0.2578  0.6601 -0.3052
 8174SOL    HW136155   0.796   4.480   8.003 -1.4764  0.1785 -2.2576
 8174SOL    HW236156   0.932   4.510   7.956  0.0114  0.7281  2.1237
 8175SOL     OW36157   2.386   1.213  11.761  0.1038 -1.0003 -0.4180
 8175SOL    HW136158   2.380   1.249  11.849  1.1219 -1.0165 -0.3449
 8175SOL    HW236159   2.313   1.150  11.762 -1.1366  0.4475 -0.7011
 8176SOL     OW36160   4.087   0.747   7.053  0.1313  0.2122 -0.0751
 8176SOL    HW136161   3.992   0.757   7.058 -0.0937 -0.2106 -3.1994
 8176SOL    HW236162   4.110   0.774   6.964 -1.9429 -1.4772 -1.1201
 8177SOL     OW36163   1.615   0.168   9.636  0.3228 -0.1764  0.0829
 8177SOL    HW136164   1.682   0.174   9.704  0.3032  0.2642  0.0604
 8177SOL    HW236165   1.545   0.223   9.671 -1.1771 -1.2531 -1.2413
 8178SOL     OW36166   4.379   2.729   2.280  0.3799  0.0076 -0.1534
 8178SOL    HW136167   4.419   2.647   2.251  0.4570 -0.1859  0.4915
 8178SOL    HW236168   4.288   2.712   2.257 -0.5127 -0.2121  3.4849
 8179SOL     OW36169   4.027   4.349   1.512 -0.7998 -0.3937 -0.2020
 8179SOL    HW136170   3.941   4.335   1.472 -0.2000  2.7295 -2.5878
 8179SOL    HW236171   4.030   4.293   1.589 -1.0437 -1.1758 -0.7604
 8180SOL     OW36172   2.119   2.800  10.771 -0.2914 -0.2875  0.1018
 8180SOL    HW136173   2.050   2.853  10.729 -1.2917 -0.3580  1.6730
 8180SOL    HW236174   2.145   2.851  10.847 -1.3762  1.4828 -0.7077
 8181SOL     OW36175   1.091   1.853  11.917  0.7445 -0.8854  0.6560
 8181SOL    HW136176   1.182   1.823  11.912  1.3198  0.6693  1.5244
 8181SOL    HW236177   1.110   1.932  11.969 -2.6540 -0.3671  1.1101
 8182SOL     OW36178   3.990   1.927  11.729  0.0407  0.0612  0.2923
 8182SOL    HW136179   3.980   1.845  11.680 -0.5108  0.1584  0.2402
 8182SOL    HW236180   4.008   1.899  11.819 -1.5596  2.6609  1.4369
 8183SOL     OW36181   2.104   0.894   7.538 -0.1074 -0.4102 -0.3670
 8183SOL    HW136182   2.076   0.815   7.492  0.9173 -0.9770 -0.0237
 8183SOL    HW236183   2.191   0.860   7.557 -0.9201 -1.3207  1.7916
 8184SOL     OW36184   0.416   2.124   4.208  0.9215  0.1994 -0.1688
 8184SOL    HW136185   0.485   2.067   4.243 -0.2952 -1.3846 -0.3500
 8184SOL    HW236186   0.386   2.074   4.132 -1.7055 -0.0275  1.0396
 8185SOL     OW36187   1.460   0.325   5.184 -0.0731 -0.5383 -0.3251
 8185SOL    HW136188   1.469   0.299   5.276 -2.0366  0.5384  0.1742
 8185SOL    HW236189   1.531   0.383   5.158  1.4317 -0.7884  3.1514
 8186SOL     OW36190   1.020   1.308   3.786 -0.0343  0.0806 -0.0359
 8186SOL    HW136191   0.937   1.303   3.833  0.4388  0.1514  0.8073
 8186SOL    HW236192   1.040   1.401   3.798  0.1194  0.3146 -2.1580
 8187SOL     OW36193   3.120   2.329   2.808 -0.6672 -0.3146 -0.0752
 8187SOL    HW136194   3.106   2.395   2.875 -2.0769 -1.0668  0.3789
 8187SOL    HW236195   3.060   2.356   2.738 -0.7546 -1.4560 -0.4444
 8188SOL     OW36196   4.071   0.469   7.202  0.3761  0.5462  0.0771
 8188SOL    HW136197   4.164   0.467   7.228  0.3007  0.4459  0.3433
 8188SOL    HW236198   4.051   0.559   7.178  1.9028  0.5526 -1.1446
 8189SOL     OW36199   4.669   3.669   2.287  0.3329  0.2429  0.3300
 8189SOL    HW136200   0.008   3.687   2.338 -0.2449  2.0457  0.5862
 8189SOL    HW236201   4.680   3.710   2.202  0.2640 -2.4938 -1.0140
 8190SOL     OW36202   0.830   3.349  16.380 -0.1404 -0.2956 -0.2582
 8190SOL    HW136203   0.854   3.352  16.287  1.2047  1.2364  0.1364
 8190SOL    HW236204   0.880   3.423  16.414  1.5313 -1.8197  0.6196
 8191SOL     OW36205   0.980   3.059   8.585 -0.3015  0.8511 -0.0332
 8191SOL    HW136206   0.955   3.102   8.667  2.4016  0.2842  1.0968
 8191SOL    HW236207   0.964   2.968   8.611 -1.7194  1.5004  1.3586
 8192SOL     OW36208   1.333   3.051  11.246  0.1549 -0.5152  0.1415
 8192SOL    HW136209   1.386   3.010  11.315  0.9552 -0.6046 -0.5279
 8192SOL    HW236210   1.404   3.095  11.199 -0.0412 -0.2357  0.1060
 8193SOL     OW36211   3.928   2.623   3.848  0.3881 -0.2045 -0.3919
 8193SOL    HW136212   3.870   2.594   3.778 -0.7024  0.8929  0.0579
 8193SOL    HW236213   3.996   2.559   3.828  2.4895  1.4954  1.4296
 8194SOL     OW36214   0.659   2.021   6.633 -0.2248 -0.0430  0.1517
 8194SOL    HW136215   0.613   1.965   6.696 -0.8603 -3.8550 -3.6425
 8194SOL    HW236216   0.728   1.964   6.599  1.9491  2.4479  0.4788
 8195SOL     OW36217   1.185   0.147   7.335  0.0017  0.7187 -0.3537
 8195SOL    HW136218   1.108   0.126   7.388  2.4612 -1.0901  2.4941
 8195SOL    HW236219   1.160   0.223   7.281 -0.9859  0.7029  0.0885
 8196SOL     OW36220   3.353   4.126   2.784  0.3710  0.4269 -0.2835
 8196SOL    HW136221   3.260   4.148   2.770  0.7681  1.1512 -1.8022
 8196SOL    HW236222   3.337   4.039   2.821  1.9897 -1.3438 -3.6698
 8197SOL     OW36223   4.627   4.379   5.133  0.6411  0.0802  0.1280
 8197SOL    HW136224   4.619   4.391   5.038 -1.9529 -1.4291  0.1622
 8197SOL    HW236225   4.718   4.403   5.151  0.5773  2.1578 -2.4068
 8198SOL     OW36226   1.508   1.183   8.653 -0.2851  0.2030 -0.1619
 8198SOL    HW136227   1.463   1.103   8.627  2.0456 -0.9722 -0.5923
 8198SOL    HW236228   1.586   1.179   8.598  1.4737  1.6920  2.2059
 8199SOL     OW36229   1.066   4.578   6.199  0.2201  0.2414 -0.4300
 8199SOL    HW136230   1.044   4.646   6.135  0.5477  0.1199 -0.6768
 8199SOL    HW236231   1.102   4.498   6.160 -1.0642 -0.6080  0.1401
 8200SOL     OW36232   0.928   3.401   7.944  0.2488 -0.5792  0.3269
 8200SOL    HW136233   0.834   3.419   7.954  0.0798 -1.1383 -0.2321
 8200SOL    HW236234   0.920   3.331   7.879  0.2946 -0.3096  0.0290
 8201SOL     OW36235   3.533   3.651   0.287 -0.0188  0.5459  0.2065
 8201SOL    HW136236   3.508   3.565   0.323 -1.3822  1.4856  1.5401
 8201SOL    HW236237   3.595   3.697   0.343  0.5309  0.1327 -0.0630
 8202SOL     OW36238   2.155   3.114   2.184  0.7022  0.5379 -0.9862
 8202SOL    HW136239   2.142   3.208   2.171  0.4364  0.7825  0.9541
 8202SOL    HW236240   2.249   3.102   2.180  1.0897  2.1298  2.8705
 8203SOL     OW36241   4.512   1.603   1.452  0.2509  0.0893 -0.0502
 8203SOL    HW136242   4.419   1.623   1.459 -0.1136 -1.0024 -1.6199
 8203SOL    HW236243   4.516   1.507   1.450  0.3955  0.1160 -1.0779
 8204SOL     OW36244   1.601   4.374  12.398 -0.0414 -0.5118 -0.0698
 8204SOL    HW136245   1.671   4.429  12.433  1.8117 -1.9669 -1.4676
 8204SOL    HW236246   1.597   4.301  12.460 -0.4059 -0.9145 -0.5628
 8205SOL     OW36247   1.293   3.818   6.275 -0.0658  0.2888 -0.1741
 8205SOL    HW136248   1.262   3.734   6.241  0.7170  0.3445 -1.0177
 8205SOL    HW236249   1.267   3.814   6.368 -1.6101  1.1691 -0.5647
 8206SOL     OW36250   0.598   1.416   5.875 -0.2698  0.1094  0.2239
 8206SOL    HW136251   0.556   1.352   5.817 -0.1126  0.4386 -0.2523
 8206SOL    HW236252   0.603   1.492   5.817 -2.4824  0.5033  0.5220
 8207SOL     OW36253   2.874   4.675   8.330 -0.4660  0.2402  0.1767
 8207SOL    HW136254   2.796   4.722   8.301  0.5621  1.2960 -0.8663
 8207SOL    HW236255   2.858   4.672   8.425  2.7683 -1.3447  0.6794
 8208SOL     OW36256   0.530   0.768   7.481  0.4907 -0.1409  0.5821
 8208SOL    HW136257   0.574   0.685   7.497  0.3934  0.0298  1.7408
 8208SOL    HW236258   0.454   0.763   7.540  1.2801 -0.0603  1.6188
 8209SOL     OW36259   4.557   1.820   2.744 -0.1468 -0.5543 -0.5824
 8209SOL    HW136260   4.569   1.787   2.655 -0.6006 -0.0102 -0.8397
 8209SOL    HW236261   4.587   1.909   2.729 -0.9128 -0.4530 -1.4848
 8210SOL     OW36262   1.159   2.288   5.344 -0.4919 -0.6990  0.1600
 8210SOL    HW136263   1.154   2.197   5.372  1.8939 -0.3546  1.6669
 8210SOL    HW236264   1.154   2.332   5.429 -0.0025  3.2395 -1.8506
 8211SOL     OW36265   0.599   0.031   5.067  0.5076 -0.0246  0.2321
 8211SOL    HW136266   0.518   0.022   5.115 -0.1654 -1.7644 -1.2215
 8211SOL    HW236267   0.590   0.124   5.045 -0.4534  0.1060  1.2256
 8212SOL     OW36268   2.495   2.214   7.641  0.7574  0.5100 -0.4536
 8212SOL    HW136269   2.535   2.291   7.680  1.6096  0.0938 -0.4982
 8212SOL    HW236270   2.413   2.252   7.610  0.9420 -0.2899 -1.9534
 8213SOL     OW36271   2.139   3.280   5.534  0.1305  0.0475 -0.7115
 8213SOL    HW136272   2.219   3.230   5.521 -0.0508 -0.6062  0.7684
 8213SOL    HW236273   2.113   3.223   5.606  0.5002 -0.9831 -1.4043
 8214SOL     OW36274   1.541   2.837   7.107  0.5359 -0.1370  0.2331
 8214SOL    HW136275   1.619   2.836   7.163 -2.2423 -0.8123  4.0597
 8214SOL    HW236276   1.547   2.925   7.069 -1.7974  0.3489  0.9809
 8215SOL     OW36277   2.352   1.213  10.823  0.3368  0.4077 -0.0773
 8215SOL    HW136278   2.292   1.283  10.799  2.0371  1.5098 -1.1330
 8215SOL    HW236279   2.442   1.244  10.808 -0.2843  0.8091 -3.0617
 8216SOL     OW36280   2.131   3.745   0.244  0.4644  0.2085  0.0858
 8216SOL    HW136281   2.119   3.673   0.307  4.5078 -0.1612  0.4396
 8216SOL    HW236282   2.068   3.726   0.174 -0.2384  1.3217  0.4076
 8217SOL     OW36283   3.508   0.518   3.522 -1.2074  0.1084 -0.2465
 8217SOL    HW136284   3.534   0.468   3.445 -0.1687 -0.5656  0.5407
 8217SOL    HW236285   3.545   0.459   3.588  2.2190  2.5528  0.0212
 8218SOL     OW36286   0.165   2.550   7.658 -0.4908  0.2071 -0.2694
 8218SOL    HW136287   0.158   2.473   7.715  0.1666  1.0400  0.9450
 8218SOL    HW236288   0.245   2.584   7.699  0.3696 -1.7602 -0.2725
 8219SOL     OW36289   2.286   4.153   0.079  0.4928  0.1490  0.3811
 8219SOL    HW136290   2.311   4.070   0.038 -1.0694 -0.3688  0.4800
 8219SOL    HW236291   2.372   4.195   0.084  0.0379  1.1013  0.1544
 8220SOL     OW36292   2.194   4.576   4.184  0.1813 -0.7554  0.0448
 8220SOL    HW136293   2.130   4.557   4.252 -0.2475  1.2363  0.1829
 8220SOL    HW236294   2.220   4.487   4.158  0.3410 -1.3153  2.1566
 8221SOL     OW36295   2.870   0.916   5.851 -0.0136 -0.4032  0.7344
 8221SOL    HW136296   2.852   0.835   5.898 -1.2930 -0.5623 -0.0266
 8221SOL    HW236297   2.792   0.962   5.882  0.4227  0.0895  1.1059
 8222SOL     OW36298   0.108   1.306   7.080  0.1438  0.2120  0.3641
 8222SOL    HW136299   0.074   1.218   7.063 -0.9339  0.5580  0.7146
 8222SOL    HW236300   0.038   1.340   7.136 -1.6304  0.4783 -1.9928
 8223SOL     OW36301   1.695   1.819   7.943 -0.0654 -0.1605  0.3305
 8223SOL    HW136302   1.727   1.850   8.028 -0.3531  0.0921  0.3445
 8223SOL    HW236303   1.631   1.889   7.931  0.2401  0.0732  0.0425
 8224SOL     OW36304   3.231   3.523   9.307 -0.6087  0.5848  0.0044
 8224SOL    HW136305   3.226   3.441   9.356 -2.4385  0.4144 -0.4813
 8224SOL    HW236306   3.229   3.589   9.377  0.9693 -0.7421  1.3090
 8225SOL     OW36307   1.321   0.350  17.263 -0.0721 -0.4843 -0.3400
 8225SOL    HW136308   1.289   0.410  17.195  0.6051  0.9057  0.5485
 8225SOL    HW236309   1.240   0.303  17.282  0.1382 -0.8340 -0.3169
 8226SOL     OW36310   2.047   2.885   2.109  0.2598 -1.0745  0.3203
 8226SOL    HW136311   2.096   2.900   2.028 -0.4634 -3.3172 -0.5281
 8226SOL    HW236312   2.074   2.966   2.152  0.0362 -1.6404  1.5464
 8227SOL     OW36313   0.652   2.778   7.356  0.2635 -0.1280 -0.0794
 8227SOL    HW136314   0.642   2.866   7.320 -0.6187 -0.8691 -1.6473
 8227SOL    HW236315   0.744   2.781   7.383  0.0516 -1.4000  0.7925
 8228SOL     OW36316   3.975   1.427   7.353 -1.0162  0.1741 -0.0390
 8228SOL    HW136317   4.037   1.498   7.369 -2.2035  1.3496 -0.6491
 8228SOL    HW236318   3.924   1.468   7.282 -1.5919  1.6506  1.2232
 8229SOL     OW36319   2.767   0.115   1.989 -0.6657 -0.2404 -0.1551
 8229SOL    HW136320   2.700   0.115   2.059  0.3899 -1.8352  0.8568
 8229SOL    HW236321   2.749   0.028   1.954 -2.5929 -0.3882  1.1873
 8230SOL     OW36322   4.078   0.295   8.723  0.2157 -0.0153  0.1754
 8230SOL    HW136323   4.027   0.272   8.800  0.0997 -0.9046 -0.1648
 8230SOL    HW236324   4.156   0.334   8.762  0.2606  0.5034 -0.4321
 8231SOL     OW36325   4.324   4.428   5.713 -0.3446 -0.3109  0.2746
 8231SOL    HW136326   4.288   4.344   5.683  1.7532 -1.7007  1.7073
 8231SOL    HW236327   4.325   4.481   5.634  1.3345  0.3763  0.7646
 8232SOL     OW36328   3.476   0.830   5.235 -0.5785  0.4782  0.2116
 8232SOL    HW136329   3.464   0.839   5.329  0.3927 -1.6398  0.5442
 8232SOL    HW236330   3.570   0.817   5.222 -0.7738  1.0023 -1.7875
 8233SOL     OW36331   1.990   3.568  11.189 -0.1077  0.7559 -0.0466
 8233SOL    HW136332   2.018   3.648  11.145 -0.1283  1.5454  1.3541
 8233SOL    HW236333   1.941   3.523  11.121 -0.4413  0.2027  0.5604
 8234SOL     OW36334   2.575   2.476   4.268 -0.0896  0.4636  0.5536
 8234SOL    HW136335   2.656   2.453   4.314 -0.5582  1.4996  1.9106
 8234SOL    HW236336   2.536   2.499   4.353 -0.5339  0.1436  0.4330
 8235SOL     OW36337   4.719   2.363  13.350 -0.2022  0.2263  0.4277
 8235SOL    HW136338   4.669   2.415  13.288 -1.4153 -1.2028  0.1961
 8235SOL    HW236339   4.652   2.305  13.385  0.8174 -0.7777  0.7229
 8236SOL     OW36340   2.823   0.710   7.781  0.4337 -0.4026  0.0766
 8236SOL    HW136341   2.820   0.782   7.718  0.8193  1.0474  1.7073
 8236SOL    HW236342   2.893   0.662   7.738  0.8071 -0.4049  0.6949
 8237SOL     OW36343   3.344   2.517   4.200  0.2751 -0.3555  0.0137
 8237SOL    HW136344   3.378   2.542   4.114  1.5704  1.2582  0.9969
 8237SOL    HW236345   3.407   2.568   4.252 -0.1398 -2.3099  2.4208
 8238SOL     OW36346   2.184   2.529   3.305 -0.3627  0.4199  0.4561
 8238SOL    HW136347   2.146   2.461   3.360  0.0895 -1.2254 -1.2852
 8238SOL    HW236348   2.224   2.467   3.244  0.1458  1.2900 -0.0916
 8239SOL     OW36349   1.944   3.800   6.247 -0.2252 -0.6477  0.2878
 8239SOL    HW136350   1.908   3.872   6.298  1.1085  1.7597 -2.1714
 8239SOL    HW236351   1.917   3.818   6.157 -1.0034 -0.4389  0.5633
 8240SOL     OW36352   0.637   0.794   1.891 -0.0118 -0.2251  0.0923
 8240SOL    HW136353   0.631   0.699   1.892  2.4909 -0.4081 -2.2769
 8240SOL    HW236354   0.591   0.812   1.809  1.5124  0.5091 -0.5958
 8241SOL     OW36355   2.770   3.980  14.732  0.3180 -0.1851 -1.0316
 8241SOL    HW136356   2.684   4.021  14.721  0.3345  0.7969  2.7259
 8241SOL    HW236357   2.776   3.967  14.826 -0.9384 -0.3674 -0.9775
 8242SOL     OW36358   2.539   4.602  10.422  0.2876 -0.1815 -0.8073
 8242SOL    HW136359   2.626   4.576  10.393  1.4286  0.6960  1.8856
 8242SOL    HW236360   2.502   4.618  10.335  2.3085  1.5440 -1.3269
 8243SOL     OW36361   1.348   1.802   0.032  0.0712 -0.3359 -0.0976
 8243SOL    HW136362   1.361   1.875   0.093  0.3103  1.0366 -1.7929
 8243SOL    HW236363   1.439   1.773   0.033  1.1863  2.9946 -2.8061
 8244SOL     OW36364   3.420   1.608   6.049 -0.0736 -0.3938 -0.4408
 8244SOL    HW136365   3.479   1.567   5.985  0.6603  0.5972 -0.3911
 8244SOL    HW236366   3.465   1.691   6.060 -1.8477  0.1757  2.3936
 8245SOL     OW36367   0.236   0.206  12.298  0.9543  0.5355  0.6362
 8245SOL    HW136368   0.239   0.212  12.393  0.5360 -1.8061  0.8030
 8245SOL    HW236369   0.286   0.276  12.256 -1.6431  0.5412 -2.4512
 8246SOL     OW36370   0.556   4.267   5.135 -0.3705  0.2789  0.1403
 8246SOL    HW136371   0.589   4.180   5.112 -0.8769  0.7668 -2.4925
 8246SOL    HW236372   0.591   4.282   5.222 -0.8994 -0.8115  0.5282
 8247SOL     OW36373   2.646   1.784  11.599  0.1243  0.0153 -0.3791
 8247SOL    HW136374   2.561   1.826  11.608  0.1828 -0.3258  1.7945
 8247SOL    HW236375   2.629   1.727  11.524 -0.7388 -1.2189  0.7480
 8248SOL     OW36376   3.015   4.609   0.248  0.0070  0.4036  0.0223
 8248SOL    HW136377   3.087   4.671   0.260 -0.1247  0.5330  0.1405
 8248SOL    HW236378   2.997   4.630   0.157 -0.5460 -2.0903 -0.4439
 8249SOL     OW36379   3.408   1.503   6.346  0.1096  0.3684 -0.2446
 8249SOL    HW136380   3.463   1.574   6.377  0.4930  1.8300 -4.4147
 8249SOL    HW236381   3.385   1.540   6.261 -0.4536 -0.9983 -0.6897
 8250SOL     OW36382   3.341   3.689   5.813 -0.2820 -0.1432 -0.6406
 8250SOL    HW136383   3.254   3.727   5.824  0.2540  0.6978  0.7647
 8250SOL    HW236384   3.383   3.750   5.873 -0.5609  2.2109 -2.8442
 8251SOL     OW36385   1.807   1.491   6.907 -0.1856  0.3681 -0.1536
 8251SOL    HW136386   1.729   1.442   6.934 -0.2130  0.7488  0.4562
 8251SOL    HW236387   1.818   1.534   6.992  1.3114  0.7582 -0.5458
 8252SOL     OW36388   1.505   2.291   3.791  0.2936 -0.7214 -0.0354
 8252SOL    HW136389   1.574   2.251   3.843  1.2810  1.2311  0.1489
 8252SOL    HW236390   1.424   2.246   3.818  1.1479 -1.3395  1.4917
 8253SOL     OW36391   0.692   4.703   4.498 -0.3285  0.3215  0.2023
 8253SOL    HW136392   0.741   4.737   4.573  0.2598  1.8086 -0.8622
 8253SOL    HW236393   0.757   4.665   4.440 -1.8863 -0.9499 -0.6758
 8254SOL     OW36394   0.709   3.480   5.337  0.6774 -0.7081  0.6253
 8254SOL    HW136395   0.726   3.404   5.280 -0.4780 -0.9972  0.6680
 8254SOL    HW236396   0.679   3.551   5.281 -1.2626 -2.8636 -1.0550
 8255SOL     OW36397   2.062   2.885  11.036 -0.3253  0.5092  0.2689
 8255SOL    HW136398   2.084   2.792  11.041 -0.2471  0.5971  1.6844
 8255SOL    HW236399   2.143   2.934  11.049 -0.2542  1.0523 -2.2810
 8256SOL     OW36400   1.528   1.719   2.818 -0.3925  0.1964  0.2401
 8256SOL    HW136401   1.449   1.695   2.770 -0.1434 -0.6718  0.2515
 8256SOL    HW236402   1.578   1.640   2.798 -0.3738  0.7725 -1.9893
 8257SOL     OW36403   1.502   2.091   7.364  0.1862  0.6899 -0.2750
 8257SOL    HW136404   1.529   2.133   7.446  1.2889  0.6784 -0.6339
 8257SOL    HW236405   1.407   2.088   7.372  0.2868  0.0015  0.6440
 8258SOL     OW36406   4.347   1.251   1.639  0.0928 -0.4410 -0.2739
 8258SOL    HW136407   4.354   1.325   1.699  0.0273  0.4559 -1.3802
 8258SOL    HW236408   4.395   1.283   1.563  0.2167  1.4327  0.5893
 8259SOL     OW36409   1.276   1.653   6.539  0.0294  0.1619 -0.0153
 8259SOL    HW136410   1.242   1.649   6.629  0.1611 -1.5123 -0.0464
 8259SOL    HW236411   1.321   1.569   6.531 -0.6149 -0.2010  0.1259
 8260SOL     OW36412   4.195   2.279   9.090 -0.4899 -0.2176 -0.7483
 8260SOL    HW136413   4.125   2.342   9.076 -0.1343  0.4531  0.4687
 8260SOL    HW236414   4.159   2.211   9.147  0.3399  2.8580  3.5052
 8261SOL     OW36415   3.820   0.694  12.806  0.1786  0.5369 -0.1409
 8261SOL    HW136416   3.780   0.622  12.757  2.9813  0.6513 -2.5757
 8261SOL    HW236417   3.892   0.647  12.848 -1.6877 -0.1887  2.3033
 8262SOL     OW36418   4.606   0.385   2.979  0.2665 -0.3566  0.1692
 8262SOL    HW136419   4.567   0.368   2.893  2.5376  2.4555 -1.4054
 8262SOL    HW236420   4.533   0.355   3.034 -0.0356 -0.1148 -0.0963
 8263SOL     OW36421   1.568   2.026   5.421 -0.3706 -0.0524  0.0948
 8263SOL    HW136422   1.611   2.063   5.499 -0.8277  1.4859 -0.3777
 8263SOL    HW236423   1.587   2.095   5.358  0.6322 -0.8337 -0.4481
 8264SOL     OW36424   3.351   1.649   7.371 -0.3213 -0.1699  0.3179
 8264SOL    HW136425   3.425   1.592   7.351  0.1029  0.6914 -0.5525
 8264SOL    HW236426   3.282   1.585   7.389 -0.4252  0.3925  1.8786
 8265SOL     OW36427   2.633   2.152  15.962  0.2896  0.0090  0.1110
 8265SOL    HW136428   2.549   2.107  15.952  0.4248 -0.2253  0.0247
 8265SOL    HW236429   2.671   2.112  16.040 -2.9466 -1.8537  0.7540
 8266SOL     OW36430   3.161   3.826  14.512  0.4084  0.5165  0.3503
 8266SOL    HW136431   3.075   3.841  14.473 -0.2907 -0.3698  1.5415
 8266SOL    HW236432   3.198   3.913  14.518  1.1433  0.0175  2.8741
 8267SOL     OW36433   0.068   0.935   3.000  0.0866 -0.2473  0.3264
 8267SOL    HW136434   0.053   0.843   3.022  0.9182 -0.4538  0.0378
 8267SOL    HW236435   0.156   0.955   3.034 -0.1138  3.9271 -1.6788
 8268SOL     OW36436   3.144   4.404   9.127 -0.2841 -0.0105  0.0781
 8268SOL    HW136437   3.148   4.415   9.222 -2.8552 -0.3588  0.2376
 8268SOL    HW236438   3.053   4.425   9.104 -0.9924 -2.9797  0.1717
 8269SOL     OW36439   1.583   3.958  15.133 -0.8285  0.2094  0.1020
 8269SOL    HW136440   1.640   3.882  15.136 -1.4727 -0.1717  2.4315
 8269SOL    HW236441   1.594   3.995  15.221 -2.0295  1.2811 -0.1854
 8270SOL     OW36442   4.658   3.903   4.790  0.3036  0.6227 -0.4471
 8270SOL    HW136443   4.657   3.818   4.834 -0.4000  1.1733  0.6011
 8270SOL    HW236444   4.724   3.881   4.724  2.0204  0.6645  1.2556
 8271SOL     OW36445   0.087   1.286   3.557  0.2983 -0.0535 -0.3090
 8271SOL    HW136446   0.036   1.220   3.604 -0.1370  1.2384  1.0216
 8271SOL    HW236447   0.034   1.366   3.565  0.9557  0.5396 -1.8599
 8272SOL     OW36448   0.768   1.234   5.532 -0.2718  0.2987 -0.3568
 8272SOL    HW136449   0.739   1.313   5.488 -0.9082  0.2934  0.0468
 8272SOL    HW236450   0.842   1.264   5.584 -0.9512  1.1893  0.1048
 8273SOL     OW36451   2.927   2.555   9.701  0.7463  0.1028  0.3078
 8273SOL    HW136452   2.841   2.595   9.717  1.9964  2.3669  1.3085
 8273SOL    HW236453   2.985   2.627   9.727  1.5710  0.3943 -2.4040
 8274SOL     OW36454   4.407   1.603  16.568 -0.4442 -0.1626 -0.4177
 8274SOL    HW136455   4.407   1.534  16.501 -0.7903 -1.0756  0.5367
 8274SOL    HW236456   4.354   1.564  16.638 -2.3616 -1.3973 -2.5493
 8275SOL     OW36457   2.376   3.556   0.319 -0.4844 -0.0787 -0.1565
 8275SOL    HW136458   2.412   3.639   0.289 -1.3120  0.7324  1.1078
 8275SOL    HW236459   2.308   3.547   0.252 -1.0713 -0.7321  0.5224
 8276SOL     OW36460   1.662   4.630   9.823  0.2413 -0.0006 -0.1588
 8276SOL    HW136461   1.696   4.555   9.871  0.2578 -1.3622 -2.3016
 8276SOL    HW236462   1.580   4.598   9.785 -0.2082  0.7558  0.1714
 8277SOL     OW36463   2.536   2.893  13.759 -0.0540 -0.8076  0.1572
 8277SOL    HW136464   2.594   2.912  13.686 -0.2667  1.2783  0.5167
 8277SOL    HW236465   2.481   2.822  13.727  1.1958 -1.4937 -0.4316
 8278SOL     OW36466   3.730   2.633   9.336  0.2997 -0.0154 -0.3885
 8278SOL    HW136467   3.775   2.596   9.411 -3.1005  0.6082  1.9592
 8278SOL    HW236468   3.650   2.664   9.379  0.2381  0.2401 -0.6869
 8279SOL     OW36469   4.192   3.454   8.000 -0.0100 -0.7949  0.2401
 8279SOL    HW136470   4.288   3.461   7.997 -0.2286  2.0572 -0.5446
 8279SOL    HW236471   4.193   3.384   8.065  0.0548 -1.1061 -0.0965
 8280SOL     OW36472   2.081   0.708   4.189 -0.1888  0.0510  0.6983
 8280SOL    HW136473   2.003   0.707   4.245  0.2104  1.2920  1.2789
 8280SOL    HW236474   2.156   0.701   4.247  0.7149 -1.8989 -0.7053
 8281SOL     OW36475   2.012   1.496   4.324  0.2468 -0.0695 -0.4810
 8281SOL    HW136476   1.948   1.442   4.371  2.2954 -1.4119  0.7774
 8281SOL    HW236477   1.998   1.583   4.360 -3.2834 -0.9193  0.2297
 8282SOL     OW36478   3.562   2.864   8.726 -0.1470  0.1422 -0.8131
 8282SOL    HW136479   3.629   2.931   8.738  0.3736 -0.2547 -1.4421
 8282SOL    HW236480   3.490   2.921   8.699 -1.0586 -0.4743  0.3565
 8283SOL     OW36481   1.616   4.679   5.521 -0.2201  0.1014  0.8369
 8283SOL    HW136482   1.537   4.647   5.477 -1.2315  1.8674  1.3690
 8283SOL    HW236483   1.599   0.032   5.537  1.1635  0.6715 -1.1071
 8284SOL     OW36484   0.899   4.705  17.599  0.2606  0.0581  0.3734
 8284SOL    HW136485   0.934   0.036  17.654  1.1304 -0.5774  0.6482
 8284SOL    HW236486   0.838   4.660  17.658 -1.7497  1.2337 -0.8309
 8285SOL     OW36487   3.912   3.021   4.780  0.5844  0.4495 -0.5304
 8285SOL    HW136488   3.833   3.051   4.825 -0.3757 -0.5426 -1.6019
 8285SOL    HW236489   3.918   2.931   4.810 -0.8257 -0.2176 -2.2806
 8286SOL     OW36490   2.800   0.939   5.329 -0.2257  0.0353 -0.3621
 8286SOL    HW136491   2.816   1.031   5.349  1.1829 -0.1545 -0.5929
 8286SOL    HW236492   2.805   0.933   5.234  0.1283  1.3712 -0.4274
 8287SOL     OW36493   0.597   2.164   2.475 -0.2044 -0.0039 -0.3737
 8287SOL    HW136494   0.543   2.090   2.448  0.4805  0.4319 -2.9504
 8287SOL    HW236495   0.537   2.216   2.528  2.2873  0.7703  1.7074
 8288SOL     OW36496   2.976   0.301   1.564 -0.6800  0.5863 -0.1011
 8288SOL    HW136497   2.924   0.289   1.484  0.3793 -0.4515 -0.6285
 8288SOL    HW236498   2.912   0.264   1.625 -1.6826  0.3351 -1.3046
 8289SOL     OW36499   3.976   3.502  12.081  0.7142 -0.4759  0.0491
 8289SOL    HW136500   4.016   3.426  12.123 -1.1801 -1.5561 -0.1028
 8289SOL    HW236501   3.922   3.539  12.151  2.1203 -0.9216  1.3756
 8290SOL     OW36502   2.366   2.898   3.406  0.3189  0.2808 -0.2878
 8290SOL    HW136503   2.338   2.907   3.497  0.1062  0.8327 -0.4080
 8290SOL    HW236504   2.386   2.804   3.413 -2.5818 -0.3370 -0.2775
 8291SOL     OW36505   0.539   1.456   6.141  0.3116 -0.0736 -0.1959
 8291SOL    HW136506   0.531   1.440   6.047 -0.8599 -1.8266  0.2052
 8291SOL    HW236507   0.617   1.408   6.169 -1.4225 -2.3562  0.6442
 8292SOL     OW36508   2.992   1.592   2.543  0.2588  0.2541 -0.6171
 8292SOL    HW136509   3.064   1.622   2.487 -0.2556  2.5876 -0.0391
 8292SOL    HW236510   3.009   1.641   2.623  1.2647  1.1035 -1.3600
 8293SOL     OW36511   4.309   3.802   8.129  0.7648 -0.2499 -0.2671
 8293SOL    HW136512   4.330   3.787   8.221 -1.9414 -0.7137  0.2848
 8293SOL    HW236513   4.325   3.717   8.087 -1.9658  0.1716 -2.1737
 8294SOL     OW36514   1.209   0.024   8.193  0.0717 -0.4736  0.5781
 8294SOL    HW136515   1.273   4.697   8.217  0.5667 -0.8003 -1.6652
 8294SOL    HW236516   1.162   4.719   8.123 -1.3523  0.0440  1.2085
 8295SOL     OW36517   4.096   1.940   3.303 -0.3763  0.2140  0.8099
 8295SOL    HW136518   4.159   2.009   3.282 -0.5050  0.4780  1.2878
 8295SOL    HW236519   4.049   1.978   3.377 -2.8617  0.2326 -0.7584
 8296SOL     OW36520   0.094   3.245   9.115  0.5000 -0.0741  0.3337
 8296SOL    HW136521   0.138   3.160   9.113  1.7323  0.6172 -1.7666
 8296SOL    HW236522   0.042   3.257   9.195 -0.9581  2.5553 -1.0144
 8297SOL     OW36523   4.734   0.313  10.040 -0.3720  0.2886  0.2371
 8297SOL    HW136524   0.000   0.377   9.969  1.7060 -0.1994  0.0006
 8297SOL    HW236525   4.668   0.254  10.003  0.3851 -0.4982  0.1591
 8298SOL     OW36526   2.486   1.989  14.273 -0.0028 -0.6694 -0.6444
 8298SOL    HW136527   2.430   2.005  14.197 -2.2010  0.6256  1.2370
 8298SOL    HW236528   2.529   1.909  14.244 -0.5787 -0.8227 -1.0631
 8299SOL     OW36529   1.587   0.183  14.724 -0.1176 -0.0491  0.6443
 8299SOL    HW136530   1.633   0.130  14.658  0.9279  0.4967  0.9349
 8299SOL    HW236531   1.666   0.211  14.770  0.0084 -0.3823  0.6295
 8300SOL     OW36532   0.490   1.098   5.799 -0.5267  0.6628  0.3598
 8300SOL    HW136533   0.493   1.037   5.725  0.3347 -0.0229  0.9555
 8300SOL    HW236534   0.418   1.160   5.787 -2.0140 -1.2188 -0.3976
 8301SOL     OW36535   2.778   0.893   7.570  0.0230  0.6925 -0.6201
 8301SOL    HW136536   2.715   0.881   7.498  2.0837 -0.4999 -2.2131
 8301SOL    HW236537   2.861   0.888   7.523 -0.5790 -1.4430 -1.4754
 8302SOL     OW36538   0.566   4.070   2.403  0.2110 -0.5620 -0.2173
 8302SOL    HW136539   0.546   4.027   2.486  0.1617 -1.5133 -0.7309
 8302SOL    HW236540   0.624   4.143   2.425 -0.6442  0.2198 -0.5509
 8303SOL     OW36541   1.111   2.854   6.367 -0.4476  0.2097  0.5443
 8303SOL    HW136542   1.041   2.804   6.325  0.3935 -0.3718 -0.1713
 8303SOL    HW236543   1.154   2.796   6.430  0.0553  0.0014  0.0105
 8304SOL     OW36544   0.836   1.280   9.245  0.3056  0.1639 -0.0894
 8304SOL    HW136545   0.921   1.297   9.284  0.0010  0.1529  0.5711
 8304SOL    HW236546   0.808   1.219   9.313  0.0847 -1.5435 -1.6848
 8305SOL     OW36547   1.665   1.039   9.983  0.2735  0.2140 -0.4187
 8305SOL    HW136548   1.741   1.003  10.028  0.5634  1.3892  0.0131
 8305SOL    HW236549   1.593   0.980  10.006  0.5310  0.3450  0.7223
 8306SOL     OW36550   0.320   2.267  13.148  0.3161 -0.0145  0.1948
 8306SOL    HW136551   0.343   2.188  13.100  1.4566  0.6452 -0.3646
 8306SOL    HW236552   0.398   2.322  13.139 -1.3212  2.1230 -0.9446
 8307SOL     OW36553   4.659   0.563   8.412 -0.5062 -0.0736 -0.0111
 8307SOL    HW136554   4.690   0.651   8.390 -2.1309 -0.2000 -2.7973
 8307SOL    HW236555   4.659   0.527   8.323  1.0693  0.3978 -0.2051
 8308SOL     OW36556   1.084   4.711   8.554  0.1117  0.5036  0.2204
 8308SOL    HW136557   1.123   0.007   8.634  0.1005 -0.1010  0.4981
 8308SOL    HW236558   1.029   4.637   8.578  0.1405  0.0063 -1.2857
 8309SOL     OW36559   0.007   0.109   7.634 -0.3372  0.3066  0.5251
 8309SOL    HW136560   4.704   0.159   7.564 -2.5939 -1.4051  0.6758
 8309SOL    HW236561   4.701   0.030   7.604  1.5255 -1.1739  1.6093
 8310SOL     OW36562   4.459   1.831   7.841  0.3082  0.7036  0.0329
 8310SOL    HW136563   4.466   1.825   7.936 -1.0219  0.2492  0.0978
 8310SOL    HW236564   4.367   1.812   7.822  0.0400  1.7424  0.2573
 8311SOL     OW36565   3.002   3.054   7.085 -0.3451 -0.3292 -0.3695
 8311SOL    HW136566   3.045   3.122   7.032 -1.2241  0.2858 -0.3089
 8311SOL    HW236567   2.974   3.103   7.162  0.1013  0.9452 -1.0150
 8312SOL     OW36568   3.646   4.067   4.703 -0.2690  0.5787  0.5830
 8312SOL    HW136569   3.679   4.157   4.706  1.8856 -0.1834 -0.1643
 8312SOL    HW236570   3.556   4.073   4.733 -0.7012  0.0693 -0.5774
 8313SOL     OW36571   0.392   4.659   8.107  0.0769 -0.2759  0.6929
 8313SOL    HW136572   0.467   4.718   8.115 -3.1167  3.9461 -0.7474
 8313SOL    HW236573   0.408   4.591   8.173  2.6233  0.7622  1.1684
 8314SOL     OW36574   0.823   4.429  16.785 -0.0589  0.2059 -0.2920
 8314SOL    HW136575   0.777   4.375  16.721 -2.7117 -0.8083  2.4935
 8314SOL    HW236576   0.753   4.436  16.849 -0.9873  0.9680 -1.3861
 8315SOL     OW36577   0.593   4.616   7.636  0.0577 -0.3217 -0.1363
 8315SOL    HW136578   0.682   4.645   7.652 -0.7519  1.3772  1.2911
 8315SOL    HW236579   0.559   4.631   7.725  0.3482  0.2754 -0.1259
 8316SOL     OW36580   2.084   0.047  10.906  0.3905  0.2655  0.1167
 8316SOL    HW136581   2.015   0.010  10.851  2.9141 -3.8794 -0.3061
 8316SOL    HW236582   2.053   0.137  10.905  2.2168  0.8745 -1.7276
 8317SOL     OW36583   2.815   1.289   9.213 -0.3849 -0.1097 -0.1764
 8317SOL    HW136584   2.750   1.336   9.161  0.0066  0.9498  0.2954
 8317SOL    HW236585   2.859   1.359   9.261  1.8609 -1.4755 -0.2209
 8318SOL     OW36586   2.337   3.797   3.615  0.3764  0.3849 -0.1872
 8318SOL    HW136587   2.290   3.768   3.537  0.0171 -0.1749  0.2331
 8318SOL    HW236588   2.273   3.837   3.673 -0.2823 -0.4632 -0.3374
 8319SOL     OW36589   3.586   3.572   4.366 -0.1540  0.4589 -0.1889
 8319SOL    HW136590   3.653   3.639   4.351  0.7076 -0.1896  0.7471
 8319SOL    HW236591   3.566   3.541   4.278  1.6435 -0.4232 -0.2795
 8320SOL     OW36592   0.279   1.183  12.950 -0.0607 -0.0581 -0.2437
 8320SOL    HW136593   0.347   1.148  12.893 -0.9128 -0.4163 -1.0336
 8320SOL    HW236594   0.284   1.130  13.030 -0.4053 -1.8402 -1.4117
 8321SOL     OW36595   3.460   0.911  10.557 -0.2342 -0.4578 -0.0779
 8321SOL    HW136596   3.465   1.004  10.535  0.4137 -0.4301  0.2110
 8321SOL    HW236597   3.463   0.907  10.653 -0.3092  1.6157  0.0216
 8322SOL     OW36598   4.331   1.348  10.362 -0.3243 -0.3606  0.0817
 8322SOL    HW136599   4.399   1.300  10.409 -0.2579  0.9030  1.3133
 8322SOL    HW236600   4.383   1.373  10.286 -0.5776 -2.4425 -0.7787
 8323SOL     OW36601   0.807   0.517   2.109 -0.3420 -0.0394 -0.2520
 8323SOL    HW136602   0.824   0.442   2.166 -0.4429 -0.1479 -0.3641
 8323SOL    HW236603   0.720   0.544   2.140 -0.4889  1.2593 -1.7873
 8324SOL     OW36604   0.229   3.925   3.983 -0.1217  0.0331 -0.2125
 8324SOL    HW136605   0.246   4.001   3.927 -3.8037  1.4874  0.6158
 8324SOL    HW236606   0.163   3.972   4.034 -1.1826 -0.3684 -1.2162
 8325SOL     OW36607   0.019   1.149  16.098  0.4972 -0.0053 -0.2487
 8325SOL    HW136608   4.698   1.153  16.024 -0.3731  0.4408  0.4988
 8325SOL    HW236609   0.027   1.057  16.120 -1.5658  0.1203  1.0283
 8326SOL     OW36610   4.024   0.605   5.004  0.5558  0.2156  0.8499
 8326SOL    HW136611   4.119   0.616   4.998  0.4963  1.2535  1.8569
 8326SOL    HW236612   4.000   0.673   5.067 -0.6063 -1.0576  1.7848
 8327SOL     OW36613   3.351   2.801   3.910  0.2006 -0.2276 -0.6064
 8327SOL    HW136614   3.273   2.756   3.942 -1.9828  4.1408  0.2282
 8327SOL    HW236615   3.390   2.739   3.849 -1.0102 -1.4274 -0.1585
 8328SOL     OW36616   3.366   0.878   0.889  0.1282  0.4071  0.0694
 8328SOL    HW136617   3.279   0.897   0.924 -0.3821 -1.3852 -0.2459
 8328SOL    HW236618   3.422   0.886   0.966 -1.2212  1.1409  0.9804
 8329SOL     OW36619   2.475   2.351  11.667 -0.0125 -0.6127  0.0311
 8329SOL    HW136620   2.396   2.297  11.671 -0.5769  0.4162  2.5582
 8329SOL    HW236621   2.535   2.302  11.724  0.8949 -0.1542 -0.5285
 8330SOL     OW36622   4.241   4.502   1.895  0.4532  0.3305  0.0821
 8330SOL    HW136623   4.279   4.519   1.981 -2.8751  0.7459  1.4520
 8330SOL    HW236624   4.152   4.535   1.902  0.5114  0.4002  0.4682
 8331SOL     OW36625   0.149   2.112   5.801 -0.0751  0.4850 -0.1468
 8331SOL    HW136626   0.194   2.191   5.831  1.5915 -0.3088 -0.5909
 8331SOL    HW236627   0.161   2.055   5.877 -0.2065  1.8396  0.8840
 8332SOL     OW36628   0.503   0.612   7.240  0.0535 -0.1337 -0.1256
 8332SOL    HW136629   0.504   0.676   7.312 -2.5734 -0.6538  0.3701
 8332SOL    HW236630   0.595   0.585   7.244 -0.0611 -0.5036  0.0238
 8333SOL     OW36631   0.921   2.532  11.647  0.4338 -0.0941  0.8021
 8333SOL    HW136632   0.898   2.612  11.599  1.3264 -0.8211 -0.8083
 8333SOL    HW236633   0.995   2.575  11.692  1.7889 -1.6283  0.0403
 8334SOL     OW36634   2.547   3.281   4.198 -0.5407 -0.0745 -0.1267
 8334SOL    HW136635   2.477   3.290   4.134 -0.6710  1.9587  0.2833
 8334SOL    HW236636   2.499   3.226   4.260 -0.8563  0.9542  0.5588
 8335SOL     OW36637   1.565   0.620   1.914  0.1777 -0.0192 -0.0261
 8335SOL    HW136638   1.655   0.604   1.943 -0.6607 -0.2054  2.4833
 8335SOL    HW236639   1.529   0.533   1.931  1.1907 -0.6382 -1.0104
 8336SOL     OW36640   2.183   0.095   6.202 -0.2062  1.0382 -0.1418
 8336SOL    HW136641   2.190   0.118   6.109  1.7283  0.1160 -0.2311
 8336SOL    HW236642   2.171   4.740   6.200  3.4691  0.5442  0.9250
 8337SOL     OW36643   3.695   4.421   8.088 -0.8478 -0.1204 -0.4014
 8337SOL    HW136644   3.628   4.378   8.140 -1.4695 -0.8598 -1.8184
 8337SOL    HW236645   3.671   4.514   8.093 -1.0405 -0.2506  0.8754
 8338SOL     OW36646   4.570   1.406   7.569  0.2611 -0.1411  0.3302
 8338SOL    HW136647   4.623   1.424   7.646  1.8852  0.3793 -0.9063
 8338SOL    HW236648   4.556   1.498   7.547  0.2099 -0.5787 -1.4940
 8339SOL     OW36649   2.296   1.879   5.907  0.2708 -0.0180  0.2676
 8339SOL    HW136650   2.332   1.831   5.981  2.2155  1.6789  0.4204
 8339SOL    HW236651   2.336   1.823   5.840  0.6324  1.8486 -1.0799
 8340SOL     OW36652   2.299   2.630   9.947 -0.2382  0.0154 -0.1820
 8340SOL    HW136653   2.233   2.560   9.947  1.5624 -1.7089  2.6766
 8340SOL    HW236654   2.281   2.666  10.034 -0.4882 -0.5851  0.0140
 8341SOL     OW36655   3.169   0.168   4.848 -0.1274  0.0031  0.0103
 8341SOL    HW136656   3.141   0.258   4.835 -2.1806 -0.6870 -0.4488
 8341SOL    HW236657   3.254   0.158   4.806 -0.0690 -2.7860  0.8085
 8342SOL     OW36658   2.074   3.015   1.355  0.1862 -0.3320  0.4713
 8342SOL    HW136659   2.067   2.972   1.270 -1.8592  1.0884 -0.0929
 8342SOL    HW236660   2.012   3.088   1.348  0.5759 -0.0471  0.0127
 8343SOL     OW36661   0.059   2.133   5.420  0.4769 -0.4855  0.0367
 8343SOL    HW136662   0.001   2.164   5.351 -0.4254  0.1376  1.0663
 8343SOL    HW236663   0.035   2.186   5.497 -1.7502 -1.6293  0.1332
 8344SOL     OW36664   2.294   0.702  12.281 -0.1178  0.0323  0.0519
 8344SOL    HW136665   2.237   0.714  12.357  0.8172 -1.1242  0.9547
 8344SOL    HW236666   2.330   0.616  12.306 -0.3503 -0.2350 -0.5414
 8345SOL     OW36667   0.008   1.465   7.767 -0.3175 -0.0914  0.7246
 8345SOL    HW136668   0.013   1.552   7.806  2.8412  0.8159 -1.7824
 8345SOL    HW236669   0.087   1.430   7.808  0.3592  1.0881  0.4128
 8346SOL     OW36670   0.838   1.113   8.330  0.1492  0.4938 -0.8807
 8346SOL    HW136671   0.800   1.185   8.380  0.3606  0.8049 -1.1686
 8346SOL    HW236672   0.793   1.040   8.373  1.8343  0.3784  0.7061
 8347SOL     OW36673   1.989   3.054   4.650  0.5236 -0.6921 -0.2054
 8347SOL    HW136674   1.919   3.019   4.705  1.2414 -2.0460 -0.1475
 8347SOL    HW236675   2.004   3.142   4.685 -0.3936 -0.9682  0.8379
 8348SOL     OW36676   3.967   4.115  17.614  0.1706 -0.3916  0.9051
 8348SOL    HW136677   3.880   4.095  17.580  1.3563 -1.4011 -1.5590
 8348SOL    HW236678   3.965   4.211  17.610  0.5519 -0.4525 -0.7735
 8349SOL     OW36679   1.224   4.165   2.961  0.2588 -0.0116  0.1554
 8349SOL    HW136680   1.316   4.147   2.943 -0.3130 -2.0483 -0.6912
 8349SOL    HW236681   1.214   4.143   3.054 -0.0489  0.6554  0.2835
 8350SOL     OW36682   4.565   4.395   2.655  0.0718  0.4647  0.3499
 8350SOL    HW136683   4.620   4.470   2.630 -2.5426  2.0271 -0.7270
 8350SOL    HW236684   4.574   4.336   2.580  1.5151 -0.1562  1.0100
 8351SOL     OW36685   1.889   3.143   5.246  0.6582  0.1638  0.4523
 8351SOL    HW136686   1.929   3.099   5.171  0.6017  0.4225  0.2687
 8351SOL    HW236687   1.896   3.071   5.309  1.1835 -0.6945 -0.5818
 8352SOL     OW36688   2.628   3.166  12.317 -0.2990 -0.1982 -0.4265
 8352SOL    HW136689   2.538   3.133  12.307 -0.9555  1.5710 -0.3837
 8352SOL    HW236690   2.674   3.088  12.347  0.3234  0.4902  0.3883
 8353SOL     OW36691   0.650   3.069  16.084  0.2944  0.2930  0.4748
 8353SOL    HW136692   0.700   3.149  16.069  1.6030 -0.6782 -0.2906
 8353SOL    HW236693   0.586   3.096  16.150 -2.2472 -0.1129 -1.7805
 8354SOL     OW36694   1.278   2.147   2.150  0.0886  0.3127 -0.3333
 8354SOL    HW136695   1.368   2.180   2.147  0.0188  0.4853 -0.5264
 8354SOL    HW236696   1.278   2.103   2.065 -1.5170 -0.0169 -0.1511
 8355SOL     OW36697   1.643   3.603  13.815  0.1872 -0.0977 -0.6743
 8355SOL    HW136698   1.715   3.652  13.855 -0.1412  1.1994 -1.6992
 8355SOL    HW236699   1.568   3.659  13.797 -0.1273 -1.0431 -2.3002
 8356SOL     OW36700   2.999   3.132  12.034  0.7431  0.5062  0.5628
 8356SOL    HW136701   2.994   3.196  12.106  1.3289  0.9734  0.1908
 8356SOL    HW236702   2.975   3.188  11.960  0.5980 -2.1384 -1.3696
 8357SOL     OW36703   0.798   3.874   4.883  0.2643  0.4001 -0.3585
 8357SOL    HW136704   0.864   3.837   4.824  0.4958  1.0470 -0.5068
 8357SOL    HW236705   0.809   3.833   4.968 -0.1336 -0.8382 -0.9012
 8358SOL     OW36706   2.264   1.098   2.461 -0.0701  0.2106 -0.3302
 8358SOL    HW136707   2.266   1.034   2.533 -1.4660 -0.3645 -0.8045
 8358SOL    HW236708   2.276   1.182   2.506  0.1011  0.9729 -1.8231
 8359SOL     OW36709   4.527   1.031   5.392  0.3812  0.0458  0.8263
 8359SOL    HW136710   4.476   1.109   5.372  0.2077 -0.4116 -0.5065
 8359SOL    HW236711   4.523   0.989   5.306  1.3199  1.9811 -0.1667
 8360SOL     OW36712   2.594   2.082   3.817 -0.2748 -0.1088 -0.1385
 8360SOL    HW136713   2.586   2.035   3.734  0.3093  0.8135 -0.7206
 8360SOL    HW236714   2.657   2.151   3.799 -0.6743  0.2493 -0.1645
 8361SOL     OW36715   1.780   1.763   4.041 -0.0423 -0.2898  0.2416
 8361SOL    HW136716   1.693   1.725   4.051 -0.2272 -0.1002 -0.6494
 8361SOL    HW236717   1.793   1.799   4.128  1.1224 -1.0214  0.3792
 8362SOL     OW36718   2.452   2.277  13.429  0.0524 -0.4457 -0.1552
 8362SOL    HW136719   2.461   2.183  13.416 -2.7301 -0.4971 -1.7780
 8362SOL    HW236720   2.397   2.294  13.352 -0.7411  1.0493  0.7290
 8363SOL     OW36721   3.542   3.783  11.125 -0.4224  0.5179 -0.1691
 8363SOL    HW136722   3.621   3.759  11.076  0.9698  0.0898  2.2357
 8363SOL    HW236723   3.487   3.704  11.129 -0.2595  0.5422  2.5685
 8364SOL     OW36724   2.697   2.109   6.984  0.7055 -0.5008 -0.7658
 8364SOL    HW136725   2.624   2.159   6.947  2.0649  1.1261 -1.2198
 8364SOL    HW236726   2.692   2.159   7.065 -1.0613  0.8922 -1.7378
 8365SOL     OW36727   2.340   4.364  14.651 -0.1677  0.3202  0.3151
 8365SOL    HW136728   2.304   4.312  14.722 -0.5256  0.7365  0.4381
 8365SOL    HW236729   2.310   4.309  14.578 -1.5608  1.0567  0.3289
 8366SOL     OW36730   2.620   2.905  14.735  0.3928  0.2869 -0.2523
 8366SOL    HW136731   2.560   2.957  14.682 -0.4062  2.3307  2.6675
 8366SOL    HW236732   2.689   2.967  14.755  0.8085 -0.3926  0.4310
 8367SOL     OW36733   0.544   3.086   3.383 -0.9021 -0.7102  0.3610
 8367SOL    HW136734   0.516   3.157   3.326  0.8858  0.1194  0.5252
 8367SOL    HW236735   0.594   3.030   3.324 -0.3443 -1.3770  1.4453
 8368SOL     OW36736   0.524   2.326   5.220  0.2201  0.2313  0.1919
 8368SOL    HW136737   0.481   2.242   5.231 -0.4053  0.5265 -0.0259
 8368SOL    HW236738   0.513   2.371   5.304 -0.4241 -0.6318  0.5704
 8369SOL     OW36739   1.033   2.240  15.326 -0.2472 -0.1720 -0.0806
 8369SOL    HW136740   1.004   2.314  15.380 -1.3761 -1.3813  0.9609
 8369SOL    HW236741   1.028   2.172  15.393 -0.6742 -0.7158 -0.6695
 8370SOL     OW36742   3.389   4.475   0.598  0.1638  0.6403  0.1020
 8370SOL    HW136743   3.402   4.405   0.662  4.1018 -1.7386 -3.2979
 8370SOL    HW236744   3.318   4.530   0.629 -1.5425 -1.1864 -0.5730
 8371SOL     OW36745   4.681   1.604   6.314  0.6141 -0.2555  0.5417
 8371SOL    HW136746   4.641   1.689   6.294 -3.5938 -2.0732  1.1542
 8371SOL    HW236747   4.599   1.554   6.311 -1.3261  2.7054  3.3476
 8372SOL     OW36748   3.849   4.237   9.552  0.1078  0.2567 -0.1607
 8372SOL    HW136749   3.918   4.226   9.617 -0.9116 -0.0556  0.8580
 8372SOL    HW236750   3.898   4.275   9.479 -0.4620  1.7277  0.2119
 8373SOL     OW36751   0.177   0.354   2.296 -0.1547 -0.0873 -0.1974
 8373SOL    HW136752   0.147   0.351   2.387 -6.1672 -0.3224 -2.2523
 8373SOL    HW236753   0.151   0.445   2.280  2.0802  1.3682  4.1803
 8374SOL     OW36754   4.595   0.034  14.828  0.4254 -0.0153  0.1144
 8374SOL    HW136755   4.557   0.121  14.840  2.7009  0.5545  3.2330
 8374SOL    HW236756   4.511   4.733  14.809  1.2345 -1.2058 -0.8998
 8375SOL     OW36757   3.240   2.157   8.866 -0.1215  0.3090  0.1703
 8375SOL    HW136758   3.335   2.144   8.870 -0.1296 -0.4612 -1.6761
 8375SOL    HW236759   3.237   2.251   8.850 -0.8385  0.1366 -0.7084
 8376SOL     OW36760   2.337   3.087   5.568 -0.5746  0.1671  0.8893
 8376SOL    HW136761   2.272   3.017   5.569  1.2220 -1.5720 -3.0635
 8376SOL    HW236762   2.416   3.032   5.564  0.4071  1.6004  0.7492
 8377SOL     OW36763   1.547   2.198   7.603  0.2062 -0.1730  0.3560
 8377SOL    HW136764   1.502   2.283   7.603 -0.0610 -0.3137 -2.1490
 8377SOL    HW236765   1.627   2.211   7.654 -0.0098  1.9978  0.1719
 8378SOL     OW36766   2.404   3.294   9.347 -0.1595 -0.0156 -0.5471
 8378SOL    HW136767   2.404   3.200   9.329 -0.4069  0.2218 -1.7671
 8378SOL    HW236768   2.405   3.328   9.258 -0.9501 -0.4687 -0.7254
 8379SOL     OW36769   3.680   1.895   7.185  0.0630  0.2293  0.7155
 8379SOL    HW136770   3.591   1.932   7.187  0.2678  0.6958  1.1783
 8379SOL    HW236771   3.677   1.850   7.269 -1.0356 -1.1177 -0.0438
 8380SOL     OW36772   1.556   0.130   9.965 -0.4218  0.2203 -0.5055
 8380SOL    HW136773   1.583   0.050   9.920 -0.0025 -0.4669  0.9536
 8380SOL    HW236774   1.630   0.190   9.956 -0.0421 -0.0373  0.9722
 8381SOL     OW36775   3.346   3.792  15.443  0.1369 -0.1105 -0.0052
 8381SOL    HW136776   3.350   3.848  15.520 -3.1690  2.5787 -1.7767
 8381SOL    HW236777   3.438   3.799  15.417  0.5024  1.8857  1.8290
 8382SOL     OW36778   3.389   3.263   3.019  0.0537 -0.0729 -0.3015
 8382SOL    HW136779   3.467   3.276   2.965  2.3954  1.6183  3.4284
 8382SOL    HW236780   3.359   3.175   3.002  0.6684 -0.7111  1.8495
 8383SOL     OW36781   3.948   3.863   5.137 -0.5444 -0.1625  0.0113
 8383SOL    HW136782   3.872   3.895   5.185 -1.1825 -0.5931 -0.7171
 8383SOL    HW236783   3.955   3.779   5.183 -3.8603 -0.2031  0.4593
 8384SOL     OW36784   2.601   2.942  15.394  0.2601  0.4311  0.0320
 8384SOL    HW136785   2.633   3.006  15.330 -1.8106  0.3677 -1.0617
 8384SOL    HW236786   2.507   2.927  15.383  1.0081 -4.4596  0.3020
 8385SOL     OW36787   1.213   4.320  12.740  0.2579  0.0707 -0.4843
 8385SOL    HW136788   1.181   4.386  12.678 -0.9678 -1.1775 -1.1678
 8385SOL    HW236789   1.305   4.348  12.739  0.1456  0.4550  0.6719
 8386SOL     OW36790   2.792   2.510   8.210 -0.0713  0.2938  0.5509
 8386SOL    HW136791   2.847   2.526   8.286 -1.6006  0.3173  1.6530
 8386SOL    HW236792   2.709   2.545   8.243 -0.8547 -0.2279 -0.8315
 8387SOL     OW36793   2.837   1.277   8.588 -0.0835 -0.2273 -0.5496
 8387SOL    HW136794   2.919   1.317   8.559  0.0565 -0.3842 -0.3706
 8387SOL    HW236795   2.846   1.186   8.562 -1.4727 -0.8311  1.1054
 8388SOL     OW36796   3.969   0.662  11.582  0.3442  0.3257  0.0634
 8388SOL    HW136797   4.059   0.651  11.554  0.7167  0.9396  1.0194
 8388SOL    HW236798   3.952   0.752  11.554  3.6218  0.8030 -0.3060
 8389SOL     OW36799   3.349   4.185   6.479  0.2853 -0.2727 -0.3829
 8389SOL    HW136800   3.397   4.132   6.417  0.1585  0.1685 -0.8586
 8389SOL    HW236801   3.415   4.233   6.529  1.5981 -1.1368 -1.2778
 8390SOL     OW36802   4.422   3.933  16.816 -0.1878  0.0576 -0.3039
 8390SOL    HW136803   4.443   3.973  16.732 -0.7828  1.6034  0.2896
 8390SOL    HW236804   4.503   3.944  16.866  1.3244  3.4127 -3.4814
 8391SOL     OW36805   0.902   3.390   4.579  0.4509  0.1934  0.3605
 8391SOL    HW136806   0.846   3.402   4.502 -1.6104 -3.4699  1.2822
 8391SOL    HW236807   0.896   3.296   4.593 -2.6461  0.2210 -0.8055
 8392SOL     OW36808   1.333   2.798   1.553 -0.3189 -0.4666  0.0785
 8392SOL    HW136809   1.410   2.810   1.609 -0.4090 -0.2278  0.1491
 8392SOL    HW236810   1.346   2.708   1.524 -2.7442 -1.2523  1.3704
 8393SOL     OW36811   1.534   3.425  10.136 -0.1702 -0.4648  0.2994
 8393SOL    HW136812   1.577   3.469  10.209  1.9593 -3.0354  0.6250
 8393SOL    HW236813   1.447   3.405  10.167 -0.3517  1.4213  1.0109
 8394SOL     OW36814   1.764   1.846  10.096  0.2102 -0.3537  0.3547
 8394SOL    HW136815   1.699   1.867  10.028 -1.6376 -3.0386  1.2770
 8394SOL    HW236816   1.754   1.752  10.085 -0.6273 -0.3428  1.0546
 8395SOL     OW36817   1.298   0.138   9.268  0.2018  0.0332  0.9877
 8395SOL    HW136818   1.215   0.185   9.265 -0.2243 -0.7897 -0.3059
 8395SOL    HW236819   1.359   0.209   9.247 -0.0817 -0.1363 -0.3985
 8396SOL     OW36820   0.669   3.654   7.542  0.2316 -0.5414 -0.1118
 8396SOL    HW136821   0.623   3.625   7.464  1.7460  3.0412 -2.3262
 8396SOL    HW236822   0.602   3.644   7.610 -0.7660 -4.2473 -1.6328
 8397SOL     OW36823   3.518   2.773   9.721 -0.4865 -0.1396  0.2884
 8397SOL    HW136824   3.596   2.796   9.671 -0.6442 -2.3153 -0.9263
 8397SOL    HW236825   3.553   2.753   9.808  1.8751  0.6126 -0.4759
 8398SOL     OW36826   2.929   0.623  17.159  0.1168 -0.1565 -0.7318
 8398SOL    HW136827   2.836   0.637  17.138  0.3482  1.4264 -0.7176
 8398SOL    HW236828   2.947   0.572  17.080  0.3185  1.2769 -1.6004
 8399SOL     OW36829   0.907   0.543   6.406 -0.3262  0.0339 -0.1057
 8399SOL    HW136830   0.865   0.629   6.409 -2.2651 -0.8782 -1.0123
 8399SOL    HW236831   0.837   0.498   6.360 -0.5261 -0.1605  0.3887
 8400SOL     OW36832   3.921   4.359  16.264  0.0893  0.1294 -0.2437
 8400SOL    HW136833   3.950   4.320  16.346  0.9088  0.9097 -0.1704
 8400SOL    HW236834   3.845   4.411  16.291  0.1104 -0.5159  1.0380
 8401SOL     OW36835   3.118   4.377   1.628  1.0726 -1.0046 -0.4911
 8401SOL    HW136836   3.044   4.317   1.618 -0.0812  0.1233  1.3003
 8401SOL    HW236837   3.123   4.421   1.543  0.4528  0.8017  0.4104
 8402SOL     OW36838   0.006   4.710  13.549 -0.2520  0.0455 -0.0756
 8402SOL    HW136839   0.052   0.010  13.476  0.4901  0.9733  0.9087
 8402SOL    HW236840   4.695   4.646  13.500  1.9434 -2.1078  0.4949
 8403SOL     OW36841   0.481   3.888   3.780  0.7162 -0.1003  0.1413
 8403SOL    HW136842   0.414   3.861   3.718  0.5418 -1.5200  0.9535
 8403SOL    HW236843   0.550   3.918   3.720 -0.4378 -0.3964 -1.3342
 8404SOL     OW36844   0.917   2.039   9.690  0.9742 -0.2967  0.1209
 8404SOL    HW136845   0.894   1.968   9.630  0.4653 -0.6405  0.7328
 8404SOL    HW236846   0.830   2.065   9.721  0.4108 -1.3160 -0.5952
 8405SOL     OW36847   2.044   1.536  11.921  0.6422  0.4768  0.0782
 8405SOL    HW136848   2.139   1.528  11.912  0.4411  0.9195 -2.4601
 8405SOL    HW236849   2.017   1.463  11.864 -0.4545  2.4129 -1.9147
 8406SOL     OW36850   4.042   0.406   2.527 -0.4095 -0.4425  0.0242
 8406SOL    HW136851   4.102   0.447   2.589  1.6697 -2.2262 -0.8312
 8406SOL    HW236852   4.092   0.434   2.450  4.1395  2.0343  3.9098
 8407SOL     OW36853   3.114   0.654   1.871  0.0228  0.4072  0.0055
 8407SOL    HW136854   3.063   0.652   1.789 -1.5052 -1.2405  1.0090
 8407SOL    HW236855   3.073   0.592   1.931 -0.6924 -0.2422 -1.1392
 8408SOL     OW36856   4.581   4.107  16.658  0.3930 -0.5239 -0.1924
 8408SOL    HW136857   4.589   4.202  16.667  0.5105 -0.4444 -1.1101
 8408SOL    HW236858   4.612   4.089  16.747 -0.3945 -0.5745  0.0742
 8409SOL     OW36859   1.686   3.381   2.750 -0.0799 -0.3282 -0.2956
 8409SOL    HW136860   1.706   3.417   2.664  0.6455  2.1089  0.8929
 8409SOL    HW236861   1.743   3.429   2.811  2.1456 -1.3209 -1.5910
 8410SOL     OW36862   2.718   4.506   9.969  0.6472 -0.6713 -0.4169
 8410SOL    HW136863   2.767   4.432  10.005  0.4981 -0.9983 -0.8785
 8410SOL    HW236864   2.788   4.571   9.969  1.6144 -1.7026  0.1641
 8411SOL     OW36865   1.446   4.023   1.175  0.0697  0.1017 -0.0989
 8411SOL    HW136866   1.407   3.962   1.238 -1.9991 -0.2253 -1.6620
 8411SOL    HW236867   1.540   4.017   1.187  0.1095  0.5466 -0.1697
 8412SOL     OW36868   1.229   2.616  15.004  0.6256 -0.1027 -0.2791
 8412SOL    HW136869   1.194   2.684  15.062  0.8626 -0.1404 -0.0932
 8412SOL    HW236870   1.174   2.541  15.026 -1.9946  2.1300  0.9232
 8413SOL     OW36871   4.386   2.635  11.439  0.0688 -0.5222  0.0996
 8413SOL    HW136872   4.295   2.633  11.407  0.0805  1.0858 -0.0495
 8413SOL    HW236873   4.371   2.642  11.533  2.2989 -1.4467  0.5097
 8414SOL     OW36874   2.274   2.174   3.622  0.2526  0.7565  0.0386
 8414SOL    HW136875   2.347   2.132   3.578 -0.7736 -1.3134  0.3061
 8414SOL    HW236876   2.224   2.094   3.636  0.4509  0.5104 -0.6782
 8415SOL     OW36877   3.525   1.849   5.187 -0.1740 -0.2572  1.3092
 8415SOL    HW136878   3.430   1.841   5.177 -0.2483  1.5681  0.5690
 8415SOL    HW236879   3.543   1.857   5.094 -2.8845  1.5130  0.9376
 8416SOL     OW36880   4.566   1.753  13.491  0.7217 -0.2148  0.4383
 8416SOL    HW136881   4.579   1.774  13.583  0.7970  0.3923  0.2914
 8416SOL    HW236882   4.602   1.665  13.490 -0.2030 -0.6041  1.4421
 8417SOL     OW36883   4.117   0.974   4.608 -0.2786  0.5034 -0.0540
 8417SOL    HW136884   4.054   0.911   4.643 -0.3117 -0.6706 -2.1983
 8417SOL    HW236885   4.099   1.044   4.670  0.3033 -0.3826  1.1052
 8418SOL     OW36886   1.514   2.072  10.304 -0.7953  0.5349  0.6815
 8418SOL    HW136887   1.432   2.051  10.259 -1.5039 -0.6311  2.5381
 8418SOL    HW236888   1.559   1.988  10.303 -0.4923  0.6537  3.4847
 8419SOL     OW36889   0.214   1.155   4.923 -0.3227 -0.3973  0.3057
 8419SOL    HW136890   0.308   1.161   4.937 -0.2441 -1.6233  0.3720
 8419SOL    HW236891   0.198   1.212   4.849  0.0470 -0.5688  0.0950
 8420SOL     OW36892   0.006   1.879  10.851 -0.6386 -0.1650  0.6125
 8420SOL    HW136893   4.698   1.809  10.896  0.2516 -1.4121 -0.3926
 8420SOL    HW236894   4.676   1.912  10.794  0.3512 -0.5923 -0.8475
 8421SOL     OW36895   3.042   4.465   6.070 -0.0970 -0.4431 -0.5170
 8421SOL    HW136896   3.024   4.377   6.103  0.2079  0.1330  1.1444
 8421SOL    HW236897   3.108   4.488   6.135 -2.2484 -0.5466  1.6551
 8422SOL     OW36898   3.439   0.580   3.231 -0.1198  0.1879 -0.1562
 8422SOL    HW136899   3.429   0.623   3.146  1.8519 -0.2273 -0.5905
 8422SOL    HW236900   3.351   0.566   3.266  0.2750 -0.4659  0.5419
 8423SOL     OW36901   4.145   2.374  15.116  0.3231 -0.5242  0.1163
 8423SOL    HW136902   4.086   2.299  15.120  0.3318 -0.5895 -0.9892
 8423SOL    HW236903   4.178   2.384  15.206 -1.9283  2.5430  0.6073
 8424SOL     OW36904   3.305   1.064   6.832 -0.5196  0.1007  0.2344
 8424SOL    HW136905   3.335   1.134   6.890 -1.7229 -2.0654  3.4857
 8424SOL    HW236906   3.383   1.033   6.785 -1.4353 -3.9197  1.3796
 8425SOL     OW36907   2.667   1.646  16.752 -0.4422 -0.8312  0.9573
 8425SOL    HW136908   2.657   1.730  16.797  1.0000  0.8226 -1.7444
 8425SOL    HW236909   2.705   1.674  16.668  0.6195 -0.1771  1.6532
 8426SOL     OW36910   3.270   4.279   5.034  0.2469  0.0468  0.2948
 8426SOL    HW136911   3.313   4.209   5.084  1.4553 -1.2901 -2.5513
 8426SOL    HW236912   3.177   4.259   5.034  0.2782 -0.0210  2.3597
 8427SOL     OW36913   4.147   3.065   3.560  0.0746  0.1177  0.3347
 8427SOL    HW136914   4.226   3.023   3.527 -1.0621 -0.4842 -1.6045
 8427SOL    HW236915   4.125   3.005   3.632  0.8026 -0.6931 -0.1291
 8428SOL     OW36916   1.631   2.670   4.369  0.0397 -0.4375 -0.1710
 8428SOL    HW136917   1.691   2.597   4.350 -1.3149 -0.9334 -2.6108
 8428SOL    HW236918   1.602   2.702   4.283 -0.8816 -1.0660 -0.0898
 8429SOL     OW36919   1.195   0.825   6.428 -0.4082 -0.2136  0.6483
 8429SOL    HW136920   1.266   0.784   6.379 -0.3315  2.1637 -1.2308
 8429SOL    HW236921   1.160   0.750   6.476  0.5563 -0.6655  0.6484
 8430SOL     OW36922   4.101   2.667  15.058 -0.1470 -0.0668  0.2244
 8430SOL    HW136923   4.123   2.576  15.040  3.2661  0.9626 -0.9570
 8430SOL    HW236924   4.164   2.682  15.129 -1.9333 -0.4666  1.8879
 8431SOL     OW36925   2.029   2.618  10.538 -0.3746  0.4548  0.1930
 8431SOL    HW136926   2.036   2.647  10.629 -0.6896 -0.0783  0.3868
 8431SOL    HW236927   2.065   2.530  10.533  1.8328  1.4609 -1.6795
 8432SOL     OW36928   4.406   4.118   6.746 -0.0478 -0.1870  0.1328
 8432SOL    HW136929   4.410   4.050   6.813 -2.8692  3.6503  4.1731
 8432SOL    HW236930   4.493   4.116   6.706 -0.3621  0.0494 -0.5626
 8433SOL     OW36931   0.127   3.879  16.727  0.1700  0.1849 -0.4394
 8433SOL    HW136932   0.216   3.843  16.719  0.6178  1.8398 -3.1005
 8433SOL    HW236933   0.065   3.811  16.700 -0.9773  0.5255  1.3424
 8434SOL     OW36934   2.882   1.752   7.988 -0.4062  0.8674 -0.5841
 8434SOL    HW136935   2.909   1.730   7.899 -1.7129 -1.0652 -0.4917
 8434SOL    HW236936   2.899   1.847   7.992  2.4936  0.3271 -0.3390
 8435SOL     OW36937   0.762   0.090   2.061 -0.2215  0.1741  0.3637
 8435SOL    HW136938   0.723   0.021   2.007  2.5904  1.1053 -2.8639
 8435SOL    HW236939   0.851   0.055   2.067 -0.1924  0.2301  0.2658
 8436SOL     OW36940   0.467   4.404   5.498  0.1822 -0.3998 -0.0464
 8436SOL    HW136941   0.459   4.498   5.483 -0.2929 -0.3889  0.2986
 8436SOL    HW236942   0.561   4.386   5.495  0.1177 -0.5209 -1.6776
 8437SOL     OW36943   4.524   3.941   7.691 -0.4485  0.5394 -0.5456
 8437SOL    HW136944   4.465   4.013   7.717  0.8940  2.0444 -1.6614
 8437SOL    HW236945   4.576   3.922   7.769  0.1443  0.0762 -1.0631
 8438SOL     OW36946   2.998   0.521  10.652  0.4969 -0.0928  0.2106
 8438SOL    HW136947   2.993   0.475  10.736  2.9154  0.6111  0.7725
 8438SOL    HW236948   3.030   0.457  10.589 -0.8521 -0.6494  0.0990
 8439SOL     OW36949   0.533   3.035   8.403  0.0978 -0.3834  0.5732
 8439SOL    HW136950   0.517   2.960   8.346 -0.0891 -0.4661  0.7345
 8439SOL    HW236951   0.583   3.007   8.480 -0.3692 -0.0452  0.9957
 8440SOL     OW36952   3.854   2.193  16.998  0.1411  0.6278 -0.0875
 8440SOL    HW136953   3.767   2.202  16.959  1.5784  3.2536 -2.7143
 8440SOL    HW236954   3.836   2.151  17.082  0.9331 -0.8363 -0.6435
 8441SOL     OW36955   0.196   3.697   4.163 -0.2766 -0.5701  0.5014
 8441SOL    HW136956   0.207   3.780   4.116 -0.3620  0.2336  1.8762
 8441SOL    HW236957   0.136   3.647   4.108  0.1069 -0.5020  0.0276
 8442SOL     OW36958   1.387   0.687   8.743 -0.1921 -0.2482  0.2067
 8442SOL    HW136959   1.380   0.594   8.762 -0.1029  0.0782  1.7861
 8442SOL    HW236960   1.373   0.717   8.832 -1.9292  2.4029 -0.9526
 8443SOL     OW36961   4.261   3.120   5.918 -0.0199  0.2887 -0.0831
 8443SOL    HW136962   4.183   3.141   5.866 -0.9607 -1.3397  0.6468
 8443SOL    HW236963   4.275   3.194   5.977  0.5449 -1.7539  2.3427
 8444SOL     OW36964   2.944   1.706   7.233  0.3029  0.0963  0.3826
 8444SOL    HW136965   3.017   1.692   7.173 -0.2044  1.7792 -0.6326
 8444SOL    HW236966   2.891   1.752   7.168  0.1512  0.5899  0.8564
 8445SOL     OW36967   0.091   2.131   7.297 -0.1098  0.5729  0.0264
 8445SOL    HW136968   0.144   2.170   7.367  1.0379  0.2762 -0.6700
 8445SOL    HW236969   0.119   2.182   7.221 -2.3477 -0.3356 -1.4233
 8446SOL     OW36970   2.667   3.942   8.313  0.5308  0.1683 -0.8625
 8446SOL    HW136971   2.594   3.892   8.350  1.1710 -0.9210 -1.0515
 8446SOL    HW236972   2.725   3.871   8.284 -0.9128 -2.2103  2.0675
 8447SOL     OW36973   2.529   0.909   2.395 -0.1583 -0.8215 -0.1349
 8447SOL    HW136974   2.594   0.978   2.386 -2.4781  1.4784  0.8273
 8447SOL    HW236975   2.505   0.919   2.487  1.6611  0.2662  0.2130
 8448SOL     OW36976   4.161   3.848  13.591  0.2443 -0.8605 -0.1278
 8448SOL    HW136977   4.226   3.896  13.642 -1.9609  0.1235  1.7794
 8448SOL    HW236978   4.096   3.916  13.569  0.9839  0.1216  0.7395
 8449SOL     OW36979   0.952   0.533   3.063  0.2328  0.2654 -0.2845
 8449SOL    HW136980   0.866   0.573   3.073  0.0334 -0.3312  0.3795
 8449SOL    HW236981   0.938   0.443   3.092  0.7788  0.1535 -0.3755
 8450SOL     OW36982   2.316   3.403  11.416 -0.0424  0.3356  0.7836
 8450SOL    HW136983   2.236   3.390  11.364  0.7775 -0.0286 -0.3888
 8450SOL    HW236984   2.271   3.402  11.501 -2.1193 -0.5548 -0.3177
 8451SOL     OW36985   0.547   4.041   7.349 -0.0050  0.0110  0.0486
 8451SOL    HW136986   0.503   4.122   7.374 -1.3833 -1.1228  1.3568
 8451SOL    HW236987   0.641   4.058   7.338  0.4542 -1.0408  2.3293
 8452SOL     OW36988   2.509   1.820   8.904 -0.1363  0.4243 -0.7863
 8452SOL    HW136989   2.555   1.903   8.898  0.0721  0.3751  0.1736
 8452SOL    HW236990   2.579   1.756   8.916 -0.7454  0.2421  1.7964
 8453SOL     OW36991   2.447   3.245   6.747 -0.1627  0.7091 -0.2361
 8453SOL    HW136992   2.533   3.277   6.774 -0.2937  0.4884  0.4367
 8453SOL    HW236993   2.461   3.194   6.667  1.9941  0.0181  0.6034
 8454SOL     OW36994   3.297   3.630   8.035 -0.1213  0.0294 -0.5647
 8454SOL    HW136995   3.384   3.660   8.011  1.3406 -2.6507  1.5277
 8454SOL    HW236996   3.318   3.588   8.118 -1.1651  1.5198  0.4583
 8455SOL     OW36997   2.594   3.994   0.549  0.1188  0.1009 -0.2331
 8455SOL    HW136998   2.500   3.976   0.554  0.0198  0.0493 -2.3496
 8455SOL    HW236999   2.590   4.090   0.548 -2.2951  0.0239  0.9648
 8456SOL     OW37000   2.691   2.043   6.429 -0.4706  0.0839  0.1641
 8456SOL    HW137001   2.708   2.037   6.523 -0.3524  2.1722  0.2635
 8456SOL    HW237002   2.628   1.971   6.422  2.0446 -1.9175 -2.0120
 8457SOL     OW37003   1.398   0.458  14.756 -0.4501 -0.0481  0.4024
 8457SOL    HW137004   1.478   0.460  14.810  1.9960 -0.2618 -3.2370
 8457SOL    HW237005   1.402   0.542  14.710 -1.2151  0.6172  1.5495
 8458SOL     OW37006   4.731   3.540   8.046  0.3879  0.5099  0.4760
 8458SOL    HW137007   0.071   3.573   8.087 -0.6968  1.3413  1.9047
 8458SOL    HW237008   4.718   3.455   8.089 -0.2264 -1.8617 -4.3360
 8459SOL     OW37009   1.225   2.985   2.409  0.2780 -0.2085 -0.0625
 8459SOL    HW137010   1.171   2.918   2.368 -2.5909  2.0132  0.0700
 8459SOL    HW237011   1.193   2.952   2.493  0.5926 -0.1917  0.0635
 8460SOL     OW37012   2.309   4.569   7.388  0.4888  0.4239 -0.5182
 8460SOL    HW137013   2.397   4.607   7.382 -0.0156  1.6434 -0.2730
 8460SOL    HW237014   2.285   4.607   7.473  1.9041  0.1222  0.0158
 8461SOL     OW37015   3.633   3.809  15.390 -0.0419  0.4235  0.5608
 8461SOL    HW137016   3.610   3.849  15.306 -0.4850  0.3911  0.6711
 8461SOL    HW237017   3.716   3.852  15.411  0.0179 -0.3304  1.8869
 8462SOL     OW37018   4.098   1.049   5.417 -0.5959 -0.3136 -0.0025
 8462SOL    HW137019   4.060   1.122   5.466 -0.6901  0.8980 -1.9012
 8462SOL    HW237020   4.174   1.024   5.470  0.3550 -0.1006 -1.2770
 8463SOL     OW37021   2.738   0.959   7.110 -0.3784 -0.1840 -0.4964
 8463SOL    HW137022   2.724   0.946   7.204 -0.0970 -0.5996 -0.5115
 8463SOL    HW237023   2.763   1.051   7.113  1.2227 -0.6755  1.1415
 8464SOL     OW37024   3.473   1.652  15.587 -0.1940  0.2264  0.0611
 8464SOL    HW137025   3.410   1.696  15.645  1.1567  1.1681  0.7961
 8464SOL    HW237026   3.421   1.618  15.514 -0.5334  0.8042  0.0340
 8465SOL     OW37027   1.127   0.736  12.553  0.2322  0.2926 -0.8389
 8465SOL    HW137028   1.194   0.803  12.538 -0.6700  1.4595  0.3931
 8465SOL    HW237029   1.092   0.776  12.632  0.6012 -0.4340 -0.3065
 8466SOL     OW37030   2.687   3.508   2.243  0.0065  0.3442  1.0638
 8466SOL    HW137031   2.749   3.570   2.205  0.0786 -0.9928 -0.9761
 8466SOL    HW237032   2.736   3.428   2.225  0.0208  0.6584 -0.3038
 8467SOL     OW37033   1.680   4.416  16.485 -0.3704 -0.0274 -0.2302
 8467SOL    HW137034   1.645   4.415  16.574 -0.4095 -0.5315 -0.2501
 8467SOL    HW237035   1.630   4.350  16.437  1.6959 -0.5957 -1.6063
 8468SOL     OW37036   3.638   4.682  16.863 -0.1412  0.1689  0.5131
 8468SOL    HW137037   3.657   4.632  16.943  1.4660  3.3140  2.0877
 8468SOL    HW237038   3.720   4.667  16.815 -1.2979 -0.5201 -1.2285
 8469SOL     OW37039   0.891   2.153   7.334  0.5387  0.4747 -0.0030
 8469SOL    HW137040   0.836   2.201   7.396  0.0826 -1.4264  1.0683
 8469SOL    HW237041   0.840   2.169   7.255  1.0206  0.1870 -0.3708
 8470SOL     OW37042   3.934   1.540   0.292  0.3844 -0.2617  0.1657
 8470SOL    HW137043   4.003   1.530   0.226  0.7956 -1.2058  0.7402
 8470SOL    HW237044   3.969   1.485   0.362 -0.0172 -0.2002  0.4140
 8471SOL     OW37045   3.165   0.237   6.233 -0.1230  0.4394 -0.5091
 8471SOL    HW137046   3.072   0.239   6.211 -0.1749 -1.4343 -0.4335
 8471SOL    HW237047   3.180   0.331   6.245 -2.1472  0.6359  0.3821
 8472SOL     OW37048   2.555   4.332   4.779 -0.3805  0.3114  0.3815
 8472SOL    HW137049   2.483   4.343   4.841  0.1563  1.7191  0.7584
 8472SOL    HW237050   2.546   4.400   4.712  0.4276  0.3587  0.3263
 8473SOL     OW37051   3.355   0.241   8.118  0.2939 -0.0831 -0.3763
 8473SOL    HW137052   3.411   0.264   8.192 -0.8365  1.4878 -0.0147
 8473SOL    HW237053   3.324   0.155   8.147 -0.4032  0.3083  0.0292
 8474SOL     OW37054   4.024   4.548   0.641  0.2078 -0.8247  0.6704
 8474SOL    HW137055   4.089   4.485   0.610 -2.5325 -2.4992 -1.6392
 8474SOL    HW237056   4.070   4.586   0.717  1.6841  0.4372 -0.8581
 8475SOL     OW37057   0.116   1.351   9.288 -0.1757  0.2118 -0.3153
 8475SOL    HW137058   0.156   1.348   9.375  1.1840  1.1174 -0.9161
 8475SOL    HW237059   0.195   1.341   9.235  0.3309 -0.5805  0.5764
 8476SOL     OW37060   3.523   1.411   7.315 -0.0251  0.1953  0.4203
 8476SOL    HW137061   3.559   1.445   7.233 -2.5809  0.3632 -0.6231
 8476SOL    HW237062   3.601   1.370   7.352 -2.1857 -1.9517  2.5762
 8477SOL     OW37063   3.439   0.663   8.256  0.4022  0.4278 -0.0004
 8477SOL    HW137064   3.405   0.581   8.291  1.2332 -1.2701 -3.2426
 8477SOL    HW237065   3.522   0.660   8.303 -0.0410 -0.1517  0.7477
 8478SOL     OW37066   0.959   4.720  16.317 -0.2603  0.7296 -0.0778
 8478SOL    HW137067   0.977   4.627  16.330  0.8210  1.0122  0.4354
 8478SOL    HW237068   1.039   0.019  16.354  0.6458  1.0361 -2.3327
 8479SOL     OW37069   3.990   1.678  12.430  0.6174  0.2348 -0.0848
 8479SOL    HW137070   3.980   1.625  12.351  1.2237 -1.5808  1.0311
 8479SOL    HW237071   3.920   1.630  12.474  1.5923 -0.8562  0.2906
 8480SOL     OW37072   2.102   2.696  15.459  0.2415  0.0918  0.0200
 8480SOL    HW137073   2.111   2.607  15.425 -2.9196  0.3957 -1.6787
 8480SOL    HW237074   2.007   2.706  15.452  0.0416 -2.2869 -0.9295
 8481SOL     OW37075   3.150   0.492   6.274  0.1962  0.3131 -0.4513
 8481SOL    HW137076   3.107   0.556   6.330  0.2680  1.2271 -1.4436
 8481SOL    HW237077   3.110   0.528   6.195 -0.4013  1.0412  0.1885
 8482SOL     OW37078   0.065   4.535  13.755  0.1326  0.0314 -0.6818
 8482SOL    HW137079   0.042   4.594  13.684 -0.9840 -0.5720 -0.8356
 8482SOL    HW237080   4.724   4.528  13.807  0.1559 -0.6791 -0.7370
 8483SOL     OW37081   1.245   2.174   1.436 -0.2969 -0.7598  0.7949
 8483SOL    HW137082   1.175   2.191   1.499  0.7489 -1.9921  2.2943
 8483SOL    HW237083   1.322   2.184   1.493  1.4432  1.0434 -1.8766
 8484SOL     OW37084   3.146   2.264   4.410 -0.7877  0.3325  0.4631
 8484SOL    HW137085   3.211   2.272   4.480  0.7599  2.1987 -1.1958
 8484SOL    HW237086   3.117   2.355   4.405  1.2967  0.9108 -1.2708
 8485SOL     OW37087   4.523   2.722  14.303  0.2718 -0.1787  0.1746
 8485SOL    HW137088   4.531   2.794  14.240 -0.2626 -1.4084 -1.2815
 8485SOL    HW237089   4.477   2.660  14.246  0.7383  0.2376 -0.6505
 8486SOL     OW37090   2.055   0.683  10.213 -0.3561 -0.3715 -0.5985
 8486SOL    HW137091   2.137   0.731  10.218  0.5162 -1.9380 -0.0356
 8486SOL    HW237092   2.073   0.603  10.263  2.6336  1.6074  1.4219
 8487SOL     OW37093   1.190   3.103   9.346  0.5668 -0.0678  0.8386
 8487SOL    HW137094   1.161   3.194   9.350 -1.9923 -0.9335  2.4643
 8487SOL    HW237095   1.174   3.087   9.253 -1.1362 -2.0327  1.4568
 8488SOL     OW37096   4.272   0.225   7.201 -0.5135 -0.3842  0.5400
 8488SOL    HW137097   4.197   0.169   7.184  0.0220 -0.7215 -0.6985
 8488SOL    HW237098   4.240   0.276   7.276  1.2263  1.6563 -0.1091
 8489SOL     OW37099   0.779   2.539   3.652 -0.3490  0.2796  0.6839
 8489SOL    HW137100   0.776   2.521   3.558 -0.5333  0.5467  0.6378
 8489SOL    HW237101   0.690   2.563   3.677 -0.6412 -0.5108  0.3962
 8490SOL     OW37102   0.170   3.694  15.584 -0.2153  0.2103 -0.3379
 8490SOL    HW137103   0.087   3.739  15.567 -0.2125  0.7057  0.9838
 8490SOL    HW237104   0.160   3.625  15.518  0.9267  1.2544 -1.6013
 8491SOL     OW37105   4.419   2.853  15.583 -0.0143 -0.1554 -0.0580
 8491SOL    HW137106   4.438   2.891  15.669 -0.0070 -0.4832  0.0863
 8491SOL    HW237107   4.435   2.933  15.533  0.5292  0.4852  1.1421
 8492SOL     OW37108   0.114   0.339   5.295  0.2097 -0.0558  0.0801
 8492SOL    HW137109   0.199   0.351   5.337  0.9945 -0.5525 -1.4125
 8492SOL    HW237110   0.069   0.410   5.342  1.2844  2.0057 -1.9918
 8493SOL     OW37111   2.442   2.814  15.117  0.6858 -0.6912  0.1151
 8493SOL    HW137112   2.421   2.810  15.210  0.1375  0.3237  0.0386
 8493SOL    HW237113   2.480   2.901  15.103 -0.0878 -0.1358  1.4989
 8494SOL     OW37114   3.344   4.008   0.445  0.3284  0.4593  0.2295
 8494SOL    HW137115   3.388   4.092   0.431 -0.1918  0.6235 -0.4291
 8494SOL    HW237116   3.360   3.955   0.367  1.3762 -0.6484  1.2061
 8495SOL     OW37117   1.879   4.087   0.951  0.8622  0.1253 -0.2562
 8495SOL    HW137118   1.928   4.051   0.877  0.5269  3.2619 -2.0295
 8495SOL    HW237119   1.792   4.070   0.916  0.6356 -1.3517  1.0269
 8496SOL     OW37120   4.575   4.430  14.763 -0.7303 -0.2566  0.2530
 8496SOL    HW137121   4.637   4.427  14.835  0.8933 -2.0556 -1.2279
 8496SOL    HW237122   4.490   4.449  14.803  1.0538  1.0497  3.3524
 8497SOL     OW37123   2.646   3.318   6.019  0.4528  0.2132  0.4223
 8497SOL    HW137124   2.697   3.358   5.948  1.4614 -1.1224  0.3983
 8497SOL    HW237125   2.634   3.400   6.067  1.6459 -0.4119  1.7886
 8498SOL     OW37126   2.816   3.230  17.006  0.3044 -0.3669 -0.3388
 8498SOL    HW137127   2.797   3.289  17.078  1.3687 -0.3195 -0.1005
 8498SOL    HW237128   2.811   3.144  17.047 -1.2829 -0.6333 -1.0574
 8499SOL     OW37129   2.163   3.270   7.729 -0.1841  0.0929  0.1943
 8499SOL    HW137130   2.171   3.262   7.634  0.3592  2.2499  0.0476
 8499SOL    HW237131   2.148   3.182   7.762 -0.9341  0.4628  0.8304
 8500SOL     OW37132   0.880   2.369  12.929  0.0703  0.1845  0.1883
 8500SOL    HW137133   0.839   2.352  12.844 -0.8195  2.0211  0.2482
 8500SOL    HW237134   0.909   2.460  12.922 -1.4949  0.3809 -3.5483
 8501SOL     OW37135   0.604   2.625  14.601 -0.7935  0.2257  0.0024
 8501SOL    HW137136   0.590   2.565  14.674  2.1258 -0.1083  0.3080
 8501SOL    HW237137   0.524   2.613  14.550  0.8776 -0.5567 -2.4420
 8502SOL     OW37138   0.741   3.718  12.961  0.3030  0.0791  0.3828
 8502SOL    HW137139   0.676   3.771  13.006  0.9606  0.1020  1.3120
 8502SOL    HW237140   0.819   3.773  12.959  0.7325 -0.4925  1.5931
 8503SOL     OW37141   2.644   1.435   9.084 -0.0554  0.0092  0.2395
 8503SOL    HW137142   2.621   1.494   9.012  1.0514 -1.9782 -1.7476
 8503SOL    HW237143   2.614   1.497   9.151 -0.5975 -2.5044  2.3411
 8504SOL     OW37144   0.592   0.605   7.892  0.3164  0.4280  0.6240
 8504SOL    HW137145   0.677   0.564   7.878 -0.1580  0.1435 -1.3020
 8504SOL    HW237146   0.592   0.577   7.984  0.7591  2.1618  1.1461
 8505SOL     OW37147   0.623   0.317   5.059  0.2246 -0.1952  0.3167
 8505SOL    HW137148   0.615   0.396   5.005  2.8058 -1.3559 -1.7673
 8505SOL    HW237149   0.649   0.349   5.145  2.8475 -0.5399 -0.3646
 8506SOL     OW37150   1.483   0.961   2.493  0.4393 -0.1306 -0.5156
 8506SOL    HW137151   1.511   1.016   2.566 -2.0267 -1.3639  1.4022
 8506SOL    HW237152   1.537   1.000   2.425 -0.7331  1.4079 -0.5528
 8507SOL     OW37153   1.454   2.978   2.283  0.1247  0.1352 -0.3935
 8507SOL    HW137154   1.504   2.897   2.291 -2.2821 -1.5694 -2.7994
 8507SOL    HW237155   1.379   2.965   2.341  0.9070  1.5875  0.9561
 8508SOL     OW37156   0.605   2.346   6.968  0.4039  0.1823 -0.0085
 8508SOL    HW137157   0.604   2.297   7.049 -0.2654  2.8095  1.5729
 8508SOL    HW237158   0.590   2.438   6.991 -1.5776 -0.1760  0.1593
 8509SOL     OW37159   1.457   3.775   0.036  0.0253 -0.3913  0.4209
 8509SOL    HW137160   1.475   3.729  17.711  0.1239 -0.5388  0.5249
 8509SOL    HW237161   1.500   3.857   0.013  1.0515 -1.9135 -3.1058
 8510SOL     OW37162   1.512   2.495   2.879 -0.4010  0.2575 -0.5470
 8510SOL    HW137163   1.545   2.413   2.841 -2.7581 -0.5587 -0.8124
 8510SOL    HW237164   1.596   2.533   2.905 -0.0203  1.5300 -3.6663
 8511SOL     OW37165   3.499   3.466  13.147 -1.0030 -0.0676 -0.4393
 8511SOL    HW137166   3.490   3.421  13.231  0.2657 -0.8070 -0.7010
 8511SOL    HW237167   3.578   3.419  13.119 -2.1681 -2.8637  0.9827
 8512SOL     OW37168   0.042   3.786   6.738 -0.8121  0.0652 -0.5557
 8512SOL    HW137169   0.029   3.830   6.654  2.0891  1.8086 -0.0858
 8512SOL    HW237170   0.045   3.856   6.804 -0.6755 -0.0149 -0.4776
 8513SOL     OW37171   1.073   0.849   4.308  0.0293  0.2947  0.1494
 8513SOL    HW137172   1.055   0.776   4.367  1.1107 -0.7691 -0.8537
 8513SOL    HW237173   1.120   0.798   4.243 -0.9759  1.9105 -1.8483
 8514SOL     OW37174   4.098   0.246  13.929  0.3179  0.5123  0.6061
 8514SOL    HW137175   4.101   0.159  13.967 -2.6784  1.2900  2.6416
 8514SOL    HW237176   4.050   0.291  13.999 -2.8174  0.6574 -1.6411
 8515SOL     OW37177   3.919   0.372  17.607  0.1228 -0.2036  0.1265
 8515SOL    HW137178   3.986   0.381  17.674  0.4795 -1.5544 -0.0559
 8515SOL    HW237179   3.909   0.461  17.572  0.4886  1.0736  3.3164
 8516SOL     OW37180   2.845   2.951   6.705 -0.3848 -0.0914  0.1546
 8516SOL    HW137181   2.922   2.987   6.749  0.4601 -0.5693 -0.9386
 8516SOL    HW237182   2.770   3.000   6.741 -1.1070 -1.0731 -0.0139
 8517SOL     OW37183   3.083   2.967  10.814 -0.9982 -0.8381 -0.8801
 8517SOL    HW137184   3.177   2.961  10.828 -0.8898 -0.7635 -1.5655
 8517SOL    HW237185   3.040   2.995  10.896 -0.5283  1.0059 -1.2639
 8518SOL     OW37186   2.308   3.528   3.024 -0.1001 -0.1209  0.8060
 8518SOL    HW137187   2.232   3.576   3.058  0.1028  0.0060  1.0776
 8518SOL    HW237188   2.351   3.501   3.106 -3.6660  2.8378  3.6354
 8519SOL     OW37189   3.638   3.766   0.524 -0.7754  0.0337  0.4833
 8519SOL    HW137190   3.662   3.857   0.502  0.7325 -0.0573  1.7270
 8519SOL    HW237191   3.591   3.780   0.606 -2.5991 -1.2411 -0.3636
 8520SOL     OW37192   3.018   4.168   3.836  0.3003 -0.0403 -0.0956
 8520SOL    HW137193   2.940   4.121   3.867  0.2371  0.2770  0.2247
 8520SOL    HW237194   3.053   4.107   3.771 -1.2070 -0.5425 -0.4596
 8521SOL     OW37195   0.701   3.831  11.665  0.4694 -0.0181  0.0603
 8521SOL    HW137196   0.711   3.921  11.632 -0.1395 -0.4939 -1.4128
 8521SOL    HW237197   0.623   3.814  11.612 -1.6004 -1.6196  3.6250
 8522SOL     OW37198   2.910   3.139   5.388  0.1890 -0.0154 -0.5089
 8522SOL    HW137199   2.846   3.121   5.319 -1.4080  1.3425  0.6204
 8522SOL    HW237200   2.965   3.198   5.336 -0.4422  2.1273  1.2628
 8523SOL     OW37201   2.590   2.049   2.089  0.6461 -0.0760 -0.7592
 8523SOL    HW137202   2.525   2.106   2.130  0.0104 -1.0374 -0.4129
 8523SOL    HW237203   2.581   1.968   2.139 -0.7026  1.1038  0.9075
 8524SOL     OW37204   0.417   3.761   7.957 -0.3713 -0.5243 -0.4815
 8524SOL    HW137205   0.486   3.707   7.996  0.0092  1.5534  1.7697
 8524SOL    HW237206   0.451   3.849   7.975  1.5704 -1.4957  0.6544
 8525SOL     OW37207   2.237   1.609   2.857 -0.6573  0.2015 -0.4402
 8525SOL    HW137208   2.164   1.555   2.888 -0.4227 -0.6829 -1.4531
 8525SOL    HW237209   2.307   1.552   2.889 -1.0252 -1.3225 -2.4320
 8526SOL     OW37210   0.383   2.929   4.384 -0.4492  0.1166  0.6020
 8526SOL    HW137211   0.445   2.950   4.314 -0.6254  2.9517  1.3088
 8526SOL    HW237212   0.342   3.013   4.404 -3.3128 -0.9660 -0.6573
 8527SOL     OW37213   0.151   4.022   1.934  0.2725  0.6854 -0.6206
 8527SOL    HW137214   0.162   4.103   1.985 -1.0407  0.5636 -0.1506
 8527SOL    HW237215   0.232   3.999   1.889  1.7735  1.9513  1.3907
 8528SOL     OW37216   0.439   3.297   6.030 -0.1829  0.1823 -0.6022
 8528SOL    HW137217   0.345   3.280   6.022 -0.0458 -1.0914  0.4572
 8528SOL    HW237218   0.437   3.366   6.096 -0.4350 -0.6039  0.2037
 8529SOL     OW37219   0.928   2.766  17.659  0.3877  0.2593 -0.2997
 8529SOL    HW137220   0.879   2.843  17.629 -2.1122 -0.7354  1.2914
 8529SOL    HW237221   0.857   2.702  17.654 -0.4496  1.0991  0.6365
 8530SOL     OW37222   4.436   4.731   0.658  0.4438 -0.1299 -0.4111
 8530SOL    HW137223   4.506   0.050   0.686  1.2675 -0.6715 -1.3640
 8530SOL    HW237224   4.395   4.703   0.740  0.1999 -0.7122 -0.7260
 8531SOL     OW37225   4.276   0.882   2.446 -0.1807 -0.5493 -0.0032
 8531SOL    HW137226   4.317   0.968   2.449 -3.0183  0.8077 -0.4311
 8531SOL    HW237227   4.314   0.834   2.520 -0.4924 -0.3657  0.2736
 8532SOL     OW37228   1.343   4.385   9.223  0.6176 -0.6408 -0.3567
 8532SOL    HW137229   1.426   4.430   9.238 -0.8727  1.1199  2.4761
 8532SOL    HW237230   1.357   4.308   9.278  0.1165  1.6040  2.8767
 8533SOL     OW37231   2.939   0.376   3.813 -0.1623  0.0463  0.1087
 8533SOL    HW137232   2.944   0.338   3.901  1.0519  1.1390  0.5334
 8533SOL    HW237233   2.860   0.334   3.781 -0.2332 -1.1885  1.8927
 8534SOL     OW37234   0.847   3.439   5.852  0.4285  0.4128 -0.3994
 8534SOL    HW137235   0.855   3.372   5.921 -1.1535  1.5896  0.9307
 8534SOL    HW237236   0.782   3.495   5.893 -0.2862  0.8451 -2.1463
 8535SOL     OW37237   0.451   4.045  17.203  0.2973 -0.3953 -0.3133
 8535SOL    HW137238   0.520   4.110  17.199 -0.2427  0.0965 -1.7331
 8535SOL    HW237239   0.380   4.088  17.251  0.6813 -1.2286  1.0037
 8536SOL     OW37240   3.392   0.271   3.153 -0.6581  0.2879  1.0022
 8536SOL    HW137241   3.429   0.354   3.184  2.0398 -0.8726  0.8615
 8536SOL    HW237242   3.318   0.311   3.108 -1.0664  1.0318  2.3423
 8537SOL     OW37243   4.302   3.309   9.466 -0.1775  0.3573 -0.0663
 8537SOL    HW137244   4.288   3.370   9.394  1.1097 -0.4049 -0.9612
 8537SOL    HW237245   4.234   3.331   9.529 -0.8823 -1.7290 -0.0943
 8538SOL     OW37246   2.343   0.910  14.251  0.4079 -0.8026  0.1860
 8538SOL    HW137247   2.307   0.865  14.174 -1.3451  1.0166 -0.0544
 8538SOL    HW237248   2.356   0.996  14.211 -2.2191 -0.9078 -0.9237
 8539SOL     OW37249   1.219   3.776   3.711 -0.2825 -0.0297 -0.5334
 8539SOL    HW137250   1.149   3.825   3.755  0.6892  0.7791  0.1327
 8539SOL    HW237251   1.264   3.748   3.791  0.0454  1.2564 -0.2596
 8540SOL     OW37252   3.358   3.797   6.636 -0.0477  0.4065  0.4280
 8540SOL    HW137253   3.307   3.744   6.697 -0.0541  0.2366  0.2755
 8540SOL    HW237254   3.305   3.795   6.556 -1.6562 -1.5282  1.5597
 8541SOL     OW37255   0.263   4.385   1.766  0.3823 -0.6896  0.4951
 8541SOL    HW137256   0.267   4.461   1.708 -0.8664  0.4077  1.8420
 8541SOL    HW237257   0.168   4.376   1.765  0.3048  0.4154 -0.7351
 8542SOL     OW37258   0.583   0.604   2.279  0.1235  0.1048  0.4552
 8542SOL    HW137259   0.529   0.581   2.203 -1.6434  1.4455  1.2962
 8542SOL    HW237260   0.580   0.699   2.271  2.1938 -0.0590 -2.1011
 8543SOL     OW37261   2.740   0.076   6.486 -0.3103 -0.2644  0.9089
 8543SOL    HW137262   2.758   0.044   6.575 -1.4747  0.5799  1.4520
 8543SOL    HW237263   2.655   0.038   6.465  1.0172 -0.5912 -3.7905
 8544SOL     OW37264   1.386   3.764   8.795 -0.1346  0.4390  0.7938
 8544SOL    HW137265   1.299   3.734   8.769  0.1378  0.0810  0.3045
 8544SOL    HW237266   1.405   3.825   8.724 -2.0601  1.6462  1.3057
 8545SOL     OW37267   1.589   1.743   3.776  0.0061 -0.1189 -0.2307
 8545SOL    HW137268   1.543   1.810   3.827  0.1557  0.5748 -1.0167
 8545SOL    HW237269   1.557   1.769   3.690 -0.9859  2.6728  0.9539
 8546SOL     OW37270   3.510   0.080   2.666  0.5732 -0.0530 -0.0275
 8546SOL    HW137271   3.430   0.046   2.626  1.2908 -0.5405 -1.0613
 8546SOL    HW237272   3.490   0.080   2.759 -1.5908 -2.0936 -0.4988
 8547SOL     OW37273   0.060   0.417   9.088 -0.1288  0.4675  0.4297
 8547SOL    HW137274   0.076   0.432   8.995 -0.2124  0.0380  0.3488
 8547SOL    HW237275   4.706   0.431   9.081 -0.1468  0.1163 -0.0229
 8548SOL     OW37276   3.765   4.590   4.639 -0.0485  0.1197 -0.1261
 8548SOL    HW137277   3.849   4.577   4.682  0.8523  0.0246 -1.9241
 8548SOL    HW237278   3.736   4.665   4.691  2.0051  0.4795  0.4959
 8549SOL     OW37279   4.052   0.212   6.422  0.0722  0.7410 -0.0435
 8549SOL    HW137280   4.017   0.190   6.509 -2.7165 -0.2171 -1.4079
 8549SOL    HW237281   4.140   0.242   6.443 -0.5518  1.8945  0.9062
 8550SOL     OW37282   4.537   2.399   8.482 -0.2493 -0.1620 -0.0297
 8550SOL    HW137283   4.510   2.319   8.528  0.0801 -0.5611 -0.5371
 8550SOL    HW237284   4.504   2.462   8.547 -2.1655  0.0253 -1.1892
 8551SOL     OW37285   2.144   4.312  11.870  0.3410  0.4503  0.2019
 8551SOL    HW137286   2.122   4.405  11.878 -2.7254 -0.1572 -1.0011
 8551SOL    HW237287   2.174   4.294  11.959  3.3532  0.2933 -0.8520
 8552SOL     OW37288   2.346   0.641   7.058 -0.3418  0.3606  0.4223
 8552SOL    HW137289   2.410   0.712   7.054  0.2136 -0.2295 -1.4617
 8552SOL    HW237290   2.378   0.584   6.987  0.0010 -1.0341  1.6764
 8553SOL     OW37291   2.660   3.731  13.267  0.6644  0.0840 -0.1916
 8553SOL    HW137292   2.721   3.805  13.269 -0.0603  0.6477  1.4549
 8553SOL    HW237293   2.657   3.706  13.175  1.1447 -1.3297  0.1787
 8554SOL     OW37294   1.985   1.563   7.429  0.1256 -0.1910  0.3293
 8554SOL    HW137295   2.060   1.606   7.470 -1.0832  0.5222  1.8314
 8554SOL    HW237296   1.915   1.578   7.493  0.9811  0.3000  1.1534
 8555SOL     OW37297   3.704   2.661   4.293  0.3690  0.5618 -0.0847
 8555SOL    HW137298   3.661   2.680   4.210 -0.0933  0.6552  0.1730
 8555SOL    HW237299   3.788   2.703   4.273  0.7651  0.2645  0.9458
 8556SOL     OW37300   0.440   0.873  11.513 -0.3290  0.5299 -0.2011
 8556SOL    HW137301   0.480   0.921  11.440  2.0257 -0.0084  0.7492
 8556SOL    HW237302   0.368   0.934  11.529  0.0135  1.0333 -0.5348
 8557SOL     OW37303   0.155   0.679   6.967  0.4650  0.6431 -0.4915
 8557SOL    HW137304   0.140   0.756   6.912  0.5941 -0.3518 -1.9251
 8557SOL    HW237305   0.224   0.637   6.915  1.3736  1.0926  0.3720
 8558SOL     OW37306   4.160   0.429   2.288 -0.2422 -0.1093 -0.0499
 8558SOL    HW137307   4.109   0.397   2.213  1.0763 -2.0471 -0.1476
 8558SOL    HW237308   4.204   0.500   2.241 -0.7064  1.7954  2.4381
 8559SOL     OW37309   0.344   1.490   2.242 -0.3988  0.2990 -0.3796
 8559SOL    HW137310   0.335   1.537   2.325  1.4877  0.6428 -0.3668
 8559SOL    HW237311   0.315   1.556   2.179 -1.4738  1.2927  1.1867
 8560SOL     OW37312   4.263   1.829   4.944  0.2762 -0.1793  0.0706
 8560SOL    HW137313   4.289   1.737   4.949  1.8378  0.2497 -0.1480
 8560SOL    HW237314   4.337   1.867   4.992 -1.5307  2.0469  1.0895
 8561SOL     OW37315   1.179   4.043   9.402 -0.2290  0.0389 -0.0258
 8561SOL    HW137316   1.193   3.955   9.438  0.7391 -0.2753 -1.1808
 8561SOL    HW237317   1.130   4.018   9.324  0.4265  2.0914 -1.0765
 8562SOL     OW37318   3.344   1.298   8.722  0.1175  0.1506 -0.4631
 8562SOL    HW137319   3.344   1.226   8.784  0.0365 -0.9107 -1.6921
 8562SOL    HW237320   3.429   1.292   8.678  0.5521  0.8508  0.2757
 8563SOL     OW37321   1.795   4.708   7.545 -0.0782  0.9665 -0.4806
 8563SOL    HW137322   1.808   0.041   7.605 -1.1166  0.8844 -0.1687
 8563SOL    HW237323   1.879   4.664   7.562 -0.8909  0.6883  2.7576
 8564SOL     OW37324   1.142   1.830   4.272  0.0428 -0.2511  0.5126
 8564SOL    HW137325   1.233   1.802   4.273 -0.2645 -1.2094  1.5186
 8564SOL    HW237326   1.133   1.901   4.335 -0.9748 -1.4367  1.7152
 8565SOL     OW37327   1.143   2.906   7.620  0.3732  0.2157 -0.6693
 8565SOL    HW137328   1.104   2.924   7.706  0.4273  1.1935 -0.8476
 8565SOL    HW237329   1.236   2.926   7.627  0.1957  0.3211  1.4639
 8566SOL     OW37330   1.009   0.873   9.769 -0.1993  0.5104 -0.0851
 8566SOL    HW137331   1.077   0.859   9.834 -1.2810 -1.1566  0.7031
 8566SOL    HW237332   1.050   0.844   9.687 -2.5656  0.0540 -1.1151
 8567SOL     OW37333   2.947   0.505  13.213 -0.4796 -0.0477  0.1512
 8567SOL    HW137334   2.977   0.471  13.129  1.6373  0.1106  0.8524
 8567SOL    HW237335   2.860   0.532  13.184  0.8379  4.0403  0.0606
 8568SOL     OW37336   2.247   3.718   2.255 -0.3111  0.6867 -0.7444
 8568SOL    HW137337   2.243   3.753   2.344  1.5735  0.3400 -0.5257
 8568SOL    HW237338   2.340   3.703   2.239  0.1383  2.7590 -0.1285
 8569SOL     OW37339   2.916   1.080   7.779 -0.1155 -1.4549 -0.2623
 8569SOL    HW137340   2.860   1.044   7.710  0.0190  1.1602 -1.7625
 8569SOL    HW237341   2.850   1.125   7.833 -0.1698 -0.4644 -1.1465
 8570SOL     OW37342   2.400   2.159  17.397  0.3995 -0.1122 -0.5983
 8570SOL    HW137343   2.321   2.159  17.451  1.7321 -0.4676  1.4003
 8570SOL    HW237344   2.375   2.202  17.316 -0.8142  0.9532  0.3407
 8571SOL     OW37345   2.775   1.125  13.416  0.2640 -0.0993 -0.4750
 8571SOL    HW137346   2.815   1.104  13.332  0.3938  1.2531 -0.7555
 8571SOL    HW237347   2.855   1.115  13.466 -0.3187  0.9206  0.6612
 8572SOL     OW37348   0.845   0.693   9.452 -0.5933 -0.0860  0.5329
 8572SOL    HW137349   0.756   0.696   9.416  0.1183  1.3955 -1.1387
 8572SOL    HW237350   0.865   0.605   9.420  0.9843  0.3083  0.4250
 8573SOL     OW37351   2.123   0.482   8.015  0.4529 -0.6350 -0.1246
 8573SOL    HW137352   2.116   0.424   7.939 -3.5383 -0.5220  0.1402
 8573SOL    HW237353   2.154   0.421   8.082  3.9114 -0.0519 -1.1668
 8574SOL     OW37354   3.390   2.548   1.689 -0.4209  0.0000  0.4603
 8574SOL    HW137355   3.460   2.506   1.739  0.5991  0.4237 -0.5985
 8574SOL    HW237356   3.314   2.531   1.745 -0.1580 -0.8539  0.5430
 8575SOL     OW37357   4.047   0.277   5.126  0.1744 -0.5503  0.3065
 8575SOL    HW137358   4.006   0.191   5.126  1.5966 -1.2429 -2.6283
 8575SOL    HW237359   3.982   0.334   5.168  0.0702  0.2186 -0.8805
 8576SOL     OW37360   2.773   4.336   7.887 -0.3967 -0.2386 -0.6786
 8576SOL    HW137361   2.822   4.280   7.947 -0.8630  0.5179  0.4062
 8576SOL    HW237362   2.761   4.269   7.819 -1.0031 -2.3975  1.5515
 8577SOL     OW37363   0.685   1.776   8.705  0.1523  0.3555  0.3956
 8577SOL    HW137364   0.657   1.844   8.645 -0.7626  0.0827  0.5135
 8577SOL    HW237365   0.661   1.818   8.788  0.2110  0.7991  0.1863
 8578SOL     OW37366   3.182   3.734   8.507  0.7634  0.5019  0.7000
 8578SOL    HW137367   3.250   3.705   8.568 -1.0862 -2.3809  1.4301
 8578SOL    HW237368   3.206   3.823   8.481 -0.3501  1.0962  1.6839
 8579SOL     OW37369   3.832   2.145   1.171 -0.7458  0.1495  0.2312
 8579SOL    HW137370   3.805   2.057   1.144  0.9832  0.2048 -1.7118
 8579SOL    HW237371   3.766   2.174   1.234 -2.2323 -0.6190 -0.9675
 8580SOL     OW37372   3.174   2.288  10.446 -0.2683 -0.1343  0.2071
 8580SOL    HW137373   3.089   2.329  10.427 -0.2849 -0.4199 -0.3125
 8580SOL    HW237374   3.145   2.197  10.443  1.8380 -0.7486 -0.8635
 8581SOL     OW37375   2.398   0.407   7.867  0.1345  0.2636  0.2573
 8581SOL    HW137376   2.373   0.472   7.801  1.2159  0.9057  0.4858
 8581SOL    HW237377   2.375   0.450   7.949  1.4534 -1.0935  1.3406
 8582SOL     OW37378   3.928   0.484   6.667  0.4096  0.3492  0.1053
 8582SOL    HW137379   4.000   0.529   6.622 -1.0066 -0.9161 -3.3455
 8582SOL    HW237380   3.962   0.483   6.757 -0.9891  1.8591  0.6545
 8583SOL     OW37381   3.711   3.585   7.243 -0.3332 -0.4851  0.0619
 8583SOL    HW137382   3.803   3.611   7.251 -0.3767 -0.4793  0.5729
 8583SOL    HW237383   3.717   3.512   7.305  1.2081 -0.2640  0.1703
 8584SOL     OW37384   3.439   1.741   4.493 -0.4253 -0.2414  0.2478
 8584SOL    HW137385   3.521   1.696   4.475 -0.3939 -0.7509  1.6462
 8584SOL    HW237386   3.439   1.819   4.438  1.4508 -1.2577 -1.1742
 8585SOL     OW37387   2.433   3.173  17.143  0.0609 -0.0352  0.0017
 8585SOL    HW137388   2.369   3.107  17.118  0.5699  0.0946 -1.6511
 8585SOL    HW237389   2.442   3.195  17.050 -0.9795  2.4098  0.4934
 8586SOL     OW37390   0.011   3.982   9.439 -0.6204 -0.1068  0.5709
 8586SOL    HW137391   0.076   3.983   9.509 -1.6901  1.1820  1.5587
 8586SOL    HW237392   4.688   3.914   9.461 -0.1386 -0.9193 -0.5634
 8587SOL     OW37393   1.087   0.907   7.413 -0.1239  0.4932  0.6132
 8587SOL    HW137394   1.045   0.990   7.394  0.8250  1.0005  0.7508
 8587SOL    HW237395   1.154   0.942   7.471 -0.8964  1.5407  0.8615
 8588SOL     OW37396   3.050   4.382   1.939  0.0527 -0.0918 -0.5225
 8588SOL    HW137397   3.040   4.348   1.851  0.5695 -4.3781  1.0734
 8588SOL    HW237398   3.136   4.414   1.912  1.1475 -3.6468 -1.1717
 8589SOL     OW37399   2.074   1.736   4.736  0.2354  0.2644  0.3540
 8589SOL    HW137400   2.047   1.774   4.820 -1.1573 -1.2088  0.5828
 8589SOL    HW237401   2.166   1.759   4.742  0.3479  0.0259 -0.4681
 8590SOL     OW37402   0.214   3.129   3.194 -0.1951 -0.1874  0.5177
 8590SOL    HW137403   0.155   3.123   3.119  0.6578 -1.0367 -0.0831
 8590SOL    HW237404   0.275   3.192   3.155 -1.1542 -1.5573 -3.2783
 8591SOL     OW37405   3.437   2.033   9.704  0.1752 -0.3764  0.0852
 8591SOL    HW137406   3.449   2.092   9.630  1.2586  1.5494  1.8341
 8591SOL    HW237407   3.396   2.094   9.765  1.6108 -1.3129  1.9668
 8592SOL     OW37408   0.012   2.627   2.471 -0.2004 -0.3695 -0.3141
 8592SOL    HW137409   4.729   2.705   2.522  2.3516  0.5359 -0.5526
 8592SOL    HW237410   0.099   2.605   2.505 -0.7826 -1.9163  0.1764
 8593SOL     OW37411   3.886   2.089   0.610 -0.4443 -0.5319  0.7639
 8593SOL    HW137412   3.858   2.169   0.566  2.8770 -0.0330 -0.4175
 8593SOL    HW237413   3.822   2.033   0.566 -2.0458  1.3467  0.6644
 8594SOL     OW37414   3.048   0.702   4.910 -0.4742  0.3702  0.3838
 8594SOL    HW137415   3.087   0.789   4.916  0.2520 -0.0985  2.4835
 8594SOL    HW237416   3.106   0.646   4.961  1.1313  0.4362 -1.4132
 8595SOL     OW37417   3.970   2.219   7.910 -0.1797  0.4081  0.0894
 8595SOL    HW137418   3.921   2.296   7.937  1.3073  2.1075 -2.0765
 8595SOL    HW237419   3.942   2.209   7.820  0.0356  0.2540  0.0382
 8596SOL     OW37420   4.070   0.389   0.430  0.1304  0.2995 -0.2139
 8596SOL    HW137421   4.149   0.432   0.398  0.5420 -0.4655 -0.2405
 8596SOL    HW237422   4.075   0.313   0.372 -1.3373 -0.0069  0.0654
 8597SOL     OW37423   1.043   3.211  11.970  0.2819  0.0769  0.1050
 8597SOL    HW137424   0.952   3.185  11.962  0.0482  0.5873  1.1527
 8597SOL    HW237425   1.045   3.296  11.925 -0.1150  0.2483  0.4110
 8598SOL     OW37426   2.301   3.525   6.143 -0.1858  0.4453  0.5228
 8598SOL    HW137427   2.214   3.527   6.183 -0.9127  0.3074 -1.0276
 8598SOL    HW237428   2.307   3.429   6.140 -1.1326  0.3302  2.5129
 8599SOL     OW37429   4.394   0.983  12.708  0.3362 -0.3922 -0.8775
 8599SOL    HW137430   4.303   0.957  12.723  0.8160  0.2303  3.0840
 8599SOL    HW237431   4.426   0.965  12.796 -0.4600 -2.7204 -1.0473
 8600SOL     OW37432   4.159   0.238   2.977 -0.2077 -0.2730 -0.1094
 8600SOL    HW137433   4.251   0.255   2.998  0.4686 -2.8857 -0.9947
 8600SOL    HW237434   4.164   0.160   2.923  1.8003  0.6358 -1.2719
 8601SOL     OW37435   3.119   0.066   8.420  0.3513 -0.4590 -0.3582
 8601SOL    HW137436   3.087   0.033   8.504  0.2520  1.1554  0.2528
 8601SOL    HW237437   3.050   0.037   8.361  0.8706 -0.3618 -1.0135
 8602SOL     OW37438   3.147   1.561  11.992  0.2693 -0.1758 -0.1097
 8602SOL    HW137439   3.198   1.484  11.966  1.0425  0.5190 -0.6311
 8602SOL    HW237440   3.190   1.575  12.076 -1.0642 -4.2662  1.2498
 8603SOL     OW37441   2.635   1.941   7.721 -0.2882  0.2803  0.0680
 8603SOL    HW137442   2.726   1.961   7.699 -0.6920  1.8040 -0.1559
 8603SOL    HW237443   2.622   2.004   7.792  0.0803  1.5999 -1.0476
 8604SOL     OW37444   2.115   2.143   1.516 -0.4100 -0.3918  0.4414
 8604SOL    HW137445   2.154   2.229   1.503  0.5394 -1.0937 -1.3313
 8604SOL    HW237446   2.176   2.106   1.581  0.7430  0.4520 -0.1550
 8605SOL     OW37447   2.079   4.234   6.474 -0.5519 -0.0613 -0.1158
 8605SOL    HW137448   2.116   4.182   6.546 -1.0108  0.3356  0.3986
 8605SOL    HW237449   2.123   4.318   6.485  0.4415 -0.5448 -0.3177
 8606SOL     OW37450   0.737   2.599  17.703 -0.1870 -0.4992  0.9481
 8606SOL    HW137451   0.642   2.596  17.699 -0.0823 -2.3318  0.0298
 8606SOL    HW237452   0.759   2.506  17.713  0.7273  0.0126  3.7216
 8607SOL     OW37453   1.447   1.623  14.690 -0.0916  0.2608 -0.1668
 8607SOL    HW137454   1.408   1.630  14.777 -0.2960  0.6493 -0.2902
 8607SOL    HW237455   1.381   1.562  14.656  0.5177 -0.1465 -0.6133
 8608SOL     OW37456   3.461   2.797  10.427  0.8717 -0.2195  0.5239
 8608SOL    HW137457   3.425   2.885  10.435  2.0575  0.2732  0.4146
 8608SOL    HW237458   3.453   2.757  10.513 -1.5534  2.7259  1.6707
 8609SOL     OW37459   0.648   1.602   5.693 -0.5380 -0.1539  0.0457
 8609SOL    HW137460   0.671   1.694   5.704 -4.3673  0.8452 -0.2827
 8609SOL    HW237461   0.683   1.581   5.606 -0.8192 -0.9456  0.1240
 8610SOL     OW37462   4.666   3.312   8.223 -0.0485  0.3256  0.0285
 8610SOL    HW137463   4.625   3.229   8.200  0.8010  0.0570 -0.4743
 8610SOL    HW237464   4.618   3.340   8.302  0.0415 -1.1190  0.5974
 8611SOL     OW37465   2.798   3.839   3.489 -0.0378 -0.7084  0.3468
 8611SOL    HW137466   2.854   3.770   3.452  0.0574  0.1690 -1.1412
 8611SOL    HW237467   2.773   3.874   3.404 -0.3148  1.5128  1.3683
 8612SOL     OW37468   3.067   1.226  10.300  0.4017  0.1572  0.2969
 8612SOL    HW137469   3.062   1.272  10.216  2.6659  1.4783  0.8820
 8612SOL    HW237470   2.984   1.178  10.301  0.0015  0.7931 -1.9944
 8613SOL     OW37471   1.882   0.525   7.307 -0.0068 -0.1056  0.1104
 8613SOL    HW137472   1.813   0.502   7.245  0.2049  0.4591 -0.3369
 8613SOL    HW237473   1.954   0.486   7.257 -0.4889  0.7221 -1.2347
 8614SOL     OW37474   4.450   3.492   6.711  0.0102  0.1362  0.1008
 8614SOL    HW137475   4.544   3.483   6.697 -0.5413 -5.8642  0.1563
 8614SOL    HW237476   4.425   3.543   6.634  2.5608 -1.0718 -1.5158
 8615SOL     OW37477   2.870   2.822   9.143  0.4774  0.9571 -0.0292
 8615SOL    HW137478   2.828   2.823   9.056  0.8283  0.8786 -0.1983
 8615SOL    HW237479   2.820   2.769   9.205 -0.9104  0.1737 -1.8069
 8616SOL     OW37480   4.256   0.085  17.098  0.1364  0.1129 -0.8294
 8616SOL    HW137481   4.340   0.039  17.090 -0.2727 -1.0727  1.4817
 8616SOL    HW237482   4.296   0.168  17.125  2.1180 -0.9089 -0.5631
 8617SOL     OW37483   2.112   3.740  16.445 -0.2918  0.5911 -0.1386
 8617SOL    HW137484   2.050   3.813  16.448 -0.7964  0.1695 -0.2862
 8617SOL    HW237485   2.092   3.704  16.359 -2.2622 -0.4596  0.7509
 8618SOL     OW37486   2.372   2.253   6.197 -0.0549  0.4533  0.2513
 8618SOL    HW137487   2.296   2.269   6.141 -0.9884 -2.1648  0.7916
 8618SOL    HW237488   2.399   2.169   6.160  0.6976  0.7912  0.0373
 8619SOL     OW37489   2.043   3.534   8.698  0.3847  0.0521 -0.0469
 8619SOL    HW137490   2.026   3.546   8.791 -0.1956  0.8012 -0.2458
 8619SOL    HW237491   2.129   3.573   8.681  0.8643 -0.1863  1.8451
 8620SOL     OW37492   3.598   2.346   9.044 -0.2320 -0.3037  0.0506
 8620SOL    HW137493   3.522   2.383   8.999 -1.7710 -1.3811  1.7843
 8620SOL    HW237494   3.648   2.428   9.037 -0.8330  0.0793  0.2388
 8621SOL     OW37495   2.111   4.579   4.707  0.5612  0.4247  0.0752
 8621SOL    HW137496   2.087   4.551   4.618 -0.1456 -2.7159  1.2549
 8621SOL    HW237497   2.143   4.669   4.699  0.0617  0.6168  0.2889
 8622SOL     OW37498   2.654   2.196  11.789  0.5539  0.0148  0.0965
 8622SOL    HW137499   2.690   2.223  11.874  0.3877  1.5097 -0.3075
 8622SOL    HW237500   2.733   2.181  11.737  0.0829  2.1402 -1.2299
 8623SOL     OW37501   0.352   2.435   8.791  0.1370 -0.2624 -0.1848
 8623SOL    HW137502   0.431   2.466   8.747  0.4882 -0.4192  0.3402
 8623SOL    HW237503   0.393   2.356   8.826 -0.8757 -0.3592  0.7921
 8624SOL     OW37504   2.018   2.785  16.885  0.5211  0.1788 -0.1434
 8624SOL    HW137505   1.986   2.758  16.971 -0.0635  1.2769 -0.0193
 8624SOL    HW237506   2.025   2.879  16.902  0.0527  0.0728  0.6746
 8625SOL     OW37507   0.973   0.695   6.941  0.2897 -0.1341  0.5588
 8625SOL    HW137508   1.034   0.667   7.009 -1.0824 -2.9506  0.6457
 8625SOL    HW237509   0.942   0.776   6.981  1.4336  0.0485  1.0626
 8626SOL     OW37510   1.861   0.812   2.234 -0.0689 -0.2893 -0.0670
 8626SOL    HW137511   1.862   0.897   2.279  3.3435 -0.7484  0.7516
 8626SOL    HW237512   1.771   0.781   2.245  0.2302 -0.6288  1.5309
 8627SOL     OW37513   3.411   0.573  16.965  0.1772 -0.5168  0.5938
 8627SOL    HW137514   3.394   0.479  16.978 -0.4688 -0.3931  0.6311
 8627SOL    HW237515   3.352   0.602  16.895  1.2862 -1.9277 -0.9364
 8628SOL     OW37516   2.541   0.065   4.206 -0.3628 -0.6343  0.6022
 8628SOL    HW137517   2.602   0.139   4.206 -0.2280 -0.7470 -1.5622
 8628SOL    HW237518   2.517   0.063   4.113  1.0553 -0.7505  0.2408
 8629SOL     OW37519   4.377   0.466   4.329  0.2067  0.1651 -0.1300
 8629SOL    HW137520   4.369   0.479   4.424  0.7539 -0.7814  0.0529
 8629SOL    HW237521   4.439   0.392   4.327 -2.5945 -2.1883  0.0156
 8630SOL     OW37522   2.366   3.312  10.420  0.2715  0.5174 -0.6896
 8630SOL    HW137523   2.377   3.310  10.325 -5.0326  0.9471 -1.3153
 8630SOL    HW237524   2.341   3.399  10.450 -2.2750 -1.0714  1.8113
 8631SOL     OW37525   2.585   3.071  16.044  0.3907 -0.8637  0.7307
 8631SOL    HW137526   2.657   3.131  16.061 -0.8004  1.1543 -1.1991
 8631SOL    HW237527   2.629   2.999  16.000 -0.0391 -0.1038 -0.9876
 8632SOL     OW37528   2.940   4.254   2.958  0.4683  0.3589 -0.1180
 8632SOL    HW137529   2.958   4.347   2.948  0.1054  0.5738  1.2233
 8632SOL    HW237530   3.002   4.237   3.028  1.5970 -0.2944 -1.2755
 8633SOL     OW37531   4.076   4.610  11.514 -0.8235  0.4482  0.2843
 8633SOL    HW137532   4.091   4.633  11.423  0.3719 -2.3125 -0.2036
 8633SOL    HW237533   3.985   4.580  11.510 -1.5304  2.4410  0.9913
 8634SOL     OW37534   0.647   1.489  11.229 -0.0506  0.1066 -0.2374
 8634SOL    HW137535   0.572   1.432  11.248  0.5055 -0.4623  0.3005
 8634SOL    HW237536   0.612   1.575  11.252 -0.5784 -0.0806 -0.3433
 8635SOL     OW37537   3.375   2.431   8.895  0.1139  0.6196 -0.2097
 8635SOL    HW137538   3.327   2.507   8.863  1.1708  0.9524 -0.9865
 8635SOL    HW237539   3.329   2.405   8.975 -1.1278  1.3806 -0.6735
 8636SOL     OW37540   0.383   3.445   0.735 -0.1745 -0.8369 -0.3391
 8636SOL    HW137541   0.468   3.486   0.718  0.0354 -0.9599  0.4366
 8636SOL    HW237542   0.396   3.425   0.827 -0.5227 -0.5509 -0.2270
 8637SOL     OW37543   4.665   1.572   3.833 -0.3086  0.7515 -0.3130
 8637SOL    HW137544   4.609   1.648   3.817 -0.3995  0.6617 -0.4185
 8637SOL    HW237545   4.653   1.565   3.928  1.6576 -0.6690 -0.1786
 8638SOL     OW37546   0.190   4.688   6.296 -0.3894 -0.4371 -0.4120
 8638SOL    HW137547   0.166   0.036   6.264 -0.9487 -0.3205  0.3344
 8638SOL    HW237548   0.223   4.643   6.218 -1.3298 -0.8687 -0.5636
 8639SOL     OW37549   3.614   2.358  10.363 -0.2780 -0.7577 -0.2859
 8639SOL    HW137550   3.581   2.322  10.280 -1.3297  1.3447 -0.7777
 8639SOL    HW237551   3.706   2.370  10.342 -0.9496  3.4065 -0.8321
 8640SOL     OW37552   3.285   2.658   0.887 -0.7273  0.6321  0.0625
 8640SOL    HW137553   3.260   2.658   0.980  1.5226 -4.0239  0.6871
 8640SOL    HW237554   3.219   2.713   0.847 -0.8382 -1.4127 -2.5524
 8641SOL     OW37555   0.943   1.448   3.215 -0.0142 -0.3629 -1.1066
 8641SOL    HW137556   0.963   1.542   3.221  0.1298 -0.6228  1.9900
 8641SOL    HW237557   1.009   1.425   3.149 -0.0302 -2.9676 -0.2084
 8642SOL     OW37558   0.582   4.340   8.508 -0.3487 -0.1108 -0.0340
 8642SOL    HW137559   0.650   4.291   8.461  0.4117 -0.7961  1.7498
 8642SOL    HW237560   0.613   4.337   8.599 -2.2801 -0.4250  0.6072
 8643SOL     OW37561   2.764   4.511   7.409 -0.1489  0.7779 -0.2130
 8643SOL    HW137562   2.755   4.596   7.366 -2.1930  0.1853 -0.9606
 8643SOL    HW237563   2.773   4.458   7.330 -0.8906 -0.3659  0.4699
 8644SOL     OW37564   1.562   3.893  16.354 -0.1490  0.3518  0.2921
 8644SOL    HW137565   1.637   3.836  16.335 -0.4857  0.3322 -1.0196
 8644SOL    HW237566   1.595   3.942  16.429  1.0862  2.2956 -1.5072
 8645SOL     OW37567   2.252   0.252   8.115 -0.1421  0.3227  0.0498
 8645SOL    HW137568   2.338   0.295   8.112 -0.7849  1.6090  0.2119
 8645SOL    HW237569   2.262   0.190   8.187 -0.0422  0.1155 -0.1425
 8646SOL     OW37570   2.534   4.590  10.146  0.0827 -0.1717 -0.0654
 8646SOL    HW137571   2.618   4.570  10.104  0.3090  1.6110 -0.4280
 8646SOL    HW237572   2.490   4.505  10.134  0.5651 -0.5299  0.7305
 8647SOL     OW37573   0.121   3.330   0.726 -0.0861 -0.1816  0.2028
 8647SOL    HW137574   0.212   3.353   0.706 -0.0957  0.3073  0.7405
 8647SOL    HW237575   0.072   3.409   0.704  0.2557  0.4819  1.8220
 8648SOL     OW37576   2.582   1.159  11.198 -0.0428  0.3677  0.2434
 8648SOL    HW137577   2.522   1.112  11.140  2.3020 -2.4038  0.0618
 8648SOL    HW237578   2.637   1.207  11.136 -2.3778 -0.0791 -2.2028
 8649SOL     OW37579   0.265   2.946   4.801  0.1256 -0.5070 -0.5714
 8649SOL    HW137580   0.293   2.855   4.814  0.3393 -0.2360  0.8559
 8649SOL    HW237581   0.198   2.940   4.733 -3.3856 -1.1403  2.9588
 8650SOL     OW37582   1.120   4.049   6.925 -0.6595 -0.2003  0.3550
 8650SOL    HW137583   1.105   4.018   7.015  1.8852 -2.2487  0.0841
 8650SOL    HW237584   1.136   4.140   6.947 -0.6752  0.8294 -3.9533
 8651SOL     OW37585   1.803   2.217   2.839 -0.2147 -0.4658 -0.2466
 8651SOL    HW137586   1.852   2.144   2.803 -0.3026 -0.1752 -0.9574
 8651SOL    HW237587   1.727   2.172   2.875  0.2672  1.2424  2.9110
 8652SOL     OW37588   2.433   4.192   7.633  0.0583  0.1636  0.5724
 8652SOL    HW137589   2.513   4.244   7.632  0.1202 -0.0301 -2.1671
 8652SOL    HW237590   2.406   4.213   7.544 -0.1402 -1.5573  0.2269
 8653SOL     OW37591   0.556   0.739   6.607  0.4852 -0.0137 -0.0380
 8653SOL    HW137592   0.462   0.753   6.595  0.4068 -0.0733  0.4998
 8653SOL    HW237593   0.562   0.797   6.682  1.3244 -1.3579  0.9343
 8654SOL     OW37594   2.380   0.660  17.728 -0.0322 -0.5651  0.0354
 8654SOL    HW137595   2.430   0.616   0.039  0.4642 -1.4345 -0.8921
 8654SOL    HW237596   2.431   0.741  17.725 -2.4222  0.9541  0.4803
 8655SOL     OW37597   0.507   4.732   4.809  0.2245  0.2365 -0.0262
 8655SOL    HW137598   0.547   4.714   4.894  0.2661  1.6534  0.2665
 8655SOL    HW237599   0.492   4.643   4.778 -1.3378  1.4307 -2.6685
 8656SOL     OW37600   3.797   0.582   3.019  0.4965  0.2591  0.0222
 8656SOL    HW137601   3.814   0.488   3.015  0.0740  0.0932  2.2624
 8656SOL    HW237602   3.770   0.595   3.110 -1.0445 -0.9542 -0.2650
 8657SOL     OW37603   4.688   3.840   3.551  0.2419 -0.1291 -0.2307
 8657SOL    HW137604   4.640   3.758   3.535  0.9007 -0.6036  0.2335
 8657SOL    HW237605   4.665   3.874   3.638  1.8567  1.9104 -0.5954
 8658SOL     OW37606   1.604   2.693   9.264  0.1058 -0.4009 -0.1136
 8658SOL    HW137607   1.552   2.751   9.208 -0.5218  0.2123  1.0990
 8658SOL    HW237608   1.581   2.616   9.211 -0.8874 -0.2822  0.1347
 8659SOL     OW37609   2.335   3.558   9.393  0.1710 -0.2820 -0.9367
 8659SOL    HW137610   2.363   3.529   9.480  2.2607  2.1915 -0.7945
 8659SOL    HW237611   2.283   3.480   9.374  0.2872 -0.0822 -2.0676
 8660SOL     OW37612   0.362   4.485   4.957  0.1885  0.4042 -0.3691
 8660SOL    HW137613   0.367   4.550   5.027  1.1759 -1.0381  0.8805
 8660SOL    HW237614   0.454   4.460   4.947 -0.2542 -0.7004 -1.6810
 8661SOL     OW37615   0.762   3.765   5.123  0.0327 -0.2586 -0.0520
 8661SOL    HW137616   0.691   3.700   5.124 -0.2777  0.0328 -2.7304
 8661SOL    HW237617   0.829   3.718   5.172  1.8323  1.0739 -1.2520
 8662SOL     OW37618   0.157   3.294   5.789 -0.0700 -0.0514 -0.4152
 8662SOL    HW137619   0.114   3.312   5.873  1.5557  1.0470  0.1654
 8662SOL    HW237620   0.091   3.237   5.749 -1.8653  0.8269  1.2487
 8663SOL     OW37621   3.023   1.205   4.748 -0.2747 -0.1844 -0.6838
 8663SOL    HW137622   2.960   1.135   4.730  0.7440 -1.4852  0.8624
 8663SOL    HW237623   2.968   1.282   4.730  1.5958  0.7926 -2.2315
 8664SOL     OW37624   0.864   2.473   7.458 -0.0052  0.2130 -0.4028
 8664SOL    HW137625   0.820   2.512   7.383  1.3802  0.1215 -1.2669
 8664SOL    HW237626   0.805   2.401   7.480 -1.5212  1.4985 -0.2559
 8665SOL     OW37627   0.759   3.315   0.380  0.1451 -0.0775 -0.0933
 8665SOL    HW137628   0.778   3.408   0.380 -0.3648  0.0267 -1.9165
 8665SOL    HW237629   0.835   3.274   0.420 -0.5276 -1.2456 -0.0078
 8666SOL     OW37630   4.329   0.156  15.007  0.2288 -0.1355 -0.3877
 8666SOL    HW137631   4.401   0.183  14.949  0.3819  2.3038  0.9465
 8666SOL    HW237632   4.355   0.192  15.092  2.6334 -0.8750 -0.7928
 8667SOL     OW37633   2.221   3.256   1.337  0.4730  0.6654  0.4831
 8667SOL    HW137634   2.126   3.253   1.326  0.8174 -3.0606 -1.4224
 8667SOL    HW237635   2.249   3.165   1.327  1.1950  1.1466 -1.8301
 8668SOL     OW37636   3.451   2.476   8.111  0.8980 -0.1362  0.3097
 8668SOL    HW137637   3.360   2.502   8.098  0.5708 -1.8964 -0.8808
 8668SOL    HW237638   3.459   2.496   8.204  2.8792 -1.2197  0.3657
 8669SOL     OW37639   2.684   1.629   8.862  0.4769  0.1796  0.5343
 8669SOL    HW137640   2.762   1.681   8.844  1.0179 -1.4690 -1.8280
 8669SOL    HW237641   2.680   1.584   8.778  0.0812  2.8217 -0.8234
 8670SOL     OW37642   1.879   1.105   7.784  0.0071  0.0339  0.3157
 8670SOL    HW137643   1.849   1.113   7.875 -0.2257 -1.4853  0.3731
 8670SOL    HW237644   1.801   1.132   7.735 -0.5928 -2.0374  0.1228
 8671SOL     OW37645   1.948   0.904  15.586  0.3069 -0.0791  0.5988
 8671SOL    HW137646   1.977   0.852  15.511 -1.9613  0.2288 -0.4816
 8671SOL    HW237647   1.882   0.848  15.627 -1.5397  1.4832 -0.2462
 8672SOL     OW37648   2.330   0.068  14.619 -0.5700 -0.4099 -0.6815
 8672SOL    HW137649   2.324   0.147  14.673 -0.1819 -0.3652 -0.6971
 8672SOL    HW237650   2.247   0.070  14.572  0.4335  0.8805 -2.4227
 8673SOL     OW37651   1.306   0.742   3.221  0.1994 -0.0863  0.4154
 8673SOL    HW137652   1.288   0.649   3.208 -2.1427  0.0584  2.6395
 8673SOL    HW237653   1.327   0.730   3.313 -0.2641 -0.4568  0.4725
 8674SOL     OW37654   3.034   4.726   6.930  0.1933  0.6400  0.2641
 8674SOL    HW137655   3.023   0.066   6.879 -1.6801 -0.3559 -0.8907
 8674SOL    HW237656   3.125   4.709   6.908 -0.0609 -2.0487  1.1715
 8675SOL     OW37657   1.665   4.369  15.146  0.0627 -0.0280 -0.5209
 8675SOL    HW137658   1.708   4.453  15.163 -1.4536  0.7657 -0.6124
 8675SOL    HW237659   1.644   4.343  15.236 -2.3767 -0.5165 -1.2573
 8676SOL     OW37660   1.682   1.632   6.710  0.3048  0.0420  0.3700
 8676SOL    HW137661   1.734   1.607   6.785  2.0523  3.1600  0.1828
 8676SOL    HW237662   1.758   1.638   6.652 -0.0248 -0.8222 -0.1637
 8677SOL     OW37663   2.357   1.138  14.123 -0.1387  0.3612 -0.7398
 8677SOL    HW137664   2.304   1.172  14.050  0.9933 -1.0196 -2.2102
 8677SOL    HW237665   2.392   1.224  14.145 -2.6388  0.8636  1.2697
 8678SOL     OW37666   2.272   4.206   0.484  0.4865 -0.2030 -0.1799
 8678SOL    HW137667   2.332   4.280   0.486  0.2483  0.0012 -0.5617
 8678SOL    HW237668   2.263   4.208   0.388 -0.4312 -1.2478 -0.1205
 8679SOL     OW37669   2.437   3.553   2.576  0.0536 -0.0292  0.1002
 8679SOL    HW137670   2.439   3.477   2.635 -0.4023  0.3810  0.6486
 8679SOL    HW237671   2.422   3.622   2.640  2.2379  2.3187 -1.9320
 8680SOL     OW37672   1.998   3.804   3.721 -0.6018 -0.1480 -0.2472
 8680SOL    HW137673   2.028   3.713   3.722  1.2268  0.4557 -1.1904
 8680SOL    HW237674   1.994   3.824   3.628 -2.2581  2.2115  0.3205
 8681SOL     OW37675   3.546   1.057   7.953 -0.0869  0.4554  0.1351
 8681SOL    HW137676   3.478   1.115   7.918 -0.4998  0.1887  0.4818
 8681SOL    HW237677   3.499   1.023   8.029 -1.6777  1.8944 -0.1958
 8682SOL     OW37678   0.815   2.831   6.020 -0.2001 -0.3199  0.5024
 8682SOL    HW137679   0.738   2.808   6.072 -0.0037  0.0711  0.9724
 8682SOL    HW237680   0.886   2.787   6.068 -0.6740 -1.7911 -0.1308
 8683SOL     OW37681   2.231   2.335   4.725 -0.3096 -0.4068 -0.2215
 8683SOL    HW137682   2.281   2.276   4.782  0.1695 -1.5171 -1.7885
 8683SOL    HW237683   2.189   2.267   4.673  0.3954 -0.6455 -0.4722
 8684SOL     OW37684   2.717   0.156   8.259  0.0197  0.0248  0.4385
 8684SOL    HW137685   2.731   0.188   8.348  0.6787 -2.4279  1.2230
 8684SOL    HW237686   2.699   0.241   8.219 -1.0255 -1.1618 -1.6455
 8685SOL     OW37687   4.031   2.163  15.866 -0.2284 -0.4463  0.2323
 8685SOL    HW137688   3.991   2.156  15.779  0.9018 -2.1879 -0.1323
 8685SOL    HW237689   3.960   2.147  15.929  0.9346  1.3222  1.9678
 8686SOL     OW37690   1.735   0.912   6.207 -0.2764  0.3457  0.7960
 8686SOL    HW137691   1.769   0.990   6.250  0.6581 -0.7141  2.0141
 8686SOL    HW237692   1.672   0.877   6.270 -1.2407 -1.1276 -0.9569
 8687SOL     OW37693   2.073   3.686   7.617  0.1633  0.0542 -0.2471
 8687SOL    HW137694   2.026   3.630   7.679  1.6776  0.4813  1.2876
 8687SOL    HW237695   2.072   3.623   7.545  1.7687 -0.6824  0.3652
 8688SOL     OW37696   3.780   2.228   6.342  0.1160 -0.2427  0.6239
 8688SOL    HW137697   3.754   2.196   6.428  0.4286  0.1264  0.8502
 8688SOL    HW237698   3.707   2.280   6.309  1.2891  1.4048  0.6365
 8689SOL     OW37699   4.556   1.916   3.476 -0.3959  0.7942  0.0864
 8689SOL    HW137700   4.550   1.821   3.475 -0.3555  0.8004 -0.6758
 8689SOL    HW237701   4.562   1.944   3.384  0.7101  0.3385  0.0232
 8690SOL     OW37702   4.088   2.474   2.928  0.1095 -0.4143  0.0762
 8690SOL    HW137703   4.033   2.413   2.879 -0.5917  0.0209  0.3293
 8690SOL    HW237704   4.168   2.465   2.875 -0.4215  0.1308 -0.8127
 8691SOL     OW37705   4.276   4.111  17.172  0.1229 -0.3929 -0.4365
 8691SOL    HW137706   4.189   4.130  17.207 -0.1820 -2.4851 -0.0138
 8691SOL    HW237707   4.326   4.180  17.214  1.1556 -0.0462 -2.2264
 8692SOL     OW37708   0.565   2.401  13.115 -0.7548 -0.2335 -0.2296
 8692SOL    HW137709   0.634   2.455  13.076 -1.9897  1.9327  0.5633
 8692SOL    HW237710   0.534   2.452  13.190  0.3143  0.6893 -0.4180
 8693SOL     OW37711   2.683   3.539   6.494  0.9107  0.1148  0.6905
 8693SOL    HW137712   2.612   3.573   6.548 -1.1612 -0.6182 -1.5500
 8693SOL    HW237713   2.728   3.618   6.464  1.3699 -0.2221  0.4983
 8694SOL     OW37714   1.944   2.288  11.724 -0.4911  0.2976 -0.4564
 8694SOL    HW137715   1.849   2.295  11.733 -0.3587 -0.7519  1.6178
 8694SOL    HW237716   1.963   2.366  11.776 -0.7048 -0.1185  0.2429
 8695SOL     OW37717   1.389   4.699   3.831  0.2541 -0.2255  0.4190
 8695SOL    HW137718   1.442   4.621   3.820  0.9254  0.0704  1.5764
 8695SOL    HW237719   1.309   4.661   3.867  0.8348 -0.0987  1.8163
 8696SOL     OW37720   0.005   4.158   4.803 -0.3827  0.9086 -0.5219
 8696SOL    HW137721   4.713   4.067   4.801  0.7961  0.5166 -1.6118
 8696SOL    HW237722   0.097   4.139   4.821  0.7514  4.8499 -2.2912
 8697SOL     OW37723   3.917   2.042   5.199 -0.2557  0.0034 -0.7053
 8697SOL    HW137724   3.971   2.061   5.123  0.0113 -0.5937 -0.6671
 8697SOL    HW237725   3.932   2.119   5.252  0.6996 -0.5165 -0.2284
 8698SOL     OW37726   2.369   3.736   7.529  0.1249  0.3978  0.0741
 8698SOL    HW137727   2.331   3.813   7.571  0.4020  0.7172 -0.2744
 8698SOL    HW237728   2.345   3.665   7.589 -0.1834  0.9803  0.6394
 8699SOL     OW37729   0.319   3.477   8.547 -0.3434  0.0986  0.2138
 8699SOL    HW137730   0.342   3.395   8.504 -0.6892  0.9394 -1.5740
 8699SOL    HW237731   0.236   3.454   8.588 -0.4414  1.5437  0.8317
 8700SOL     OW37732   0.983   2.065   5.982 -0.3557 -0.3277 -0.6048
 8700SOL    HW137733   0.927   2.139   5.958  0.8549  1.0593  0.8402
 8700SOL    HW237734   0.930   1.986   5.974 -1.7845  0.6761 -1.0754
 8701SOL     OW37735   1.034   3.099   5.172 -0.7922 -0.1228 -0.7479
 8701SOL    HW137736   1.058   3.190   5.189 -0.1649 -0.3437 -0.4944
 8701SOL    HW237737   1.066   3.059   5.253  2.0031 -0.3701 -1.9905
 8702SOL     OW37738   1.052   2.331  12.600 -0.1360  0.3739  0.2612
 8702SOL    HW137739   1.062   2.278  12.679 -0.4572  1.3561  0.9597
 8702SOL    HW237740   1.110   2.291  12.535 -1.5836 -3.7736  1.5259
 8703SOL     OW37741   0.542   4.348   2.973 -0.3932 -0.2931 -0.1674
 8703SOL    HW137742   0.534   4.362   3.068  1.5911 -0.8698  0.0843
 8703SOL    HW237743   0.456   4.388   2.957 -0.2287 -0.4280 -1.3758
 8704SOL     OW37744   2.468   4.700  13.507  0.1766 -0.0847 -0.6145
 8704SOL    HW137745   2.480   4.608  13.484 -0.5353 -0.3579  0.1044
 8704SOL    HW237746   2.545   4.719  13.561 -2.2041  1.2248  2.2791
 8705SOL     OW37747   4.059   3.191  13.376  0.2146  0.5370  0.0681
 8705SOL    HW137748   4.022   3.252  13.313  0.0664  1.1522  0.7495
 8705SOL    HW237749   4.043   3.232  13.461  0.5952 -2.4133  1.5554
 8706SOL     OW37750   0.095   4.336   3.917  0.0924  0.3833 -0.0090
 8706SOL    HW137751   0.027   4.270   3.932  0.3335  0.1712  0.1563
 8706SOL    HW237752   0.072   4.397   3.988 -3.6033 -1.4921  0.4026
 8707SOL     OW37753   2.724   1.350  13.562  0.2261  0.0915 -0.0298
 8707SOL    HW137754   2.743   1.257  13.547  0.2650  0.2386 -0.8840
 8707SOL    HW237755   2.732   1.389  13.475  3.4606  2.4042  1.3205
 8708SOL     OW37756   4.280   2.652  11.718 -0.3705  0.6534 -0.5159
 8708SOL    HW137757   4.239   2.569  11.740  0.0955  0.6306  0.2940
 8708SOL    HW237758   4.342   2.669  11.789 -0.0329  1.3170 -0.9644
 8709SOL     OW37759   1.922   4.340  16.646  0.3367 -0.8759  0.3995
 8709SOL    HW137760   1.964   4.329  16.560  0.5255  1.3737  0.1945
 8709SOL    HW237761   1.850   4.278  16.642 -2.9818  2.9473  0.1314
 8710SOL     OW37762   0.194   4.658   8.750  0.0047  0.4013  0.4100
 8710SOL    HW137763   0.165   4.574   8.715 -1.3182  1.1497 -0.2473
 8710SOL    HW237764   0.172   4.709   8.673 -1.4796  0.1313  0.6551
 8711SOL     OW37765   3.172   3.825   4.510  0.6190 -0.0795 -0.6820
 8711SOL    HW137766   3.110   3.894   4.488  0.7507  0.6181  1.1593
 8711SOL    HW237767   3.110   3.758   4.537  1.5173  0.0933  1.7996
 8712SOL     OW37768   0.659   4.551   5.236  0.4379 -0.2256 -0.2334
 8712SOL    HW137769   0.644   4.484   5.169 -0.3603 -2.7719  2.4856
 8712SOL    HW237770   0.643   4.636   5.193 -0.5359 -1.7046 -2.8119
 8713SOL     OW37771   0.687   0.240   4.403  0.1465 -0.5233 -0.6751
 8713SOL    HW137772   0.689   0.155   4.446 -1.5195 -0.7866 -1.1249
 8713SOL    HW237773   0.593   0.254   4.411  0.2982  0.2496 -0.1788
 8714SOL     OW37774   1.688   4.587   2.709 -0.2674 -0.4063 -0.0357
 8714SOL    HW137775   1.743   4.572   2.632  0.3817  0.6882  0.2315
 8714SOL    HW237776   1.744   4.646   2.758  0.4243  0.2772 -1.6430
 8715SOL     OW37777   2.721   3.117   9.340  0.3822 -0.9045  0.1209
 8715SOL    HW137778   2.694   3.025   9.333 -1.3580 -0.4811  1.3793
 8715SOL    HW237779   2.740   3.149   9.252 -1.0452 -0.7319 -0.1254
 8716SOL     OW37780   2.469   0.594   1.823  0.0501 -0.1695 -0.0614
 8716SOL    HW137781   2.444   0.523   1.882  2.9536 -0.6245  0.6014
 8716SOL    HW237782   2.511   0.660   1.878  1.1455  0.6678 -1.9064
 8717SOL     OW37783   3.099   1.048   5.254  0.1291  0.4352  0.7422
 8717SOL    HW137784   3.054   0.965   5.247 -1.5864  1.2118  2.5901
 8717SOL    HW237785   3.077   1.089   5.170  2.3205 -1.2731 -0.6496
 8718SOL     OW37786   2.190   1.794   6.778 -0.1961 -0.5565 -0.3218
 8718SOL    HW137787   2.100   1.773   6.752 -0.7902  1.6536 -0.0924
 8718SOL    HW237788   2.220   1.844   6.702 -1.8548 -1.6469 -1.6910
 8719SOL     OW37789   1.779   0.292   3.762  0.2052  0.1527 -0.2451
 8719SOL    HW137790   1.709   0.230   3.742 -1.3669  2.7183 -2.7130
 8719SOL    HW237791   1.743   0.335   3.839 -0.8575 -1.4079  0.1255
 8720SOL     OW37792   2.612   2.465   8.541 -0.2182 -0.1320  0.0726
 8720SOL    HW137793   2.596   2.452   8.448  0.3856 -1.9386  0.2172
 8720SOL    HW237794   2.671   2.393   8.563 -0.0866 -0.1729 -0.4316
 8721SOL     OW37795   0.690   2.999   6.349  0.3369  0.3037 -0.6572
 8721SOL    HW137796   0.690   2.905   6.336  0.4042  0.5141 -2.2471
 8721SOL    HW237797   0.605   3.014   6.307  0.1714  1.8004  0.2114
 8722SOL     OW37798   3.109   3.568  13.997 -0.1495  0.7358  0.1702
 8722SOL    HW137799   3.024   3.610  14.010 -0.1254  0.5034  1.1275
 8722SOL    HW237800   3.127   3.589  13.906 -0.6821  2.4470  0.4635
 8723SOL     OW37801   0.110   4.030  10.957  0.0647  0.0913  0.0640
 8723SOL    HW137802   0.104   3.941  10.922 -0.7715  0.2148 -0.1006
 8723SOL    HW237803   0.123   4.006  11.049 -0.5133 -1.1453 -0.1730
 8724SOL     OW37804   3.410   3.815   8.869 -0.0389 -0.2161  0.3426
 8724SOL    HW137805   3.373   3.813   8.958  0.6004  0.6631  0.6288
 8724SOL    HW237806   3.504   3.817   8.888  0.4449  0.0349 -2.1056
 8725SOL     OW37807   4.047   1.209   6.129 -0.2773 -0.7409  0.4451
 8725SOL    HW137808   4.012   1.223   6.041 -3.1067 -3.6982  1.1057
 8725SOL    HW237809   3.969   1.231   6.180 -0.5666  0.7432 -0.6450
 8726SOL     OW37810   1.806   4.633  16.351 -0.5035  0.1294  0.5922
 8726SOL    HW137811   1.721   4.676  16.362  0.0141  1.1074  0.8212
 8726SOL    HW237812   1.774   4.543  16.352 -0.0353 -0.0167  2.5566
 8727SOL     OW37813   4.572   0.900  15.102 -0.5996 -0.0902  0.0399
 8727SOL    HW137814   4.477   0.887  15.106 -0.9512  1.1319 -3.7861
 8727SOL    HW237815   4.566   0.954  15.023  0.1085  0.1983  0.1853
 8728SOL     OW37816   0.573   1.500   8.949  0.0401  0.4205 -0.1826
 8728SOL    HW137817   0.590   1.432   9.014 -0.2740  0.2440 -0.2808
 8728SOL    HW237818   0.614   1.573   8.995  1.4944  0.5755 -1.7474
 8729SOL     OW37819   1.235   3.058   6.464 -0.4897 -0.0234  0.5469
 8729SOL    HW137820   1.222   3.057   6.559 -4.5268  0.0475 -0.0142
 8729SOL    HW237821   1.204   2.972   6.437  0.4407 -1.0101  2.6254
 8730SOL     OW37822   1.484   1.020   7.770 -0.1103  0.2886 -0.4627
 8730SOL    HW137823   1.540   1.053   7.839 -0.4616 -1.7284  0.7782
 8730SOL    HW237824   1.463   0.939   7.817 -2.3212  1.8526  1.2689
 8731SOL     OW37825   2.347   1.704  16.600 -0.2426 -0.2732  0.1718
 8731SOL    HW137826   2.284   1.656  16.653 -2.1354  1.7968 -0.1872
 8731SOL    HW237827   2.369   1.778  16.657  1.0114 -0.1023 -0.5225
 8732SOL     OW37828   4.010   0.647   3.885  0.0037 -0.1210  0.0805
 8732SOL    HW137829   4.074   0.718   3.877 -1.9844  1.6310 -0.1206
 8732SOL    HW237830   3.933   0.674   3.836  0.1086 -1.7563 -1.0027
 8733SOL     OW37831   3.869   0.376  14.102  0.0293 -0.5927  0.2180
 8733SOL    HW137832   3.903   0.298  14.145  0.7750  0.0376  0.7750
 8733SOL    HW237833   3.793   0.338  14.058 -0.7149 -0.2175  1.2069
 8734SOL     OW37834   2.870   0.792   0.736 -0.1377  0.1670  0.2013
 8734SOL    HW137835   2.960   0.824   0.739 -0.3818  0.5761  2.5430
 8734SOL    HW237836   2.834   0.852   0.670 -2.7025 -0.2234  1.2159
 8735SOL     OW37837   0.431   4.163   9.638  0.2944  0.5702  0.3047
 8735SOL    HW137838   0.337   4.179   9.649  0.3932  0.5886  1.1542
 8735SOL    HW237839   0.458   4.090   9.694  0.2602 -0.5773 -1.1648
 8736SOL     OW37840   4.234   4.682   3.832 -0.0685 -0.0167 -0.7699
 8736SOL    HW137841   4.309   4.729   3.871 -0.4351  0.2256 -0.3604
 8736SOL    HW237842   4.222   4.722   3.746 -1.6338  0.2319 -0.4234
 8737SOL     OW37843   1.918   3.221  15.159 -0.7235  0.2509  0.0738
 8737SOL    HW137844   1.890   3.274  15.233 -1.1784 -1.3773  1.0628
 8737SOL    HW237845   1.849   3.238  15.094 -0.1677 -0.9033 -0.8286
 8738SOL     OW37846   3.692   0.523  12.656  0.2514 -0.1046 -0.5888
 8738SOL    HW137847   3.671   0.549  12.567 -2.0396 -2.5994 -0.7952
 8738SOL    HW237848   3.606   0.490  12.684 -0.2219  2.7718  1.3598
 8739SOL     OW37849   3.094   2.263   1.933  0.4387 -0.9014 -0.9038
 8739SOL    HW137850   3.170   2.274   1.990 -0.6817 -0.8152  0.5649
 8739SOL    HW237851   3.036   2.204   1.982 -0.6835  0.0685 -1.0745
 8740SOL     OW37852   0.964   3.572   5.631 -0.1786  0.4142  0.7169
 8740SOL    HW137853   1.037   3.587   5.691 -1.0043  2.9085  1.0919
 8740SOL    HW237854   0.935   3.485   5.660  0.7707  0.2265  1.1093
 8741SOL     OW37855   0.194   4.469   6.446 -0.6974  0.2632 -0.1860
 8741SOL    HW137856   0.177   4.553   6.403 -0.3582  0.1160 -0.6040
 8741SOL    HW237857   0.213   4.414   6.370 -2.3515 -1.9864  1.0134
 8742SOL     OW37858   3.337   3.169   5.888  0.3943  0.3063  0.4662
 8742SOL    HW137859   3.419   3.120   5.876  0.1932  0.3753 -1.1001
 8742SOL    HW237860   3.291   3.148   5.807  1.5325 -1.5425  0.2820
 8743SOL     OW37861   1.660   4.630   4.610 -0.4345  0.4408  0.4861
 8743SOL    HW137862   1.641   4.540   4.638 -2.6944  1.2312  1.5096
 8743SOL    HW237863   1.635   4.681   4.687  1.1363  1.2692  0.4502
 8744SOL     OW37864   2.646   4.494   2.548  0.0064  0.2259  0.7029
 8744SOL    HW137865   2.722   4.458   2.502 -0.8366 -0.3774 -0.1929
 8744SOL    HW237866   2.681   4.478   2.636  0.6179 -1.6791  0.1067
 8745SOL     OW37867   1.522   3.888  15.586 -0.0397  0.2574 -0.6830
 8745SOL    HW137868   1.592   3.826  15.609 -0.3005  0.4689  0.7084
 8745SOL    HW237869   1.465   3.819  15.553  2.1224 -2.6745  1.7138
 8746SOL     OW37870   0.444   1.092   1.491  0.2450 -0.3956 -0.2802
 8746SOL    HW137871   0.505   1.022   1.466 -1.7965 -2.1759 -0.2842
 8746SOL    HW237872   0.498   1.171   1.498  0.7870 -0.9580  1.8522
 8747SOL     OW37873   4.161   1.630   7.891  0.0126 -0.2510  0.0922
 8747SOL    HW137874   4.146   1.684   7.813 -0.2983  0.9265  0.9738
 8747SOL    HW237875   4.199   1.550   7.855  0.0805  0.5640 -1.6481
 8748SOL     OW37876   0.262   3.274   9.521  0.0060 -0.0576  0.2518
 8748SOL    HW137877   0.296   3.197   9.566 -0.8686 -0.9924 -0.7019
 8748SOL    HW237878   0.337   3.290   9.465 -1.0945  0.7388 -1.0118
 8749SOL     OW37879   2.720   4.210   6.078  0.0958 -0.1621  0.1437
 8749SOL    HW137880   2.705   4.153   6.003  1.6957  1.4168 -1.3732
 8749SOL    HW237881   2.666   4.182   6.152  0.4081 -0.8371  0.1192
 8750SOL     OW37882   1.043   2.833  11.910 -0.5763 -0.0937 -0.1196
 8750SOL    HW137883   1.110   2.774  11.876 -1.9148 -0.9865 -1.1879
 8750SOL    HW237884   1.062   2.920  11.873 -2.0961  0.7155  1.0399
 8751SOL     OW37885   1.921   2.479   6.127  0.0738 -0.7704  0.3249
 8751SOL    HW137886   1.943   2.566   6.095 -3.3301 -0.1905 -0.5060
 8751SOL    HW237887   1.856   2.445   6.065 -1.0784  0.5681  0.7942
 8752SOL     OW37888   2.686   0.645   9.197  0.0399  0.0041 -0.3956
 8752SOL    HW137889   2.593   0.625   9.196 -0.0395  0.3791 -0.5995
 8752SOL    HW237890   2.727   0.559   9.203 -1.8755 -0.8307  0.5352
 8753SOL     OW37891   0.863   2.691  10.293 -0.1072  0.0167 -0.3507
 8753SOL    HW137892   0.948   2.670  10.254 -0.6856  0.1512 -1.6765
 8753SOL    HW237893   0.891   2.719  10.380 -1.2684  0.3387 -0.0788
 8754SOL     OW37894   3.692   0.598   6.843 -0.0114 -0.0336 -0.1171
 8754SOL    HW137895   3.706   0.505   6.858  1.1983  0.0541 -0.6749
 8754SOL    HW237896   3.661   0.634   6.926  0.2667 -1.5456  0.6408
 8755SOL     OW37897   4.701   2.462   6.874  0.7274 -0.2488 -0.1607
 8755SOL    HW137898   4.721   2.374   6.842 -1.3999 -0.6930 -0.2460
 8755SOL    HW237899   4.680   2.514   6.797 -0.1341  0.9703  0.8859
 8756SOL     OW37900   3.302   3.901   2.933  0.0247 -0.1484  0.0585
 8756SOL    HW137901   3.212   3.906   2.964 -0.9408 -3.0119 -2.2809
 8756SOL    HW237902   3.319   3.808   2.919 -1.6619 -0.2558 -1.2622
 8757SOL     OW37903   2.778   4.134   7.430  0.0858 -0.1683 -0.0626
 8757SOL    HW137904   2.738   4.054   7.399  2.1492 -0.5469 -1.7356
 8757SOL    HW237905   2.870   4.124   7.407  1.2337  4.5431  2.5216
 8758SOL     OW37906   0.517   2.175   7.646  0.5906  0.2156  0.0681
 8758SOL    HW137907   0.531   2.111   7.716 -2.1159 -0.7358 -0.2414
 8758SOL    HW237908   0.438   2.221   7.676 -0.1262 -0.8570 -0.1734
 8759SOL     OW37909   0.434   1.364   3.535  0.6044  0.4085  0.1536
 8759SOL    HW137910   0.351   1.335   3.574  1.2351 -1.9525 -0.2831
 8759SOL    HW237911   0.505   1.305   3.560 -1.8986 -2.4998  0.4578
 8760SOL     OW37912   0.105   2.575   8.459  0.1906  0.2578  0.2308
 8760SOL    HW137913   0.118   2.607   8.369 -2.4781 -0.2429 -0.3434
 8760SOL    HW237914   0.010   2.568   8.463  0.1959 -0.3896 -0.5566
 8761SOL     OW37915   3.600   3.656   4.847 -0.0824 -0.3876  0.1743
 8761SOL    HW137916   3.544   3.715   4.796 -0.4434  0.0391  1.0567
 8761SOL    HW237917   3.658   3.609   4.787 -0.4439  0.4474 -0.8327
 8762SOL     OW37918   0.307   2.295   3.300 -0.1651 -0.4544 -0.2259
 8762SOL    HW137919   0.302   2.217   3.244 -2.2390 -0.1609 -0.4413
 8762SOL    HW237920   0.253   2.354   3.248 -2.0368 -0.8531  1.2854
 8763SOL     OW37921   2.162   4.369   3.575  0.1311  0.5606 -0.2524
 8763SOL    HW137922   2.087   4.413   3.535  0.8910  1.2009 -0.9799
 8763SOL    HW237923   2.203   4.318   3.505  1.5891  0.4863  0.6477
 8764SOL     OW37924   0.292   1.309   9.821 -0.0288  0.3392 -0.3201
 8764SOL    HW137925   0.362   1.337   9.762  1.5417 -1.8193  0.5294
 8764SOL    HW237926   0.287   1.214   9.816 -0.9645  0.4273 -1.0479
 8765SOL     OW37927   2.089   1.976   6.388  0.2927  0.2777 -0.1020
 8765SOL    HW137928   2.069   2.056   6.436  1.9788 -0.6589  2.2389
 8765SOL    HW237929   2.087   1.994   6.294  0.7132  0.6933 -0.0339
 8766SOL     OW37930   0.555   0.142   5.705 -0.2051 -0.3584 -0.0800
 8766SOL    HW137931   0.579   0.058   5.745  1.4708  0.8177  1.3961
 8766SOL    HW237932   0.551   0.202   5.780  2.1469 -0.8748  0.4551
 8767SOL     OW37933   2.468   0.704   3.398  0.0518  0.4935  0.7412
 8767SOL    HW137934   2.470   0.767   3.469 -0.4883  0.9259  0.3677
 8767SOL    HW237935   2.522   0.749   3.333 -1.0816  3.2812  1.7240
 8768SOL     OW37936   2.568   0.410   4.334 -0.0469 -0.0402  0.2041
 8768SOL    HW137937   2.635   0.343   4.352  0.5604 -0.2692 -2.9019
 8768SOL    HW237938   2.562   0.458   4.417 -0.9830  0.7219 -0.3026
 8769SOL     OW37939   0.959   4.420   0.580  0.1547 -0.1558  0.1132
 8769SOL    HW137940   0.868   4.436   0.606  0.5240  0.9203  0.7562
 8769SOL    HW237941   0.955   4.333   0.541 -0.9942  0.1740 -0.4975
 8770SOL     OW37942   0.263   1.993   4.916 -0.3169  0.4251  0.1407
 8770SOL    HW137943   0.332   2.021   4.857  0.9438 -0.7135  1.0681
 8770SOL    HW237944   0.295   1.990   5.006 -0.7543 -1.2760  0.2404
 8771SOL     OW37945   2.240   2.174  15.103 -0.3327  0.5410 -0.4185
 8771SOL    HW137946   2.261   2.195  15.012 -0.8283 -0.4788 -0.7662
 8771SOL    HW237947   2.291   2.095  15.122 -0.6392 -0.1281 -2.3587
 8772SOL     OW37948   0.580   1.406   3.854  0.4449  1.0686 -0.4228
 8772SOL    HW137949   0.553   1.478   3.911 -0.6364 -0.2762  0.7897
 8772SOL    HW237950   0.639   1.448   3.792 -0.1370  0.7464 -1.1900
 8773SOL     OW37951   2.421   0.194   7.146  0.0227  0.0926  0.2848
 8773SOL    HW137952   2.516   0.193   7.136  0.0840  1.4052  0.7970
 8773SOL    HW237953   2.410   0.253   7.220  0.4821 -1.0842  1.2815
 8774SOL     OW37954   0.619   3.166  15.539 -0.0330  0.2303  0.1393
 8774SOL    HW137955   0.585   3.147  15.627 -0.8999  1.2476  0.0304
 8774SOL    HW237956   0.541   3.174  15.484 -0.1046 -0.2869  0.1681
 8775SOL     OW37957   4.465   2.333  13.441 -0.4104 -0.1404  0.0051
 8775SOL    HW137958   4.384   2.330  13.391 -0.0096 -0.6325 -0.6232
 8775SOL    HW237959   4.433   2.407  13.491  0.4126  0.2738 -0.0683
 8776SOL     OW37960   0.342   1.225   5.408  0.2830  0.0014 -0.1386
 8776SOL    HW137961   0.374   1.269   5.486  1.2788 -1.4742  0.2857
 8776SOL    HW237962   0.391   1.267   5.337 -1.5413  2.4527  0.0556
 8777SOL     OW37963   4.346   4.706  12.246  0.4687  0.0886  0.4242
 8777SOL    HW137964   4.387   4.716  12.332 -1.5411 -1.2819  1.5652
 8777SOL    HW237965   4.343   0.055  12.211 -1.9861 -0.6660 -1.3037
 8778SOL     OW37966   2.658   1.782   1.828 -0.1260  0.2075  0.0359
 8778SOL    HW137967   2.582   1.754   1.879  1.4570  0.4695  2.5098
 8778SOL    HW237968   2.629   1.786   1.737  1.3380 -2.6822 -0.5480
 8779SOL     OW37969   3.668   1.921   0.458  0.4919 -0.5418 -0.1652
 8779SOL    HW137970   3.713   1.862   0.397 -0.9580 -0.7954 -0.9910
 8779SOL    HW237971   3.633   1.862   0.525  2.6186  1.9769  3.1247
 8780SOL     OW37972   1.533   2.892  17.096  0.1942  0.2701 -0.5533
 8780SOL    HW137973   1.496   2.865  17.180  0.1259  0.4899 -0.5105
 8780SOL    HW237974   1.521   2.987  17.104 -2.3731 -0.0425 -0.6069
 8781SOL     OW37975   0.866   1.729  10.925  0.3261 -0.8763  0.0370
 8781SOL    HW137976   0.866   1.802  10.864 -1.4423 -1.0728 -0.2010
 8781SOL    HW237977   0.774   1.704  10.920  1.1484 -4.1907  0.9786
 8782SOL     OW37978   0.403   2.870  13.097 -0.6713 -0.5283 -0.2229
 8782SOL    HW137979   0.315   2.908  13.095  1.1310  3.6628  0.8996
 8782SOL    HW237980   0.404   2.835  13.186  0.9326 -0.7213 -0.3287
 8783SOL     OW37981   1.441   2.838   2.779 -0.2147  0.2264  0.2644
 8783SOL    HW137982   1.448   2.804   2.868 -0.1778  1.3571  0.6875
 8783SOL    HW237983   1.347   2.838   2.760 -0.2668 -1.1851  0.5560
 8784SOL     OW37984   1.620   0.501   4.760  0.4187 -0.2773 -0.4499
 8784SOL    HW137985   1.547   0.469   4.814  1.0870 -2.0340 -0.5975
 8784SOL    HW237986   1.677   0.424   4.758 -0.9153 -1.2074 -2.2383
 8785SOL     OW37987   2.622   0.375   1.356 -0.3093  0.2833  0.3611
 8785SOL    HW137988   2.558   0.391   1.287  0.9390  0.8519 -0.6619
 8785SOL    HW237989   2.562   0.333   1.417  0.2796 -1.4175 -0.2296
 8786SOL     OW37990   4.151   3.052   8.335  0.4203  0.0931  0.0935
 8786SOL    HW137991   4.085   2.992   8.301 -0.5437  1.2088 -0.0433
 8786SOL    HW237992   4.165   3.013   8.421 -1.0572  0.7693  0.6511
 8787SOL     OW37993   2.926   3.039  17.332 -0.5645 -0.0278 -0.1369
 8787SOL    HW137994   2.852   3.074  17.284 -1.5565 -2.0126 -0.0180
 8787SOL    HW237995   2.923   3.083  17.417 -2.6709 -1.1723  0.3766
 8788SOL     OW37996   3.286   4.286  17.739  0.1462 -0.2978  0.1831
 8788SOL    HW137997   3.343   4.315   0.052  0.8380  3.4537 -1.9046
 8788SOL    HW237998   3.257   4.363  17.690 -0.9217 -0.3193  0.7779
 8789SOL     OW37999   2.696   0.504  10.009 -0.0914  0.3851 -0.0033
 8789SOL    HW138000   2.722   0.529   9.921  0.4549 -0.9869 -0.2333
 8789SOL    HW238001   2.604   0.529  10.002 -0.5587 -1.0125  1.1620
 8790SOL     OW38002   3.857   0.151   3.230 -0.5814  0.3073  0.3505
 8790SOL    HW138003   3.883   0.082   3.169  0.6090  2.4962 -1.6185
 8790SOL    HW238004   3.927   0.131   3.293 -0.6043 -1.8148 -0.2885
 8791SOL     OW38005   1.089   4.702   2.315 -0.5276  0.4757  0.2829
 8791SOL    HW138006   1.046   4.650   2.247 -0.8763 -0.1015  0.9413
 8791SOL    HW238007   1.095   0.043   2.265  1.3295 -0.2901 -0.7425
 8792SOL     OW38008   0.158   3.673   4.426 -0.1906  0.1186 -0.6233
 8792SOL    HW138009   0.164   3.682   4.331 -1.5627  0.9046 -0.6247
 8792SOL    HW238010   0.088   3.609   4.435  0.8064 -0.9055 -0.1608
 8793SOL     OW38011   0.852   2.829   8.695  0.5434 -0.0666 -0.5071
 8793SOL    HW138012   0.861   2.800   8.786  1.7567  2.6321  0.2603
 8793SOL    HW238013   0.759   2.821   8.675  0.8845 -0.1307 -2.0052
 8794SOL     OW38014   3.528   4.350   4.383 -0.4887 -0.2980  0.2734
 8794SOL    HW138015   3.477   4.368   4.304  0.5134  2.2604  0.2125
 8794SOL    HW238016   3.608   4.399   4.365  0.1668 -2.2700 -2.2205
 8795SOL     OW38017   3.687   1.945   3.261  0.3533 -0.0005  0.4473
 8795SOL    HW138018   3.767   1.901   3.234  1.0674  1.0465  0.8813
 8795SOL    HW238019   3.667   2.009   3.193 -2.2762 -3.1704 -1.8085
 8796SOL     OW38020   3.317   2.878  13.332 -0.2857 -0.2829  0.3228
 8796SOL    HW138021   3.248   2.822  13.367 -0.6870  0.1590  0.2361
 8796SOL    HW238022   3.349   2.844  13.248  0.2009 -0.9548  0.7795
 8797SOL     OW38023   1.408   1.301   7.683 -0.7861  0.3494 -0.1378
 8797SOL    HW138024   1.324   1.311   7.639 -0.1741  1.5386 -1.0358
 8797SOL    HW238025   1.420   1.206   7.678  0.3396  0.5043 -0.3930
 8798SOL     OW38026   3.029   1.680   3.055 -0.4068 -0.3383 -0.4027
 8798SOL    HW138027   2.967   1.703   3.124  0.1573  1.0062 -0.3280
 8798SOL    HW238028   3.042   1.765   3.012  0.2295 -0.0815  0.2886
 8799SOL     OW38029   0.644   3.927   3.526  1.0855  0.4700 -0.1078
 8799SOL    HW138030   0.614   4.010   3.489  0.3356 -0.0009 -0.5412
 8799SOL    HW238031   0.675   3.880   3.449  1.9109  0.6335  0.1244
 8800SOL     OW38032   3.510   4.287   8.231  0.2000  0.3784  0.2014
 8800SOL    HW138033   3.416   4.295   8.214 -0.0104 -1.5981  0.4374
 8800SOL    HW238034   3.508   4.196   8.261  1.3702 -0.0847 -1.1568
 8801SOL     OW38035   0.412   0.162   7.868  0.4591  0.0445 -0.1602
 8801SOL    HW138036   0.454   0.154   7.954  0.0215 -0.7709 -0.0255
 8801SOL    HW238037   0.353   0.236   7.877  0.9836  0.2469  1.5263
 8802SOL     OW38038   4.507   2.573   8.855 -0.0965  0.2565  0.0263
 8802SOL    HW138039   4.525   2.605   8.767  0.3043  1.5927  0.5877
 8802SOL    HW238040   4.528   2.481   8.845 -0.7716  0.1615 -0.5009
 8803SOL     OW38041   2.286   0.819  11.364 -0.1403 -0.2830  0.0095
 8803SOL    HW138042   2.355   0.876  11.395 -1.3200  1.6428 -0.9317
 8803SOL    HW238043   2.216   0.878  11.334 -0.7133  0.1780  2.2756
 8804SOL     OW38044   1.941   1.716  12.987 -0.6028  0.0857  0.4277
 8804SOL    HW138045   2.018   1.659  12.985 -1.0483 -0.5211  0.3478
 8804SOL    HW238046   1.879   1.653  12.949 -1.0094  1.1628 -0.6902
 8805SOL     OW38047   4.076   4.496  14.255 -0.0526 -0.4238 -0.2834
 8805SOL    HW138048   4.063   4.434  14.327 -0.4536 -0.0001  0.0067
 8805SOL    HW238049   4.171   4.506  14.255  0.1406 -2.2121  0.3102
 8806SOL     OW38050   3.295   0.768   8.900 -0.4708 -0.0252 -0.3544
 8806SOL    HW138051   3.208   0.806   8.904 -0.1447  0.4645  2.3639
 8806SOL    HW238052   3.269   0.676   8.906  1.6207 -0.5499  1.0468
 8807SOL     OW38053   4.725   1.506   4.545  0.3839  0.5673  0.4623
 8807SOL    HW138054   0.014   1.597   4.538  1.5236  0.2764  1.5948
 8807SOL    HW238055   4.719   1.505   4.640  0.7364  0.2825  0.4802
 8808SOL     OW38056   0.039   2.521  10.234 -0.3421  0.0228  0.2305
 8808SOL    HW138057   0.072   2.581  10.301 -0.7614  0.8732 -0.3222
 8808SOL    HW238058   0.120   2.512  10.185  0.7129  2.7048  1.4791
 8809SOL     OW38059   4.111   0.164   0.302 -0.2679  0.3290  0.6986
 8809SOL    HW138060   4.152   0.123   0.226 -0.1243  2.2858 -0.2713
 8809SOL    HW238061   4.170   0.136   0.373  0.7137  0.3506 -0.1057
 8810SOL     OW38062   4.479   4.023   2.157 -0.5084  0.2522 -0.3938
 8810SOL    HW138063   4.426   3.959   2.112 -1.0928  0.7709 -0.4392
 8810SOL    HW238064   4.433   4.106   2.170  0.4412  0.3012  2.7510
 8811SOL     OW38065   0.747   3.116   9.124 -0.1924 -0.7009 -0.0108
 8811SOL    HW138066   0.799   3.038   9.105 -0.3916 -1.1063  1.1221
 8811SOL    HW238067   0.695   3.115   9.044 -2.1638 -0.0965  1.2597
 8812SOL     OW38068   1.238   1.324  14.401  0.5948  0.6679 -0.0466
 8812SOL    HW138069   1.151   1.338  14.439  0.1777 -0.3914 -0.6284
 8812SOL    HW238070   1.299   1.343  14.473  2.7620 -1.9210 -1.2054
 8813SOL     OW38071   2.039   0.331   4.101  0.1114  0.0704  0.2959
 8813SOL    HW138072   2.049   0.326   4.196  0.4784 -2.4457  0.1209
 8813SOL    HW238073   1.961   0.276   4.091  0.6759 -0.3698 -1.7105
 8814SOL     OW38074   4.709   2.601  14.464 -0.4839  0.3284 -0.0843
 8814SOL    HW138075   4.636   2.645  14.420 -2.9641 -1.1071  2.6419
 8814SOL    HW238076   0.038   2.611  14.398 -0.1151  0.1662  0.2777
 8815SOL     OW38077   1.534   4.727   7.455 -0.2222  0.1630  0.2128
 8815SOL    HW138078   1.530   4.642   7.411  2.0451  1.2537 -2.1112
 8815SOL    HW238079   1.616   4.720   7.503 -1.0013  0.0995  1.5382
 8816SOL     OW38080   0.645   2.953   3.114 -0.1132  0.2969  0.0672
 8816SOL    HW138081   0.731   2.990   3.096 -0.1429 -0.3665 -1.4372
 8816SOL    HW238082   0.609   2.977   3.029 -0.3325 -0.6747 -0.1104
 8817SOL     OW38083   4.372   2.559  10.939 -0.3249  0.4425 -0.0595
 8817SOL    HW138084   4.413   2.539  11.023 -0.3299  0.8735  0.0470
 8817SOL    HW238085   4.328   2.478  10.916 -0.7783  0.9307 -0.9087
 8818SOL     OW38086   2.036   0.630   7.508 -0.2456 -0.0003 -0.1163
 8818SOL    HW138087   1.970   0.572   7.547 -1.9546  1.0026 -1.5110
 8818SOL    HW238088   2.019   0.609   7.416 -1.3734  0.9449 -0.1252
 8819SOL     OW38089   2.535   4.112   4.616  0.6472  0.3208  0.7278
 8819SOL    HW138090   2.561   4.166   4.690  3.2420  1.7234 -1.2235
 8819SOL    HW238091   2.593   4.144   4.547 -1.9003 -0.0893 -1.5816
 8820SOL     OW38092   4.653   1.250   4.885 -0.4364  0.0171 -0.1707
 8820SOL    HW138093   4.706   1.224   4.810  1.6575  0.8263  1.0096
 8820SOL    HW238094   4.585   1.183   4.875  0.1180 -0.5633 -0.0803
 8821SOL     OW38095   0.961   3.711   0.378 -0.2872 -0.7897 -0.2635
 8821SOL    HW138096   1.014   3.639   0.414  0.7992 -0.2380 -0.7529
 8821SOL    HW238097   0.876   3.669   0.391 -0.4614 -0.3247  0.0691
 8822SOL     OW38098   2.460   0.531   6.823 -0.3894 -0.1403  0.4693
 8822SOL    HW138099   2.555   0.535   6.817 -0.6793  1.6359 -2.8951
 8822SOL    HW238100   2.438   0.438   6.815  1.8017 -0.5379 -0.8911
 8823SOL     OW38101   4.078   3.021   9.358 -0.3217  0.3573 -0.2763
 8823SOL    HW138102   4.057   2.999   9.448 -0.5122  1.6374 -0.0103
 8823SOL    HW238103   4.122   2.943   9.326  2.2017  1.7090 -0.0998
 8824SOL     OW38104   2.752   0.179   0.946  0.5676 -0.0563 -0.4452
 8824SOL    HW138105   2.764   0.136   1.031 -0.4657 -2.2699 -1.4207
 8824SOL    HW238106   2.656   0.181   0.942  0.4774 -1.1796  0.7982
 8825SOL     OW38107   1.463   2.045  12.892  0.0593 -0.3726 -0.2015
 8825SOL    HW138108   1.509   1.988  12.830  2.3158  1.2752 -0.0298
 8825SOL    HW238109   1.531   2.095  12.939  1.1965 -1.9618 -0.1450
 8826SOL     OW38110   2.158   1.988  16.320  0.1919  0.0229 -0.4337
 8826SOL    HW138111   2.131   1.897  16.330 -1.0520  0.2968 -1.3143
 8826SOL    HW238112   2.240   1.971  16.274  1.3763  2.2291  0.8483
 8827SOL     OW38113   1.818   2.556   7.224 -0.1589 -0.2822  0.0988
 8827SOL    HW138114   1.734   2.537   7.267 -0.1058  1.3363  0.9206
 8827SOL    HW238115   1.786   2.530   7.138  1.6291  0.4525 -0.7971
 8828SOL     OW38116   2.631   3.882   7.402  0.0780 -0.4379 -0.5608
 8828SOL    HW138117   2.545   3.843   7.388  0.3930 -1.3700  0.1184
 8828SOL    HW238118   2.631   3.876   7.497  0.1908 -2.0321 -0.6687
 8829SOL     OW38119   0.292   1.334  10.245 -0.4044 -0.3680  0.2333
 8829SOL    HW138120   0.297   1.302  10.335  0.6911 -1.6414 -0.2753
 8829SOL    HW238121   0.283   1.249  10.202 -3.5764  0.6726 -1.1842
 8830SOL     OW38122   3.975   1.738  10.607 -0.1004  0.3131 -0.5264
 8830SOL    HW138123   3.961   1.796  10.533  1.7392  0.4644 -0.7566
 8830SOL    HW238124   4.071   1.732  10.610 -0.0863 -0.5134 -2.6143
 8831SOL     OW38125   1.735   2.446   2.104  0.5574  0.0665 -0.1340
 8831SOL    HW138126   1.758   2.490   2.186 -0.3612  1.3401 -0.5635
 8831SOL    HW238127   1.787   2.365   2.103 -0.8653 -0.8487 -0.4897
 8832SOL     OW38128   2.778   3.836   6.773  0.5848 -0.3529  0.6757
 8832SOL    HW138129   2.685   3.833   6.752  0.6331  0.1882  0.3547
 8832SOL    HW238130   2.816   3.812   6.688 -0.3886  0.2912  0.0629
 8833SOL     OW38131   0.412   0.459   2.661 -0.1611 -0.1734 -0.0573
 8833SOL    HW138132   0.377   0.372   2.682  0.1599 -0.3514 -0.2571
 8833SOL    HW238133   0.485   0.424   2.610 -1.2642 -1.7612 -0.5562
 8834SOL     OW38134   1.497   0.072   7.979  0.2759 -0.0203 -0.0322
 8834SOL    HW138135   1.587   0.055   7.949  0.1602 -2.0116  0.7554
 8834SOL    HW238136   1.507   0.097   8.071  2.0585 -0.5085 -0.0890
 8835SOL     OW38137   2.251   1.975   1.050 -0.1603  0.6052 -0.1425
 8835SOL    HW138138   2.331   1.958   1.101  0.4526 -1.3289 -1.7445
 8835SOL    HW238139   2.207   2.040   1.104 -0.8381 -1.2351  1.5124
 8836SOL     OW38140   1.030   1.790   4.569 -0.1442 -0.0068  0.0356
 8836SOL    HW138141   0.978   1.767   4.646  0.1655  2.0906  0.8831
 8836SOL    HW238142   0.970   1.806   4.496  1.5437  0.9703 -1.1475
 8837SOL     OW38143   3.819   0.700  10.273  0.7702  0.1460  0.0090
 8837SOL    HW138144   3.740   0.749  10.250  0.3039 -0.4547  0.3077
 8837SOL    HW238145   3.832   0.716  10.367 -0.3784 -2.5982  0.6413
 8838SOL     OW38146   1.050   3.961   5.032 -0.2918  0.2592  0.7443
 8838SOL    HW138147   1.021   3.870   5.030  3.5916 -0.9330 -0.3958
 8838SOL    HW238148   0.978   4.005   5.078 -0.3883  1.1245 -0.2350
 8839SOL     OW38149   1.504   2.538   9.774 -0.0331 -0.6923  0.1482
 8839SOL    HW138150   1.419   2.519   9.734 -0.8054 -0.6725  1.7757
 8839SOL    HW238151   1.469   2.569   9.858  2.3383 -0.0571  0.8954
 8840SOL     OW38152   1.678   1.693  11.116 -0.2683 -0.7582 -0.3254
 8840SOL    HW138153   1.762   1.701  11.070  0.7937 -0.9414  1.6062
 8840SOL    HW238154   1.697   1.627  11.183 -2.6058 -2.6054 -1.4901
 8841SOL     OW38155   1.945   1.485   0.807 -0.4995  0.1717  0.0976
 8841SOL    HW138156   1.963   1.579   0.810 -2.1213  0.5150 -0.8675
 8841SOL    HW238157   2.026   1.453   0.847 -1.3366  0.5934  2.1208
 8842SOL     OW38158   3.279   3.307   4.440  0.5486 -0.1009  0.0464
 8842SOL    HW138159   3.188   3.324   4.418  0.5214 -1.0772 -0.6119
 8842SOL    HW238160   3.287   3.342   4.529 -0.4550 -0.8522  0.4319
 8843SOL     OW38161   2.885   1.224   2.163 -0.5010  0.2227  0.0941
 8843SOL    HW138162   2.816   1.196   2.102  0.0297  2.1632 -1.3964
 8843SOL    HW238163   2.929   1.147   2.199 -0.4086 -1.6973 -4.1518
 8844SOL     OW38164   4.243   3.731   1.292  0.4036  0.3217  0.1620
 8844SOL    HW138165   4.294   3.713   1.371  1.1887  1.5239 -0.0689
 8844SOL    HW238166   4.153   3.730   1.323  1.6191  2.3717  3.8184
 8845SOL     OW38167   0.757   4.196   5.790  0.1964 -0.4856  0.1483
 8845SOL    HW138168   0.795   4.193   5.879  0.6641 -1.1545 -0.0738
 8845SOL    HW238169   0.827   4.239   5.741  0.3928 -0.5341  0.3814
 8846SOL     OW38170   1.747   0.943  11.958 -0.2259  0.2765  0.2123
 8846SOL    HW138171   1.750   0.998  12.036 -0.2435  1.4011 -0.5806
 8846SOL    HW238172   1.658   0.968  11.933 -0.0532  1.4036  0.7507
 8847SOL     OW38173   3.441   3.463  15.779  0.2865  0.5774 -0.6482
 8847SOL    HW138174   3.488   3.527  15.725 -0.2889  2.2526  0.8056
 8847SOL    HW238175   3.349   3.483  15.762  0.3240 -1.1263 -2.8607
 8848SOL     OW38176   1.963   1.373  12.427 -0.5150  0.0566 -0.0777
 8848SOL    HW138177   1.972   1.463  12.457  0.9372 -0.8881  2.3311
 8848SOL    HW238178   1.876   1.367  12.386 -0.6024 -1.2398  0.2756
 8849SOL     OW38179   3.991   2.467  14.214 -0.0439  0.2869  0.5413
 8849SOL    HW138180   3.926   2.404  14.183  1.5208 -0.5067 -1.1265
 8849SOL    HW238181   4.051   2.470  14.139 -2.4688  0.5796 -1.4072
 8850SOL     OW38182   2.285   2.368   7.464 -0.0421  0.1342  0.2266
 8850SOL    HW138183   2.204   2.399   7.423  0.0177 -2.4963 -1.9242
 8850SOL    HW238184   2.353   2.421   7.420 -1.1172  1.7906  0.5792
 8851SOL     OW38185   1.586   0.971   4.491  0.6753  0.1054 -0.2695
 8851SOL    HW138186   1.587   0.966   4.396 -0.4947  1.2253 -0.3430
 8851SOL    HW238187   1.607   0.887   4.531  0.2885 -0.5995 -1.5548
 8852SOL     OW38188   4.322   2.184   0.887 -0.1327 -0.3680  0.2446
 8852SOL    HW138189   4.400   2.228   0.922  0.5416 -1.5432  0.2009
 8852SOL    HW238190   4.320   2.108   0.945  3.8443 -0.4583  0.2688
 8853SOL     OW38191   3.184   2.129   5.501  0.1701  0.4300 -0.7391
 8853SOL    HW138192   3.179   2.191   5.574 -1.3878 -0.8586  0.2461
 8853SOL    HW238193   3.122   2.061   5.527 -0.4967  1.4360  0.2899
 8854SOL     OW38194   1.724   2.803   3.162 -0.2936  0.1040  0.0245
 8854SOL    HW138195   1.799   2.756   3.200  1.7529  2.9290 -0.5567
 8854SOL    HW238196   1.763   2.889   3.147 -0.9110 -0.2053 -3.3125
 8855SOL     OW38197   1.716   4.276  13.546 -0.3006 -0.3021 -0.1933
 8855SOL    HW138198   1.632   4.313  13.520 -1.4932 -1.9103  1.3111
 8855SOL    HW238199   1.780   4.344  13.526  0.5553 -0.7610  0.9589
 8856SOL     OW38200   1.369   0.730   9.382 -0.5177 -0.2718  0.1224
 8856SOL    HW138201   1.328   0.645   9.400 -1.2376  0.1956  0.6859
 8856SOL    HW238202   1.400   0.755   9.469 -0.9708 -0.8939  0.4606
 8857SOL     OW38203   3.411   3.066   3.983 -0.2638  0.0062 -0.2676
 8857SOL    HW138204   3.329   3.102   4.015 -0.2800  0.0745 -0.3878
 8857SOL    HW238205   3.392   2.973   3.990  0.5666 -0.3246 -2.4553
 8858SOL     OW38206   3.370   0.181  13.535 -0.3452  0.2367  0.0650
 8858SOL    HW138207   3.316   0.170  13.614  0.0819 -2.1350  0.0039
 8858SOL    HW238208   3.416   0.261  13.561  0.1009 -0.3767  1.1639
 8859SOL     OW38209   4.087   0.690   5.653 -0.1486 -0.0023  0.2231
 8859SOL    HW138210   4.177   0.683   5.622 -0.1683 -1.6785  0.5435
 8859SOL    HW238211   4.032   0.644   5.590 -2.0250  0.9934  1.1491
 8860SOL     OW38212   2.335   2.251   1.882 -0.5468  0.0030 -0.6642
 8860SOL    HW138213   2.276   2.190   1.839 -0.1765  0.0752 -1.2677
 8860SOL    HW238214   2.406   2.190   1.900 -1.5155 -0.5805  1.1260
 8861SOL     OW38215   4.351   2.930   2.444  0.4297  0.0263 -0.1185
 8861SOL    HW138216   4.304   2.978   2.376 -0.9893 -0.9682  0.1448
 8861SOL    HW238217   4.380   2.852   2.397  1.1011 -0.2245  0.7309
 8862SOL     OW38218   0.687   4.713   8.445 -1.0958 -0.0343 -0.0295
 8862SOL    HW138219   0.693   0.066   8.420 -0.1773  0.0919  0.6713
 8862SOL    HW238220   0.593   4.711   8.465 -1.1200 -0.2822 -0.1693
 8863SOL     OW38221   2.022   3.811   2.696 -0.1638  0.1883 -0.1359
 8863SOL    HW138222   2.007   3.741   2.759  1.5822 -0.2974 -0.2410
 8863SOL    HW238223   1.930   3.826   2.677 -0.8515 -0.1855  2.9515
 8864SOL     OW38224   0.915   4.315   7.497 -0.0891  0.2130 -0.7442
 8864SOL    HW138225   1.002   4.331   7.460 -0.1675  0.6642 -0.7406
 8864SOL    HW238226   0.919   4.308   7.592  1.1109  2.0294 -0.6552
 8865SOL     OW38227   3.218   4.411   6.954  0.0022  0.4298  0.2917
 8865SOL    HW138228   3.312   4.392   6.959 -0.0883  0.0407  0.5103
 8865SOL    HW238229   3.200   4.353   7.028  1.5119  1.0214  1.1339
 8866SOL     OW38230   4.070   3.586   7.577 -0.1583  0.0430  0.4633
 8866SOL    HW138231   3.978   3.566   7.599  0.7845 -3.2055  1.5171
 8866SOL    HW238232   4.098   3.504   7.618  0.5102 -0.0497 -0.1876
 8867SOL     OW38233   2.320   4.428  15.593  0.7848  0.1079  0.3520
 8867SOL    HW138234   2.239   4.413  15.544  0.2168 -0.4489  1.4746
 8867SOL    HW238235   2.300   4.504  15.647 -1.0883 -0.9952  1.2067
 8868SOL     OW38236   1.453   4.153   9.352  0.6434 -0.1917  0.0858
 8868SOL    HW138237   1.389   4.082   9.353 -1.2948  1.5523  1.4147
 8868SOL    HW238238   1.498   4.142   9.269  1.4511 -0.2393  0.5296
 8869SOL     OW38239   1.550   2.244   8.979  0.1924  0.0443 -0.7066
 8869SOL    HW138240   1.639   2.208   8.983 -0.9347 -2.8128 -1.1202
 8869SOL    HW238241   1.523   2.224   9.069  0.8368 -2.5135 -1.0671
 8870SOL     OW38242   1.843   2.943  11.173  0.0859  0.2631 -0.2028
 8870SOL    HW138243   1.878   3.018  11.220 -1.3137  0.1972  0.9259
 8870SOL    HW238244   1.920   2.915  11.123  1.1202  0.6985  1.1480
 8871SOL     OW38245   3.963   1.643  13.383 -0.4353 -0.0040 -0.2893
 8871SOL    HW138246   4.025   1.715  13.380 -3.3425  2.5980  2.1228
 8871SOL    HW238247   3.960   1.610  13.293  1.6492 -2.2323  0.4846
 8872SOL     OW38248   1.270   1.542   2.725  0.2395 -0.3429 -0.0170
 8872SOL    HW138249   1.224   1.459   2.711  0.5581 -0.5402  0.1053
 8872SOL    HW238250   1.312   1.558   2.641  0.3848  1.7148  0.4487
 8873SOL     OW38251   4.102   3.839   2.696  0.8265 -0.4493 -0.1712
 8873SOL    HW138252   4.151   3.840   2.613 -0.7476 -1.0130 -1.0958
 8873SOL    HW238253   4.173   3.807   2.752 -2.4220 -0.3162  4.0182
 8874SOL     OW38254   4.063   4.006   4.504 -0.1917 -0.1114  0.1039
 8874SOL    HW138255   4.032   4.091   4.471  1.3174  1.2529  2.1924
 8874SOL    HW238256   3.988   3.990   4.561 -1.4886 -1.1596 -1.9021
 8875SOL     OW38257   4.684   2.046   2.488 -0.2966  0.3658  0.4745
 8875SOL    HW138258   4.674   2.135   2.455 -1.5881  0.1037  0.1984
 8875SOL    HW238259   0.025   2.061   2.538  1.6924  1.2445 -2.9830
 8876SOL     OW38260   3.302   2.454  16.033  0.5445  0.0472 -0.0611
 8876SOL    HW138261   3.371   2.519  16.030  0.5654  0.0067 -0.6031
 8876SOL    HW238262   3.245   2.493  16.100  1.3957 -0.6725  1.0718
 8877SOL     OW38263   1.405   1.942  16.211  0.3047 -0.1816  0.1033
 8877SOL    HW138264   1.455   2.018  16.180  0.3684  1.1908  3.5698
 8877SOL    HW238265   1.435   1.945  16.302 -1.4235  0.2568  0.6522
 8878SOL     OW38266   3.553   0.670   7.099 -0.6411  0.5547 -0.3508
 8878SOL    HW138267   3.514   0.583   7.104  0.0347  0.1877 -1.4162
 8878SOL    HW238268   3.472   0.721   7.099  0.5504  2.4329  2.8954
 8879SOL     OW38269   3.047   3.791   9.482 -0.0714 -0.2002  0.6557
 8879SOL    HW138270   3.013   3.757   9.565 -0.4767 -0.2440  0.4722
 8879SOL    HW238271   2.970   3.820   9.432 -0.5035 -0.4764  1.1638
 8880SOL     OW38272   0.601   4.355   8.126  0.5974 -0.6629 -0.4047
 8880SOL    HW138273   0.681   4.334   8.079 -0.4778 -0.5739 -2.2728
 8880SOL    HW238274   0.537   4.354   8.055  0.4155 -1.5703 -0.2391
 8881SOL     OW38275   4.334   0.712   7.856  0.7463  0.7857 -0.2150
 8881SOL    HW138276   4.373   0.661   7.785  1.1150  0.3869  0.2714
 8881SOL    HW238277   4.397   0.783   7.862  0.0557  1.3156  0.7756
 8882SOL     OW38278   2.315   3.975   4.582 -0.4107 -0.2547 -0.2814
 8882SOL    HW138279   2.270   4.006   4.503  1.6056  2.3968 -0.4211
 8882SOL    HW238280   2.388   4.037   4.589  0.0700 -0.9813  0.9008
 8883SOL     OW38281   4.369   3.499   2.599  0.1889 -0.5608 -0.4651
 8883SOL    HW138282   4.458   3.475   2.573  0.3316 -1.7860  1.1262
 8883SOL    HW238283   4.391   3.564   2.665  0.9676 -1.4184  0.1029
 8884SOL     OW38284   1.953   4.102   9.412  0.4295  0.8802  0.0755
 8884SOL    HW138285   2.005   4.170   9.455  1.3489 -0.0946  0.5204
 8884SOL    HW238286   2.014   4.028   9.419 -3.4954 -2.5234 -1.7531
 8885SOL     OW38287   1.396   1.712   8.716  0.2166  0.4556 -0.7525
 8885SOL    HW138288   1.385   1.699   8.810 -0.3988 -1.0773 -1.0366
 8885SOL    HW238289   1.482   1.671   8.706  0.1600  0.2553 -0.4240
 8886SOL     OW38290   2.226   3.796   2.503  0.2422 -0.8193 -0.3524
 8886SOL    HW138291   2.225   3.885   2.540  2.2353 -0.5409 -0.9465
 8886SOL    HW238292   2.150   3.767   2.553 -0.1415  0.6081 -0.0821
 8887SOL     OW38293   2.393   0.605   2.977  0.2939 -0.9292 -0.0023
 8887SOL    HW138294   2.367   0.603   3.069  3.5025 -2.6161  0.8687
 8887SOL    HW238295   2.449   0.529   2.965  1.6310 -0.0439  0.5239
 8888SOL     OW38296   2.357   2.754   9.487  0.0461  0.8994 -0.0484
 8888SOL    HW138297   2.360   2.692   9.560 -1.5241  0.6157 -0.2278
 8888SOL    HW238298   2.313   2.705   9.418 -1.9076  3.0465 -0.3192
 8889SOL     OW38299   4.202   2.744   4.585 -0.0559  0.4795  0.1304
 8889SOL    HW138300   4.246   2.662   4.563 -0.8252  0.2135 -0.4550
 8889SOL    HW238301   4.207   2.744   4.680 -4.6686  0.5307  0.3933
 8890SOL     OW38302   4.496   4.003   1.285 -0.0997  0.0694 -0.0241
 8890SOL    HW138303   4.507   3.918   1.243  1.1138  1.2370 -2.0751
 8890SOL    HW238304   4.569   4.051   1.247 -1.9783  1.0841 -2.3183
 8891SOL     OW38305   0.178   4.215   2.690 -0.8357 -0.1710 -0.2211
 8891SOL    HW138306   0.200   4.233   2.598 -0.4454  0.0995 -0.0720
 8891SOL    HW238307   0.256   4.165   2.714  0.2983  0.9177 -1.6025
 8892SOL     OW38308   0.018   4.388  14.102  0.5811  0.1759  0.2740
 8892SOL    HW138309   4.731   4.416  14.190  0.9695 -1.7850  1.0262
 8892SOL    HW238310   0.048   4.298  14.115 -0.5295 -0.1411  0.6309
 8893SOL     OW38311   4.728   0.981   7.380 -0.3892 -0.7814 -0.0735
 8893SOL    HW138312   4.640   1.011   7.357  0.5847  3.2566  1.4039
 8893SOL    HW238313   4.704   0.907   7.435 -1.9045 -0.1822  0.0509
 8894SOL     OW38314   0.914   1.256  17.247 -0.4256 -0.0127 -0.0219
 8894SOL    HW138315   0.897   1.193  17.177  0.9865  0.2072 -0.5629
 8894SOL    HW238316   0.970   1.200  17.301 -0.5878 -1.0725 -0.9734
 8895SOL     OW38317   4.401   3.845   5.086 -0.5957 -0.0779 -0.6856
 8895SOL    HW138318   4.334   3.900   5.045  0.1723  0.7171 -0.8867
 8895SOL    HW238319   4.377   3.851   5.179  0.9423 -1.3711 -0.2039
 8896SOL     OW38320   1.952   3.248   3.571  0.9276  0.2226  0.4407
 8896SOL    HW138321   1.890   3.298   3.518  1.8271 -0.5164 -1.3098
 8896SOL    HW238322   1.942   3.160   3.535 -0.8741 -0.1905  1.9472
 8897SOL     OW38323   2.733   4.281   9.771 -0.1513 -0.7034  0.2208
 8897SOL    HW138324   2.706   4.214   9.833 -3.0128  0.7548  0.5162
 8897SOL    HW238325   2.708   4.357   9.824 -2.2815 -2.4157  1.6253
 8898SOL     OW38326   1.924   1.015  11.753 -0.3612  0.0653  0.3975
 8898SOL    HW138327   1.952   0.936  11.798 -1.0933  0.6240  1.8308
 8898SOL    HW238328   1.840   1.026  11.798 -0.7122  1.7005 -0.6527
 8899SOL     OW38329   4.186   3.604  13.318 -0.0421  0.4494  0.2690
 8899SOL    HW138330   4.193   3.530  13.378 -0.3762  0.0243 -0.2182
 8899SOL    HW238331   4.252   3.665  13.351  0.8993 -0.8208  0.7322
 8900SOL     OW38332   2.049   2.193   3.887 -0.4917  0.0525 -0.2451
 8900SOL    HW138333   2.122   2.190   3.948  0.5982 -1.1135 -1.6208
 8900SOL    HW238334   2.048   2.277   3.842  0.0116  0.3690  0.3591
 8901SOL     OW38335   3.635   4.194   1.138  0.0636  0.0597 -0.3057
 8901SOL    HW138336   3.643   4.112   1.186 -0.5707 -0.2893 -0.7978
 8901SOL    HW238337   3.647   4.159   1.050 -1.8511  0.0247 -0.5533
 8902SOL     OW38338   3.703   3.955   1.263 -0.0147  0.4243 -0.1208
 8902SOL    HW138339   3.790   3.967   1.226  1.6369 -2.2799  2.8261
 8902SOL    HW238340   3.704   3.861   1.285 -1.8308  0.4201 -0.0421
 8903SOL     OW38341   0.102   1.255   4.364 -0.0407 -0.8726  0.1503
 8903SOL    HW138342   0.080   1.348   4.367  2.5081 -0.2622 -0.6119
 8903SOL    HW238343   0.020   1.210   4.342 -0.6907 -0.6624  2.1218
 8904SOL     OW38344   2.434   1.338   8.665  0.2540  0.4698 -0.0558
 8904SOL    HW138345   2.371   1.284   8.617  0.0741 -1.3749  2.2492
 8904SOL    HW238346   2.473   1.279   8.729 -0.9867  1.3703  1.5337
 8905SOL     OW38347   3.005   0.650   6.442 -0.3781 -0.4414 -0.2917
 8905SOL    HW138348   2.917   0.612   6.440 -0.5358 -0.1113  0.4449
 8905SOL    HW238349   2.986   0.703   6.520  1.7441 -1.7206  1.0887
 8906SOL     OW38350   3.978   0.882   2.221 -0.2803  0.2311  0.3890
 8906SOL    HW138351   4.059   0.874   2.172 -1.2507  0.1654 -1.1861
 8906SOL    HW238352   3.954   0.970   2.192  3.3499  0.3852 -2.0572
 8907SOL     OW38353   4.329   0.818   6.253 -0.7039  0.4464  0.0658
 8907SOL    HW138354   4.322   0.791   6.345 -1.6639 -1.0383 -0.4493
 8907SOL    HW238355   4.252   0.875   6.260  1.0091  2.9322 -1.2333
 8908SOL     OW38356   2.167   0.338  15.706  0.3034  0.5898  0.6539
 8908SOL    HW138357   2.256   0.304  15.696  0.8040  2.0630  0.0457
 8908SOL    HW238358   2.171   0.431  15.681 -1.9346  0.5011 -0.0121
 8909SOL     OW38359   3.407   0.985   7.476 -0.0016 -0.2849 -0.4501
 8909SOL    HW138360   3.374   1.072   7.452 -1.3744 -0.9908 -1.1347
 8909SOL    HW238361   3.365   0.927   7.412  1.4216 -2.4298  0.5590
 8910SOL     OW38362   0.269   4.107   4.499  0.3348  0.1799 -0.4374
 8910SOL    HW138363   0.335   4.164   4.539  0.3601 -0.3318  0.2518
 8910SOL    HW238364   0.193   4.164   4.507 -0.1729 -0.4075 -1.1172
 8911SOL     OW38365   3.806   1.896  11.395 -0.0163  0.4999  0.3644
 8911SOL    HW138366   3.769   1.871  11.310  1.3252  2.1692 -0.7166
 8911SOL    HW238367   3.890   1.850  11.397  0.2254  0.9394  0.3414
 8912SOL     OW38368   1.257   2.273   6.733 -0.0213  0.0396  1.0624
 8912SOL    HW138369   1.237   2.322   6.653 -1.8481  0.4953  1.7825
 8912SOL    HW238370   1.348   2.295   6.753  0.8754 -2.9335  0.1646
 8913SOL     OW38371   1.790   3.635   4.560  0.1793 -0.2250 -0.0288
 8913SOL    HW138372   1.723   3.574   4.591  0.9415  0.5305  3.0136
 8913SOL    HW238373   1.848   3.627   4.635 -1.9629 -0.9406  1.5774
 8914SOL     OW38374   3.438   2.708   6.338 -0.8317 -0.7235  0.8216
 8914SOL    HW138375   3.479   2.720   6.252 -3.8925  0.1802 -0.5142
 8914SOL    HW238376   3.426   2.800   6.358 -0.6885 -0.4349 -0.3828
 8915SOL     OW38377   3.509   2.732   2.719 -0.4888  0.6844  0.0550
 8915SOL    HW138378   3.557   2.675   2.779 -1.1400 -1.8707 -1.8386
 8915SOL    HW238379   3.571   2.800   2.694 -0.5112  0.0835 -1.6709
 8916SOL     OW38380   1.343   4.004   4.091 -0.1413  0.0665 -0.6067
 8916SOL    HW138381   1.264   4.000   4.144 -0.0777  0.3653 -0.4868
 8916SOL    HW238382   1.368   4.094   4.113  2.4112 -0.4870 -1.2321
 8917SOL     OW38383   2.442   3.327   9.067  0.4218 -0.3146  0.5563
 8917SOL    HW138384   2.510   3.284   9.016  1.0102  0.4504  0.6854
 8917SOL    HW238385   2.361   3.306   9.022 -0.0617  0.3870  1.1026
 8918SOL     OW38386   4.114   4.628   9.243 -0.3399 -0.5110  0.0218
 8918SOL    HW138387   4.180   4.589   9.185  0.5656 -0.3556  0.9471
 8918SOL    HW238388   4.167   4.676   9.307 -1.5687  1.1335 -0.1781
 8919SOL     OW38389   0.436   0.290   6.790  0.0534  0.2433  0.1525
 8919SOL    HW138390   0.377   0.349   6.742 -2.1598  0.2712  2.9400
 8919SOL    HW238391   0.515   0.319   6.744  0.3727  1.0401  1.1950
 8920SOL     OW38392   0.470   2.451   1.143 -0.2570 -0.4510  0.4894
 8920SOL    HW138393   0.398   2.387   1.140 -1.2427  0.7118 -0.4569
 8920SOL    HW238394   0.456   2.476   1.235  0.5188 -2.4867  1.1741
 8921SOL     OW38395   2.791   0.098  11.071  0.2063 -0.1105  0.5283
 8921SOL    HW138396   2.815   0.006  11.069 -2.1079 -0.6847 -1.7450
 8921SOL    HW238397   2.841   0.135  11.144 -0.7398  1.0164  0.6104
 8922SOL     OW38398   1.511   0.894   1.949  0.5761 -0.2194 -0.1457
 8922SOL    HW138399   1.544   0.805   1.943  0.9032 -0.1480  0.5929
 8922SOL    HW238400   1.491   0.911   1.857 -0.8133  3.2060  0.7782
 8923SOL     OW38401   4.368   0.562   7.254 -0.4232 -0.6657 -0.0527
 8923SOL    HW138402   4.350   0.651   7.283  2.1327 -0.7922  1.9356
 8923SOL    HW238403   4.403   0.579   7.167 -2.1980 -1.7501 -0.9877
 8924SOL     OW38404   4.541   2.945  11.904  0.3598 -0.0154 -0.5215
 8924SOL    HW138405   4.597   2.935  11.981 -0.8598 -0.8342  0.2671
 8924SOL    HW238406   4.575   3.026  11.867 -0.3585  0.0691 -1.0054
 8925SOL     OW38407   3.105   2.055   6.059 -0.5947 -0.0761 -0.1687
 8925SOL    HW138408   3.105   1.990   6.130  0.5659  1.0168  0.8416
 8925SOL    HW238409   3.043   2.122   6.089  0.8793  1.6722 -0.9997
 8926SOL     OW38410   2.790   1.670  15.445 -0.2649 -0.1057  0.4410
 8926SOL    HW138411   2.702   1.681  15.408  0.0025 -0.8254 -0.4135
 8926SOL    HW238412   2.777   1.609  15.518 -0.8117 -0.5316 -0.0083
 8927SOL     OW38413   3.607   0.358   8.550  0.5947  0.0716  0.7126
 8927SOL    HW138414   3.547   0.287   8.577  1.1064 -1.3360 -1.8572
 8927SOL    HW238415   3.643   0.385   8.634  2.6987  0.9385 -0.4858
 8928SOL     OW38416   2.762   2.841   8.875 -0.1748  0.1664 -0.2606
 8928SOL    HW138417   2.781   2.773   8.811  0.6391  0.2870 -0.1499
 8928SOL    HW238418   2.728   2.906   8.814  0.6958 -0.7396 -1.6928
 8929SOL     OW38419   0.932   0.678   8.487 -0.5826  0.0543 -0.7390
 8929SOL    HW138420   0.917   0.585   8.471 -0.0168 -0.2569  0.4855
 8929SOL    HW238421   1.028   0.681   8.479 -0.4932  0.8306  0.6726
 8930SOL     OW38422   1.045   0.258   3.287  0.0643  0.1327 -0.5733
 8930SOL    HW138423   1.092   0.276   3.206  1.0093  1.1196  0.2057
 8930SOL    HW238424   0.962   0.306   3.288 -0.2654 -0.4303 -0.0447
 8931SOL     OW38425   2.997   0.549  11.912 -0.7094  0.1065 -0.0586
 8931SOL    HW138426   3.025   0.473  11.862  2.1083  1.8125 -1.0513
 8931SOL    HW238427   3.060   0.613  11.878  0.1873 -0.6992  0.0858
 8932SOL     OW38428   3.871   2.171   8.583 -0.3698  0.3927  0.3282
 8932SOL    HW138429   3.802   2.132   8.637  0.6946 -3.2166 -0.9001
 8932SOL    HW238430   3.941   2.180   8.648 -1.1470 -2.0445  1.5088
 8933SOL     OW38431   3.848   3.177  16.379  0.4408  0.0305  0.2692
 8933SOL    HW138432   3.768   3.210  16.338  0.9455 -0.5400 -1.1680
 8933SOL    HW238433   3.819   3.185  16.470 -0.4826 -0.1205 -0.0192
 8934SOL     OW38434   4.046   1.962   6.144  0.1725 -0.0279 -0.5615
 8934SOL    HW138435   4.081   1.950   6.232 -2.4796  0.6550  0.5779
 8934SOL    HW238436   3.953   1.963   6.164  0.5208 -2.7664  1.0681
 8935SOL     OW38437   1.609   1.317  11.695 -0.0001  0.2446 -0.7144
 8935SOL    HW138438   1.516   1.337  11.710 -0.2882 -2.0124  0.4739
 8935SOL    HW238439   1.626   1.275  11.779 -0.3416  2.1064  0.2758
 8936SOL     OW38440   0.389   2.137  10.934  0.1406  0.3331  0.0440
 8936SOL    HW138441   0.461   2.114  10.874  2.0801  1.3988  1.9649
 8936SOL    HW238442   0.344   2.053  10.921  0.8851 -0.1627  0.6431
 8937SOL     OW38443   1.871   4.652  17.491 -0.4113  0.3662 -0.2413
 8937SOL    HW138444   1.941   4.717  17.493  1.6984 -1.8996 -0.3829
 8937SOL    HW238445   1.803   4.713  17.519 -1.1143 -0.6520  0.2561
 8938SOL     OW38446   0.303   1.529   6.239 -0.4745 -1.1442  0.5079
 8938SOL    HW138447   0.385   1.493   6.205 -0.8675 -0.0174 -1.6311
 8938SOL    HW238448   0.331   1.520   6.330 -1.0588  0.1007  0.8117
 8939SOL     OW38449   0.133   1.967   8.018 -0.3052  0.6667  0.0602
 8939SOL    HW138450   0.046   1.984   8.056 -0.8169  0.1925 -0.9179
 8939SOL    HW238451   0.188   2.009   8.084 -0.7106 -0.1339  0.9040
 8940SOL     OW38452   1.957   4.684   9.829 -0.0936  0.2231 -0.1624
 8940SOL    HW138453   1.883   4.631   9.799  0.5543 -1.7504  1.7786
 8940SOL    HW238454   1.921   0.029   9.857 -1.0113  0.1222 -0.9954
 8941SOL     OW38455   2.892   3.074   5.651 -0.2277  0.5486  0.2712
 8941SOL    HW138456   2.968   3.115   5.693  0.8758 -2.2758  1.0311
 8941SOL    HW238457   2.905   3.088   5.557 -0.1898 -3.3915 -0.3263
 8942SOL     OW38458   3.878   1.592   5.935  0.6677 -0.1190 -0.0390
 8942SOL    HW138459   3.931   1.661   5.974 -1.6091  1.6761 -0.1433
 8942SOL    HW238460   3.931   1.564   5.860  0.1929 -2.8856  0.6414
 8943SOL     OW38461   2.003   0.720   5.659  0.1018 -0.4308 -0.0293
 8943SOL    HW138462   1.982   0.736   5.750 -1.7382 -0.0806 -0.5282
 8943SOL    HW238463   2.058   0.797   5.640  0.3344  0.5102  4.6266
 8944SOL     OW38464   1.181   1.948   9.636 -0.2849 -0.1813  0.3295
 8944SOL    HW138465   1.271   1.969   9.663 -0.4126 -2.5343  2.5613
 8944SOL    HW238466   1.120   1.972   9.706 -1.7464  0.2529 -1.1096
 8945SOL     OW38467   1.103   0.616   3.910 -0.5688 -0.3682 -0.4832
 8945SOL    HW138468   1.008   0.625   3.899 -0.9174 -3.1237  0.2783
 8945SOL    HW238469   1.136   0.659   3.831  0.5450 -1.2708 -0.5119
 8946SOL     OW38470   2.181   2.561   4.588 -0.2397  0.1798  0.2594
 8946SOL    HW138471   2.177   2.471   4.619 -1.3019 -0.2149 -0.9934
 8946SOL    HW238472   2.164   2.610   4.669  0.3672 -2.7446  2.1610
 8947SOL     OW38473   1.591   4.103   8.059  0.0274  0.0549  0.5282
 8947SOL    HW138474   1.594   4.045   7.983  2.1799  0.1184  0.5637
 8947SOL    HW238475   1.675   4.145   8.044  1.1602 -2.2213  0.4917
 8948SOL     OW38476   1.854   1.882   7.532 -0.1701  0.1960  0.0038
 8948SOL    HW138477   1.928   1.889   7.592  0.0797  1.0121 -0.3940
 8948SOL    HW238478   1.861   1.967   7.489 -0.9662 -0.1422 -0.7861
 8949SOL     OW38479   3.085   3.750   7.188  0.5396 -0.1697 -0.5369
 8949SOL    HW138480   3.128   3.790   7.112  1.2945 -0.1312 -0.0875
 8949SOL    HW238481   3.164   3.728   7.236  0.1030 -0.1993  0.1681
 8950SOL     OW38482   2.574   3.199   2.332  0.3641  0.2085 -0.1758
 8950SOL    HW138483   2.641   3.242   2.279 -0.4095 -0.8192 -1.9548
 8950SOL    HW238484   2.628   3.135   2.378  3.0874 -0.8968 -4.9413
 8951SOL     OW38485   4.145   2.700  13.102 -0.5543 -0.0900  0.2888
 8951SOL    HW138486   4.191   2.620  13.128  0.2054  0.8295  1.7984
 8951SOL    HW238487   4.058   2.662  13.096 -0.0548 -1.0092 -1.1663
 8952SOL     OW38488   4.087   0.321  14.975  0.1806 -0.2970  0.0755
 8952SOL    HW138489   4.153   0.265  15.016  0.8930 -0.8329 -1.8330
 8952SOL    HW238490   4.150   0.371  14.924  0.4264 -1.5327 -0.8108
 8953SOL     OW38491   2.965   3.696   6.564 -0.1408 -0.5804 -0.5428
 8953SOL    HW138492   3.044   3.685   6.512 -1.2410 -0.2487 -2.2744
 8953SOL    HW238493   2.907   3.748   6.508  1.4924 -0.9187 -2.5222
 8954SOL     OW38494   3.573   1.363   2.105  0.1642  0.3231  0.1874
 8954SOL    HW138495   3.620   1.331   2.028 -0.7759 -2.6724  0.8671
 8954SOL    HW238496   3.526   1.441   2.074 -2.2270 -1.1979  0.0137
 8955SOL     OW38497   2.111   2.061   6.677  0.1204 -0.2451  0.0550
 8955SOL    HW138498   2.140   2.147   6.707  0.1757  0.1309 -1.0913
 8955SOL    HW238499   2.041   2.054   6.742 -0.7523  0.1905 -0.8329
 8956SOL     OW38500   3.928   0.995   8.284 -0.3484  0.0744 -0.2327
 8956SOL    HW138501   3.932   1.062   8.216 -2.8536 -0.0607 -0.5201
 8956SOL    HW238502   3.868   0.933   8.241 -1.6047  0.2934  1.1843
 8957SOL     OW38503   0.884   0.626   8.957  0.1022 -0.4959  0.3310
 8957SOL    HW138504   0.869   0.576   8.877  0.9602  0.0108 -0.1534
 8957SOL    HW238505   0.824   0.576   9.011  0.3012 -0.3102  0.7201
 8958SOL     OW38506   0.234   0.672  14.238 -0.4044  0.2328 -0.4303
 8958SOL    HW138507   0.257   0.744  14.179 -2.2178  0.9400 -0.2595
 8958SOL    HW238508   0.318   0.627  14.249 -2.0779 -2.0253  3.0330
 8959SOL     OW38509   0.846   3.373   9.231 -0.3523  0.0680  0.4206
 8959SOL    HW138510   0.808   3.291   9.200 -0.4103 -0.2329  1.3116
 8959SOL    HW238511   0.816   3.383   9.321  0.4420  0.6628  0.6290
 8960SOL     OW38512   3.896   0.629   8.740 -0.2030  0.0842  0.0042
 8960SOL    HW138513   3.985   0.607   8.769  0.7839  1.1305 -2.2148
 8960SOL    HW238514   3.923   0.653   8.652  0.7807  0.7739  0.4925
 8961SOL     OW38515   0.778   1.693  16.398 -0.8961 -0.2686 -0.0977
 8961SOL    HW138516   0.819   1.695  16.484 -1.4417  1.1995  0.1347
 8961SOL    HW238517   0.687   1.665  16.411 -1.0314 -0.6237 -1.7072
 8962SOL     OW38518   4.091   1.833   2.938 -0.3840 -0.6944  0.3004
 8962SOL    HW138519   4.171   1.869   2.901 -0.0288 -0.6008  1.1576
 8962SOL    HW238520   4.035   1.900   2.899  1.2436  0.3463 -0.2532
 8963SOL     OW38521   2.220   3.683   3.394 -0.0713 -0.4039 -0.3917
 8963SOL    HW138522   2.204   3.593   3.422 -1.9023 -0.3538 -1.2686
 8963SOL    HW238523   2.208   3.678   3.299 -1.6092  0.7842 -0.2547
 8964SOL     OW38524   4.108   0.429   3.756 -0.2154 -0.4160 -0.1467
 8964SOL    HW138525   4.075   0.492   3.820 -2.4401 -0.2695 -1.4633
 8964SOL    HW238526   4.195   0.411   3.793  0.8269  0.3018 -2.2075
 8965SOL     OW38527   3.854   1.062  13.249 -0.4955 -0.7064 -0.0121
 8965SOL    HW138528   3.775   1.010  13.234 -0.6814  0.1886 -2.1045
 8965SOL    HW238529   3.912   0.988  13.266 -1.4694 -1.5115 -0.1538
 8966SOL     OW38530   2.385   1.521   5.213  0.2688  0.5220  0.0521
 8966SOL    HW138531   2.472   1.555   5.232  0.3787 -0.3801  1.1550
 8966SOL    HW238532   2.350   1.600   5.170  0.3344 -1.1798 -3.0889
 8967SOL     OW38533   1.949   0.908   7.062 -0.2334 -0.0784 -0.0763
 8967SOL    HW138534   1.989   0.860   7.134 -2.5020 -1.3291  0.3749
 8967SOL    HW238535   1.875   0.953   7.102  0.4794  0.1015  1.0260
 8968SOL     OW38536   0.090   2.909   4.603 -0.0831  0.2476  0.0919
 8968SOL    HW138537   0.111   2.989   4.554 -0.5072  1.1446  1.3631
 8968SOL    HW238538   0.104   2.847   4.531 -2.4088  0.3068 -0.4192
 8969SOL     OW38539   2.458   2.323   4.018 -0.3912 -0.0405  0.1365
 8969SOL    HW138540   2.496   2.338   4.104 -2.4711  0.1917  1.0017
 8969SOL    HW238541   2.495   2.399   3.972 -0.1326 -1.3063 -1.7540
 8970SOL     OW38542   3.418   4.611   8.623 -0.0673 -0.7408  0.0773
 8970SOL    HW138543   3.457   4.563   8.551 -1.8763  1.9653 -2.6878
 8970SOL    HW238544   3.427   4.549   8.696  0.4812  0.3336  0.9287
 8971SOL     OW38545   1.096   4.676   9.571 -0.4529 -0.2875 -0.2217
 8971SOL    HW138546   1.084   4.595   9.522  1.4280  0.1739 -1.4510
 8971SOL    HW238547   1.173   4.699   9.517 -0.6010 -1.9132 -1.1309
 8972SOL     OW38548   0.090   2.900   5.796  0.3224 -0.1607 -0.5969
 8972SOL    HW138549   4.739   2.877   5.814 -0.1968  1.9667 -0.5780
 8972SOL    HW238550   0.096   2.863   5.708 -1.2629  0.8440 -1.1206
 8973SOL     OW38551   2.374   0.998  11.993  0.1925  0.2368  0.2791
 8973SOL    HW138552   2.281   1.010  12.013 -0.0683  0.3944 -1.0124
 8973SOL    HW238553   2.379   0.903  12.005  0.0652  0.0939 -0.7676
 8974SOL     OW38554   0.163   2.194   0.566 -0.7146  0.5573  0.2229
 8974SOL    HW138555   0.254   2.216   0.547  0.3027 -4.1543 -0.3199
 8974SOL    HW238556   0.128   2.153   0.487  2.5918 -1.5753 -0.1728
 8975SOL     OW38557   2.916   1.300  12.041  0.2741  0.0369  0.2307
 8975SOL    HW138558   2.971   1.293  11.963 -0.1742 -2.9022  0.1672
 8975SOL    HW238559   2.853   1.367  12.014 -4.2172 -3.8389  1.0523
 8976SOL     OW38560   1.745   0.539  14.630 -0.0700  0.0023 -0.8117
 8976SOL    HW138561   1.682   0.611  14.636 -0.1154 -0.1104  0.0946
 8976SOL    HW238562   1.796   0.568  14.555  0.1163 -2.4294 -1.6214
 8977SOL     OW38563   4.546   0.858  16.654  0.0835 -0.4472  0.2374
 8977SOL    HW138564   4.458   0.823  16.638  0.2281 -0.2495 -0.9983
 8977SOL    HW238565   4.557   0.907  16.572  0.8562 -1.0753 -0.0245
 8978SOL     OW38566   4.356   0.309  17.205 -0.1058 -0.3690 -0.4326
 8978SOL    HW138567   4.303   0.373  17.157  1.9107 -0.0124 -2.1888
 8978SOL    HW238568   4.415   0.362  17.259 -0.7859  0.6600 -0.7039
 8979SOL     OW38569   4.206   2.573   3.588  0.0269 -1.1285  0.1448
 8979SOL    HW138570   4.213   2.667   3.572 -0.5016 -0.7725  2.0151
 8979SOL    HW238571   4.295   2.543   3.607  1.2931  2.9575  0.6092
 8980SOL     OW38572   0.993   3.973   8.924 -0.1244 -0.7615 -0.4205
 8980SOL    HW138573   1.064   3.991   8.985 -0.0086 -0.3053 -0.6897
 8980SOL    HW238574   1.025   4.021   8.847  1.2090  2.9097  2.4092
 8981SOL     OW38575   2.576   3.025   5.905 -0.3709 -0.3407 -0.1281
 8981SOL    HW138576   2.533   3.032   5.820 -0.4386 -3.6422 -0.3459
 8981SOL    HW238577   2.590   3.117   5.927  1.0665 -1.0907  2.1101
 8982SOL     OW38578   4.664   1.542  11.866  0.6755 -0.4653 -0.2971
 8982SOL    HW138579   4.686   1.632  11.891 -0.2658 -0.4361  0.3878
 8982SOL    HW238580   4.578   1.563  11.830 -0.1725 -0.2738  1.8508
 8983SOL     OW38581   0.399   0.119  14.251 -0.1375  0.1457 -0.1451
 8983SOL    HW138582   0.452   0.053  14.206 -0.9302  0.0662 -0.9774
 8983SOL    HW238583   0.317   0.120  14.202 -1.2394  0.5302  1.6995
 8984SOL     OW38584   4.639   1.959   3.990 -0.2283 -0.0962 -0.2640
 8984SOL    HW138585   4.716   1.911   4.020 -0.1150 -0.1207 -0.5858
 8984SOL    HW238586   4.689   2.037   3.967  1.1867 -0.0539  2.9196
 8985SOL     OW38587   0.356   4.190  12.446 -0.0097  0.5689 -0.1587
 8985SOL    HW138588   0.359   4.103  12.406 -2.0881  0.3102  0.2087
 8985SOL    HW238589   0.315   4.236  12.372 -0.7576  0.1513 -0.0042
 8986SOL     OW38590   4.106   2.352   3.411 -0.1654  0.0438 -0.4435
 8986SOL    HW138591   4.141   2.378   3.326  0.7894  1.0734  0.2802
 8986SOL    HW238592   4.144   2.421   3.464  0.5313  0.0344 -0.9378
 8987SOL     OW38593   3.235   2.309   9.421 -0.4440  0.2092 -0.1135
 8987SOL    HW138594   3.184   2.390   9.417 -1.0291 -0.1395  0.1549
 8987SOL    HW238595   3.174   2.272   9.485  0.7314  0.7171  1.2905
 8988SOL     OW38596   2.419   0.687   7.794  1.1219  0.1075 -0.4328
 8988SOL    HW138597   2.405   0.761   7.735 -1.1478  0.5398  0.6324
 8988SOL    HW238598   2.465   0.741   7.858  0.2832 -0.3597  0.5546
 8989SOL     OW38599   2.504   1.443   4.562  0.3131 -0.2247  0.2683
 8989SOL    HW138600   2.572   1.381   4.537  1.9850  1.1397  1.4079
 8989SOL    HW238601   2.442   1.385   4.607  0.6409 -1.2765 -0.6288
 8990SOL     OW38602   1.179   1.123   7.152  0.1344 -0.4187 -0.1569
 8990SOL    HW138603   1.126   1.126   7.231 -1.0783  0.3354 -0.9896
 8990SOL    HW238604   1.239   1.198   7.156  0.1478 -0.4157 -0.3926
 8991SOL     OW38605   3.021   0.310   2.637  0.1668  0.2174  0.8169
 8991SOL    HW138606   3.113   0.307   2.612 -0.2356  0.1801 -0.7047
 8991SOL    HW238607   2.993   0.231   2.591 -1.6655  1.8952 -0.9959
 8992SOL     OW38608   1.888   3.813   4.147 -0.6039 -0.2165 -0.0687
 8992SOL    HW138609   1.839   3.783   4.224  2.0117  0.2237  1.7684
 8992SOL    HW238610   1.953   3.874   4.181  1.8286 -3.1816  0.6398
 8993SOL     OW38611   0.489   2.209   8.804  0.1380  0.1408 -0.1011
 8993SOL    HW138612   0.501   2.170   8.718  2.4624 -0.6328  0.5650
 8993SOL    HW238613   0.581   2.229   8.823  0.4852 -0.6038 -1.0076
 8994SOL     OW38614   2.012   2.103   7.285  0.2258  0.0241  0.4570
 8994SOL    HW138615   2.107   2.095   7.288  0.2903  0.9137  0.7990
 8994SOL    HW238616   1.988   2.108   7.378 -1.2862 -1.8424  0.1691
 8995SOL     OW38617   3.330   2.799   7.843  0.4946 -0.1641 -0.3269
 8995SOL    HW138618   3.240   2.811   7.812  0.0893 -0.2337  0.8304
 8995SOL    HW238619   3.327   2.797   7.939 -2.2290  0.5391 -0.4064
 8996SOL     OW38620   2.059   2.408   4.944 -0.1502  0.0849 -0.0629
 8996SOL    HW138621   2.138   2.437   4.900  1.1268 -0.6158  1.7573
 8996SOL    HW238622   2.086   2.362   5.024  0.7735  0.8744  0.0705
 8997SOL     OW38623   1.374   4.624  16.550  0.6769  0.0817  0.1648
 8997SOL    HW138624   1.455   4.606  16.502 -0.8816 -1.2410 -1.9988
 8997SOL    HW238625   1.412   4.631  16.637 -0.0452 -0.6487  0.5372
 8998SOL     OW38626   4.162   3.591   9.502  0.3445 -0.0324  0.4889
 8998SOL    HW138627   4.223   3.664   9.517  0.9823 -0.7392  1.3549
 8998SOL    HW238628   4.193   3.554   9.419  0.5821 -1.3370  1.1619
 8999SOL     OW38629   2.852   0.513   5.576 -0.3249 -0.6412 -0.3020
 8999SOL    HW138630   2.876   0.599   5.612  0.4382 -1.0205  0.1039
 8999SOL    HW238631   2.808   0.541   5.496 -0.5398 -1.8557 -0.6048
 9000SOL     OW38632   0.945   2.832  10.517  0.0398 -0.0336  0.1245
 9000SOL    HW138633   1.011   2.900  10.524 -0.5899  1.0021 -3.9920
 9000SOL    HW238634   0.865   2.873  10.552 -0.3864 -0.6832 -0.0767
 9001SOL     OW38635   3.710   2.667  14.889 -0.2334  0.4901  0.0174
 9001SOL    HW138636   3.743   2.608  14.957 -0.0240  0.5846 -0.0046
 9001SOL    HW238637   3.780   2.664  14.824  0.5392  0.3062  0.8528
 9002SOL     OW38638   1.685   2.627   7.665 -0.2812  0.1798  0.1503
 9002SOL    HW138639   1.601   2.652   7.702 -0.1013  0.6457  0.2390
 9002SOL    HW238640   1.714   2.717   7.650 -1.2758  0.7968  1.9334
 9003SOL     OW38641   0.214   0.761   7.497 -0.6548  0.9384  0.2172
 9003SOL    HW138642   0.162   0.682   7.510 -1.4746  1.4417 -0.0098
 9003SOL    HW238643   0.220   0.761   7.402 -3.9386 -1.6668 -0.0201
 9004SOL     OW38644   0.504   3.322  17.046 -0.3010 -0.0068  0.5384
 9004SOL    HW138645   0.529   3.358  17.131 -1.5543 -2.0705  1.7778
 9004SOL    HW238646   0.446   3.394  17.022  0.9973  0.5962 -0.7916
 9005SOL     OW38647   4.275   4.468   9.943 -0.4632  0.1727  0.0544
 9005SOL    HW138648   4.315   4.391   9.983 -2.2284 -0.7522  0.0283
 9005SOL    HW238649   4.344   4.535   9.942 -1.5725  1.3589  1.3907
 9006SOL     OW38650   4.026   3.906   7.341 -0.7345 -0.4527  0.2245
 9006SOL    HW138651   4.076   3.887   7.421 -2.6957 -3.2400  0.7984
 9006SOL    HW238652   4.070   3.987   7.314 -0.2123 -0.8635 -0.1580
 9007SOL     OW38653   2.016   4.662   7.139 -0.4567  0.0023 -0.1784
 9007SOL    HW138654   1.962   4.614   7.202 -0.3486  0.7715  0.4908
 9007SOL    HW238655   1.965   0.002   7.133 -1.0206 -0.4828 -1.8452
 9008SOL     OW38656   1.891   2.866   2.742 -0.1530 -0.2336 -0.0285
 9008SOL    HW138657   1.857   2.951   2.714  0.5916  0.4824  1.1912
 9008SOL    HW238658   1.955   2.881   2.812  0.6516  2.0346 -1.2270
 9009SOL     OW38659   3.355   3.586   2.609 -0.0183  0.5736  0.3850
 9009SOL    HW138660   3.304   3.580   2.528  0.1438 -2.2134  0.4844
 9009SOL    HW238661   3.416   3.658   2.596  1.1870 -0.2920  1.2880
 9010SOL     OW38662   2.261   3.210  17.365  0.3350  0.0697 -0.0662
 9010SOL    HW138663   2.300   3.132  17.404  1.2035  0.8228  0.5999
 9010SOL    HW238664   2.331   3.222  17.300 -1.2945  2.2422 -1.4252
 9011SOL     OW38665   0.398   4.151   7.639 -0.6660  0.4150 -0.0757
 9011SOL    HW138666   0.478   4.128   7.686  0.5144  3.4854 -0.6359
 9011SOL    HW238667   0.429   4.219   7.580  2.8210 -2.2718 -1.2984
 9012SOL     OW38668   4.510   3.264   4.975 -0.2721 -0.0254  0.0498
 9012SOL    HW138669   4.499   3.326   5.047 -0.1169 -2.5241  2.2197
 9012SOL    HW238670   4.445   3.292   4.911 -1.2804 -2.6411 -0.0967
 9013SOL     OW38671   4.099   1.981   2.038  0.1319  0.0679  0.2697
 9013SOL    HW138672   4.181   1.932   2.033 -0.5454 -0.9669 -0.7089
 9013SOL    HW238673   4.129   2.070   2.016  0.4378 -0.1850 -0.3486
 9014SOL     OW38674   4.529   0.277   7.135  0.0928  0.4190 -0.0209
 9014SOL    HW138675   4.514   0.226   7.055  1.9474  0.6276 -0.5068
 9014SOL    HW238676   4.441   0.273   7.172 -0.6095  0.1734 -1.6954
 9015SOL     OW38677   3.470   4.240   0.379  0.1619 -0.1759 -0.0958
 9015SOL    HW138678   3.396   4.286   0.417 -0.0760 -0.9984  0.4277
 9015SOL    HW238679   3.482   4.287   0.297  1.4521 -1.5865 -0.7176
 9016SOL     OW38680   1.275   2.713   3.809  0.2879 -0.6301 -0.1415
 9016SOL    HW138681   1.348   2.662   3.772 -0.8530 -0.3426 -2.7134
 9016SOL    HW238682   1.207   2.646   3.816 -1.9765  1.5879 -0.8988
 9017SOL     OW38683   2.561   2.313  11.418  0.4040  0.3076  0.1829
 9017SOL    HW138684   2.559   2.327  11.513  2.3508 -0.0415  0.2803
 9017SOL    HW238685   2.519   2.230  11.398 -0.4430  0.3753  1.6547
 9018SOL     OW38686   3.139   0.905   0.704  0.4268 -0.4443  0.1988
 9018SOL    HW138687   3.224   0.890   0.746 -0.6682  0.6289  2.8228
 9018SOL    HW238688   3.116   0.984   0.753 -2.2365 -0.1113 -1.6246
 9019SOL     OW38689   3.603   4.466   6.080  0.0412 -0.4215  0.4094
 9019SOL    HW138690   3.641   4.518   6.151  1.9970  0.3217 -1.1630
 9019SOL    HW238691   3.523   4.517   6.068  0.5302  0.7204  2.0226
 9020SOL     OW38692   4.350   4.720   9.536  0.1002 -0.6077 -0.3766
 9020SOL    HW138693   4.323   4.631   9.558  0.1147 -0.7478 -0.9212
 9020SOL    HW238694   4.431   4.695   9.490  1.4784  0.3824  1.4963
 9021SOL     OW38695   1.038   1.183  12.691  0.0496  0.8727  0.1634
 9021SOL    HW138696   0.968   1.228  12.739  0.6574  1.4573  0.5049
 9021SOL    HW238697   1.040   1.098  12.735  0.3797  0.8684  0.1431
 9022SOL     OW38698   3.679   2.448   1.816 -0.0098 -0.1607  0.0139
 9022SOL    HW138699   3.673   2.356   1.789 -0.3089  0.1304 -0.9027
 9022SOL    HW238700   3.761   2.485   1.784 -0.0222  0.3108  0.5233
 9023SOL     OW38701   3.746   0.946   7.813  0.2140  0.2887  0.1532
 9023SOL    HW138702   3.710   0.861   7.840  0.7478  0.7648  2.3180
 9023SOL    HW238703   3.672   0.998   7.845  1.5066  1.2708  1.4930
 9024SOL     OW38704   0.474   4.654   2.793 -0.1343 -0.0309  0.5365
 9024SOL    HW138705   0.451   4.638   2.885  0.1306 -1.6557  0.3125
 9024SOL    HW238706   0.386   4.656   2.754  0.3231  0.6763 -0.4611
 9025SOL     OW38707   4.048   2.489   4.878 -0.0961 -0.3399  0.0656
 9025SOL    HW138708   4.025   2.521   4.791 -3.3705  0.0603  1.0664
 9025SOL    HW238709   4.020   2.397   4.877 -1.2419  0.0007  0.2654
 9026SOL     OW38710   3.474   2.217   9.504 -0.0132 -0.0971  0.4697
 9026SOL    HW138711   3.388   2.241   9.471 -0.9746 -2.5257  1.2826
 9026SOL    HW238712   3.522   2.299   9.490 -0.7048  0.0238 -1.2247
 9027SOL     OW38713   0.635   1.893  17.739  0.5677  0.2470  0.1818
 9027SOL    HW138714   0.596   1.813  17.701 -0.3175 -0.1116  1.8742
 9027SOL    HW238715   0.719   1.852   0.001 -0.3900 -0.7755  2.1834
 9028SOL     OW38716   1.122   0.678   7.266 -0.1438 -0.1053  0.6930
 9028SOL    HW138717   1.211   0.667   7.299  0.3210  1.7652  0.0818
 9028SOL    HW238718   1.102   0.761   7.310  1.2907 -0.3220  1.7694
 9029SOL     OW38719   1.279   2.773   9.378  0.7737 -0.3567  0.1780
 9029SOL    HW138720   1.331   2.792   9.456 -2.2835 -1.5360  2.4928
 9029SOL    HW238721   1.188   2.790   9.401  0.6773 -1.4133  0.5459
 9030SOL     OW38722   2.735   3.089   5.180 -0.0675  0.2651  0.8327
 9030SOL    HW138723   2.664   3.154   5.186 -0.3112 -0.1174  2.1626
 9030SOL    HW238724   2.778   3.096   5.095 -0.1031 -0.9935  0.7133
 9031SOL     OW38725   2.253   1.776   3.893 -0.0319  0.0154 -0.2373
 9031SOL    HW138726   2.284   1.787   3.983 -1.8271 -1.5642  0.5847
 9031SOL    HW238727   2.168   1.738   3.915  0.5523 -0.6338  0.9412
 9032SOL     OW38728   2.376   1.122  13.111  0.0164  0.0916  0.0675
 9032SOL    HW138729   2.334   1.036  13.100 -0.6066  0.5416 -1.0875
 9032SOL    HW238730   2.421   1.113  13.195  2.7095 -0.4080 -1.4146
 9033SOL     OW38731   4.089   2.345   1.734 -0.2936 -0.0505  0.1665
 9033SOL    HW138732   4.036   2.266   1.726  0.9373 -0.9680  1.1393
 9033SOL    HW238733   4.165   2.317   1.784 -1.1546  0.6792  1.8968
 9034SOL     OW38734   2.184   0.652  15.621  0.4375 -0.1966 -0.1618
 9034SOL    HW138735   2.167   0.679  15.531 -0.4441  2.1696  0.7086
 9034SOL    HW238736   2.248   0.718  15.647 -0.2996 -0.3516  2.0494
 9035SOL     OW38737   2.459   1.219   9.070 -0.0474  0.0427  0.2196
 9035SOL    HW138738   2.520   1.289   9.095 -0.1226 -0.8958  2.9911
 9035SOL    HW238739   2.484   1.199   8.980  1.1728  2.7289 -0.0408
 9036SOL     OW38740   3.312   4.588   8.025 -0.1210 -0.3165 -0.3643
 9036SOL    HW138741   3.224   4.594   8.062  0.3998  1.4446  0.6110
 9036SOL    HW238742   3.308   4.517   7.962 -1.5709 -1.0792  0.5846
 9037SOL     OW38743   0.915   2.637   3.182 -0.0514 -0.5738  0.0419
 9037SOL    HW138744   0.976   2.586   3.129 -0.8562 -2.7638  1.2378
 9037SOL    HW238745   0.967   2.705   3.227 -3.0043  1.0722  0.9702
 9038SOL     OW38746   2.124   0.024  15.541 -0.6867 -0.0596  0.5706
 9038SOL    HW138747   2.162   0.007  15.627  0.4341 -0.4709 -0.0137
 9038SOL    HW238748   2.202   0.032  15.488 -0.9963 -0.5227  0.0481
 9039SOL     OW38749   2.238   2.036  11.556 -0.0037 -0.3374 -0.4303
 9039SOL    HW138750   2.145   2.057  11.543 -0.5129 -0.6549  2.6432
 9039SOL    HW238751   2.258   2.113  11.609  0.0309 -1.3945  1.1057
 9040SOL     OW38752   0.850   4.299   8.980  0.4221  0.0207  0.1427
 9040SOL    HW138753   0.880   4.383   9.014  0.1090  0.1242  0.1614
 9040SOL    HW238754   0.929   4.285   8.927  0.3879 -0.7407  0.2924
 9041SOL     OW38755   1.377   4.377  16.147  0.3361 -0.0632 -0.1836
 9041SOL    HW138756   1.301   4.412  16.194 -0.8864  1.3724 -3.2199
 9041SOL    HW238757   1.346   4.291  16.119 -0.0687 -0.0250  0.1458
 9042SOL     OW38758   0.550   4.476   4.275  0.2153 -0.0527  0.1039
 9042SOL    HW138759   0.548   4.380   4.280 -1.6550 -0.1343 -2.0039
 9042SOL    HW238760   0.631   4.492   4.228 -1.0877  1.8802 -1.4712
 9043SOL     OW38761   0.717   1.078   2.716  0.1364  0.1122 -0.1565
 9043SOL    HW138762   0.625   1.090   2.692  0.3647  0.6039 -0.7948
 9043SOL    HW238763   0.722   1.135   2.793 -0.5184  0.2387 -0.2067
 9044SOL     OW38764   3.956   3.392   6.122  0.2735  0.3409 -0.0981
 9044SOL    HW138765   4.020   3.357   6.183  0.5213 -0.2000 -0.6754
 9044SOL    HW238766   3.928   3.315   6.072  0.5302  0.5757 -0.5979
 9045SOL     OW38767   4.001   1.123   4.780 -0.1260 -0.7413 -0.3671
 9045SOL    HW138768   3.913   1.102   4.813  0.5790 -0.5965  1.5981
 9045SOL    HW238769   4.018   1.205   4.827 -0.4617  0.6066 -2.6226
 9046SOL     OW38770   1.427   1.426   4.626  0.0786  0.3587  0.2910
 9046SOL    HW138771   1.402   1.503   4.575 -0.2968  1.4326  2.0841
 9046SOL    HW238772   1.361   1.365   4.594 -0.2840  0.7633  0.2693
 9047SOL     OW38773   3.362   3.814   9.139  0.6584  0.1744  0.4155
 9047SOL    HW138774   3.297   3.884   9.144  0.8082  0.4522 -1.7188
 9047SOL    HW238775   3.421   3.838   9.210 -2.4755  2.5175  2.2536
 9048SOL     OW38776   3.302   0.837   4.696 -0.1160 -0.2045  0.2677
 9048SOL    HW138777   3.313   0.748   4.731 -4.7958 -0.1080  1.9894
 9048SOL    HW238778   3.346   0.893   4.759  0.3277 -0.8490  0.5302
 9049SOL     OW38779   3.445   1.190  16.174  0.1758  0.4736 -0.5882
 9049SOL    HW138780   3.394   1.109  16.162  0.5365 -0.3412  3.4599
 9049SOL    HW238781   3.377   1.252  16.147 -0.0129  2.0086  3.4658
 9050SOL     OW38782   0.376   2.467   5.014  0.7960 -0.2606  0.1469
 9050SOL    HW138783   0.457   2.477   5.063  1.9598 -2.5143 -1.3290
 9050SOL    HW238784   0.332   2.404   5.071 -1.4210 -1.3660 -2.7822
 9051SOL     OW38785   1.072   0.401   7.234 -0.1675 -0.3388  0.3676
 9051SOL    HW138786   1.039   0.384   7.146  2.1285  2.0981 -0.9522
 9051SOL    HW238787   1.117   0.485   7.226 -0.4951 -0.2805 -0.8195
 9052SOL     OW38788   2.665   3.729  12.267  0.1450  0.3111  0.3910
 9052SOL    HW138789   2.754   3.765  12.263 -0.8510  2.7216 -0.1817
 9052SOL    HW238790   2.629   3.808  12.307  2.8347  1.9876 -0.4801
 9053SOL     OW38791   0.319   3.301   6.911  0.1129 -0.0008  0.3254
 9053SOL    HW138792   0.399   3.296   6.860  0.4576 -2.2026  1.0821
 9053SOL    HW238793   0.256   3.285   6.841  1.1419 -1.1526 -0.3289
 9054SOL     OW38794   4.438   1.414   8.094  0.0854  0.9367 -0.0203
 9054SOL    HW138795   4.425   1.361   8.015  1.6166  2.5881 -1.4000
 9054SOL    HW238796   4.348   1.420   8.124  0.3381  0.0211  0.9151
 9055SOL     OW38797   0.998   2.416   4.929  0.4537 -0.8595  0.3200
 9055SOL    HW138798   0.996   2.512   4.931  1.6818 -0.8614  1.1097
 9055SOL    HW238799   0.920   2.425   4.985  0.2026 -1.8229  0.1235
 9056SOL     OW38800   0.375   2.560  14.448 -0.0476 -0.0923  0.1103
 9056SOL    HW138801   0.386   2.648  14.415  0.4458 -0.2226 -0.0686
 9056SOL    HW238802   0.367   2.510  14.367  0.5245 -1.3374  0.8102
 9057SOL     OW38803   1.878   0.145   5.548 -0.1989  0.1107 -0.5218
 9057SOL    HW138804   1.951   0.199   5.579  0.9282 -1.4285 -0.5106
 9057SOL    HW238805   1.863   0.091   5.625  1.5644  1.4855  0.7999
 9058SOL     OW38806   1.443   1.614   3.294 -0.1893  0.2365  0.0121
 9058SOL    HW138807   1.486   1.551   3.351 -1.9790 -0.3966  0.6555
 9058SOL    HW238808   1.513   1.663   3.251 -0.3932  0.7508  0.2610
 9059SOL     OW38809   4.713   3.370   6.955  0.1784  0.2404 -0.1745
 9059SOL    HW138810   4.687   3.311   7.026 -0.8819  0.3732 -0.4606
 9059SOL    HW238811   0.069   3.370   6.960  0.0321 -1.8953  2.6143
 9060SOL     OW38812   2.498   2.234   6.873 -0.1078  0.1857 -0.2020
 9060SOL    HW138813   2.475   2.324   6.848 -2.4018 -0.9251 -2.1177
 9060SOL    HW238814   2.447   2.184   6.809  0.8082  1.9894 -2.3018
 9061SOL     OW38815   0.991   1.901   7.411 -0.5469 -0.8854  0.1867
 9061SOL    HW138816   0.918   1.878   7.469 -1.1148 -0.8121 -0.5117
 9061SOL    HW238817   0.972   1.989   7.382  1.4219 -0.3947  0.3473
 9062SOL     OW38818   4.398   4.280   7.022 -0.5411 -0.3336  0.3083
 9062SOL    HW138819   4.463   4.321   7.079 -0.3351  0.9405 -0.8387
 9062SOL    HW238820   4.423   4.191   7.044 -0.3713  0.1273  1.9610
 9063SOL     OW38821   1.333   4.270   8.928 -0.1161 -0.8854 -0.0594
 9063SOL    HW138822   1.373   4.186   8.952  1.2148 -1.0273 -2.7669
 9063SOL    HW238823   1.403   4.331   8.952 -0.0297  0.3164 -3.4711
 9064SOL     OW38824   3.202   3.633   1.035  0.6118  0.2206  0.0705
 9064SOL    HW138825   3.146   3.602   1.106  0.8894  0.3837  0.3626
 9064SOL    HW238826   3.209   3.553   0.984  0.5158  1.2486 -1.5524
 9065SOL     OW38827   3.332   4.041   7.700  0.3938  0.0557 -0.4983
 9065SOL    HW138828   3.424   4.027   7.720  0.1188 -0.6344  0.2581
 9065SOL    HW238829   3.328   4.029   7.605  1.3251 -1.4399 -0.3404
 9066SOL     OW38830   2.029   1.231  10.808  0.0050  0.2150 -0.1667
 9066SOL    HW138831   1.994   1.222  10.720 -0.2607 -1.4020  0.1119
 9066SOL    HW238832   2.084   1.309  10.799 -1.5232  1.4302  1.1953
 9067SOL     OW38833   4.632   4.096   3.500 -0.4434 -0.1152 -0.1272
 9067SOL    HW138834   4.550   4.101   3.450 -0.4175  1.4803  0.0042
 9067SOL    HW238835   4.655   4.004   3.488 -2.5637 -0.6783  0.0989
 9068SOL     OW38836   2.099   0.726   7.801  0.3974 -0.5394 -0.6500
 9068SOL    HW138837   2.060   0.694   7.719  2.7984 -1.4483 -1.4581
 9068SOL    HW238838   2.085   0.643   7.847  0.1283  0.8494  1.7242
 9069SOL     OW38839   3.539   1.190   3.950 -0.2384  0.0331 -0.7395
 9069SOL    HW138840   3.464   1.159   4.002 -1.1024  1.3640 -1.1816
 9069SOL    HW238841   3.519   1.282   3.967  0.4054  0.3435 -1.6844
 9070SOL     OW38842   1.591   1.178   4.678 -0.3960  0.2352 -0.1285
 9070SOL    HW138843   1.561   1.108   4.621  1.5298 -0.3091 -0.4596
 9070SOL    HW238844   1.584   1.255   4.622 -0.3227  0.5530  0.2986
 9071SOL     OW38845   2.731   2.152   3.199  0.0116 -0.1070  0.6144
 9071SOL    HW138846   2.745   2.210   3.124  1.1359 -0.9559  0.1603
 9071SOL    HW238847   2.779   2.195   3.270 -0.9249  2.6215 -0.4002
 9072SOL     OW38848   2.430   4.087   6.111  0.5112 -0.1446  0.3287
 9072SOL    HW138849   2.352   4.095   6.166  1.6030  1.5540  1.6320
 9072SOL    HW238850   2.398   4.006   6.073 -0.0938  0.9698 -1.5344
 9073SOL     OW38851   1.069   1.830   0.056  0.5834 -0.2141  0.4937
 9073SOL    HW138852   1.096   1.921   0.045 -0.5126  0.0344 -0.1074
 9073SOL    HW238853   1.145   1.789   0.015  0.7072  1.4334 -0.9497
 9074SOL     OW38854   4.219   0.888   4.885 -0.2573  0.3422  0.0438
 9074SOL    HW138855   4.258   0.975   4.898 -0.6422  0.3244  1.2252
 9074SOL    HW238856   4.146   0.890   4.946  1.1633  0.0600  1.7390
 9075SOL     OW38857   4.586   0.099   8.665  0.4829  0.5808 -0.1593
 9075SOL    HW138858   4.541   0.020   8.694  1.7167 -0.0244  0.0915
 9075SOL    HW238859   4.528   0.137   8.599 -0.6913 -1.4319 -0.2755
 9076SOL     OW38860   3.438   3.988   8.627 -0.4063  0.1485 -0.1813
 9076SOL    HW138861   3.523   3.955   8.597  0.1834  1.6518 -0.1774
 9076SOL    HW238862   3.428   3.953   8.715  1.9935  0.7304  0.3148
 9077SOL     OW38863   3.634   1.007   7.168 -0.0281  0.0178 -0.0875
 9077SOL    HW138864   3.679   0.980   7.248 -1.1745 -0.0243  0.5427
 9077SOL    HW238865   3.568   0.937   7.166 -0.7167  0.6264  1.6640
 9078SOL     OW38866   3.957   2.530   5.717 -0.2777  0.1066 -0.0067
 9078SOL    HW138867   3.996   2.552   5.801  1.9139  0.4797 -1.1006
 9078SOL    HW238868   3.947   2.435   5.716  1.8286 -0.1083 -0.8464
 9079SOL     OW38869   1.591   4.150   9.992 -0.0838 -0.5303 -0.5453
 9079SOL    HW138870   1.515   4.159  10.049 -0.2076 -0.2473 -0.7547
 9079SOL    HW238871   1.561   4.093   9.921 -1.8469  1.3125 -1.2884
 9080SOL     OW38872   4.676   3.570   1.933 -0.1073 -0.4655  0.5361
 9080SOL    HW138873   4.735   3.571   1.858  0.8561  2.0111  1.3233
 9080SOL    HW238874   4.689   3.486   1.977  0.3752 -0.7839 -0.2139
 9081SOL     OW38875   0.180   3.161   4.951 -0.5319  0.0038 -0.1640
 9081SOL    HW138876   0.179   3.071   4.918  3.5979 -0.3970  0.8100
 9081SOL    HW238877   0.237   3.154   5.028  0.0457 -2.4560 -0.8340
 9082SOL     OW38878   1.047   0.225  17.400 -0.3446 -0.1299 -0.4130
 9082SOL    HW138879   1.032   0.254  17.490  2.0780  0.6717 -0.2616
 9082SOL    HW238880   1.112   0.158  17.422 -2.2946 -1.4242  1.4093
 9083SOL     OW38881   0.246   1.978   8.322  0.0704  0.4829  0.3074
 9083SOL    HW138882   0.208   1.921   8.388 -1.8306  1.4806  0.0818
 9083SOL    HW238883   0.185   2.052   8.329 -0.5614 -0.0205  0.0889
 9084SOL     OW38884   2.509   0.240   6.143 -0.0938 -0.3371 -0.0989
 9084SOL    HW138885   2.552   0.161   6.175 -1.0341  0.5980  3.4953
 9084SOL    HW238886   2.553   0.256   6.060 -0.6248 -0.4735 -0.4052
 9085SOL     OW38887   2.092   1.358   5.588 -0.3772  0.1968  0.5168
 9085SOL    HW138888   2.090   1.452   5.605  1.3036 -0.1091  2.3438
 9085SOL    HW238889   2.135   1.353   5.503  2.7713  1.0234  2.0598
 9086SOL     OW38890   3.066   1.423   6.968 -0.1738  0.3344  0.1803
 9086SOL    HW138891   3.133   1.488   6.991  0.6360  0.1082 -1.5261
 9086SOL    HW238892   3.083   1.400   6.877 -1.1887 -0.5045  0.2108
 9087SOL     OW38893   4.385   1.044   4.512 -0.5121 -0.1767  0.0422
 9087SOL    HW138894   4.292   1.033   4.532 -0.1939 -0.1056  1.5588
 9087SOL    HW238895   4.416   0.977   4.573  0.7175  0.4823  0.1398
 9088SOL     OW38896   3.326   2.484   6.241 -0.3401 -0.4280  1.2225
 9088SOL    HW138897   3.376   2.487   6.160  0.8548  0.7359  2.0020
 9088SOL    HW238898   3.360   2.565   6.279 -0.3803  0.7805 -1.3254
 9089SOL     OW38899   3.236   3.263  17.105 -0.7415 -0.1890  0.3549
 9089SOL    HW138900   3.146   3.296  17.108 -0.2181  0.9723  3.9422
 9089SOL    HW238901   3.221   3.172  17.131 -0.2287 -0.8438 -1.6887
 9090SOL     OW38902   2.188   4.662   3.936 -0.7611 -0.3755 -0.2790
 9090SOL    HW138903   2.127   4.735   3.924 -0.7001 -0.1848  0.6051
 9090SOL    HW238904   2.191   4.656   4.031 -0.8275  0.8495 -0.2015
 9091SOL     OW38905   3.831   1.398   2.523 -0.2228  0.2773 -0.5031
 9091SOL    HW138906   3.864   1.431   2.439 -0.5532 -0.9787 -1.1291
 9091SOL    HW238907   3.899   1.331   2.534 -0.6073 -0.0083  0.1312
 9092SOL     OW38908   0.802   1.284   0.257 -0.3886 -0.2279  0.0591
 9092SOL    HW138909   0.767   1.372   0.273  2.2212  0.6966  0.7325
 9092SOL    HW238910   0.879   1.303   0.202 -0.8170  0.0650 -0.4438
 9093SOL     OW38911   3.554   2.662   7.763 -0.2969 -0.3242  0.1255
 9093SOL    HW138912   3.638   2.642   7.803 -0.4482  0.6183  0.9131
 9093SOL    HW238913   3.520   2.737   7.811  0.4334 -0.3998  0.7443
 9094SOL     OW38914   2.339   2.346   9.655  0.6907  0.8323 -0.4511
 9094SOL    HW138915   2.351   2.429   9.700  0.9821 -0.1199  1.2099
 9094SOL    HW238916   2.405   2.293   9.700  1.3508  2.8668  0.9489
 9095SOL     OW38917   3.522   1.258  14.716  0.3597 -0.0600  0.3539
 9095SOL    HW138918   3.435   1.282  14.748 -0.9159  0.7614 -3.6964
 9095SOL    HW238919   3.563   1.204  14.783 -1.5371 -3.3406 -1.1512
 9096SOL     OW38920   4.133   0.726   8.854 -0.4095 -0.4295 -0.1020
 9096SOL    HW138921   4.173   0.757   8.773 -1.5026 -0.2711 -0.5813
 9096SOL    HW238922   4.130   0.806   8.907  1.3283 -1.1341  1.0460
 9097SOL     OW38923   1.840   2.871   8.712  0.3134 -0.5502 -0.4410
 9097SOL    HW138924   1.780   2.842   8.644 -1.2365 -1.7857  1.4825
 9097SOL    HW238925   1.924   2.831   8.687  1.7977  2.1229  0.2760
 9098SOL     OW38926   4.678   0.424   4.394  0.2604 -0.3279 -0.2285
 9098SOL    HW138927   0.008   0.370   4.430  0.3073 -0.7212 -0.9243
 9098SOL    HW238928   4.683   0.420   4.299  0.6440 -2.3325 -0.1129
 9099SOL     OW38929   3.260   1.948   8.275 -0.0668 -0.4629 -0.0397
 9099SOL    HW138930   3.259   2.030   8.225  3.2373 -0.3887  0.0230
 9099SOL    HW238931   3.215   1.896   8.209  0.4380 -1.8994  0.7436
 9100SOL     OW38932   4.119   1.978   7.287 -0.5339  0.1650  0.2829
 9100SOL    HW138933   4.031   1.957   7.255 -0.2011  1.3486 -1.4617
 9100SOL    HW238934   4.109   2.072   7.305  1.4139  0.5603 -0.7125
 9101SOL     OW38935   4.112   0.883   9.826  0.0449 -0.0186  0.9463
 9101SOL    HW138936   4.074   0.950   9.883 -0.6726  0.9751 -0.7216
 9101SOL    HW238937   4.036   0.825   9.819 -0.7871  1.3678 -1.4788
 9102SOL     OW38938   2.109   3.144   0.995 -1.0285 -0.7287 -0.2310
 9102SOL    HW138939   2.063   3.228   0.992 -2.2970 -1.3994  0.5747
 9102SOL    HW238940   2.053   3.093   1.053 -0.6630  0.9269  1.5942
 9103SOL     OW38941   0.635   2.268   4.610  0.3595 -0.2818 -0.3525
 9103SOL    HW138942   0.728   2.291   4.604  0.0509  1.0035 -0.3125
 9103SOL    HW238943   0.610   2.308   4.693 -1.5434 -2.3530  0.0512
 9104SOL     OW38944   3.213   3.516   1.817 -0.3141  0.2498  0.5370
 9104SOL    HW138945   3.159   3.592   1.837  0.1717  0.6358  0.3750
 9104SOL    HW238946   3.302   3.549   1.809  0.1628 -0.9486  1.0182
 9105SOL     OW38947   3.070   1.385   1.600  0.3884 -0.1211  0.2068
 9105SOL    HW138948   3.132   1.322   1.562  0.8331 -0.5039  1.5644
 9105SOL    HW238949   3.090   1.464   1.550  0.8289 -1.1105 -1.1871
 9106SOL     OW38950   0.906   4.397   4.939  0.2190 -0.7915 -0.3788
 9106SOL    HW138951   0.901   4.352   5.023  1.1216 -2.6410 -1.2957
 9106SOL    HW238952   0.949   4.477   4.966  2.5010 -2.4934  0.9971
 9107SOL     OW38953   2.002   3.326   6.904 -0.2175  0.1481  0.2047
 9107SOL    HW138954   1.938   3.394   6.925 -2.5560 -2.0717  0.3243
 9107SOL    HW238955   1.972   3.302   6.816  0.8355 -1.5377  0.3179
 9108SOL     OW38956   0.421   1.146   6.209 -0.1378 -0.3008 -0.8143
 9108SOL    HW138957   0.394   1.061   6.244 -0.9390  1.0232  1.7651
 9108SOL    HW238958   0.461   1.110   6.130  2.5665 -0.2940  0.5500
 9109SOL     OW38959   0.049   4.183  12.899  0.3415  0.1057  0.1446
 9109SOL    HW138960   0.131   4.176  12.852  0.3658 -2.2427  0.5348
 9109SOL    HW238961   0.004   4.231  12.830 -0.7926 -0.5543  0.4264
 9110SOL     OW38962   1.942   4.553  13.885 -0.4885  0.2577 -0.6250
 9110SOL    HW138963   1.913   4.524  13.798 -0.5638  2.3882 -1.2977
 9110SOL    HW238964   2.034   4.558  13.860 -0.0515  1.0016  1.1652
 9111SOL     OW38965   4.267   3.865   1.601  0.4131 -0.5081 -0.9010
 9111SOL    HW138966   4.332   3.817   1.549  1.4926  1.0319 -0.9603
 9111SOL    HW238967   4.312   3.867   1.686 -0.7131  0.2796 -0.3287
 9112SOL     OW38968   4.125   1.544  17.221  0.9335 -0.0659  0.3236
 9112SOL    HW138969   4.147   1.454  17.245 -0.9477 -0.6294 -0.0830
 9112SOL    HW238970   4.216   1.571  17.208  1.3183 -1.3455  0.4103
 9113SOL     OW38971   4.521   1.021  12.283 -0.4666 -0.4255  0.1339
 9113SOL    HW138972   4.567   1.082  12.340 -0.0193 -0.7351  0.1027
 9113SOL    HW238973   4.427   1.031  12.300 -0.4122  1.3049 -0.6119
 9114SOL     OW38974   1.925   4.219   8.968  0.6190 -0.1040 -0.0265
 9114SOL    HW138975   1.854   4.281   8.955  0.9782  0.3156  0.0213
 9114SOL    HW238976   1.902   4.189   9.056  2.2262  0.5479  0.6150
 9115SOL     OW38977   0.805   4.675   9.361  0.0681  0.2725 -0.6208
 9115SOL    HW138978   0.804   4.711   9.449 -1.2244 -0.1147 -0.4811
 9115SOL    HW238979   0.894   4.639   9.356  0.4416  0.7483  3.0112
 9116SOL     OW38980   3.333   3.844   7.098  0.0511  0.1568 -0.1493
 9116SOL    HW138981   3.380   3.898   7.161 -1.3951  1.8625 -0.5203
 9116SOL    HW238982   3.365   3.762   7.134 -2.9519 -1.5069 -1.2020
 9117SOL     OW38983   4.466   4.618   8.777 -0.2309 -0.4723  0.2676
 9117SOL    HW138984   4.539   4.561   8.752 -1.6104 -0.6563 -3.2984
 9117SOL    HW238985   4.403   4.586   8.712  0.3487 -1.1558  0.0446
 9118SOL     OW38986   0.883   3.107   3.869  0.3394 -0.4662  0.2194
 9118SOL    HW138987   0.955   3.047   3.891  1.4069  0.2655 -1.2103
 9118SOL    HW238988   0.858   3.130   3.958  2.3500  2.5990  0.0174
 9119SOL     OW38989   4.286   1.795   7.041 -0.6754 -0.1239 -0.2327
 9119SOL    HW138990   4.259   1.713   6.999 -0.6850 -0.4345  0.3761
 9119SOL    HW238991   4.360   1.809   6.982 -0.2568 -0.5261  0.1875
 9120SOL     OW38992   2.570   0.297  14.702 -0.1297  0.3094  0.0754
 9120SOL    HW138993   2.619   0.252  14.770 -1.0536  1.0959  1.2758
 9120SOL    HW238994   2.477   0.281  14.720 -0.5824  2.6531 -0.1822
 9121SOL     OW38995   2.193   4.484   6.571  0.3027  0.2408  0.0660
 9121SOL    HW138996   2.267   4.448   6.621 -0.6314 -1.9773 -0.1384
 9121SOL    HW238997   2.233   4.562   6.533  0.1011  0.6967  0.8012
 9122SOL     OW38998   1.127   4.167   8.748  0.1041  0.4577  0.4291
 9122SOL    HW138999   1.148   4.240   8.690  3.0223 -1.4262 -0.9292
 9122SOL    HW239000   1.166   4.197   8.830 -0.8965 -1.0428  1.4562
 9123SOL     OW39001   0.537   0.555   6.219  0.2558  0.1713  0.0256
 9123SOL    HW139002   0.489   0.535   6.139  0.2676  1.2329 -0.2385
 9123SOL    HW239003   0.557   0.648   6.209  0.3801 -0.1654 -2.8117
 9124SOL     OW39004   2.411   2.223   8.131  0.0506 -0.0603  0.2084
 9124SOL    HW139005   2.384   2.263   8.214  1.4140 -0.8173  1.0225
 9124SOL    HW239006   2.505   2.238   8.140 -0.0072  0.9254 -0.9994
 9125SOL     OW39007   3.665   1.419  10.448  0.4207 -0.3882 -0.2792
 9125SOL    HW139008   3.657   1.511  10.421  1.9669 -0.1655  0.0174
 9125SOL    HW239009   3.758   1.398  10.442  0.7856  2.0602 -3.1940
 9126SOL     OW39010   0.981   0.316   9.078 -0.0923 -0.1349  0.1668
 9126SOL    HW139011   0.893   0.278   9.082  0.5854 -1.7938 -0.8922
 9126SOL    HW239012   1.001   0.330   8.986  0.2112  0.2181  0.2888
 9127SOL     OW39013   1.826   3.205   7.991 -0.2828  0.3483 -0.5920
 9127SOL    HW139014   1.740   3.214   7.950 -0.6035 -2.6546 -0.5557
 9127SOL    HW239015   1.851   3.293   8.020  1.0978  0.1350 -1.1387
 9128SOL     OW39016   2.351   2.535   0.165  0.1341 -0.2758  0.1540
 9128SOL    HW139017   2.332   2.565   0.253  0.8823  3.0170 -0.8086
 9128SOL    HW239018   2.364   2.620   0.124 -0.6655  0.3466  1.2070
 9129SOL     OW39019   3.020   0.160   8.113 -0.3523  0.1558  0.1104
 9129SOL    HW139020   2.935   0.176   8.153  0.5077 -1.0748  2.4526
 9129SOL    HW239021   3.073   0.224   8.161  1.5678 -1.1449 -0.2673
 9130SOL     OW39022   2.135   4.369   6.944 -0.1238 -0.1619 -0.1477
 9130SOL    HW139023   2.143   4.285   6.989  0.2780 -1.3292 -2.3953
 9130SOL    HW239024   2.188   4.422   7.004  0.0010  0.3437 -0.7056
 9131SOL     OW39025   3.797   0.423   5.523  0.0772  0.2335 -0.5183
 9131SOL    HW139026   3.821   0.486   5.591  1.7910 -2.3768  1.2751
 9131SOL    HW239027   3.706   0.404   5.545 -0.2676  0.9089 -1.3535
 9132SOL     OW39028   1.950   0.357   9.431  0.4892  0.8078  0.5146
 9132SOL    HW139029   1.970   0.294   9.499  1.4310 -0.3917 -0.8654
 9132SOL    HW239030   1.982   0.317   9.350  0.2466  0.5756  0.5359
 9133SOL     OW39031   4.142   1.158  14.642  0.6598  0.3171 -0.1880
 9133SOL    HW139032   4.077   1.103  14.686  1.0931  0.7204  0.9533
 9133SOL    HW239033   4.223   1.106  14.640 -0.1507 -0.8972 -2.6127
 9134SOL     OW39034   1.534   0.938   7.411 -0.3587 -0.4062  0.0295
 9134SOL    HW139035   1.607   0.884   7.384 -0.8820 -0.9364 -0.3279
 9134SOL    HW239036   1.558   1.025   7.380  0.7613 -0.5669  0.4614
 9135SOL     OW39037   2.297   1.980   7.268  0.1473  0.0084 -0.0469
 9135SOL    HW139038   2.303   1.981   7.172 -1.1459  0.0200 -0.1177
 9135SOL    HW239039   2.374   1.925   7.284 -0.2335  0.4101  3.0798
 9136SOL     OW39040   2.755   2.556   3.668  0.4822  0.1648 -0.2044
 9136SOL    HW139041   2.803   2.517   3.742 -0.8573  0.0714  0.5993
 9136SOL    HW239042   2.757   2.646   3.698 -0.5308  0.1961 -0.2340
 9137SOL     OW39043   0.582   4.014   8.322 -0.2029 -0.0263  0.4621
 9137SOL    HW139044   0.631   3.932   8.323 -1.2987 -0.6962 -0.4647
 9137SOL    HW239045   0.652   4.069   8.357  0.5321 -1.1639  0.7766
 9138SOL     OW39046   1.655   3.473  12.802  0.0144  0.4751 -0.3021
 9138SOL    HW139047   1.563   3.497  12.814 -0.1053  0.7081 -1.7596
 9138SOL    HW239048   1.679   3.441  12.889 -0.2855 -0.5198 -0.5859
 9139SOL     OW39049   3.698   4.330   6.403 -0.8377 -0.2459 -0.2704
 9139SOL    HW139050   3.753   4.285   6.339  0.7794  1.7431 -0.2662
 9139SOL    HW239051   3.608   4.310   6.377 -0.7673 -0.7308 -0.1386
 9140SOL     OW39052   4.345   4.293   3.499 -0.0380  0.0961 -0.6495
 9140SOL    HW139053   4.298   4.375   3.514  0.2335 -0.2236  1.9101
 9140SOL    HW239054   4.382   4.310   3.412 -2.0404  0.4008 -1.4387
 9141SOL     OW39055   2.475   0.776   8.709  0.2261 -0.3753 -0.4242
 9141SOL    HW139056   2.482   0.690   8.667  0.6982 -0.7731  0.4657
 9141SOL    HW239057   2.524   0.825   8.642  3.1964 -3.3562 -0.4336
 9142SOL     OW39058   4.636   2.045   6.460 -0.1886  0.3184  0.3105
 9142SOL    HW139059   4.545   2.027   6.484 -0.6355 -1.1700 -2.4275
 9142SOL    HW239060   4.681   2.006   6.534  1.4665  1.5314 -0.0790
 9143SOL     OW39061   0.306   2.542  16.839  0.4320 -0.2703  0.8451
 9143SOL    HW139062   0.288   2.601  16.766 -0.7056 -0.0292  1.3153
 9143SOL    HW239063   0.385   2.575  16.880  0.9431 -0.7055  0.2049
 9144SOL     OW39064   2.610   4.573   7.749  0.0363  0.7006  0.3078
 9144SOL    HW139065   2.622   4.481   7.725 -1.2735  0.8677 -0.9469
 9144SOL    HW239066   2.630   4.610   7.663 -0.7007  0.8345  0.1930
 9145SOL     OW39067   2.276   4.001   1.317 -0.2026 -0.7431  0.5530
 9145SOL    HW139068   2.329   4.052   1.379  0.9996 -0.5290 -0.6462
 9145SOL    HW239069   2.326   4.004   1.236  1.1894  1.7894  1.4858
 9146SOL     OW39070   3.869   3.227   4.307 -0.1348  0.2114 -0.9271
 9146SOL    HW139071   3.958   3.223   4.270  0.0809  1.3486 -0.5417
 9146SOL    HW239072   3.882   3.260   4.396  0.2753 -0.9352 -0.5666
 9147SOL     OW39073   1.105   4.205   4.019 -0.1430 -0.3122 -1.1931
 9147SOL    HW139074   1.097   4.298   4.043 -2.2005 -0.6898 -0.3614
 9147SOL    HW239075   1.018   4.195   3.980 -0.5466 -2.3210  0.2364
 9148SOL     OW39076   3.146   2.907   1.770  0.1746 -0.1901 -0.1106
 9148SOL    HW139077   3.124   2.893   1.677  1.8289 -2.1503 -0.2072
 9148SOL    HW239078   3.156   3.002   1.767 -0.0826 -0.2493 -3.7924
 9149SOL     OW39079   1.776   3.363   8.445 -0.0361 -0.2835  0.5015
 9149SOL    HW139080   1.729   3.378   8.363 -0.8216  2.2479  1.4035
 9149SOL    HW239081   1.757   3.439   8.500  1.9809 -0.7152  1.8191
 9150SOL     OW39082   3.254   1.140   2.098  0.0579  0.4118  0.4156
 9150SOL    HW139083   3.287   1.154   2.010 -1.1257  1.2352  0.1064
 9150SOL    HW239084   3.201   1.219   2.107 -0.5637  0.1718 -1.2452
 9151SOL     OW39085   2.571   0.868   4.684  0.6084 -0.1418 -0.2240
 9151SOL    HW139086   2.658   0.846   4.716 -0.3208 -0.6885  1.9003
 9151SOL    HW239087   2.580   0.963   4.676  0.5469 -0.1850 -0.8567
 9152SOL     OW39088   1.053   0.419   7.503  0.2860  0.4415  0.0710
 9152SOL    HW139089   1.083   0.510   7.497 -0.2563  0.5898 -0.3120
 9152SOL    HW239090   1.052   0.390   7.411 -0.0865 -0.3331  0.3174
 9153SOL     OW39091   0.547   2.831  17.511  0.0884  0.2805 -0.0198
 9153SOL    HW139092   0.470   2.888  17.499  0.0933  0.8217  2.5919
 9153SOL    HW239093   0.518   2.751  17.467  0.7109  0.4791 -0.7953
 9154SOL     OW39094   2.197   1.318  13.349 -0.3870  0.2082 -0.0152
 9154SOL    HW139095   2.276   1.301  13.400  0.4311  4.0762  0.0012
 9154SOL    HW239096   2.204   1.409  13.319 -0.9880  0.0616 -0.6217
 9155SOL     OW39097   0.830   1.718   0.072 -0.0309  0.4217  0.2382
 9155SOL    HW139098   0.871   1.644   0.027  0.4927  0.9344 -0.1153
 9155SOL    HW239099   0.900   1.783   0.070 -1.1574  1.6160 -0.8584
 9156SOL     OW39100   3.949   3.735   4.830 -0.3356 -0.3500 -0.1608
 9156SOL    HW139101   3.989   3.655   4.797 -0.9049 -0.9844  0.7132
 9156SOL    HW239102   3.965   3.747   4.923  0.7685 -1.7715 -0.1680
 9157SOL     OW39103   0.724   4.167   5.455 -0.1703  0.5610  0.2653
 9157SOL    HW139104   0.721   4.113   5.376 -1.7217  2.0685 -0.7092
 9157SOL    HW239105   0.641   4.148   5.498 -1.6410 -0.8133 -3.2414
 9158SOL     OW39106   4.276   4.267   9.291 -0.3066  0.5139 -0.1427
 9158SOL    HW139107   4.226   4.256   9.210 -1.4853  0.4853  0.5972
 9158SOL    HW239108   4.210   4.306   9.348 -0.1475 -1.8256  1.5981
 9159SOL     OW39109   1.645   4.145   7.740 -0.1697  0.4463 -0.5885
 9159SOL    HW139110   1.597   4.063   7.752  0.7489 -0.0587 -0.4087
 9159SOL    HW239111   1.597   4.177   7.664 -1.4762 -0.9923 -0.3752
 9160SOL     OW39112   2.827   3.240   9.114  0.6112 -0.4533  0.0240
 9160SOL    HW139113   2.746   3.264   9.069 -0.2686 -3.6881 -0.1122
 9160SOL    HW239114   2.875   3.323   9.109 -0.1730  0.0025  0.0671
 9161SOL     OW39115   2.931   3.632   3.352  0.3972  0.4445  0.4111
 9161SOL    HW139116   2.894   3.554   3.312 -0.9859  0.1977  2.1425
 9161SOL    HW239117   3.015   3.603   3.389  0.3216 -0.6954 -0.3209
 9162SOL     OW39118   3.909   2.374  10.353  0.2399  0.0297 -0.1946
 9162SOL    HW139119   3.955   2.331  10.281 -0.4661  2.0456 -1.8337
 9162SOL    HW239120   3.955   2.456  10.341  0.8534  0.0001  1.8949
 9163SOL     OW39121   3.054   1.091   9.491 -0.1059 -0.3742  0.2010
 9163SOL    HW139122   2.970   1.136   9.481  0.9228  1.6728  0.7627
 9163SOL    HW239123   3.097   1.092   9.405  1.7265  0.6202  1.1153
 9164SOL     OW39124   2.307   2.731   5.571 -1.0093 -0.4309 -0.1607
 9164SOL    HW139125   2.246   2.659   5.551 -2.6586  0.9060  0.0547
 9164SOL    HW239126   2.393   2.705   5.539 -1.7281 -0.9181 -1.7346
 9165SOL     OW39127   3.748   3.807  13.934 -0.4518  0.5107  0.6387
 9165SOL    HW139128   3.695   3.883  13.912 -1.2013  1.2160  4.9368
 9165SOL    HW239129   3.711   3.771  14.014  0.5638  0.0871  0.9237
 9166SOL     OW39130   1.502   0.285   4.523  0.1598  0.0777 -0.0170
 9166SOL    HW139131   1.578   0.324   4.480 -0.3052  0.7379 -0.2306
 9166SOL    HW239132   1.480   0.207   4.471  1.0470  1.2545 -2.1528
 9167SOL     OW39133   3.819   0.438   7.728  0.3602 -0.3454 -0.1875
 9167SOL    HW139134   3.789   0.435   7.637 -0.0423 -0.4116 -0.0537
 9167SOL    HW239135   3.744   0.426   7.786 -0.6973  1.1311 -1.2245
 9168SOL     OW39136   4.139   3.395   5.161  0.5411  0.2448 -0.2126
 9168SOL    HW139137   4.146   3.310   5.206 -0.2782  0.8874  1.1405
 9168SOL    HW239138   4.230   3.418   5.179  0.7661 -0.0661 -0.9355
 9169SOL     OW39139   2.511   1.195   0.450  0.1652  0.3841  0.3967
 9169SOL    HW139140   2.422   1.220   0.426 -0.2947  0.7557  2.4577
 9169SOL    HW239141   2.497   1.125   0.514  2.8040  1.9300  2.6733
 9170SOL     OW39142   2.115   1.984   3.750 -0.2776  0.3719  0.2729
 9170SOL    HW139143   2.080   2.060   3.796 -2.5613 -0.4383 -0.1446
 9170SOL    HW239144   2.180   1.952   3.813 -0.6885 -1.3539 -0.1793
 9171SOL     OW39145   4.260   0.686   1.920 -0.5736  0.2809  0.6988
 9171SOL    HW139146   4.192   0.679   1.987 -0.7757 -0.3532  0.4301
 9171SOL    HW239147   4.289   0.777   1.920 -0.0236  0.1027 -2.3809
 9172SOL     OW39148   0.179   3.046   5.521 -0.1375  0.2744  0.3426
 9172SOL    HW139149   0.111   3.091   5.571  1.3395  1.5410  1.2374
 9172SOL    HW239150   0.146   2.957   5.512  1.8777 -0.4604  0.2749
 9173SOL     OW39151   3.005   3.450   1.664 -0.3663  0.0368  0.1990
 9173SOL    HW139152   3.081   3.474   1.718  0.6099  0.4201 -1.3294
 9173SOL    HW239153   3.021   3.357   1.653  0.8385  0.4355 -1.5496
 9174SOL     OW39154   4.051   3.434   8.616  0.1533 -0.0729  0.1372
 9174SOL    HW139155   4.034   3.512   8.562 -1.6881 -0.7988 -0.3492
 9174SOL    HW239156   4.128   3.452   8.669  0.3138 -2.4910  0.7054
 9175SOL     OW39157   1.059   0.347   4.537 -0.1210 -0.0995 -0.1692
 9175SOL    HW139158   1.062   0.254   4.516 -1.5262 -0.5163  1.4226
 9175SOL    HW239159   0.992   0.348   4.606  0.9171  1.3587  0.8146
 9176SOL     OW39160   2.608   0.476  11.802  0.3293  0.2349 -0.2569
 9176SOL    HW139161   2.517   0.456  11.823 -0.2075 -0.0758 -2.8891
 9176SOL    HW239162   2.628   0.558  11.848 -0.2311 -0.2990  0.9583
 9177SOL     OW39163   1.878   4.645  10.295  0.1642 -0.1686 -0.2448
 9177SOL    HW139164   1.854   4.568  10.243 -0.3387  0.1210 -0.4411
 9177SOL    HW239165   1.801   4.666  10.347  0.3267  1.2282 -0.5740
 9178SOL     OW39166   0.932   4.015   3.662  0.0004 -0.2490  0.1574
 9178SOL    HW139167   0.886   4.098   3.649  1.6471  0.5932 -0.1700
 9178SOL    HW239168   0.962   4.003   3.572 -1.5156 -0.4741 -0.3196
 9179SOL     OW39169   3.196   0.442   2.136 -0.0727  0.4984  0.2454
 9179SOL    HW139170   3.208   0.388   2.215 -0.9563  1.9555  1.3702
 9179SOL    HW239171   3.289   0.441   2.116  0.1504 -0.2260  1.2665
 9180SOL     OW39172   3.673   2.780   5.679  0.2880 -0.4916  0.3611
 9180SOL    HW139173   3.615   2.716   5.638  0.6518 -0.0454 -0.8528
 9180SOL    HW239174   3.731   2.797   5.604 -2.6440  0.8868 -1.5803
 9181SOL     OW39175   4.219   1.119   6.727 -0.4601  0.0373 -0.2493
 9181SOL    HW139176   4.310   1.145   6.742 -0.5552 -1.1617  2.4521
 9181SOL    HW239177   4.194   1.186   6.664  0.2231  3.1709  2.8151
 9182SOL     OW39178   3.788   0.526   9.049 -0.7335  0.2230 -0.1322
 9182SOL    HW139179   3.878   0.504   9.028  0.2002  0.5999  3.4028
 9182SOL    HW239180   3.783   0.618   9.023 -1.6495 -0.1009 -1.1182
 9183SOL     OW39181   4.249   0.587  14.045  0.4658 -0.9577 -0.1247
 9183SOL    HW139182   4.185   0.584  14.116 -0.6116  0.4411 -1.0348
 9183SOL    HW239183   4.311   0.653  14.074  0.6463  0.2757 -3.3356
 9184SOL     OW39184   2.561   1.251  16.200  0.1873 -0.6258  0.3290
 9184SOL    HW139185   2.540   1.158  16.209  0.0815 -0.3299  3.0190
 9184SOL    HW239186   2.489   1.274  16.142  1.2326  1.0103 -0.3451
 9185SOL     OW39187   1.091   3.374   5.223 -0.0505 -0.3672  0.8951
 9185SOL    HW139188   1.083   3.460   5.265 -4.0827 -0.6446  0.6737
 9185SOL    HW239189   1.004   3.375   5.184 -0.8811  0.2336  2.7300
 9186SOL     OW39190   3.342   2.325   4.615 -0.4867 -0.9775  0.7190
 9186SOL    HW139191   3.363   2.372   4.535  0.1005 -0.0676  1.4160
 9186SOL    HW239192   3.434   2.307   4.634  0.0191  1.3335  0.4125
 9187SOL     OW39193   1.162   3.890   2.173  0.1577 -0.4106  0.1871
 9187SOL    HW139194   1.168   3.805   2.128 -0.4661  0.6634 -1.9427
 9187SOL    HW239195   1.070   3.885   2.197  0.4876 -0.4924  1.4324
 9188SOL     OW39196   4.432   3.198   6.561  0.1654  0.5363 -0.2457
 9188SOL    HW139197   4.369   3.153   6.617 -0.3958  1.7964  0.1322
 9188SOL    HW239198   4.378   3.263   6.516  0.0091  0.9625  0.5539
 9189SOL     OW39199   3.598   2.363   5.415 -0.1982  0.0032  0.0610
 9189SOL    HW139200   3.586   2.455   5.392 -1.9563 -0.3169 -0.3357
 9189SOL    HW239201   3.553   2.326   5.339  0.6776  0.6522 -0.7746
 9190SOL     OW39202   0.389   4.134   0.982  0.4707 -0.4622  0.2666
 9190SOL    HW139203   0.410   4.063   1.043  1.5895  0.4235  0.8894
 9190SOL    HW239204   0.346   4.203   1.033 -1.2182 -1.2505 -0.0875
 9191SOL     OW39205   2.550   2.195   1.522  0.5891  0.8187  0.1475
 9191SOL    HW139206   2.595   2.189   1.607  1.9984  0.9753 -0.5930
 9191SOL    HW239207   2.501   2.275   1.540 -0.6169  0.0017  0.5288
 9192SOL     OW39208   2.162   2.158   1.220  0.0340  0.4118 -0.8108
 9192SOL    HW139209   2.136   2.143   1.311 -0.0812  2.4816 -0.4973
 9192SOL    HW239210   2.188   2.250   1.222 -1.1706  0.7091  1.6263
 9193SOL     OW39211   2.275   0.667   4.380  0.2355  0.3233 -0.5287
 9193SOL    HW139212   2.253   0.737   4.440 -0.9923 -1.5665  1.2399
 9193SOL    HW239213   2.360   0.640   4.415 -0.1273  0.6761  0.5984
 9194SOL     OW39214   0.173   2.176   4.295  0.6550  0.3763 -0.4391
 9194SOL    HW139215   0.264   2.166   4.267  0.4664  1.0058 -1.2554
 9194SOL    HW239216   0.121   2.139   4.224 -0.9964  0.9885  0.4765
 9195SOL     OW39217   1.643   0.946   1.440  0.1422  0.6423  0.5092
 9195SOL    HW139218   1.682   0.999   1.371 -0.1488  1.2121  0.7818
 9195SOL    HW239219   1.551   0.957   1.415  0.2547  0.1704 -0.1361
 9196SOL     OW39220   3.596   0.737   7.428  0.2944 -0.0792  0.7596
 9196SOL    HW139221   3.538   0.716   7.355  3.8606 -1.7313 -1.6089
 9196SOL    HW239222   3.534   0.787   7.481 -0.0445 -0.2603  0.5373
 9197SOL     OW39223   0.163   3.788  13.784  0.3411  0.3800 -0.3897
 9197SOL    HW139224   0.247   3.745  13.799 -0.0598 -0.8072 -1.5744
 9197SOL    HW239225   0.180   3.879  13.809 -0.0629  0.3325  0.0584
 9198SOL     OW39226   0.361   1.895   3.978  0.5240  0.3115 -0.3434
 9198SOL    HW139227   0.293   1.862   3.918 -0.8236 -1.0132  1.9097
 9198SOL    HW239228   0.416   1.947   3.919 -2.4056 -0.5465 -3.8958
 9199SOL     OW39229   4.701   1.825   4.925  0.1813 -0.3066 -0.1611
 9199SOL    HW139230   0.013   1.766   4.979  0.3083 -1.0146 -1.0496
 9199SOL    HW239231   0.003   1.812   4.840 -0.3605 -0.7125 -0.3686
 9200SOL     OW39232   3.343   1.795   4.803 -0.1634 -0.1271  0.3211
 9200SOL    HW139233   3.436   1.811   4.812  0.1377 -1.4563 -0.4303
 9200SOL    HW239234   3.330   1.712   4.848 -0.4885 -0.4789 -0.4327
 9201SOL     OW39235   2.325   0.057  12.403 -0.3517  0.1028 -0.0619
 9201SOL    HW139236   2.287   0.130  12.354 -2.3784 -1.0100 -0.1752
 9201SOL    HW239237   2.320   4.726  12.340 -2.3502  1.6631 -1.6614
 9202SOL     OW39238   3.533   3.025  16.476  0.2353 -0.2428 -0.1045
 9202SOL    HW139239   3.592   3.032  16.551 -1.1995 -0.6020  1.0398
 9202SOL    HW239240   3.452   3.009  16.524  0.3412 -1.0333 -0.1967
 9203SOL     OW39241   3.264   1.564   4.958 -0.1389  0.1862 -0.0567
 9203SOL    HW139242   3.321   1.489   4.947 -0.9116 -0.4773  0.4478
 9203SOL    HW239243   3.225   1.523   5.035 -1.9956  2.8472  0.4317
 9204SOL     OW39244   2.378   0.473   8.556  0.7596  0.4223  0.0879
 9204SOL    HW139245   2.404   0.396   8.505  1.4290  1.0676 -0.5425
 9204SOL    HW239246   2.463   0.487   8.598 -0.9315  2.6994  2.7683
 9205SOL     OW39247   2.916   0.869   9.459  0.6534 -0.7519  0.1586
 9205SOL    HW139248   2.972   0.947   9.456 -0.3515 -0.0108  0.6569
 9205SOL    HW239249   2.859   0.891   9.386 -1.3992  0.7102  2.2238
 9206SOL     OW39250   0.936   4.171   2.626 -0.2737 -0.5656 -0.1829
 9206SOL    HW139251   1.027   4.189   2.650 -0.2283  0.9279 -1.4785
 9206SOL    HW239252   0.919   4.081   2.654  1.1417 -0.3288  1.4873
 9207SOL     OW39253   2.341   1.727  10.341  0.0290 -0.4972  0.4192
 9207SOL    HW139254   2.261   1.709  10.390 -0.5310  1.4120  0.1746
 9207SOL    HW239255   2.350   1.820  10.361  0.1157 -0.4712  0.2624
 9208SOL     OW39256   2.540   4.517   4.457  0.0529  0.0772 -0.3778
 9208SOL    HW139257   2.469   4.455   4.441  1.3599 -1.4648 -0.2804
 9208SOL    HW239258   2.598   4.515   4.381  0.6263 -0.5024  0.0750
 9209SOL     OW39259   2.581   3.471   7.909 -0.1208  0.1851  0.2000
 9209SOL    HW139260   2.545   3.464   7.998  0.5291  0.2760  0.4703
 9209SOL    HW239261   2.659   3.526   7.914  2.6675 -3.6948 -1.7115
 9210SOL     OW39262   4.559   2.399  10.135 -0.1323  0.8431  0.2164
 9210SOL    HW139263   4.628   2.424  10.196  0.0914  1.8068 -0.4479
 9210SOL    HW239264   4.613   2.335  10.088 -2.2177 -0.5004 -0.3608
 9211SOL     OW39265   1.150   3.525   4.477 -0.2582  0.3623 -0.2299
 9211SOL    HW139266   1.168   3.548   4.568 -1.4763 -1.1798  0.4177
 9211SOL    HW239267   1.075   3.466   4.487  1.3829 -1.7388 -0.3189
 9212SOL     OW39268   0.783   2.416   4.354  0.2996  0.0602 -0.3011
 9212SOL    HW139269   0.725   2.396   4.281  2.6001  0.9982 -2.3623
 9212SOL    HW239270   0.831   2.333   4.362 -1.1539 -0.7250  0.2551
 9213SOL     OW39271   4.280   0.938  17.084 -0.1767  0.1821 -0.3525
 9213SOL    HW139272   4.194   0.976  17.064 -0.0207  0.0758 -1.2327
 9213SOL    HW239273   4.338   0.973  17.016  0.8994  0.1041  0.5345
 9214SOL     OW39274   0.064   2.397   7.925 -0.6084  0.2632 -0.3322
 9214SOL    HW139275   0.097   2.358   8.007 -2.4397 -1.4551 -0.3930
 9214SOL    HW239276   4.736   2.334   7.900 -2.1448  2.0920 -0.7464
 9215SOL     OW39277   2.262   2.090   7.504  0.3778  0.2861 -0.6119
 9215SOL    HW139278   2.250   2.184   7.489  0.3178  0.2628 -0.7072
 9215SOL    HW239279   2.260   2.055   7.415 -2.4610  1.5212 -1.0357
 9216SOL     OW39280   0.016   3.667   6.228  0.0258  0.0461 -0.1442
 9216SOL    HW139281   0.062   3.658   6.144 -2.0842 -0.8584 -1.2198
 9216SOL    HW239282   0.087   3.687   6.288 -0.3121 -0.6856  0.4927
 9217SOL     OW39283   2.470   0.550   6.407 -0.7630  0.0670 -0.3310
 9217SOL    HW139284   2.463   0.634   6.362  2.2373  0.6042  0.1760
 9217SOL    HW239285   2.412   0.495   6.355 -2.1982  0.7407  0.5621
 9218SOL     OW39286   4.677   4.237   0.167  0.3974 -0.3986 -0.1087
 9218SOL    HW139287   0.017   4.202   0.206  0.7931 -0.3930 -0.9189
 9218SOL    HW239288   4.608   4.218   0.231  0.1723  1.2921  0.1373
 9219SOL     OW39289   3.965   3.798  17.399 -0.4208 -0.0576  0.0913
 9219SOL    HW139290   4.041   3.811  17.342 -1.9130 -1.5480 -2.2047
 9219SOL    HW239291   3.958   3.704  17.385 -1.6695 -0.1442  1.3335
 9220SOL     OW39292   0.417   2.401   4.483 -0.0743 -0.5042 -0.1316
 9220SOL    HW139293   0.434   2.494   4.496 -0.4872 -0.3711 -0.5558
 9220SOL    HW239294   0.502   2.362   4.504  0.3891  0.5079 -0.1405
 9221SOL     OW39295   1.346   0.631   7.513  0.0223  0.6818 -0.1834
 9221SOL    HW139296   1.258   0.659   7.537 -0.7714 -1.1280 -1.0187
 9221SOL    HW239297   1.398   0.697   7.559  3.0805 -0.9622 -1.3119
 9222SOL     OW39298   2.320   1.540  11.970 -0.3354  0.1703 -0.2580
 9222SOL    HW139299   2.394   1.566  11.915  2.0488  0.0646  2.9062
 9222SOL    HW239300   2.344   1.448  11.975 -3.7668 -0.7631 -0.7462
 9223SOL     OW39301   2.031   1.327   3.802  0.0947  0.2719 -0.3141
 9223SOL    HW139302   2.030   1.321   3.897 -0.8190  2.0225 -0.2055
 9223SOL    HW239303   1.994   1.240   3.787 -0.8458  0.7333 -0.6457
 9224SOL     OW39304   3.753   4.491   3.177 -0.1482  0.5158 -0.1443
 9224SOL    HW139305   3.800   4.418   3.135  1.0453  1.2012  0.0095
 9224SOL    HW239306   3.755   4.556   3.107  0.6834  0.1464 -0.4696
 9225SOL     OW39307   0.880   2.758  12.432 -0.1738 -0.5484 -0.1219
 9225SOL    HW139308   0.933   2.702  12.376 -1.4162 -0.6177 -1.2397
 9225SOL    HW239309   0.857   2.712  12.513  0.6624  1.2335  1.1431
 9226SOL     OW39310   1.831   3.549   6.925 -0.4387  0.1338 -0.3030
 9226SOL    HW139311   1.834   3.606   7.002 -0.6216  0.3085 -0.4253
 9226SOL    HW239312   1.745   3.580   6.897 -1.7714 -3.5305 -0.3311
 9227SOL     OW39313   3.453   0.367   4.268  0.0571 -0.6510  0.0537
 9227SOL    HW139314   3.546   0.380   4.251  0.2906 -1.6335  0.5885
 9227SOL    HW239315   3.463   0.312   4.346  1.0592  0.9492  1.0620
 9228SOL     OW39316   3.288   4.484   5.670  0.2062  0.2060  0.3483
 9228SOL    HW139317   3.300   4.538   5.592 -0.0045  1.3312  1.0977
 9228SOL    HW239318   3.205   4.525   5.695  0.6644  0.8494  0.8083
 9229SOL     OW39319   1.629   2.395   7.056 -0.3634  0.0932  0.7901
 9229SOL    HW139320   1.612   2.352   6.973 -2.6605  2.1808  0.1564
 9229SOL    HW239321   1.555   2.456   7.055 -0.9633 -0.6173  1.6582
 9230SOL     OW39322   1.256   2.186   2.944 -0.1757 -0.6620  0.2850
 9230SOL    HW139323   1.171   2.148   2.921  0.4077 -0.5293 -2.0608
 9230SOL    HW239324   1.284   2.206   2.855 -2.2933 -0.7890 -0.3936
 9231SOL     OW39325   2.640   3.513   9.119 -0.4543  1.1513 -0.1289
 9231SOL    HW139326   2.676   3.510   9.030 -0.3692  2.1782 -0.1321
 9231SOL    HW239327   2.562   3.458   9.117 -0.8280  1.6831 -0.3505
 9232SOL     OW39328   3.063   1.121   5.891 -0.2412  0.4771  0.4969
 9232SOL    HW139329   3.011   1.046   5.861  1.4832  0.0015 -1.2967
 9232SOL    HW239330   3.000   1.156   5.954 -1.9016  0.0486 -0.9238
 9233SOL     OW39331   2.492   0.944   3.214 -0.0921  0.0551 -0.4748
 9233SOL    HW139332   2.453   0.991   3.288 -0.0293 -0.4376 -0.1277
 9233SOL    HW239333   2.499   1.004   3.140  2.9937 -2.8368 -2.5050
 9234SOL     OW39334   1.074   3.834  16.313 -0.7851  0.5760 -0.0011
 9234SOL    HW139335   1.090   3.852  16.405  0.9967 -1.8781  0.1633
 9234SOL    HW239336   1.158   3.808  16.275 -0.1890  1.6517  0.5981
 9235SOL     OW39337   4.736   0.448   7.232  0.0518  0.3111 -0.1359
 9235SOL    HW139338   4.695   0.534   7.225  0.7415  0.7093  0.6820
 9235SOL    HW239339   4.663   0.390   7.213  0.0638 -0.2980  1.6344
 9236SOL     OW39340   1.381   1.598   5.420 -0.1994 -0.3640 -0.4180
 9236SOL    HW139341   1.377   1.569   5.511  1.2606  0.7811  0.0052
 9236SOL    HW239342   1.468   1.637   5.413 -0.5905  0.8711  1.4763
 9237SOL     OW39343   3.595   4.043  15.241  0.1909  0.6191  0.1125
 9237SOL    HW139344   3.602   4.104  15.167 -1.3033  0.0351 -0.5038
 9237SOL    HW239345   3.558   4.100  15.308  0.3077  1.2995 -0.4016
 9238SOL     OW39346   1.698   0.530   5.758  0.1840  0.5999 -0.2251
 9238SOL    HW139347   1.664   0.483   5.835 -0.8491  2.1906  0.2921
 9238SOL    HW239348   1.675   0.621   5.774 -0.2488  0.2890  0.9727
 9239SOL     OW39349   3.662   3.734   2.278  0.1904 -0.2813  0.0183
 9239SOL    HW139350   3.612   3.653   2.266 -0.1790 -0.0985  0.3292
 9239SOL    HW239351   3.752   3.706   2.298  0.1197  0.0441  0.7703
 9240SOL     OW39352   4.313   2.625   3.121 -0.0831  0.0370  0.7203
 9240SOL    HW139353   4.345   2.639   3.210  2.8240  2.6509 -0.7268
 9240SOL    HW239354   4.301   2.716   3.095  1.0256 -0.1371 -0.4118
 9241SOL     OW39355   3.973   1.190   8.512  0.4166  0.1053  0.3562
 9241SOL    HW139356   3.936   1.144   8.436 -0.1170 -1.5862  1.6320
 9241SOL    HW239357   3.929   1.274   8.516 -0.4053 -0.3888  1.8131
 9242SOL     OW39358   3.303   2.552   9.970  0.1580  0.0088 -1.0803
 9242SOL    HW139359   3.323   2.604  10.048 -0.5102 -1.7462  0.2804
 9242SOL    HW239360   3.273   2.622   9.912 -1.3834 -1.7361 -2.3879
 9243SOL     OW39361   1.337   3.276   3.154 -0.1347  0.0355  0.0871
 9243SOL    HW139362   1.268   3.212   3.168 -2.3178  2.8495  2.0483
 9243SOL    HW239363   1.336   3.310   3.244 -2.0571  3.1677 -1.0954
 9244SOL     OW39364   4.596   4.028   6.563  0.6176  0.1956  0.0624
 9244SOL    HW139365   4.563   3.960   6.505 -0.1090 -0.2727  1.0502
 9244SOL    HW239366   4.597   4.109   6.510  3.1452 -0.0905 -0.3414
 9245SOL     OW39367   3.875   2.988   7.798  0.1066 -0.7194 -0.2688
 9245SOL    HW139368   3.788   3.027   7.804  0.8078  1.0937 -2.0733
 9245SOL    HW239369   3.929   3.048   7.747  0.3910  0.5118  1.4878
 9246SOL     OW39370   4.034   3.796   1.786  0.1965 -0.5474  0.5020
 9246SOL    HW139371   3.939   3.792   1.782  0.2855 -2.9570  0.7111
 9246SOL    HW239372   4.055   3.815   1.695  0.7265  0.1921  0.7772
 9247SOL     OW39373   1.134   1.846  12.264  0.3608 -0.2628  0.3009
 9247SOL    HW139374   1.079   1.893  12.326 -0.7662 -1.7205  0.4024
 9247SOL    HW239375   1.191   1.921  12.245  0.7548 -0.2917  1.4166
 9248SOL     OW39376   4.271   2.901  14.345  0.3457  0.1278 -0.0358
 9248SOL    HW139377   4.235   2.859  14.266  1.1493 -1.4477  0.4320
 9248SOL    HW239378   4.223   2.865  14.420  1.7128 -0.4781  0.5385
 9249SOL     OW39379   4.484   2.965   4.270 -0.5915 -0.1389  0.4305
 9249SOL    HW139380   4.569   2.926   4.289 -0.4424  0.7785  1.6479
 9249SOL    HW239381   4.498   2.989   4.178 -0.1427 -1.1309  0.2462
 9250SOL     OW39382   4.690   0.726  17.395  0.8092 -0.3497 -0.1961
 9250SOL    HW139383   4.611   0.679  17.368 -0.4608  2.3247 -1.0851
 9250SOL    HW239384   4.670   0.814  17.365 -1.8533 -1.5014 -1.7953
 9251SOL     OW39385   0.646   2.305  12.433 -0.0382  0.1987 -0.2826
 9251SOL    HW139386   0.607   2.392  12.438 -1.6909 -0.6368  1.7850
 9251SOL    HW239387   0.598   2.261  12.363 -0.3373 -1.0282  0.6770
 9252SOL     OW39388   2.381   1.009   5.245  0.3402  0.1297 -0.6552
 9252SOL    HW139389   2.377   0.922   5.284 -1.0281  0.2816 -0.4522
 9252SOL    HW239390   2.471   1.037   5.262  0.8922 -2.9292  1.3527
 9253SOL     OW39391   1.937   3.824   4.483  0.3010 -0.8844 -0.0622
 9253SOL    HW139392   1.867   3.761   4.499  0.4738 -0.9829  0.2858
 9253SOL    HW239393   1.970   3.837   4.572 -1.7606 -1.2860  0.7580
 9254SOL     OW39394   2.288   1.901  15.145  0.2609  0.3798 -0.2810
 9254SOL    HW139395   2.255   1.860  15.225  0.1658 -0.9766 -1.0087
 9254SOL    HW239396   2.327   1.823  15.107  1.2641  1.2189 -0.9668
 9255SOL     OW39397   1.748   2.495   2.361  0.0572  0.4388  0.4344
 9255SOL    HW139398   1.664   2.537   2.378 -0.7433  0.0794 -2.6681
 9255SOL    HW239399   1.800   2.521   2.437  0.5018  0.1759  0.2203
 9256SOL     OW39400   2.272   3.389  12.062  0.6589  0.0552  0.0921
 9256SOL    HW139401   2.263   3.419  11.972  1.2787  3.2598  1.1269
 9256SOL    HW239402   2.312   3.464  12.105  0.9311  0.5223 -0.9722
 9257SOL     OW39403   1.346   4.314   5.349 -0.5299 -0.2552 -0.5930
 9257SOL    HW139404   1.400   4.386   5.382  1.9737 -0.7222 -3.6403
 9257SOL    HW239405   1.394   4.234   5.370  2.7465  2.2752  1.5491
 9258SOL     OW39406   2.529   2.698   2.452 -0.5427  0.1194 -0.6439
 9258SOL    HW139407   2.572   2.758   2.513 -0.1777  0.5776 -1.3534
 9258SOL    HW239408   2.551   2.740   2.369  3.5857 -2.8385 -1.0593
 9259SOL     OW39409   1.270   1.078  10.309  0.1872  0.2972 -0.1188
 9259SOL    HW139410   1.201   1.033  10.260  1.0099  0.1430 -1.1341
 9259SOL    HW239411   1.244   1.086  10.401  1.5422  0.6849  0.2330
 9260SOL     OW39412   2.993   0.628   7.279  0.2125 -0.0500  0.2041
 9260SOL    HW139413   3.056   0.620   7.207  0.5287  1.1317  0.3431
 9260SOL    HW239414   2.931   0.557   7.263  0.3772 -0.0338 -0.4836
 9261SOL     OW39415   0.079   0.801   4.289  0.5889 -0.0572  0.2483
 9261SOL    HW139416   0.064   0.838   4.202  0.5607  2.8680  1.4660
 9261SOL    HW239417   0.046   0.871   4.347 -1.0759 -0.0616 -0.6798
 9262SOL     OW39418   0.984   1.239  15.656 -0.2247 -0.2246 -0.0395
 9262SOL    HW139419   0.892   1.233  15.682  0.0654  2.9788  1.7468
 9262SOL    HW239420   0.999   1.328  15.626 -3.4024  0.4236  0.2992
 9263SOL     OW39421   1.442   3.553  13.175  0.3626 -0.4417 -0.2629
 9263SOL    HW139422   1.388   3.554  13.096  1.8048 -1.1287 -1.2668
 9263SOL    HW239423   1.414   3.639  13.206  0.4102  0.8174 -3.7151
 9264SOL     OW39424   1.843   2.451   3.568  0.1268  0.1256 -0.4835
 9264SOL    HW139425   1.794   2.390   3.514 -0.0686 -0.7720  0.7089
 9264SOL    HW239426   1.931   2.433   3.533  0.4483 -1.9029  1.3890
 9265SOL     OW39427   4.481   2.553   6.684 -0.4445  0.4591 -0.4702
 9265SOL    HW139428   4.441   2.473   6.651 -1.6047  0.2463  1.4674
 9265SOL    HW239429   4.529   2.583   6.607  0.6951 -2.2539 -0.8053
 9266SOL     OW39430   1.241   3.592   2.756  0.2990 -0.2363  0.1737
 9266SOL    HW139431   1.313   3.542   2.717 -1.6890 -1.7994 -1.5450
 9266SOL    HW239432   1.262   3.555   2.841  2.2386 -2.4141 -1.2525
 9267SOL     OW39433   4.641   4.231   7.973  0.7409 -0.4454 -0.0186
 9267SOL    HW139434   4.554   4.239   8.012  1.3004 -1.0133  1.3381
 9267SOL    HW239435   4.646   4.135   7.967 -0.2597 -0.4418 -0.9693
 9268SOL     OW39436   0.265   3.192   2.496 -0.5844 -0.4940 -0.3836
 9268SOL    HW139437   0.208   3.254   2.541  0.7856  1.4166 -1.2592
 9268SOL    HW239438   0.310   3.255   2.438 -0.4280  0.3308  0.6369
 9269SOL     OW39439   2.674   2.102  13.634 -0.2489 -0.1321 -0.0495
 9269SOL    HW139440   2.629   2.078  13.716  2.3842  0.4942  1.5744
 9269SOL    HW239441   2.649   2.194  13.626 -1.4096 -0.3667  0.8160
 9270SOL     OW39442   3.275   3.401  15.283 -0.3581 -0.4801 -0.5810
 9270SOL    HW139443   3.269   3.380  15.376  2.1302 -3.1628 -1.0475
 9270SOL    HW239444   3.365   3.423  15.259 -0.2828 -1.8238 -1.5453
 9271SOL     OW39445   2.249   2.367   1.447 -0.6706  0.5395 -0.1316
 9271SOL    HW139446   2.264   2.415   1.366 -0.8303  2.2804  0.8691
 9271SOL    HW239447   2.257   2.438   1.511  2.1275 -2.1811  2.5823
 9272SOL     OW39448   4.257   0.761   3.395  0.0363  0.6076 -0.5413
 9272SOL    HW139449   4.326   0.705   3.362 -1.1191 -1.4527  0.5581
 9272SOL    HW239450   4.186   0.705   3.427  0.6286  0.4230  0.4340
 9273SOL     OW39451   2.250   0.101   2.175  0.6112  0.4202 -0.3779
 9273SOL    HW139452   2.231   0.155   2.098  2.6703  0.2215 -1.0223
 9273SOL    HW239453   2.328   0.148   2.204  0.4956  2.9972 -4.2166
 9274SOL     OW39454   2.308   1.529  17.188 -0.2266 -0.6154 -0.1469
 9274SOL    HW139455   2.355   1.537  17.271  0.1674  2.5435 -0.6899
 9274SOL    HW239456   2.346   1.608  17.150  1.9548 -0.9604  1.3152
 9275SOL     OW39457   1.078   4.640   1.860  0.5563  1.2268 -0.2130
 9275SOL    HW139458   1.099   4.577   1.930  0.5656  0.6209 -0.7658
 9275SOL    HW239459   1.126   4.713   1.898  2.1192 -1.2322  2.5542
 9276SOL     OW39460   1.319   3.865   2.702 -0.1451 -0.2005 -0.3750
 9276SOL    HW139461   1.259   3.795   2.727 -0.3157 -0.8787 -2.6233
 9276SOL    HW239462   1.260   3.933   2.669  1.0914  1.2254  0.3973
 9277SOL     OW39463   2.862   1.815   4.995 -0.0564 -0.2437  0.1802
 9277SOL    HW139464   2.909   1.825   4.912 -0.1570 -0.0828  0.1445
 9277SOL    HW239465   2.856   1.719   5.003  1.3025 -0.4280 -0.9501
 9278SOL     OW39466   3.026   1.990   6.967  0.6504 -0.0260 -0.0623
 9278SOL    HW139467   3.018   1.959   6.877 -2.7497 -0.4378  0.4049
 9278SOL    HW239468   2.943   1.954   6.999 -0.5990  1.8995 -1.1362
 9279SOL     OW39469   4.420   1.946   7.246  0.0696 -0.7846  0.3712
 9279SOL    HW139470   4.339   1.957   7.197  1.5618 -0.0183 -1.9609
 9279SOL    HW239471   4.447   1.856   7.230 -1.7162 -1.2024 -0.2560
 9280SOL     OW39472   1.960   1.693   2.549  0.0506  0.0734  0.2513
 9280SOL    HW139473   1.965   1.746   2.469 -1.5757 -1.5132 -0.8806
 9280SOL    HW239474   2.006   1.755   2.607  0.0019  0.4928 -0.1639
 9281SOL     OW39475   2.493   0.625  11.190 -0.2332 -0.3246  0.6184
 9281SOL    HW139476   2.507   0.658  11.101  1.0232 -0.0901  0.9030
 9281SOL    HW239477   2.553   0.679  11.242 -1.6457  0.4807  1.4256
 9282SOL     OW39478   2.760   3.755   6.125  0.0104 -0.0505  0.0762
 9282SOL    HW139479   2.691   3.708   6.173 -0.5000 -0.6072 -1.2083
 9282SOL    HW239480   2.719   3.791   6.046  0.3307  2.2970  0.9922
 9283SOL     OW39481   4.174   1.584   8.204 -0.2857  0.0084 -0.0932
 9283SOL    HW139482   4.134   1.612   8.122  3.9776  1.7227 -1.5657
 9283SOL    HW239483   4.109   1.612   8.269  1.0056  0.8121  0.8558
 9284SOL     OW39484   2.954   2.502   6.976  0.1455 -0.1259 -0.3377
 9284SOL    HW139485   2.926   2.490   6.885  0.0474 -1.4137 -0.1446
 9284SOL    HW239486   2.970   2.411   6.999 -0.0092 -0.0094  0.2152
 9285SOL     OW39487   0.162   2.377  16.995 -0.2670  0.8998 -0.3337
 9285SOL    HW139488   0.221   2.442  16.956  0.5306  1.6043  2.0761
 9285SOL    HW239489   0.076   2.417  16.979 -0.5938 -0.0775 -1.0306
 9286SOL     OW39490   2.110   4.209   5.937  0.4316 -0.0500  0.1648
 9286SOL    HW139491   2.041   4.166   5.886 -0.8456 -0.2736  2.0788
 9286SOL    HW239492   2.117   4.148   6.011 -0.1704  0.1160  0.3599
 9287SOL     OW39493   4.058   3.278  10.495 -0.3539  0.0857 -0.5011
 9287SOL    HW139494   4.125   3.277  10.563 -1.2707 -2.8180  0.3914
 9287SOL    HW239495   3.976   3.293  10.541 -0.2004  0.1800 -0.2582
 9288SOL     OW39496   1.254   2.564   2.719  0.2513  0.3492 -0.3278
 9288SOL    HW139497   1.343   2.569   2.755 -1.0536 -0.8646  3.1733
 9288SOL    HW239498   1.254   2.481   2.672  1.0498  0.6165 -0.7906
 9289SOL     OW39499   1.140   4.088   1.971  0.7825 -0.1057 -0.0102
 9289SOL    HW139500   1.059   4.137   1.987 -0.3850 -1.2946 -2.2416
 9289SOL    HW239501   1.146   4.014   2.032 -4.1541 -1.4388 -1.1647
 9290SOL     OW39502   2.661   0.076   2.696  0.4109 -0.5449  0.5449
 9290SOL    HW139503   2.628   0.163   2.671  0.5946 -1.2839 -2.3094
 9290SOL    HW239504   2.620   0.037   2.619 -0.4939  0.4662  0.5044
 9291SOL     OW39505   4.516   1.590  17.573  0.3570  0.0215  0.4034
 9291SOL    HW139506   4.538   1.515  17.517  0.3798 -1.2088  2.0367
 9291SOL    HW239507   4.550   1.661  17.520 -0.8090 -0.3253 -0.7932
 9292SOL     OW39508   4.716   3.437   4.142  0.2964 -0.2114  0.3764
 9292SOL    HW139509   4.642   3.440   4.082 -0.5270 -0.9841  1.3604
 9292SOL    HW239510   4.685   3.492   4.214  0.5785 -1.2823  1.3117
 9293SOL     OW39511   3.950   4.634   9.012  0.0751  0.0716 -0.5931
 9293SOL    HW139512   3.858   4.609   9.021  0.5642 -1.4095  0.3356
 9293SOL    HW239513   3.989   4.627   9.099 -0.5932 -2.3318 -0.4724
 9294SOL     OW39514   0.742   1.851   5.674  0.0305  0.1195  0.1447
 9294SOL    HW139515   0.821   1.820   5.630  0.2383 -0.6215  1.0424
 9294SOL    HW239516   0.764   1.870   5.765 -1.4174 -1.0149  0.7393
 9295SOL     OW39517   3.602   1.153   5.535  0.1889 -0.2295  0.0145
 9295SOL    HW139518   3.570   1.223   5.592  1.1428 -0.4042  0.7655
 9295SOL    HW239519   3.525   1.116   5.492  1.2596 -0.3297 -1.7952
 9296SOL     OW39520   4.378   4.146   2.693  0.4803 -0.6023  0.2252
 9296SOL    HW139521   4.398   4.072   2.636 -0.6895 -1.2676  0.6803
 9296SOL    HW239522   4.387   4.221   2.634 -0.7679  1.7089  2.9882
 9297SOL     OW39523   3.078   1.051   5.513  0.4251  0.4340  0.0322
 9297SOL    HW139524   2.983   1.054   5.522  0.3102  0.5523 -1.1621
 9297SOL    HW239525   3.089   1.038   5.419  0.7316 -1.4885  0.3396
 9298SOL     OW39526   3.128   2.985   5.805 -0.3256  0.0227 -0.2473
 9298SOL    HW139527   3.176   3.022   5.878 -0.3269  1.3670 -0.9364
 9298SOL    HW239528   3.061   2.939   5.856  0.6480  1.5641  2.3872
 9299SOL     OW39529   2.961   0.248   7.592 -0.6448  0.4503 -0.3033
 9299SOL    HW139530   2.927   0.322   7.542 -0.5856  1.3894  1.0654
 9299SOL    HW239531   2.970   0.286   7.679  1.0357  2.6536 -1.4563
 9300SOL     OW39532   4.736   2.962   9.804  0.3363 -0.8139  0.1738
 9300SOL    HW139533   4.676   3.004   9.742 -0.3685 -3.7917 -1.1497
 9300SOL    HW239534   4.681   2.895   9.845 -0.5535  0.4472  1.0276
 9301SOL     OW39535   3.483   4.490   3.923 -0.0202 -0.1369 -0.5039
 9301SOL    HW139536   3.474   4.548   3.848  2.4333 -0.7562 -1.2817
 9301SOL    HW239537   3.574   4.462   3.909  0.4840  1.1874  0.1065
 9302SOL     OW39538   2.408   0.537   3.781  0.2110  0.6088 -0.0638
 9302SOL    HW139539   2.383   0.543   3.689  0.3874 -1.3086 -0.2308
 9302SOL    HW239540   2.322   0.547   3.823  0.7079 -1.4410  1.4306
 9303SOL     OW39541   4.038   0.661   2.073  0.6819 -0.3117  0.2340
 9303SOL    HW139542   3.979   0.592   2.041  0.4552  0.2033 -0.4541
 9303SOL    HW239543   3.972   0.713   2.118  0.9947  2.9843 -3.0681
 9304SOL     OW39544   2.681   3.692   8.613  0.1740 -1.0339  0.5337
 9304SOL    HW139545   2.748   3.671   8.547  0.6737  0.8897  0.4271
 9304SOL    HW239546   2.598   3.700   8.567  0.5962 -0.6765 -0.1705
 9305SOL     OW39547   1.430   2.129   5.821  0.4848 -0.4175  0.4356
 9305SOL    HW139548   1.500   2.168   5.768 -1.0743 -0.9588 -2.0243
 9305SOL    HW239549   1.401   2.059   5.762  2.4950 -1.2425  0.4267
 9306SOL     OW39550   1.151   2.710   2.940 -0.1464  0.8991  0.5516
 9306SOL    HW139551   1.197   2.704   3.024 -2.9057 -0.2045  1.9898
 9306SOL    HW239552   1.216   2.654   2.896 -0.1371 -0.2641  2.0413
 9307SOL     OW39553   2.977   2.297  10.154 -0.4898  0.3681 -0.2744
 9307SOL    HW139554   2.993   2.296  10.060  0.8827  0.4688 -0.0516
 9307SOL    HW239555   2.998   2.205  10.170  0.6267  0.6870  0.1367
 9308SOL     OW39556   0.659   0.565   5.369  0.2640  0.2746 -0.3126
 9308SOL    HW139557   0.652   0.585   5.463 -1.4797 -1.9634  0.0391
 9308SOL    HW239558   0.695   0.650   5.343 -0.1871 -0.3318 -2.9137
 9309SOL     OW39559   2.685   2.206   4.911  0.5187  0.4179  0.8706
 9309SOL    HW139560   2.687   2.301   4.898 -3.5632  0.4722  0.7484
 9309SOL    HW239561   2.766   2.181   4.956 -1.0228  0.0762  3.4072
 9310SOL     OW39562   0.113   3.166  11.323  0.2614 -0.0210  0.1598
 9310SOL    HW139563   0.027   3.126  11.316  0.3027  0.1400 -1.3386
 9310SOL    HW239564   0.172   3.093  11.307 -0.1514  0.0360 -1.6306
 9311SOL     OW39565   1.613   1.345   3.282  0.4388 -0.0684 -0.2819
 9311SOL    HW139566   1.564   1.344   3.199  0.1307  1.8728 -0.1411
 9311SOL    HW239567   1.609   1.253   3.308 -0.3807  0.1161  0.2657
 9312SOL     OW39568   2.176   2.648   6.894  0.3419  0.1440  0.1454
 9312SOL    HW139569   2.209   2.561   6.914  0.6943  0.0700 -0.7448
 9312SOL    HW239570   2.162   2.684   6.982 -0.1518 -0.3246  0.2562
 9313SOL     OW39571   1.180   1.160  15.997  0.1177 -0.2835 -0.2190
 9313SOL    HW139572   1.253   1.134  15.940  0.2880 -0.8554  0.2552
 9313SOL    HW239573   1.104   1.128  15.948 -0.1289  2.3307 -1.5369
 9314SOL     OW39574   2.202   1.690   6.139  0.3623 -0.0848  0.3123
 9314SOL    HW139575   2.297   1.686   6.149  0.4177  0.1591 -0.0946
 9314SOL    HW239576   2.199   1.650   6.052 -2.9636  0.6499  0.0986
 9315SOL     OW39577   2.394   1.147   5.702  0.5068 -0.6179 -0.3705
 9315SOL    HW139578   2.369   1.055   5.703  1.4612 -0.8744  0.0820
 9315SOL    HW239579   2.313   1.185   5.734 -0.2934 -1.5218 -1.3329
 9316SOL     OW39580   3.798   3.390  10.322 -0.3891 -0.0853  0.4326
 9316SOL    HW139581   3.892   3.402  10.310 -0.5110  0.4547  0.0341
 9316SOL    HW239582   3.797   3.341  10.404 -1.9966  0.6389  0.8378
 9317SOL     OW39583   0.797   4.168   8.427  0.4796  0.0832 -0.0779
 9317SOL    HW139584   0.867   4.120   8.470 -0.0720 -0.2054  0.5060
 9317SOL    HW239585   0.850   4.241   8.396 -0.4861 -0.3732 -2.7901
 9318SOL     OW39586   2.509   3.716   2.259  0.5581  0.2429  0.1690
 9318SOL    HW139587   2.544   3.755   2.179  0.2239 -0.5162 -0.3440
 9318SOL    HW239588   2.551   3.631   2.261  1.2912  0.6245  0.8709
 9319SOL     OW39589   3.660   1.010  15.578  0.5236  0.0727 -0.2792
 9319SOL    HW139590   3.651   1.054  15.662 -0.9729 -0.2211 -0.2946
 9319SOL    HW239591   3.714   1.070  15.526 -2.4688  2.0127 -1.1266
 9320SOL     OW39592   0.583   2.338   4.143  0.1904  0.4321 -0.2283
 9320SOL    HW139593   0.583   2.292   4.059 -1.9940  0.8206 -0.4450
 9320SOL    HW239594   0.540   2.268   4.192 -0.1197  0.7801  0.0008
 9321SOL     OW39595   3.194   1.977  16.820 -0.0056  0.3432 -0.2809
 9321SOL    HW139596   3.263   1.922  16.857  0.8299  1.6623  0.1438
 9321SOL    HW239597   3.251   2.028  16.763  1.9968 -0.8844  0.6251
 9322SOL     OW39598   4.715   3.280  17.663 -0.4566 -0.9308 -0.0004
 9322SOL    HW139599   4.675   3.224  17.730  0.5616 -2.0974 -0.3662
 9322SOL    HW239600   4.646   3.291  17.597  0.0457  0.7018 -0.2276
 9323SOL     OW39601   2.815   4.110   2.439 -0.1636  0.0692 -0.6123
 9323SOL    HW139602   2.877   4.042   2.411  0.0722  0.8550 -2.0064
 9323SOL    HW239603   2.870   4.187   2.455  0.1475 -0.1042 -0.8602
 9324SOL     OW39604   0.210   2.915   9.449  0.1016  0.1158 -0.0227
 9324SOL    HW139605   0.266   2.842   9.474 -1.5590 -0.9894  0.4616
 9324SOL    HW239606   0.229   2.927   9.356  0.0052  1.5942  0.1507
 9325SOL     OW39607   4.137   1.801   8.610 -0.1420  0.4523  0.1537
 9325SOL    HW139608   4.154   1.757   8.694 -2.8584  0.2591  0.5906
 9325SOL    HW239609   4.116   1.886   8.649  3.0248  0.9416  0.8584
 9326SOL     OW39610   0.102   1.088   6.218 -0.5233  0.2540  0.2113
 9326SOL    HW139611   0.111   1.179   6.187 -0.1630  0.4919  1.0206
 9326SOL    HW239612   0.009   1.071   6.208 -0.2897 -0.5309 -0.6750
 9327SOL     OW39613   0.904   0.799   3.619 -0.6107  0.0082 -0.0768
 9327SOL    HW139614   0.896   0.841   3.534 -0.4175  2.3438  1.0652
 9327SOL    HW239615   0.877   0.709   3.599 -1.6925  0.0315  1.3211
 9328SOL     OW39616   4.292   3.397  15.361  0.1950 -0.4822  0.2132
 9328SOL    HW139617   4.262   3.310  15.385 -3.6864  0.5514 -0.7855
 9328SOL    HW239618   4.286   3.392  15.265 -2.4294  3.9128  0.1360
 9329SOL     OW39619   3.560   3.030   5.856  0.2300 -0.3080 -0.3606
 9329SOL    HW139620   3.640   3.041   5.907  1.3159  0.6256 -2.2975
 9329SOL    HW239621   3.582   2.949   5.809 -1.1897 -1.4140  0.8682
 9330SOL     OW39622   1.958   3.373   1.013  0.3597  0.4897  0.2374
 9330SOL    HW139623   1.867   3.359   1.040 -0.2226  1.3005 -1.2882
 9330SOL    HW239624   1.946   3.447   0.953  1.1077 -0.8825 -1.6053
 9331SOL     OW39625   4.473   1.320   6.596  0.5948 -0.4685  0.2242
 9331SOL    HW139626   4.519   1.369   6.529 -1.4028 -1.0021 -1.5497
 9331SOL    HW239627   4.447   1.394   6.651 -0.2413  0.5207 -1.4888
 9332SOL     OW39628   0.793   1.731  10.421 -0.3054  0.4802  0.4183
 9332SOL    HW139629   0.878   1.703  10.454 -1.2202 -0.4661  2.0018
 9332SOL    HW239630   0.749   1.754  10.503 -1.2978  2.1524 -0.5705
 9333SOL     OW39631   1.949   0.809   2.742 -0.1067  0.5581 -0.9968
 9333SOL    HW139632   1.999   0.772   2.669 -0.1361  2.2438 -1.8966
 9333SOL    HW239633   2.001   0.833   2.818  1.3744 -0.2944 -1.7470
 9334SOL     OW39634   0.045   4.648   7.276 -0.8126  0.2507 -0.0738
 9334SOL    HW139635   0.005   4.630   7.361  0.7567 -1.8195  0.2179
 9334SOL    HW239636   0.094   4.727   7.295  2.2053 -1.5680 -0.3584
 9335SOL     OW39637   2.384   1.382  12.567  0.2748  0.2737 -0.6255
 9335SOL    HW139638   2.317   1.351  12.628  2.5408 -0.5557  1.4435
 9335SOL    HW239639   2.452   1.419  12.623  2.0031 -0.4846 -2.2145
 9336SOL     OW39640   4.541   0.538   2.647 -0.2058  0.6178  0.2233
 9336SOL    HW139641   4.588   0.531   2.564  0.2189  2.1192  0.3342
 9336SOL    HW239642   4.590   0.609   2.689 -1.1497  0.7497  1.1125
 9337SOL     OW39643   2.204   1.607  14.225  0.4046 -0.2303 -0.2216
 9337SOL    HW139644   2.173   1.648  14.306 -1.0069  0.2540 -1.0070
 9337SOL    HW239645   2.192   1.517  14.255  1.6200  0.5638  2.6194
 9338SOL     OW39646   4.434   4.092   9.459  0.4828 -0.2071  0.3170
 9338SOL    HW139647   4.403   4.091   9.550  0.5234 -0.7147  0.3284
 9338SOL    HW239648   4.367   4.134   9.407  1.4735 -0.0858 -0.8649
 9339SOL     OW39649   4.280   0.093  11.678  0.0851  0.0635  1.0055
 9339SOL    HW139650   4.203   0.040  11.656  1.2215 -1.6155  1.0222
 9339SOL    HW239651   4.258   0.166  11.621  1.1921  0.2108  0.7614
 9340SOL     OW39652   2.284   3.913   4.901 -0.0530 -0.1921  0.2603
 9340SOL    HW139653   2.266   3.969   4.976  0.5299  0.1154  0.1737
 9340SOL    HW239654   2.284   3.833   4.954  0.5510  0.3962  1.1497
 9341SOL     OW39655   1.821   4.166  12.653 -0.0350 -0.1862 -0.7451
 9341SOL    HW139656   1.870   4.099  12.605  0.2361  1.5489 -2.9113
 9341SOL    HW239657   1.731   4.132  12.657 -0.5657  1.2307 -0.4919
 9342SOL     OW39658   1.048   1.174  12.427  0.0946  0.4291 -0.2191
 9342SOL    HW139659   1.036   1.269  12.432  1.6039  0.6338 -0.4321
 9342SOL    HW239660   1.033   1.161  12.521 -0.0234  0.2413 -0.2652
 9343SOL     OW39661   2.476   1.712   6.063  0.4248 -0.2690 -0.5488
 9343SOL    HW139662   2.515   1.641   6.011 -0.1655 -1.3926  0.5634
 9343SOL    HW239663   2.561   1.745   6.092 -1.2105  1.9871  1.6073
 9344SOL     OW39664   0.895   2.470   8.068  0.4259 -0.0806  0.1314
 9344SOL    HW139665   0.957   2.419   8.017  0.2589  1.1774 -1.3348
 9344SOL    HW239666   0.856   2.404   8.126  1.4081 -0.5073  0.3085
 9345SOL     OW39667   1.775   0.703   9.185 -0.7079 -0.2056 -0.7765
 9345SOL    HW139668   1.739   0.648   9.255  1.4704 -1.1940 -0.4268
 9345SOL    HW239669   1.798   0.630   9.129 -1.1749 -2.6099  2.1434
 9346SOL     OW39670   0.787   1.041   1.155 -0.4179 -0.1891 -0.6446
 9346SOL    HW139671   0.787   1.083   1.069 -0.0721  0.1935 -0.4612
 9346SOL    HW239672   0.814   0.951   1.137 -0.0473  0.0081 -1.0597
 9347SOL     OW39673   0.943   1.550   4.409  0.1668  0.2014  0.1661
 9347SOL    HW139674   1.021   1.505   4.375  0.2590  0.5605 -0.0941
 9347SOL    HW239675   0.973   1.620   4.467  0.2924 -0.2052  0.5964
 9348SOL     OW39676   1.383   3.433   3.371 -0.4375 -0.6262 -0.7105
 9348SOL    HW139677   1.430   3.516   3.379  1.9692 -1.9124 -1.6504
 9348SOL    HW239678   1.305   3.465   3.417  0.6689  1.7705 -0.4690
 9349SOL     OW39679   4.665   3.198   5.673  0.5395  0.7007  0.1596
 9349SOL    HW139680   4.624   3.128   5.724  2.7567  0.0143  0.9811
 9349SOL    HW239681   4.592   3.257   5.657 -0.3437 -0.3402  0.3103
 9350SOL     OW39682   3.889   0.160   2.360  0.0859 -0.4113  0.1019
 9350SOL    HW139683   3.838   0.086   2.393 -3.1358  0.6274 -2.5209
 9350SOL    HW239684   3.973   0.134   2.398  0.1066  0.0390  0.3526
 9351SOL     OW39685   0.365   3.923  16.333 -0.0524  0.3735  0.0980
 9351SOL    HW139686   0.300   3.900  16.266  0.5526 -2.0955  0.3384
 9351SOL    HW239687   0.437   3.949  16.276  0.8521 -0.1321  1.0094
 9352SOL     OW39688   0.291   0.661  15.431  0.0922 -0.3840  0.5878
 9352SOL    HW139689   0.200   0.679  15.455  0.0146 -0.0515  0.0314
 9352SOL    HW239690   0.337   0.716  15.495 -1.2742 -1.1176  2.1948
 9353SOL     OW39691   2.485   0.688   2.249  0.3011  0.6681 -0.1649
 9353SOL    HW139692   2.549   0.711   2.182  2.1312 -0.7680  1.0784
 9353SOL    HW239693   2.491   0.770   2.297  1.5814  0.2219  0.4393
 9354SOL     OW39694   0.349   1.911   6.906  0.8167  0.1925  0.6683
 9354SOL    HW139695   0.254   1.923   6.911  0.6136 -0.5236 -1.3877
 9354SOL    HW239696   0.382   1.999   6.920  0.6861  0.0881  1.6405
 9355SOL     OW39697   1.375   4.384  10.862  0.8557 -0.5952  0.2277
 9355SOL    HW139698   1.326   4.377  10.780  2.1366  1.4919 -0.7123
 9355SOL    HW239699   1.460   4.377  10.820  0.2008  2.4949 -1.5811
 9356SOL     OW39700   0.566   0.165   8.099  0.6731  0.0670  0.2114
 9356SOL    HW139701   0.582   0.250   8.140 -1.5803  0.6800 -0.1547
 9356SOL    HW239702   0.657   0.140   8.083  0.5556 -0.9311  1.0854
 9357SOL     OW39703   3.776   3.807   5.639  0.2244 -0.1508  0.0809
 9357SOL    HW139704   3.757   3.878   5.701  1.9101  0.3144  0.0546
 9357SOL    HW239705   3.698   3.753   5.654  0.2125  0.0035  0.5669
 9358SOL     OW39706   2.055   2.536   2.042 -0.2622  0.4311 -0.2803
 9358SOL    HW139707   2.044   2.511   2.134  1.4437  2.0974  0.3664
 9358SOL    HW239708   2.148   2.529   2.024 -0.7694 -0.5208 -2.5226
 9359SOL     OW39709   1.882   2.950   5.472 -0.0897  0.6938  0.4137
 9359SOL    HW139710   1.930   2.882   5.521  1.7981  0.2893 -1.9696
 9359SOL    HW239711   1.857   3.004   5.546 -0.9097  1.9182 -0.7656
 9360SOL     OW39712   1.482   3.457  10.620  0.1879 -0.2182  0.1913
 9360SOL    HW139713   1.429   3.451  10.540  1.2925  0.8386 -0.6276
 9360SOL    HW239714   1.445   3.525  10.676  1.5620  1.6773 -1.1686
 9361SOL     OW39715   4.467   2.231  16.715  0.3699  0.1092  0.3392
 9361SOL    HW139716   4.451   2.244  16.622 -1.7274  0.7171  0.7815
 9361SOL    HW239717   4.563   2.233  16.720  0.4458  0.3381 -1.1348
 9362SOL     OW39718   0.647   0.691  13.571 -0.2235 -0.8319  0.2918
 9362SOL    HW139719   0.586   0.620  13.550 -1.2045  0.0294  0.2291
 9362SOL    HW239720   0.590   0.763  13.598  1.4710  0.3739  0.6802
 9363SOL     OW39721   3.435   1.306   5.711  0.0445 -0.0900 -0.1945
 9363SOL    HW139722   3.443   1.388   5.663 -2.4307 -1.1639 -2.4388
 9363SOL    HW239723   3.345   1.278   5.695 -0.6800  0.9922  1.9506
 9364SOL     OW39724   3.435   1.159   1.866 -0.2336 -0.6598 -0.1685
 9364SOL    HW139725   3.524   1.134   1.893 -0.1514 -1.0931 -0.8572
 9364SOL    HW239726   3.402   1.081   1.822 -0.8179  0.3204 -1.4555
 9365SOL     OW39727   0.647   2.741   1.002  0.3576  0.0900 -0.1764
 9365SOL    HW139728   0.586   2.789   0.946  0.9183 -1.7133 -2.3489
 9365SOL    HW239729   0.711   2.719   0.935 -0.3936 -1.0968 -0.5121
 9366SOL     OW39730   0.724   4.146   2.906  0.6265 -0.3796  0.5419
 9366SOL    HW139731   0.659   4.211   2.933  2.2907  0.8896  1.5422
 9366SOL    HW239732   0.794   4.154   2.971  0.4020  0.7277  0.6395
 9367SOL     OW39733   0.031   3.639   0.058  0.5000  0.0123 -0.2160
 9367SOL    HW139734   0.067   3.607   0.140 -1.0349  1.7872  1.1466
 9367SOL    HW239735   4.708   3.571   0.033  1.3829 -1.6636  2.1812
 9368SOL     OW39736   3.696   2.918   2.653 -0.1345  0.0566 -0.3508
 9368SOL    HW139737   3.741   2.941   2.734  0.7753  0.0995 -0.8703
 9368SOL    HW239738   3.672   3.006   2.625 -1.7598 -1.0968 -2.5936
 9369SOL     OW39739   1.243   4.450   7.302 -0.0016 -0.0269 -0.4078
 9369SOL    HW139740   1.204   4.466   7.387 -1.8786 -2.5234 -0.8209
 9369SOL    HW239741   1.255   4.539   7.268  2.7881 -1.2990 -2.8042
 9370SOL     OW39742   0.783   0.866   9.186  0.4379 -0.3563 -0.2983
 9370SOL    HW139743   0.837   0.806   9.237  0.9544 -2.7862 -3.6670
 9370SOL    HW239744   0.762   0.810   9.111 -2.2096  0.1995  0.0618
 9371SOL     OW39745   1.687   2.194  16.861  0.1443  0.2847 -0.6892
 9371SOL    HW139746   1.700   2.141  16.940 -0.9055 -0.4012 -0.9835
 9371SOL    HW239747   1.618   2.256  16.885 -0.0200 -0.2388  0.1749
 9372SOL     OW39748   4.592   3.872   6.341 -0.2624 -0.0747 -0.0687
 9372SOL    HW139749   4.535   3.896   6.268 -2.3619 -0.2953  1.4851
 9372SOL    HW239750   4.629   3.792   6.303 -1.2612 -1.0291  0.9481
 9373SOL     OW39751   2.253   0.249   3.797  0.0157 -0.0045  0.3153
 9373SOL    HW139752   2.215   0.310   3.735  0.9101  0.1186 -0.1169
 9373SOL    HW239753   2.183   0.184   3.800 -0.8082  0.8408 -0.7901
 9374SOL     OW39754   0.612   0.676   2.816  0.4014 -0.1465 -0.1837
 9374SOL    HW139755   0.603   0.585   2.846 -0.9159 -0.8707 -2.8167
 9374SOL    HW239756   0.643   0.671   2.726  1.7655  2.1994  0.1522
 9375SOL     OW39757   3.293   4.069   3.912  0.0393  0.4114  0.4371
 9375SOL    HW139758   3.262   4.071   4.002  3.7224  4.4086  1.5975
 9375SOL    HW239759   3.219   4.110   3.867  0.1105  0.2108  0.1385
 9376SOL     OW39760   3.404   0.335   7.310 -0.4410 -0.4438 -0.6166
 9376SOL    HW139761   3.359   0.257   7.280 -2.7148  1.6021 -2.5652
 9376SOL    HW239762   3.482   0.301   7.355  0.8480  2.0939 -0.9321
 9377SOL     OW39763   0.492   4.274   4.744  0.1966 -0.6274  0.1003
 9377SOL    HW139764   0.524   4.364   4.742 -0.4057 -0.4291 -0.7581
 9377SOL    HW239765   0.574   4.225   4.751  0.5663  0.1107  0.9248
 9378SOL     OW39766   0.085   1.345  10.083  0.4117  0.5311  0.5922
 9378SOL    HW139767   0.145   1.341  10.158 -2.2993  1.0657  2.7692
 9378SOL    HW239768   0.081   1.440  10.076 -1.2926  0.3878 -0.3992
 9379SOL     OW39769   1.180   2.285   4.406  0.1222 -0.2004 -0.0367
 9379SOL    HW139770   1.153   2.374   4.432 -1.1681 -0.4268 -0.5904
 9379SOL    HW239771   1.266   2.304   4.369 -0.8614 -0.5980 -2.5491
 9380SOL     OW39772   1.785   3.168  11.489  0.0148 -0.4202  0.5760
 9380SOL    HW139773   1.811   3.255  11.521 -1.6800 -0.1020  1.0788
 9380SOL    HW239774   1.873   3.144  11.460  0.8556  0.5196  2.3246
 9381SOL     OW39775   4.736   4.386  17.231 -0.0594  0.0060  0.2732
 9381SOL    HW139776   4.657   4.425  17.270  0.2304  0.1161  0.7527
 9381SOL    HW239777   0.050   4.461  17.207 -0.5496  0.2715 -0.0097
 9382SOL     OW39778   2.885   2.963  12.683  0.1723 -0.4617 -0.1333
 9382SOL    HW139779   2.806   2.939  12.730  0.3228 -0.1549  0.2728
 9382SOL    HW239780   2.896   3.052  12.715 -1.1448 -0.7636  1.1232
 9383SOL     OW39781   1.831   0.113  10.066 -0.2921  0.4903 -0.1814
 9383SOL    HW139782   1.916   0.158  10.066  0.8539 -1.6927 -1.5874
 9383SOL    HW239783   1.849   0.038  10.122 -1.0514  0.2470 -0.2730
 9384SOL     OW39784   0.541   4.049   3.997  0.4276 -0.0886  0.5053
 9384SOL    HW139785   0.491   4.014   4.072 -0.7561  1.2778  0.3581
 9384SOL    HW239786   0.500   3.997   3.928 -1.5847 -0.8011  2.2235
 9385SOL     OW39787   2.789   3.957  14.995 -0.5429 -0.1062 -0.1489
 9385SOL    HW139788   2.849   3.922  15.060 -1.7414  1.7606  1.9393
 9385SOL    HW239789   2.731   3.995  15.061 -1.4250 -0.9395 -0.4488
 9386SOL     OW39790   1.453   0.512   7.047 -0.1031 -0.1232  0.4379
 9386SOL    HW139791   1.402   0.570   6.989  3.0890  1.0341 -1.2473
 9386SOL    HW239792   1.434   0.428   7.006  2.0938  0.4570 -1.7976
 9387SOL     OW39793   0.913   3.923   4.164  0.7129  0.6766  0.2340
 9387SOL    HW139794   0.881   3.989   4.103  1.4871  1.6797  0.8953
 9387SOL    HW239795   0.935   3.851   4.106  0.5129  0.1049  0.8678
 9388SOL     OW39796   4.457   4.337   4.609  0.4960 -0.3435 -0.6411
 9388SOL    HW139797   4.499   4.252   4.621 -0.8519 -0.9955 -0.4580
 9388SOL    HW239798   4.387   4.316   4.547 -0.4791  1.5687 -0.1883
 9389SOL     OW39799   2.510   3.511   8.194 -0.4624 -0.0601  0.0935
 9389SOL    HW139800   2.468   3.597   8.188  0.5518  0.5330  1.3121
 9389SOL    HW239801   2.439   3.453   8.166  0.0959 -0.1133 -1.2087
 9390SOL     OW39802   1.563   4.009  17.745 -0.0981 -0.0402  0.3899
 9390SOL    HW139803   1.656   4.028  17.733 -0.0406  0.1397  1.1395
 9390SOL    HW239804   1.553   4.032   0.080  1.1762 -0.3143  0.6003
 9391SOL     OW39805   2.778   2.634  13.716 -0.2848  0.1878  0.0291
 9391SOL    HW139806   2.800   2.584  13.795 -0.4872  1.4337  0.8896
 9391SOL    HW239807   2.828   2.714  13.734 -2.0781  0.3416  4.3911
 9392SOL     OW39808   3.772   4.449   3.953 -0.1017 -0.4658  0.2483
 9392SOL    HW139809   3.811   4.515   4.010  1.0827  0.7862 -2.0223
 9392SOL    HW239810   3.846   4.410   3.906 -0.1359  1.4322 -1.3655
 9393SOL     OW39811   4.071   2.919  16.193  0.2882  0.5210  0.1088
 9393SOL    HW139812   4.142   2.889  16.137  1.3811  2.2984  0.5236
 9393SOL    HW239813   4.116   2.997  16.227 -0.2871  0.3511  1.2748
 9394SOL     OW39814   3.610   4.459   6.842 -0.1031  0.1526  0.1359
 9394SOL    HW139815   3.643   4.477   6.754  1.7206  0.1538  0.8098
 9394SOL    HW239816   3.585   4.368   6.826 -0.0620  0.1650 -0.0049
 9395SOL     OW39817   0.079   2.807   6.866  0.7388 -0.4876 -0.1371
 9395SOL    HW139818   0.027   2.781   6.790  0.0236  2.2213 -0.5623
 9395SOL    HW239819   0.001   2.805   6.922  0.2753  1.1980 -0.7246
 9396SOL     OW39820   3.088   0.106   0.416  0.0210  0.2616  0.1846
 9396SOL    HW139821   3.046   0.146   0.492  0.6472 -1.2875  1.3608
 9396SOL    HW239822   3.131   0.179   0.372 -0.5676  0.0588 -0.7106
 9397SOL     OW39823   4.665   0.467   8.145  1.2733 -0.4876  0.0432
 9397SOL    HW139824   4.711   0.385   8.130  0.9092 -0.3685 -1.7046
 9397SOL    HW239825   4.686   0.521   8.069  0.9624  2.3563  1.9774
 9398SOL     OW39826   4.447   3.524   8.602 -0.6805 -0.3478 -0.4496
 9398SOL    HW139827   4.530   3.565   8.578  0.0212 -1.7033 -0.3121
 9398SOL    HW239828   4.448   3.444   8.550  1.7947 -0.6003  0.0082
 9399SOL     OW39829   0.429   4.354   1.989 -0.1096  0.0347 -0.3050
 9399SOL    HW139830   0.362   4.365   1.922 -0.8101 -0.3347  0.3204
 9399SOL    HW239831   0.383   4.308   2.060  0.1769  1.3418  0.7304
 9400SOL     OW39832   0.928   3.971   7.123  0.5131 -0.5650  0.4710
 9400SOL    HW139833   0.932   4.018   7.206 -1.8164 -1.4871  1.1322
 9400SOL    HW239834   0.884   3.893   7.156  1.4390 -0.8412  1.0367
 9401SOL     OW39835   0.030   3.282  10.595 -0.4399  0.2955  0.3313
 9401SOL    HW139836   0.068   3.219  10.534 -0.3509  1.4797 -0.8396
 9401SOL    HW239837   0.104   3.342  10.602 -0.9063  1.1225 -2.1257
 9402SOL     OW39838   4.431   1.313   5.976  0.1724  0.6699  0.2875
 9402SOL    HW139839   4.523   1.288   5.979 -0.9503 -3.6403 -0.1989
 9402SOL    HW239840   4.390   1.246   6.031  0.3213 -0.7454 -1.3239
 9403SOL     OW39841   2.599   3.785   9.967  0.1973 -0.1912 -0.4776
 9403SOL    HW139842   2.597   3.716   9.900  1.1721  0.7115 -1.4357
 9403SOL    HW239843   2.555   3.741  10.040 -0.4065  1.2635  0.0350
 9404SOL     OW39844   3.146   4.495   1.375 -0.5518  0.1872 -0.3190
 9404SOL    HW139845   3.217   4.465   1.320 -2.5320 -2.8526 -1.1951
 9404SOL    HW239846   3.192   4.567   1.418  1.4096 -2.0107  1.2581
 9405SOL     OW39847   3.305   1.860   5.820  0.2558 -0.1957 -0.6228
 9405SOL    HW139848   3.297   1.878   5.913  1.3431 -0.1073 -0.5569
 9405SOL    HW239849   3.370   1.924   5.791  0.4297  0.4048  1.1059
 9406SOL     OW39850   2.898   2.101   9.025  0.1296  0.3225  0.0516
 9406SOL    HW139851   2.983   2.063   9.004 -0.1880  0.2566 -1.1086
 9406SOL    HW239852   2.892   2.067   9.114 -0.3079 -1.1606 -0.5344
 9407SOL     OW39853   2.272   0.622  16.398  0.3541  0.0560 -0.1288
 9407SOL    HW139854   2.313   0.596  16.481 -0.0272 -1.2988 -0.3689
 9407SOL    HW239855   2.179   0.603  16.409  0.3058  0.9155  0.9528
 9408SOL     OW39856   4.315   2.468  17.344 -0.0262 -0.3314 -0.1827
 9408SOL    HW139857   4.265   2.530  17.397 -0.1545 -0.2193 -0.4346
 9408SOL    HW239858   4.398   2.476  17.390 -0.2478  1.1415 -0.0525
 9409SOL     OW39859   0.045   4.367   2.854  0.1361  0.3006  0.9034
 9409SOL    HW139860   4.707   4.312   2.868  0.3388 -0.6100 -1.5742
 9409SOL    HW239861   0.098   4.308   2.800 -0.7206 -0.9380  1.4100
 9410SOL     OW39862   3.448   4.294  11.075  0.6124  0.2355  0.4583
 9410SOL    HW139863   3.499   4.292  10.994 -0.3554  1.1671 -0.1798
 9410SOL    HW239864   3.493   4.367  11.118  1.6322 -1.1357  1.7334
 9411SOL     OW39865   3.824   0.783   3.747 -0.2832 -0.0243 -0.2919
 9411SOL    HW139866   3.740   0.766   3.704  0.3419 -1.5443 -0.9236
 9411SOL    HW239867   3.803   0.871   3.777  0.0531 -0.2593  0.6172
 9412SOL     OW39868   1.634   0.307   8.184  0.3979  0.0062 -0.2378
 9412SOL    HW139869   1.600   0.331   8.098 -1.6933 -0.3885  0.4778
 9412SOL    HW239870   1.718   0.351   8.177  0.8902 -0.9515 -0.3472
 9413SOL     OW39871   4.401   3.594  10.153 -0.4214  0.0938 -0.3679
 9413SOL    HW139872   4.382   3.566  10.243  1.0822  0.5828  0.1003
 9413SOL    HW239873   4.457   3.524  10.120  1.3297  0.6392  1.4116
 9414SOL     OW39874   2.802   0.377   2.105 -0.4265 -0.3687 -0.1637
 9414SOL    HW139875   2.764   0.312   2.046  2.0614 -0.7055 -1.3950
 9414SOL    HW239876   2.813   0.333   2.189  0.4153  1.2798  0.5804
 9415SOL     OW39877   1.265   3.719  17.273 -0.0802  0.2191 -0.1975
 9415SOL    HW139878   1.287   3.811  17.256  0.5472  0.4610  1.8722
 9415SOL    HW239879   1.225   3.708  17.187  1.3463  0.3403 -0.8804
 9416SOL     OW39880   4.709   4.349   4.262  0.1364 -0.1282 -0.3754
 9416SOL    HW139881   4.672   4.261   4.261  0.9977 -0.4890 -0.5409
 9416SOL    HW239882   0.012   4.346   4.348  0.3142  1.9141 -0.3928
 9417SOL     OW39883   1.862   2.112   1.078 -0.5856  0.1255 -0.2876
 9417SOL    HW139884   1.815   2.135   1.158 -1.1567  0.9520 -0.8662
 9417SOL    HW239885   1.951   2.125   1.111  0.4120  1.0673 -3.4096
 9418SOL     OW39886   0.360   2.534   9.284 -0.9253  0.0527 -0.1033
 9418SOL    HW139887   0.443   2.571   9.254 -0.4455 -0.6661  0.3286
 9418SOL    HW239888   0.388   2.442   9.287  0.0540  0.4444  3.3058
 9419SOL     OW39889   1.265   3.711   9.224  0.2324 -0.0477  0.2005
 9419SOL    HW139890   1.278   3.786   9.166 -2.1424  0.7347  0.6668
 9419SOL    HW239891   1.224   3.750   9.302  1.1984 -0.1886  0.7790
 9420SOL     OW39892   1.291   2.667   7.494 -0.2894 -0.3117 -0.3043
 9420SOL    HW139893   1.250   2.737   7.546 -1.0785 -1.1949  0.2502
 9420SOL    HW239894   1.309   2.712   7.411  0.2241 -1.0694 -0.6034
 9421SOL     OW39895   4.662   2.924   4.818  0.0218  0.1564 -0.2714
 9421SOL    HW139896   4.672   2.829   4.822  3.1043  0.5722  1.5773
 9421SOL    HW239897   4.696   2.944   4.731  0.2603  1.1317  0.0505
 9422SOL     OW39898   4.052   1.166   2.893  0.5819  0.2025  0.2781
 9422SOL    HW139899   4.044   1.261   2.891 -1.2810  0.0661  0.6226
 9422SOL    HW239900   4.042   1.148   2.800  0.5998  2.8367 -0.2283
 9423SOL     OW39901   1.488   1.083   5.549  0.4270  0.3399  0.1804
 9423SOL    HW139902   1.440   1.047   5.623  0.0662  1.1105  0.3258
 9423SOL    HW239903   1.466   1.176   5.559 -0.4151  0.5351 -3.3558
 9424SOL     OW39904   2.732   3.539   5.059 -0.1867 -0.1199 -0.5707
 9424SOL    HW139905   2.740   3.634   5.047 -1.5276  0.2045  1.0634
 9424SOL    HW239906   2.726   3.539   5.155  2.1453  0.2806 -0.4411
 9425SOL     OW39907   1.689   2.126   1.282 -0.1506 -0.0120  1.0243
 9425SOL    HW139908   1.746   2.153   1.354 -0.0428  0.1885  0.8623
 9425SOL    HW239909   1.617   2.188   1.294  0.0450  0.1757  1.2230
 9426SOL     OW39910   3.504   0.381  10.361 -0.1076 -0.4333 -0.0025
 9426SOL    HW139911   3.481   0.464  10.320  1.1720  0.5968  1.3209
 9426SOL    HW239912   3.423   0.347  10.397 -0.0068 -2.4427 -1.6973
 9427SOL     OW39913   3.039   4.486  15.631 -0.2390 -0.0372 -0.5888
 9427SOL    HW139914   3.031   4.517  15.721 -0.7917 -1.6138 -0.0971
 9427SOL    HW239915   3.117   4.523  15.591 -0.1270  1.3547  0.9536
 9428SOL     OW39916   0.439   4.315   6.969 -0.8277 -0.1027  0.2063
 9428SOL    HW139917   0.518   4.369   6.964 -0.8914 -0.1261 -0.9750
 9428SOL    HW239918   0.466   4.230   7.005 -0.9844  0.3112  1.3001
 9429SOL     OW39919   3.848   3.414   0.806 -0.7718  0.3981 -0.0370
 9429SOL    HW139920   3.851   3.319   0.811  0.9350  0.4871  0.4833
 9429SOL    HW239921   3.850   3.438   0.713 -1.2401 -0.9506 -0.3926
 9430SOL     OW39922   1.900   0.380   8.269  0.0162 -0.6028 -0.0839
 9430SOL    HW139923   1.858   0.436   8.333  0.6980  1.1221 -1.1487
 9430SOL    HW239924   1.980   0.352   8.313 -0.5149 -0.0147  1.2630
 9431SOL     OW39925   0.214   2.209  11.318  0.0761 -0.6539  0.4806
 9431SOL    HW139926   0.260   2.144  11.371 -1.1078 -2.0915 -0.2471
 9431SOL    HW239927   0.197   2.278  11.382  0.2983 -2.5096  2.5152
 9432SOL     OW39928   0.574   3.994   7.073 -0.6425  0.2870  0.2030
 9432SOL    HW139929   0.557   3.971   7.164 -1.8747 -2.6957 -0.7841
 9432SOL    HW239930   0.498   3.958   7.027 -0.2076 -0.1281 -0.1860
 9433SOL     OW39931   0.907   2.407   2.041 -0.1354 -0.4268 -0.0578
 9433SOL    HW139932   0.953   2.439   1.963  1.8742 -2.5680  0.2457
 9433SOL    HW239933   0.972   2.355   2.087 -0.4344 -0.4865  0.2993
 9434SOL     OW39934   2.452   1.295   6.388  0.3894  0.1313  0.1411
 9434SOL    HW139935   2.440   1.376   6.438 -0.4042  0.7302 -1.0013
 9434SOL    HW239936   2.366   1.253   6.394  0.3086  0.4801  1.4081
 9435SOL     OW39937   3.273   3.546   7.283  0.3842  0.0511  0.1973
 9435SOL    HW139938   3.357   3.553   7.330 -0.3069 -1.1214  1.5726
 9435SOL    HW239939   3.234   3.468   7.321 -1.5251  0.1498 -1.5445
 9436SOL     OW39940   2.767   1.035   0.117 -0.4336 -0.1037  0.6773
 9436SOL    HW139941   2.787   1.092   0.043 -1.2586 -1.2126 -0.4006
 9436SOL    HW239942   2.733   0.954   0.078 -0.4754 -0.3425  1.2018
 9437SOL     OW39943   2.255   3.255   5.064  0.3220  0.0405  0.3721
 9437SOL    HW139944   2.334   3.307   5.047 -0.8893  0.9446 -2.5625
 9437SOL    HW239945   2.213   3.306   5.132  1.1297 -0.3121  1.1380
 9438SOL     OW39946   2.101   1.154   2.201  0.5741  0.3695  0.5774
 9438SOL    HW139947   2.062   1.085   2.256 -2.6387  2.0089  0.3636
 9438SOL    HW239948   2.164   1.188   2.265  0.1124  0.8258  0.7971
 9439SOL     OW39949   1.492   0.063   2.163  0.5009 -0.1680  0.2936
 9439SOL    HW139950   1.544   4.723   2.169 -0.7335 -0.9824  0.2387
 9439SOL    HW239951   1.552   0.137   2.156 -0.2547  0.4831  0.7547
 9440SOL     OW39952   0.239   4.197  17.351  0.5500 -0.2635 -0.0337
 9440SOL    HW139953   0.164   4.151  17.314  0.7893 -1.5478  1.0629
 9440SOL    HW239954   0.198   4.222  17.434 -1.0619  0.0346 -0.9138
 9441SOL     OW39955   3.967   2.856   8.258  0.3331  0.1835 -0.7106
 9441SOL    HW139956   3.921   2.772   8.260  1.0682 -0.2436 -1.7160
 9441SOL    HW239957   3.888   2.910   8.266 -0.2717 -0.9631  1.1609
 9442SOL     OW39958   3.258   0.167   3.428  0.3383  0.0957 -0.1742
 9442SOL    HW139959   3.274   0.224   3.353 -1.3237  0.6601 -0.1089
 9442SOL    HW239960   3.250   0.229   3.501 -0.5934  1.4849 -1.4369
 9443SOL     OW39961   1.277   2.174   3.851 -0.4227 -0.0528  0.0361
 9443SOL    HW139962   1.281   2.177   3.947 -1.3222 -0.1072  0.0697
 9443SOL    HW239963   1.185   2.192   3.830 -0.2093  0.2668 -0.6262
 9444SOL     OW39964   0.953   3.966  16.066 -0.7034 -0.2591 -0.2158
 9444SOL    HW139965   0.876   3.920  16.032  1.3195 -4.5675  0.9792
 9444SOL    HW239966   0.972   3.917  16.146  0.7194  0.7825  0.0947
 9445SOL     OW39967   1.107   1.044   9.047  0.0467 -0.1747  0.3693
 9445SOL    HW139968   1.115   0.972   9.110 -0.8010  0.8576  1.6606
 9445SOL    HW239969   1.072   1.002   8.968  0.3698 -2.7993  1.6200
 9446SOL     OW39970   2.605   4.647   7.110  0.4464  0.1576  0.0681
 9446SOL    HW139971   2.697   4.672   7.113  0.9793 -1.8392  0.1525
 9446SOL    HW239972   2.580   4.706   7.038 -1.1083 -1.4832 -0.7463
 9447SOL     OW39973   3.716   1.306   6.750 -0.3610 -0.1320  0.2507
 9447SOL    HW139974   3.769   1.352   6.814 -1.9962  2.3850 -0.1635
 9447SOL    HW239975   3.788   1.257   6.711 -0.8674 -0.4485 -0.3089
 9448SOL     OW39976   1.040   2.792   3.628  0.0473  0.2029 -0.7669
 9448SOL    HW139977   1.101   2.814   3.698  0.4316  1.6410 -1.5541
 9448SOL    HW239978   0.966   2.758   3.678 -1.5938  1.7168 -2.1984
 9449SOL     OW39979   3.744   3.339   2.948 -0.1428  0.4813  0.6651
 9449SOL    HW139980   3.702   3.323   2.863  2.2031 -2.1043  0.0182
 9449SOL    HW239981   3.674   3.390   2.990  0.3799  2.3795 -0.7952
 9450SOL     OW39982   3.435   0.465  12.748 -0.1892 -1.0164 -0.5270
 9450SOL    HW139983   3.342   0.447  12.734 -0.7537  2.3207 -0.9680
 9450SOL    HW239984   3.422   0.538  12.809 -1.1153 -0.9277 -0.8343
 9451SOL     OW39985   4.287   4.585   8.556  0.4112  0.3110 -0.3116
 9451SOL    HW139986   4.284   4.497   8.518 -0.9288  0.2892 -0.1507
 9451SOL    HW239987   4.205   4.582   8.605  0.6194 -0.2871  0.0017
 9452SOL     OW39988   4.265   3.716  16.101  0.7971  0.0147 -0.1453
 9452SOL    HW139989   4.246   3.754  16.016  3.4889  0.3277 -0.6041
 9452SOL    HW239990   4.324   3.777  16.146 -0.8022  1.2226  0.3104
 9453SOL     OW39991   3.513   3.824   0.745  0.4161  0.1143  0.5288
 9453SOL    HW139992   3.427   3.866   0.752 -0.3169 -0.8650 -2.7643
 9453SOL    HW239993   3.530   3.789   0.833  3.0287  1.4299  0.5430
 9454SOL     OW39994   3.028   4.105   0.641 -0.6610  0.0998 -0.5135
 9454SOL    HW139995   2.973   4.183   0.650 -0.2078  0.4684 -0.9470
 9454SOL    HW239996   3.089   4.139   0.576 -1.7755  3.5192  0.2294
 9455SOL     OW39997   1.265   0.023   7.870  0.0612 -0.1245  0.1884
 9455SOL    HW139998   1.283   0.063   7.785  2.6753  0.0641  0.8318
 9455SOL    HW239999   1.352   0.023   7.910  0.1153  0.7647  0.0704
 9456SOL     OW40000   2.864   0.646   3.618  0.4936  0.1415 -0.0581
 9456SOL    HW140001   2.786   0.666   3.669 -0.3880 -1.6699 -0.6922
 9456SOL    HW240002   2.831   0.579   3.557  0.8644 -0.5267  0.4759
 9457SOL     OW40003   2.415   4.456   7.062 -0.4943  0.0671  0.1428
 9457SOL    HW140004   2.372   4.540   7.074  0.2495  0.6436 -1.2729
 9457SOL    HW240005   2.504   4.490   7.055 -0.5583  0.1889 -0.0689
 9458SOL     OW40006   3.910   4.259   7.278  0.1622 -0.1541  0.0394
 9458SOL    HW140007   3.999   4.287   7.299  0.1244 -0.0563  0.0705
 9458SOL    HW240008   3.898   4.296   7.191  0.4049  0.4337  0.2591
 9459SOL     OW40009   0.550   1.628   2.897  0.5853  0.1152  0.3974
 9459SOL    HW140010   0.559   1.657   2.987 -0.6941 -1.5093  1.0549
 9459SOL    HW240011   0.595   1.702   2.856 -0.6211  1.1950  1.0363
 9460SOL     OW40012   0.063   3.835   8.549  0.0740  0.0232  0.3774
 9460SOL    HW140013   0.066   3.789   8.633 -0.8486  0.2660  0.5499
 9460SOL    HW240014   0.027   3.920   8.574 -2.1092 -1.2690  1.6316
 9461SOL     OW40015   4.683   2.689   9.996 -0.4503 -0.4095 -0.1678
 9461SOL    HW140016   0.021   2.686   9.940 -0.0044 -4.0505  0.6711
 9461SOL    HW240017   4.710   2.631  10.067  0.9008  0.0063 -0.3343
 9462SOL     OW40018   2.798   2.467  11.301 -0.4864 -0.0986 -0.1468
 9462SOL    HW140019   2.776   2.537  11.239 -0.9822  0.3403  0.5305
 9462SOL    HW240020   2.713   2.431  11.325  0.4017 -1.4280  0.9857
 9463SOL     OW40021   3.563   4.216   9.280 -0.8407  0.4277  0.5188
 9463SOL    HW140022   3.515   4.286   9.235 -1.0454  1.1802  1.9022
 9463SOL    HW240023   3.527   4.142   9.230 -0.9136 -0.5562  2.0351
 9464SOL     OW40024   2.921   4.723   2.199 -0.6263 -0.0588 -0.1847
 9464SOL    HW140025   3.006   4.683   2.216  0.3778  2.2379  0.0702
 9464SOL    HW240026   2.935   0.003   2.106  1.3350  0.0138  0.1348
 9465SOL     OW40027   2.745   0.582   6.460  0.2293 -0.3876 -0.4046
 9465SOL    HW140028   2.769   0.545   6.375 -0.0506  0.4610 -0.8461
 9465SOL    HW240029   2.650   0.573   6.467  0.2624  0.5628  1.1537
 9466SOL     OW40030   0.543   1.416   8.185  0.1766 -0.0853 -0.0196
 9466SOL    HW140031   0.633   1.443   8.203  0.6641 -2.1461  0.6312
 9466SOL    HW240032   0.552   1.321   8.172  0.8399  0.1817 -1.4840
 9467SOL     OW40033   1.342   3.918   3.286  0.1351  0.2768 -0.3174
 9467SOL    HW140034   1.360   3.824   3.292 -1.5158  0.0969  1.7139
 9467SOL    HW240035   1.430   3.953   3.304  1.0043 -0.8562 -2.3261
 9468SOL     OW40036   4.275   0.329   5.000 -0.3654 -0.1324 -0.6058
 9468SOL    HW140037   4.256   0.391   4.930 -1.7743  0.4242  0.2902
 9468SOL    HW240038   4.195   0.324   5.051  1.5435 -0.6404  2.3360
 9469SOL     OW40039   4.480   4.446   0.148  0.0836 -0.1459  0.3406
 9469SOL    HW140040   4.427   4.393   0.207  0.7639 -1.2239 -0.0236
 9469SOL    HW240041   4.561   4.395   0.151  0.2857  0.0220 -2.3320
 9470SOL     OW40042   3.672   4.278   1.606  0.5972 -0.1262  0.0515
 9470SOL    HW140043   3.713   4.323   1.680  0.1824 -1.3727  1.0395
 9470SOL    HW240044   3.586   4.316   1.621  0.0546 -0.5724 -1.9399
 9471SOL     OW40045   2.877   4.517  11.712 -0.2619  0.3992 -0.3245
 9471SOL    HW140046   2.953   4.462  11.730  0.3193  1.7213  1.3113
 9471SOL    HW240047   2.829   4.519  11.795  1.7689  0.3583  0.8365
 9472SOL     OW40048   4.586   0.260  13.574 -0.3939 -0.3520  0.2217
 9472SOL    HW140049   4.645   0.185  13.567 -1.6676 -1.2619 -0.9015
 9472SOL    HW240050   4.501   0.228  13.603 -1.4249  0.6782 -1.6925
 9473SOL     OW40051   3.451   2.167   2.407  0.0264 -0.5657  0.3996
 9473SOL    HW140052   3.394   2.189   2.481  0.8128 -1.8409  1.3841
 9473SOL    HW240053   3.396   2.104   2.361  0.3055  0.6595 -1.6092
 9474SOL     OW40054   2.444   1.548   2.541 -0.0808 -0.5350 -0.7881
 9474SOL    HW140055   2.443   1.565   2.447 -1.9340  0.8552 -0.5229
 9474SOL    HW240056   2.532   1.515   2.558 -0.4615 -0.7781  0.7442
 9475SOL     OW40057   2.911   2.208   4.162  0.4666 -0.3457 -0.1471
 9475SOL    HW140058   2.954   2.202   4.247 -1.3724  0.9675  0.8562
 9475SOL    HW240059   2.875   2.122   4.141  0.0950  0.1823 -1.7133
 9476SOL     OW40060   2.259   3.228   7.437 -0.0909 -0.2608  0.0015
 9476SOL    HW140061   2.330   3.163   7.429 -0.2704 -0.2454 -1.7007
 9476SOL    HW240062   2.297   3.303   7.391 -1.7094  0.9834  0.6815
 9477SOL     OW40063   3.012   1.966  10.852  0.2116  0.5282  0.2519
 9477SOL    HW140064   3.045   1.879  10.828 -1.5825 -0.3348  0.9216
 9477SOL    HW240065   2.954   1.984  10.779  1.0112 -0.3525 -0.5895
 9478SOL     OW40066   3.961   2.451   6.042  0.3047  0.1811 -0.1071
 9478SOL    HW140067   3.970   2.356   6.031  0.4734  0.2362 -0.4583
 9478SOL    HW240068   4.052   2.476   6.060  0.8380 -1.2732 -0.7819
 9479SOL     OW40069   4.408   3.975  17.739 -0.4977 -0.6485  0.3729
 9479SOL    HW140070   4.349   4.051  17.740  1.4165  0.8255  1.7437
 9479SOL    HW240071   4.493   4.017  17.745 -0.5902 -0.5368  0.9218
 9480SOL     OW40072   3.418   3.128   9.322 -0.1953 -0.4247 -0.2370
 9480SOL    HW140073   3.474   3.105   9.248 -2.3237 -3.3302 -0.9394
 9480SOL    HW240074   3.468   3.206   9.346 -0.2765 -0.4158 -0.0944
 9481SOL     OW40075   3.471   2.994   1.659 -0.2927 -0.1265  0.0548
 9481SOL    HW140076   3.482   2.905   1.625 -1.0963 -0.9338  1.9139
 9481SOL    HW240077   3.492   2.976   1.750  0.7058  1.3143  0.1137
 9482SOL     OW40078   3.948   4.122   5.557 -0.0739  0.4946  0.4923
 9482SOL    HW140079   3.923   4.033   5.581  0.6635  0.4069  0.9552
 9482SOL    HW240080   3.964   4.114   5.463 -0.0040  0.6709  0.4894
 9483SOL     OW40081   2.243   0.284   2.954  0.2917 -0.0087 -0.5158
 9483SOL    HW140082   2.325   0.295   2.906  0.3898  0.2480 -0.2894
 9483SOL    HW240083   2.262   0.293   3.048  1.0809  2.2794 -0.9015
 9484SOL     OW40084   3.026   1.987   8.034 -0.4864 -0.1973  0.2962
 9484SOL    HW140085   2.997   2.063   7.984  0.9837  0.1656 -0.0113
 9484SOL    HW240086   3.003   2.004   8.125  0.8397 -2.0279  0.9986
 9485SOL     OW40087   3.035   3.327   4.384 -0.1745  0.1201  0.1651
 9485SOL    HW140088   3.046   3.263   4.315  3.0888  0.2003  0.6261
 9485SOL    HW240089   2.941   3.339   4.398  0.2099  1.7800  1.3680
 9486SOL     OW40090   1.822   1.668  15.293 -0.7144 -0.6850 -0.1347
 9486SOL    HW140091   1.735   1.647  15.260  0.7533 -3.6489 -2.1509
 9486SOL    HW240092   1.875   1.667  15.213 -0.7671 -1.9670 -0.1467
 9487SOL     OW40093   3.163   3.323   0.161 -0.2965 -0.7002 -0.7901
 9487SOL    HW140094   3.204   3.300   0.077  1.0666  0.5727 -0.4773
 9487SOL    HW240095   3.073   3.328   0.131 -0.0445  3.2148 -0.8210
 9488SOL     OW40096   1.656   3.896   8.698 -0.4915  0.1391  0.2607
 9488SOL    HW140097   1.689   3.899   8.608 -1.9041  0.1543 -0.2658
 9488SOL    HW240098   1.579   3.954   8.692 -0.4868  0.3892  2.8445
 9489SOL     OW40099   3.852   4.723  12.742 -0.4260  0.2279  0.3066
 9489SOL    HW140100   3.830   4.667  12.817  0.0284  0.8209  0.8848
 9489SOL    HW240101   3.808   0.067  12.757 -0.9767 -0.3442  1.8524
 9490SOL     OW40102   4.530   1.673  16.839 -0.1237  0.4073 -0.1528
 9490SOL    HW140103   4.518   1.768  16.843  0.2567  0.3689  1.8901
 9490SOL    HW240104   4.479   1.653  16.761 -1.7015  0.5240  0.8471
 9491SOL     OW40105   2.410   2.286  16.969 -0.0374  0.0782 -0.4697
 9491SOL    HW140106   2.399   2.272  16.875 -1.7991 -1.0540 -0.1041
 9491SOL    HW240107   2.366   2.211  17.009  1.6035 -0.9409 -0.5282
 9492SOL     OW40108   0.502   1.208   9.368  0.5391 -0.1469 -0.6794
 9492SOL    HW140109   0.517   1.113   9.370 -0.7555 -0.2730  2.1417
 9492SOL    HW240110   0.408   1.217   9.385  0.7439  2.1940 -0.8313
 9493SOL     OW40111   3.255   3.759   4.027  0.9039 -0.2281 -0.1896
 9493SOL    HW140112   3.231   3.839   3.980  0.7102 -0.1961 -0.0359
 9493SOL    HW240113   3.285   3.790   4.112  2.1059  0.7780 -0.9852
 9494SOL     OW40114   3.909   0.363   0.634 -0.2436  0.1800  0.0799
 9494SOL    HW140115   3.972   0.361   0.562 -1.8487 -0.7051 -1.2768
 9494SOL    HW240116   3.964   0.314   0.696 -1.3547  0.9289  1.6716
 9495SOL     OW40117   1.560   1.751   3.086  0.1514  0.5485  0.7279
 9495SOL    HW140118   1.559   1.732   2.992 -4.1329 -0.8010  1.0362
 9495SOL    HW240119   1.654   1.758   3.100  0.3466  0.0473 -0.3376
 9496SOL     OW40120   1.358   0.520   4.544 -0.2063 -0.9603  0.1126
 9496SOL    HW140121   1.422   0.465   4.588  2.0726  0.2017 -1.7563
 9496SOL    HW240122   1.330   0.462   4.473 -0.9067  0.8535 -1.0901
 9497SOL     OW40123   1.750   4.531   1.496  0.2339 -0.3586 -0.0009
 9497SOL    HW140124   1.814   4.497   1.558  1.3936  0.8935 -0.5262
 9497SOL    HW240125   1.806   4.588   1.444 -1.4402  0.8109 -0.5333
 9498SOL     OW40126   0.014   3.755   5.116 -0.1964  0.0151  0.7031
 9498SOL    HW140127   4.668   3.795   5.100 -0.8256 -1.3688  0.6558
 9498SOL    HW240128   0.075   3.810   5.067 -1.4070 -0.5460 -1.4254
 9499SOL     OW40129   2.468   1.954   1.389  0.4377  0.0966 -0.2755
 9499SOL    HW140130   2.463   2.037   1.437 -0.3330 -0.0182 -0.1520
 9499SOL    HW240131   2.463   1.993   1.301  0.4034  3.8667  1.3652
 9500SOL     OW40132   2.190   1.800   1.363 -0.6278 -0.0224 -0.0429
 9500SOL    HW140133   2.230   1.713   1.371  2.2945  1.3264 -0.0070
 9500SOL    HW240134   2.265   1.857   1.380  0.7389 -1.9837  0.5621
 9501SOL     OW40135   1.868   2.938   3.418  0.3153  0.3784 -0.3154
 9501SOL    HW140136   1.876   2.866   3.481  2.4512  0.1285 -0.8462
 9501SOL    HW240137   1.957   2.936   3.382 -0.8704 -2.3122 -3.0311
 9502SOL     OW40138   0.775   1.896   9.259 -0.0019 -0.9708  0.0963
 9502SOL    HW140139   0.734   1.981   9.272  1.2601 -0.5588  1.2608
 9502SOL    HW240140   0.861   1.935   9.247  0.5330 -2.0690  0.4204
 9503SOL     OW40141   0.422   2.327   3.848  0.3675  0.3030 -0.8486
 9503SOL    HW140142   0.490   2.360   3.790  0.4665  0.0688 -0.8658
 9503SOL    HW240143   0.420   2.232   3.836 -0.7133 -0.1941  3.2611
 9504SOL     OW40144   2.258   4.014  16.215  0.3280  0.0042  0.8728
 9504SOL    HW140145   2.277   4.090  16.161 -1.2338 -0.5195 -0.3844
 9504SOL    HW240146   2.162   4.014  16.212  0.3236 -2.5564  1.1214
 9505SOL     OW40147   4.377   0.691  17.170 -0.5414 -0.1753 -0.0694
 9505SOL    HW140148   4.362   0.783  17.149  0.3246 -0.3638 -1.4571
 9505SOL    HW240149   4.298   0.653  17.130 -1.4408  0.5086  1.0529
 9506SOL     OW40150   2.500   3.812   1.265 -0.3037  0.0896 -0.7011
 9506SOL    HW140151   2.496   3.890   1.209 -0.3198  0.2025 -0.5419
 9506SOL    HW240152   2.470   3.851   1.347  1.2342 -0.5560  0.1660
 9507SOL     OW40153   1.940   2.974  15.487  0.2805 -0.1930  0.3005
 9507SOL    HW140154   1.991   2.989  15.408  0.4539 -0.4863  0.3569
 9507SOL    HW240155   1.868   2.925  15.448 -0.0185  1.6354 -1.4284
 9508SOL     OW40156   1.403   1.176   6.854 -0.3149 -0.1881  0.3004
 9508SOL    HW140157   1.404   1.271   6.843 -0.0447 -0.0632  1.3558
 9508SOL    HW240158   1.399   1.143   6.765 -2.2839  0.1601  0.2687
 9509SOL     OW40159   0.474   1.219   4.916  0.5992 -0.2069 -0.1966
 9509SOL    HW140160   0.560   1.183   4.939 -0.7071 -3.5046 -0.5381
 9509SOL    HW240161   0.478   1.245   4.824 -1.4984  1.4376  0.1996
 9510SOL     OW40162   4.064   3.385   3.185  0.2596  0.2368 -0.1642
 9510SOL    HW140163   4.003   3.426   3.247 -0.5408  0.7961 -1.3244
 9510SOL    HW240164   4.118   3.459   3.158 -0.5463  1.2203  0.8999
 9511SOL     OW40165   3.124   2.100   0.916 -0.7492 -0.5088 -0.5713
 9511SOL    HW140166   3.083   2.123   0.999  0.9780  0.1489  0.1179
 9511SOL    HW240167   3.181   2.177   0.916  0.6864 -1.5724  0.0682
 9512SOL     OW40168   4.118   3.373   4.226  0.3105 -0.2554  0.1844
 9512SOL    HW140169   4.212   3.385   4.233  0.1999  1.2235 -0.7886
 9512SOL    HW240170   4.092   3.444   4.167 -0.7655  1.3817  2.6268
 9513SOL     OW40171   0.085   2.959   8.191  0.6187 -0.6299  0.3798
 9513SOL    HW140172   0.017   3.013   8.151  0.8450 -2.0451 -1.8961
 9513SOL    HW240173   0.028   2.884   8.209  0.5224 -0.7454 -0.4434
 9514SOL     OW40174   0.498   3.769   4.220 -0.0094 -0.4000 -0.1540
 9514SOL    HW140175   0.441   3.841   4.191  0.1503  0.3997  1.5137
 9514SOL    HW240176   0.513   3.724   4.137  0.5752 -2.1342  0.9063
 9515SOL     OW40177   0.085   3.040   3.663 -0.4660  0.0449 -0.0355
 9515SOL    HW140178   0.112   3.071   3.576 -2.6982 -2.0044 -1.4486
 9515SOL    HW240179   4.734   3.018   3.646 -1.7415  4.5278  0.9208
 9516SOL     OW40180   0.508   1.342   0.978 -0.2767 -0.1946 -0.2561
 9516SOL    HW140181   0.483   1.413   0.919 -2.5398 -0.4735  0.3961
 9516SOL    HW240182   0.587   1.375   1.022 -0.9163  1.8936 -0.6444
 9517SOL     OW40183   0.268   0.013   3.081 -0.1145 -0.2378 -0.2208
 9517SOL    HW140184   0.276   4.719   3.170  3.8771  1.4235  0.0452
 9517SOL    HW240185   0.175   0.032   3.071 -0.0516 -0.0100 -0.3683
 9518SOL     OW40186   1.531   3.647   4.845 -0.0877 -0.3937  0.0523
 9518SOL    HW140187   1.560   3.706   4.915  1.5402  0.4477 -1.3300
 9518SOL    HW240188   1.485   3.583   4.899 -1.8675 -0.1248 -1.1763
 9519SOL     OW40189   4.555   3.505  15.325 -0.0092  0.1688  0.2307
 9519SOL    HW140190   4.571   3.540  15.238 -0.7293 -2.7480 -1.0574
 9519SOL    HW240191   4.488   3.437  15.322  1.4927 -1.3577  1.0215
 9520SOL     OW40192   3.128   1.993  16.432 -0.8010 -0.2223 -0.1249
 9520SOL    HW140193   3.155   1.927  16.369  0.4956  0.6466 -0.4823
 9520SOL    HW240194   3.159   2.069  16.382 -2.0289  0.6100  0.3637
 9521SOL     OW40195   3.798   3.833   7.482  0.2464 -0.3788  0.2515
 9521SOL    HW140196   3.878   3.869   7.445 -1.1254  1.4601 -0.8732
 9521SOL    HW240197   3.777   3.897   7.550 -1.8148 -0.3256 -0.4224
 9522SOL     OW40198   0.647   4.488   4.859 -0.6012 -0.1519 -0.0817
 9522SOL    HW140199   0.690   4.548   4.797 -0.0207  0.4916  0.9416
 9522SOL    HW240200   0.714   4.438   4.904 -0.4017 -0.4459 -0.7052
 9523SOL     OW40201   4.110   2.882  15.498  0.2862 -0.5928 -0.3321
 9523SOL    HW140202   4.193   2.839  15.519  0.1956  0.2159  1.6929
 9523SOL    HW240203   4.094   2.941  15.572 -1.8352 -1.0912 -0.4017
 9524SOL     OW40204   0.615   4.682   5.926 -0.3611 -0.1051 -0.3937
 9524SOL    HW140205   0.522   4.658   5.917 -0.6727  0.5980  0.9901
 9524SOL    HW240206   0.650   4.615   5.986  0.3202  0.6129  0.0031
 9525SOL     OW40207   1.336   2.457  10.205  0.1056  0.4874  0.5612
 9525SOL    HW140208   1.255   2.427  10.245 -0.3488  1.5061  0.3889
 9525SOL    HW240209   1.391   2.474  10.281 -2.7618 -0.3451  2.7889
 9526SOL     OW40210   1.541   3.292   4.395 -0.4433  0.2328 -0.2501
 9526SOL    HW140211   1.612   3.252   4.344 -1.6216 -2.4733  0.2280
 9526SOL    HW240212   1.508   3.353   4.330 -0.7678  1.4594  1.0779
 9527SOL     OW40213   3.245   0.320   3.673 -0.2533 -0.0638 -0.6199
 9527SOL    HW140214   3.212   0.410   3.681  1.8199  0.6898 -0.5757
 9527SOL    HW240215   3.274   0.305   3.763  0.7414  1.6198 -0.6746
 9528SOL     OW40216   4.397   3.658   5.974 -0.0276 -0.3068  0.4199
 9528SOL    HW140217   4.322   3.600   5.965 -0.7321  0.4663  1.2966
 9528SOL    HW240218   4.389   3.689   6.064 -1.9581 -0.3471  0.2490
 9529SOL     OW40219   0.354   2.485  12.504  0.0971 -0.0716  0.0267
 9529SOL    HW140220   0.437   2.520  12.471 -0.7180 -0.2291 -2.2199
 9529SOL    HW240221   0.358   2.511  12.596  2.1256  0.5458 -0.2305
 9530SOL     OW40222   1.791   4.443  12.174  0.5149 -0.2632  0.0516
 9530SOL    HW140223   1.718   4.389  12.206  0.5149 -0.2522  0.0698
 9530SOL    HW240224   1.772   4.533  12.198  1.0877  0.3578 -1.7791
 9531SOL     OW40225   3.648   4.016   7.699 -0.2783 -0.3178 -0.1482
 9531SOL    HW140226   3.688   4.069   7.630 -2.2999  0.0282 -1.0677
 9531SOL    HW240227   3.722   4.017   7.760  0.3120  0.8584 -0.8911
 9532SOL     OW40228   2.371   2.676   3.803  0.0719 -0.0034 -0.3979
 9532SOL    HW140229   2.373   2.592   3.757  0.7730 -1.0113  1.4736
 9532SOL    HW240230   2.455   2.662   3.847  0.2757  0.2082 -0.7227
 9533SOL     OW40231   0.066   4.589  17.489  0.2489  0.5103  0.3999
 9533SOL    HW140232   0.107   4.644  17.422  0.9899  0.6483  0.9590
 9533SOL    HW240233   0.018   4.659  17.535 -3.3269  0.2459 -2.9001
 9534SOL     OW40234   1.749   2.166   0.708 -0.5758  0.0996 -0.8530
 9534SOL    HW140235   1.659   2.195   0.695 -0.9067 -0.3502  0.4649
 9534SOL    HW240236   1.789   2.186   0.623  2.3472  2.3149  1.0307
 9535SOL     OW40237   2.957   0.372   7.849  0.6576 -0.0742 -0.3066
 9535SOL    HW140238   2.891   0.397   7.914 -0.6891 -0.1276 -1.6447
 9535SOL    HW240239   3.038   0.385   7.898  0.4847 -0.2542  0.0289
 9536SOL     OW40240   4.106   1.456  13.497 -0.3075 -0.3472  0.0323
 9536SOL    HW140241   4.042   1.526  13.482  1.6052  1.9220  2.4021
 9536SOL    HW240242   4.186   1.502  13.523 -0.3624  0.7909 -1.7978
 9537SOL     OW40243   0.163   0.685   4.609 -0.0223  0.4788  0.0599
 9537SOL    HW140244   0.123   0.772   4.613 -0.8927  0.1003 -0.3006
 9537SOL    HW240245   0.110   0.641   4.542 -0.2966 -1.6874  1.6988
 9538SOL     OW40246   2.424   2.608   3.427 -0.2033  0.1617  0.2065
 9538SOL    HW140247   2.462   2.522   3.417 -1.9018 -0.7055  1.1752
 9538SOL    HW240248   2.331   2.584   3.421 -0.2906  0.5504 -0.0557
 9539SOL     OW40249   4.548   4.462   1.450  0.0256  0.2719 -0.0892
 9539SOL    HW140250   4.479   4.399   1.433  0.6679 -0.4115 -0.1847
 9539SOL    HW240251   4.514   4.504   1.528 -0.2688 -2.2053  1.1030
 9540SOL     OW40252   3.131   0.821   6.212  0.6176 -0.8066  0.2571
 9540SOL    HW140253   3.153   0.758   6.142  0.3387 -0.6247  0.0092
 9540SOL    HW240254   3.039   0.836   6.192  0.7719 -1.1321 -0.7463
 9541SOL     OW40255   2.708   2.979   4.086  0.3320  0.2651 -0.3629
 9541SOL    HW140256   2.706   2.938   4.173  1.7483  0.2089 -0.3559
 9541SOL    HW240257   2.616   3.001   4.071  0.4210  0.4760 -0.5897
 9542SOL     OW40258   1.155   2.956  12.747  0.7719 -0.2032 -0.4202
 9542SOL    HW140259   1.103   2.993  12.676  2.3226  3.2824  0.2339
 9542SOL    HW240260   1.103   2.990  12.819  0.3816  0.5287 -1.0488
 9543SOL     OW40261   0.665   1.468   3.280  0.3005  0.4366  0.0118
 9543SOL    HW140262   0.693   1.521   3.355 -0.9609  1.8711 -0.5191
 9543SOL    HW240263   0.749   1.439   3.246 -0.0281 -1.9055  1.2359
 9544SOL     OW40264   0.031   3.170  15.976  0.2735  0.2570  0.6842
 9544SOL    HW140265   0.008   3.094  15.922 -0.5133  0.7048  0.3863
 9544SOL    HW240266   4.701   3.151  16.037  0.0002 -3.2543 -0.7314
 9545SOL     OW40267   2.227   2.953   2.464  0.0632 -0.2991 -0.3172
 9545SOL    HW140268   2.285   2.975   2.391 -0.0697 -0.2824 -0.4170
 9545SOL    HW240269   2.175   3.033   2.471  1.3866  0.4413  1.1252
 9546SOL     OW40270   0.298   2.216   6.135  0.5624 -0.4720 -0.0060
 9546SOL    HW140271   0.392   2.202   6.122  0.4165 -1.1254 -0.3768
 9546SOL    HW240272   0.293   2.307   6.106 -1.0348 -0.6272 -0.2180
 9547SOL     OW40273   2.725   0.194  16.219 -0.1032 -0.0113  0.7716
 9547SOL    HW140274   2.631   0.206  16.207  0.1421  0.4637 -0.7016
 9547SOL    HW240275   2.762   0.277  16.189 -0.2053 -0.2805 -0.0993
 9548SOL     OW40276   4.406   0.037   4.938  0.4378 -0.1616  0.1335
 9548SOL    HW140277   4.327   0.085   4.965  0.3149 -1.3978  1.9854
 9548SOL    HW240278   4.369   4.716   4.874  0.5285 -0.8808  0.7669
 9549SOL     OW40279   3.618   4.325  11.399 -0.0888  0.0950 -0.0412
 9549SOL    HW140280   3.592   4.236  11.374  1.2448 -0.3991  0.3635
 9549SOL    HW240281   3.535   4.364  11.429 -0.7988 -1.6814  0.3205
 9550SOL     OW40282   1.188   3.567   6.215 -0.0396  0.5782 -0.0968
 9550SOL    HW140283   1.094   3.552   6.225 -0.3382  1.7100 -1.1650
 9550SOL    HW240284   1.224   3.497   6.160 -1.4473  0.5397 -0.9662
 9551SOL     OW40285   1.345   4.416   7.737 -0.3564 -0.3628  0.1141
 9551SOL    HW140286   1.336   4.438   7.829 -0.8614  2.0604 -0.4999
 9551SOL    HW240287   1.441   4.419   7.731 -0.3198 -0.9969  0.4206
 9552SOL     OW40288   2.031   3.292   9.426 -0.2698 -0.1143 -0.1131
 9552SOL    HW140289   1.969   3.258   9.490 -0.8859 -0.6244 -0.9694
 9552SOL    HW240290   2.081   3.211   9.418  0.0041  0.1091 -0.7209
 9553SOL     OW40291   0.336   2.686   2.148 -0.4635 -0.3499 -0.6428
 9553SOL    HW140292   0.401   2.705   2.215 -1.7655  0.4301  0.3941
 9553SOL    HW240293   0.257   2.733   2.173  0.9461  0.6135  2.0649
 9554SOL     OW40294   4.709   0.763   2.775 -0.1547 -0.3260  0.4082
 9554SOL    HW140295   4.678   0.840   2.727  0.1115 -0.5360 -0.0971
 9554SOL    HW240296   0.055   0.742   2.739  0.3356 -0.1132  1.4218
 9555SOL     OW40297   1.150   2.106   0.029  0.0761  0.0981  0.5649
 9555SOL    HW140298   1.228   2.104   0.083 -0.8629  0.9201  1.9471
 9555SOL    HW240299   1.159   2.186  17.734  0.4861 -0.8578 -0.8250
 9556SOL     OW40300   2.425   2.087  11.344 -0.7421  0.2875  0.1139
 9556SOL    HW140301   2.418   1.996  11.314  0.1838  0.3365 -0.2485
 9556SOL    HW240302   2.360   2.079  11.414 -1.4162  1.1470 -0.4141
 9557SOL     OW40303   3.761   3.482   4.687  0.2092 -1.1399  0.2861
 9557SOL    HW140304   3.854   3.487   4.711 -0.0844  3.6520  0.4267
 9557SOL    HW240305   3.774   3.449   4.598 -1.8936  1.5931 -1.0408
 9558SOL     OW40306   4.492   0.739   4.539  0.1587 -0.0888 -0.3880
 9558SOL    HW140307   4.428   0.673   4.564  0.6594  0.1780  1.5773
 9558SOL    HW240308   4.450   0.788   4.468 -1.3117 -2.6379 -1.2630
 9559SOL     OW40309   2.281   0.003  11.224 -0.4721 -0.1656  0.3345
 9559SOL    HW140310   2.360   0.034  11.179  0.1005 -1.6732  0.2902
 9559SOL    HW240311   2.213   0.070  11.214 -0.8759 -0.6000  0.1619
 9560SOL     OW40312   0.019   2.586   9.115 -0.4756 -0.2120  0.8641
 9560SOL    HW140313   0.016   2.527   9.191 -2.3111  1.4070  2.0353
 9560SOL    HW240314   4.668   2.614   9.110  0.1081  0.9653 -2.9334
 9561SOL     OW40315   2.599   0.797   1.984 -0.2254  0.1247  0.5833
 9561SOL    HW140316   2.518   0.845   1.967 -1.4482 -2.0001  0.3275
 9561SOL    HW240317   2.645   0.826   1.905 -0.3720 -2.6184 -0.5076
 9562SOL     OW40318   1.600   3.769   5.855  0.0240  0.4178 -0.1649
 9562SOL    HW140319   1.638   3.691   5.814 -2.6549 -0.0273 -1.8066
 9562SOL    HW240320   1.612   3.834   5.785 -1.2595  0.2936 -0.5012
 9563SOL     OW40321   1.280   2.413  13.436  0.4497 -0.1206  0.1272
 9563SOL    HW140322   1.351   2.461  13.393  0.6958 -0.7646 -0.1793
 9563SOL    HW240323   1.274   2.465  13.516  1.5291  1.4766 -0.8215
 9564SOL     OW40324   0.029   4.051   7.024  0.2821 -0.2528 -0.1954
 9564SOL    HW140325   0.086   4.052   6.947 -2.2333 -1.4762 -2.1104
 9564SOL    HW240326   0.048   4.138   7.057 -0.4754 -0.2815  0.3205
 9565SOL     OW40327   4.550   3.098   2.551  0.2011  0.5450 -0.3144
 9565SOL    HW140328   4.476   3.051   2.514  0.9770 -0.2857 -0.8202
 9565SOL    HW240329   4.517   3.114   2.639 -1.0336 -0.9797 -0.5210
 9566SOL     OW40330   1.639   0.496   9.625 -0.7106  0.0339  0.2612
 9566SOL    HW140331   1.667   0.540   9.704  0.7526  0.8835 -0.7267
 9566SOL    HW240332   1.558   0.454   9.655 -1.4687  1.5220  0.2854
 9567SOL     OW40333   2.880   4.673   6.122 -0.2228 -0.2068 -0.1658
 9567SOL    HW140334   2.798   4.630   6.148 -0.0271  0.7221  2.0189
 9567SOL    HW240335   2.934   4.596   6.104  1.4021  0.2352  2.7608
 9568SOL     OW40336   0.134   3.983   8.006 -0.1518 -0.7253 -0.0768
 9568SOL    HW140337   0.092   4.003   7.922  0.8705  0.8381 -0.2147
 9568SOL    HW240338   0.216   4.031   8.011 -1.4349  1.2438  2.0223
 9569SOL     OW40339   3.319   3.282  17.686 -0.1102  0.6424  0.1735
 9569SOL    HW140340   3.275   3.271  17.601 -1.6166 -1.9922  1.3004
 9569SOL    HW240341   3.410   3.296  17.659  0.3389 -2.7204 -0.0670
 9570SOL     OW40342   1.111   2.938   1.660  0.0041 -0.0528  0.1920
 9570SOL    HW140343   1.181   2.883   1.625  0.5445  0.0869  1.0687
 9570SOL    HW240344   1.151   3.016   1.622  0.4737  1.0018  2.8720
 9571SOL     OW40345   3.757   1.811  11.158  0.3494 -0.2711 -0.0961
 9571SOL    HW140346   3.766   1.826  11.064 -0.2831  2.4215  0.2945
 9571SOL    HW240347   3.786   1.724  11.185  1.2541 -0.0071 -0.2007
   4.73994   4.73994  17.75739
